13   
Frame   0 IRC: Energy =  -286.8593760000 ; +0.0000 kcal/mol
C       -0.0510570000    0.0539560000   -0.0000000000
C       -0.0279880000   -0.1155760000   -0.0000000000
C       -0.0614410000    0.0873130000   -0.0000000000
C       -0.0540850000   -0.1549980000    0.0000000000
C       -0.2916700000    0.1037920000   -0.0000000000
N       -0.1712780000    0.0354880000   -0.0000000000
H        0.1311680000    0.0010400000    0.0000000000
H        0.1336970000    0.0235350000   -0.0000000000
H        0.1333460000    0.0003050000   -0.0000000000
H        0.1385950000    0.0051880000    0.0000000000
H        0.1442140000    0.0035550000   -0.0000000000
C       -0.1543680000    0.9794830000    0.0000000000
H        0.1308670000   -0.0230810000    0.0000000000
13   
Frame   1 IRC: Energy =  -286.8593720000 ; +0.0025 kcal/mol
C       -0.0506210000    0.0539780000   -0.0000000000
C       -0.0283130000   -0.1156900000   -0.0000000000
C       -0.0613820000    0.0873810000   -0.0000000000
C       -0.0541500000   -0.1549220000    0.0000000000
C       -0.2917310000    0.1035580000   -0.0000000000
N       -0.1712950000    0.0355500000   -0.0000000000
H        0.1311490000    0.0010570000    0.0000000000
H        0.1336440000    0.0235620000   -0.0000000000
H        0.1333310000    0.0002960000   -0.0000000000
H        0.1385800000    0.0051840000    0.0000000000
H        0.1442330000    0.0035630000   -0.0000000000
C       -0.1543100000    0.9796270000    0.0000000000
H        0.1308660000   -0.0231440000    0.0000000000
13   
Frame   2 IRC: Energy =  -286.8593140000 ; +0.0389 kcal/mol
C       -0.0495120000    0.0540430000   -0.0000000000
C       -0.0297660000   -0.1160220000   -0.0000000000
C       -0.0608180000    0.0911230000   -0.0000000000
C       -0.0562750000   -0.1547420000    0.0000000000
C       -0.2909780000    0.1017860000   -0.0000000000
N       -0.1718890000    0.0351780000   -0.0000000000
H        0.1311140000    0.0010610000    0.0000000000
H        0.1334530000    0.0231980000   -0.0000000000
H        0.1336110000    0.0003940000   -0.0000000000
H        0.1384780000    0.0050840000    0.0000000000
H        0.1441550000    0.0036700000   -0.0000000000
C       -0.1528830000    0.9792580000    0.0000000000
H        0.1313100000   -0.0240310000    0.0000000000
13   
Frame   3 IRC: Energy =  -286.8593070000 ; +0.0433 kcal/mol
C       -0.0490220000    0.0539270000   -0.0000000000
C       -0.0300880000   -0.1160740000   -0.0000000000
C       -0.0605170000    0.0914630000   -0.0000000000
C       -0.0565970000   -0.1547460000    0.0000000000
C       -0.2910060000    0.1017230000   -0.0000000000
N       -0.1721040000    0.0351260000   -0.0000000000
H        0.1310750000    0.0010610000    0.0000000000
H        0.1334100000    0.0231890000   -0.0000000000
H        0.1336140000    0.0004090000   -0.0000000000
H        0.1384550000    0.0050770000    0.0000000000
H        0.1441820000    0.0036870000   -0.0000000000
C       -0.1527270000    0.9792710000    0.0000000000
H        0.1313240000   -0.0241110000    0.0000000000
13   
Frame   4 IRC: Energy =  -286.8592530000 ; +0.0772 kcal/mol
C       -0.0481940000    0.0539670000   -0.0000000000
C       -0.0313180000   -0.1163700000   -0.0000000000
C       -0.0604380000    0.0940650000   -0.0000000000
C       -0.0580300000   -0.1544600000    0.0000000000
C       -0.2902660000    0.1000860000   -0.0000000000
N       -0.1723280000    0.0350250000   -0.0000000000
H        0.1310620000    0.0010900000    0.0000000000
H        0.1332550000    0.0229360000   -0.0000000000
H        0.1337990000    0.0004630000   -0.0000000000
H        0.1383850000    0.0050030000    0.0000000000
H        0.1441140000    0.0037510000   -0.0000000000
C       -0.1517300000    0.9792900000    0.0000000000
H        0.1316880000   -0.0248460000    0.0000000000
13   
Frame   5 IRC: Energy =  -286.8592420000 ; +0.0841 kcal/mol
C       -0.0476810000    0.0538410000   -0.0000000000
C       -0.0317430000   -0.1163610000   -0.0000000000
C       -0.0600600000    0.0946900000   -0.0000000000
C       -0.0585370000   -0.1545410000    0.0000000000
C       -0.2901480000    0.1001260000   -0.0000000000
N       -0.1726100000    0.0348600000   -0.0000000000
H        0.1310100000    0.0010750000    0.0000000000
H        0.1332200000    0.0228810000   -0.0000000000
H        0.1338380000    0.0004930000   -0.0000000000
H        0.1383610000    0.0049910000    0.0000000000
H        0.1441340000    0.0037720000   -0.0000000000
C       -0.1515080000    0.9791230000    0.0000000000
H        0.1317240000   -0.0249490000    0.0000000000
13   
Frame   6 IRC: Energy =  -286.8591900000 ; +0.1167 kcal/mol
C       -0.0471370000    0.0537980000   -0.0000000000
C       -0.0327400000   -0.1166530000   -0.0000000000
C       -0.0600610000    0.0966910000   -0.0000000000
C       -0.0596290000   -0.1541510000    0.0000000000
C       -0.2895160000    0.0984760000   -0.0000000000
N       -0.1727890000    0.0349820000   -0.0000000000
H        0.1310480000    0.0011110000    0.0000000000
H        0.1330850000    0.0227060000   -0.0000000000
H        0.1339540000    0.0005270000   -0.0000000000
H        0.1383070000    0.0049260000    0.0000000000
H        0.1440820000    0.0038180000   -0.0000000000
C       -0.1506590000    0.9793850000    0.0000000000
H        0.1320550000   -0.0256160000    0.0000000000
13   
Frame   7 IRC: Energy =  -286.8591750000 ; +0.1261 kcal/mol
C       -0.0466760000    0.0536860000   -0.0000000000
C       -0.0332590000   -0.1165790000   -0.0000000000
C       -0.0595840000    0.0975600000   -0.0000000000
C       -0.0602940000   -0.1542990000    0.0000000000
C       -0.2892500000    0.0986010000   -0.0000000000
N       -0.1731450000    0.0347280000   -0.0000000000
H        0.1309990000    0.0010790000    0.0000000000
H        0.1330630000    0.0226150000   -0.0000000000
H        0.1340280000    0.0005670000   -0.0000000000
H        0.1382830000    0.0049060000    0.0000000000
H        0.1440960000    0.0038420000   -0.0000000000
C       -0.1503720000    0.9790270000    0.0000000000
H        0.1321100000   -0.0257330000    0.0000000000
13   
Frame   8 IRC: Energy =  -286.8591310000 ; +0.1537 kcal/mol
C       -0.0461690000    0.0535480000   -0.0000000000
C       -0.0340320000   -0.1168980000   -0.0000000000
C       -0.0598310000    0.0989130000   -0.0000000000
C       -0.0610250000   -0.1538320000    0.0000000000
C       -0.2887800000    0.0970150000   -0.0000000000
N       -0.1731410000    0.0349970000   -0.0000000000
H        0.1310260000    0.0011390000    0.0000000000
H        0.1329340000    0.0225070000   -0.0000000000
H        0.1340720000    0.0005840000   -0.0000000000
H        0.1382410000    0.0048610000    0.0000000000
H        0.1440560000    0.0038690000   -0.0000000000
C       -0.1497380000    0.9796190000    0.0000000000
H        0.1323870000   -0.0263210000    0.0000000000
13   
Frame   9 IRC: Energy =  -286.8591100000 ; +0.1669 kcal/mol
C       -0.0456770000    0.0534270000   -0.0000000000
C       -0.0347030000   -0.1168030000   -0.0000000000
C       -0.0592880000    0.1000320000   -0.0000000000
C       -0.0618610000   -0.1539880000    0.0000000000
C       -0.2883760000    0.0970780000   -0.0000000000
N       -0.1735460000    0.0347030000   -0.0000000000
H        0.1309780000    0.0010990000    0.0000000000
H        0.1329100000    0.0223840000   -0.0000000000
H        0.1341720000    0.0006340000   -0.0000000000
H        0.1382130000    0.0048320000    0.0000000000
H        0.1440660000    0.0038980000   -0.0000000000
C       -0.1493630000    0.9791960000    0.0000000000
H        0.1324730000   -0.0264930000    0.0000000000
13   
Frame  10 IRC: Energy =  -286.8590710000 ; +0.1914 kcal/mol
C       -0.0452680000    0.0532400000   -0.0000000000
C       -0.0352830000   -0.1171060000   -0.0000000000
C       -0.0596360000    0.1009810000   -0.0000000000
C       -0.0623530000   -0.1535130000    0.0000000000
C       -0.2880140000    0.0956340000   -0.0000000000
N       -0.1734820000    0.0350420000   -0.0000000000
H        0.1310080000    0.0011640000    0.0000000000
H        0.1327940000    0.0223200000   -0.0000000000
H        0.1341740000    0.0006400000   -0.0000000000
H        0.1381810000    0.0047990000    0.0000000000
H        0.1440350000    0.0039130000   -0.0000000000
C       -0.1488640000    0.9798870000    0.0000000000
H        0.1327070000   -0.0270010000    0.0000000000
13   
Frame  11 IRC: Energy =  -286.8590420000 ; +0.2096 kcal/mol
C       -0.0446130000    0.0530430000   -0.0000000000
C       -0.0362400000   -0.1170190000   -0.0000000000
C       -0.0589740000    0.1023870000   -0.0000000000
C       -0.0634920000   -0.1536200000    0.0000000000
C       -0.2874460000    0.0954910000   -0.0000000000
N       -0.1739190000    0.0347300000   -0.0000000000
H        0.1309510000    0.0011260000    0.0000000000
H        0.1327560000    0.0221520000   -0.0000000000
H        0.1342980000    0.0007030000   -0.0000000000
H        0.1381370000    0.0047560000    0.0000000000
H        0.1440450000    0.0039460000   -0.0000000000
C       -0.1483350000    0.9795840000    0.0000000000
H        0.1328330000   -0.0272800000    0.0000000000
13   
Frame  12 IRC: Energy =  -286.8590040000 ; +0.2334 kcal/mol
C       -0.0441090000    0.0527950000   -0.0000000000
C       -0.0367880000   -0.1172920000   -0.0000000000
C       -0.0594590000    0.1033010000   -0.0000000000
C       -0.0638860000   -0.1532010000    0.0000000000
C       -0.2870570000    0.0942420000   -0.0000000000
N       -0.1738450000    0.0350280000   -0.0000000000
H        0.1309460000    0.0011940000    0.0000000000
H        0.1326420000    0.0220980000   -0.0000000000
H        0.1342900000    0.0007140000   -0.0000000000
H        0.1381190000    0.0047360000    0.0000000000
H        0.1440200000    0.0039570000   -0.0000000000
C       -0.1479330000    0.9801860000    0.0000000000
H        0.1330600000   -0.0277600000    0.0000000000
13   
Frame  13 IRC: Energy =  -286.8589700000 ; +0.2548 kcal/mol
C       -0.0437400000    0.0526150000   -0.0000000000
C       -0.0376800000   -0.1172080000   -0.0000000000
C       -0.0588100000    0.1047540000   -0.0000000000
C       -0.0650100000   -0.1532240000    0.0000000000
C       -0.2864170000    0.0938830000   -0.0000000000
N       -0.1743230000    0.0348360000   -0.0000000000
H        0.1309530000    0.0011500000    0.0000000000
H        0.1326110000    0.0219390000   -0.0000000000
H        0.1344050000    0.0007710000   -0.0000000000
H        0.1380790000    0.0046840000    0.0000000000
H        0.1440200000    0.0039880000   -0.0000000000
C       -0.1473120000    0.9798920000    0.0000000000
H        0.1332220000   -0.0280790000    0.0000000000
13   
Frame  14 IRC: Energy =  -286.8589360000 ; +0.2761 kcal/mol
C       -0.0430870000    0.0523000000   -0.0000000000
C       -0.0382840000   -0.1174470000   -0.0000000000
C       -0.0591990000    0.1054600000   -0.0000000000
C       -0.0654130000   -0.1528450000    0.0000000000
C       -0.2860880000    0.0928160000   -0.0000000000
N       -0.1742150000    0.0350800000   -0.0000000000
H        0.1309130000    0.0012190000    0.0000000000
H        0.1325020000    0.0218840000   -0.0000000000
H        0.1343940000    0.0007870000   -0.0000000000
H        0.1380560000    0.0046690000    0.0000000000
H        0.1440100000    0.0039950000   -0.0000000000
C       -0.1469890000    0.9805940000    0.0000000000
H        0.1334000000   -0.0285090000    0.0000000000
13   
Frame  15 IRC: Energy =  -286.8588950000 ; +0.3018 kcal/mol
C       -0.0427550000    0.0520660000   -0.0000000000
C       -0.0392750000   -0.1173620000   -0.0000000000
C       -0.0586020000    0.1071430000   -0.0000000000
C       -0.0666340000   -0.1528170000    0.0000000000
C       -0.2852850000    0.0922870000   -0.0000000000
N       -0.1747360000    0.0349280000   -0.0000000000
H        0.1309380000    0.0011740000    0.0000000000
H        0.1324660000    0.0217090000   -0.0000000000
H        0.1345110000    0.0008500000   -0.0000000000
H        0.1380210000    0.0046090000    0.0000000000
H        0.1440040000    0.0040260000   -0.0000000000
C       -0.1462650000    0.9802940000    0.0000000000
H        0.1336130000   -0.0289070000    0.0000000000
13   
Frame  16 IRC: Energy =  -286.8588610000 ; +0.3232 kcal/mol
C       -0.0420610000    0.0517080000   -0.0000000000
C       -0.0398890000   -0.1175880000   -0.0000000000
C       -0.0589710000    0.1077320000   -0.0000000000
C       -0.0670380000   -0.1524280000    0.0000000000
C       -0.2849670000    0.0912650000   -0.0000000000
N       -0.1746060000    0.0351820000   -0.0000000000
H        0.1308850000    0.0012460000    0.0000000000
H        0.1323570000    0.0216590000   -0.0000000000
H        0.1344940000    0.0008680000   -0.0000000000
H        0.1379960000    0.0045960000    0.0000000000
H        0.1440000000    0.0040290000   -0.0000000000
C       -0.1459690000    0.9810550000    0.0000000000
H        0.1337670000   -0.0293240000    0.0000000000
13   
Frame  17 IRC: Energy =  -286.8588080000 ; +0.3564 kcal/mol
C       -0.0416550000    0.0513330000   -0.0000000000
C       -0.0411260000   -0.1174960000   -0.0000000000
C       -0.0583890000    0.1097700000   -0.0000000000
C       -0.0685050000   -0.1523380000    0.0000000000
C       -0.2839450000    0.0904770000   -0.0000000000
N       -0.1751800000    0.0350480000   -0.0000000000
H        0.1309240000    0.0012020000    0.0000000000
H        0.1323070000    0.0214420000   -0.0000000000
H        0.1346250000    0.0009440000   -0.0000000000
H        0.1379570000    0.0045250000    0.0000000000
H        0.1439970000    0.0040610000   -0.0000000000
C       -0.1450710000    0.9808830000    0.0000000000
H        0.1340610000   -0.0298510000    0.0000000000
13   
Frame  18 IRC: Energy =  -286.8587680000 ; +0.3815 kcal/mol
C       -0.0412970000    0.0510060000   -0.0000000000
C       -0.0413530000   -0.1177610000   -0.0000000000
C       -0.0590510000    0.1101360000   -0.0000000000
C       -0.0689050000   -0.1517710000    0.0000000000
C       -0.2837490000    0.0891660000   -0.0000000000
N       -0.1749200000    0.0355260000   -0.0000000000
H        0.1309070000    0.0013020000    0.0000000000
H        0.1322060000    0.0214540000   -0.0000000000
H        0.1346480000    0.0009500000   -0.0000000000
H        0.1379490000    0.0045150000    0.0000000000
H        0.1440140000    0.0040550000   -0.0000000000
C       -0.1446810000    0.9817190000    0.0000000000
H        0.1342320000   -0.0302960000    0.0000000000
13   
Frame  19 IRC: Energy =  -286.8586740000 ; +0.4405 kcal/mol
C       -0.0399230000    0.0500400000   -0.0000000000
C       -0.0441850000   -0.1176030000   -0.0000000000
C       -0.0578380000    0.1136760000   -0.0000000000
C       -0.0712550000   -0.1515350000    0.0000000000
C       -0.2817440000    0.0877920000   -0.0000000000
N       -0.1759280000    0.0352520000   -0.0000000000
H        0.1308890000    0.0012330000    0.0000000000
H        0.1320790000    0.0210280000   -0.0000000000
H        0.1347220000    0.0011040000   -0.0000000000
H        0.1378710000    0.0043910000    0.0000000000
H        0.1439650000    0.0041080000   -0.0000000000
C       -0.1433240000    0.9817730000    0.0000000000
H        0.1346690000   -0.0312590000    0.0000000000
13   
Frame  20 IRC: Energy =  -286.8586240000 ; +0.4719 kcal/mol
C       -0.0393640000    0.0499390000   -0.0000000000
C       -0.0449750000   -0.1176670000   -0.0000000000
C       -0.0580430000    0.1136640000   -0.0000000000
C       -0.0716380000   -0.1506610000    0.0000000000
C       -0.2812640000    0.0867280000   -0.0000000000
N       -0.1758490000    0.0356180000   -0.0000000000
H        0.1308600000    0.0013380000    0.0000000000
H        0.1319590000    0.0210920000   -0.0000000000
H        0.1346450000    0.0011830000   -0.0000000000
H        0.1377860000    0.0043770000    0.0000000000
H        0.1439660000    0.0041270000   -0.0000000000
C       -0.1426490000    0.9818910000    0.0000000000
H        0.1345650000   -0.0316290000    0.0000000000
13   
Frame  21 IRC: Energy =  -286.8584500000 ; +0.5811 kcal/mol
C       -0.0374580000    0.0472680000   -0.0000000000
C       -0.0488300000   -0.1176680000   -0.0000000000
C       -0.0579930000    0.1200000000   -0.0000000000
C       -0.0761010000   -0.1501250000    0.0000000000
C       -0.2777170000    0.0829800000   -0.0000000000
N       -0.1767710000    0.0357990000   -0.0000000000
H        0.1308470000    0.0013120000    0.0000000000
H        0.1317350000    0.0203100000   -0.0000000000
H        0.1349840000    0.0013860000   -0.0000000000
H        0.1377700000    0.0041730000    0.0000000000
H        0.1440150000    0.0041260000   -0.0000000000
C       -0.1403260000    0.9841620000    0.0000000000
H        0.1358460000   -0.0337240000    0.0000000000
13   
Frame  22 IRC: Energy =  -286.8584180000 ; +0.6012 kcal/mol
C       -0.0377380000    0.0469190000   -0.0000000000
C       -0.0491380000   -0.1175340000   -0.0000000000
C       -0.0573820000    0.1212160000   -0.0000000000
C       -0.0769820000   -0.1502600000    0.0000000000
C       -0.2772410000    0.0827390000   -0.0000000000
N       -0.1772610000    0.0356940000   -0.0000000000
H        0.1309340000    0.0012390000    0.0000000000
H        0.1317760000    0.0201660000   -0.0000000000
H        0.1350600000    0.0014170000   -0.0000000000
H        0.1377760000    0.0041270000    0.0000000000
H        0.1440210000    0.0041320000   -0.0000000000
C       -0.1398970000    0.9840750000    0.0000000000
H        0.1360720000   -0.0339280000    0.0000000000
13   
Frame  23 IRC: Energy =  -286.8582830000 ; +0.6859 kcal/mol
C       -0.0356260000    0.0451880000   -0.0000000000
C       -0.0527560000   -0.1173740000   -0.0000000000
C       -0.0575670000    0.1240940000   -0.0000000000
C       -0.0788860000   -0.1484170000    0.0000000000
C       -0.2748710000    0.0791990000   -0.0000000000
N       -0.1774160000    0.0362860000   -0.0000000000
H        0.1308520000    0.0013910000    0.0000000000
H        0.1314660000    0.0198400000   -0.0000000000
H        0.1349830000    0.0016440000   -0.0000000000
H        0.1376980000    0.0040040000    0.0000000000
H        0.1439990000    0.0041590000   -0.0000000000
C       -0.1381700000    0.9853060000    0.0000000000
H        0.1362940000   -0.0353210000    0.0000000000
13   
Frame  24 IRC: Energy =  -286.8582260000 ; +0.7216 kcal/mol
C       -0.0350330000    0.0453170000   -0.0000000000
C       -0.0537120000   -0.1175440000   -0.0000000000
C       -0.0583920000    0.1238520000   -0.0000000000
C       -0.0787660000   -0.1479280000    0.0000000000
C       -0.2744150000    0.0784140000   -0.0000000000
N       -0.1767440000    0.0366380000   -0.0000000000
H        0.1308020000    0.0014980000    0.0000000000
H        0.1313250000    0.0198690000   -0.0000000000
H        0.1349840000    0.0016270000   -0.0000000000
H        0.1376830000    0.0039980000    0.0000000000
H        0.1439640000    0.0041360000   -0.0000000000
C       -0.1379450000    0.9856420000    0.0000000000
H        0.1362490000   -0.0355180000    0.0000000000
13   
Frame  25 IRC: Energy =  -286.8578780000 ; +0.9400 kcal/mol
C       -0.0307960000    0.0371950000   -0.0000000000
C       -0.0639760000   -0.1160260000   -0.0000000000
C       -0.0548800000    0.1344860000   -0.0000000000
C       -0.0883890000   -0.1440650000    0.0000000000
C       -0.2673490000    0.0693210000   -0.0000000000
N       -0.1789760000    0.0372640000   -0.0000000000
H        0.1309120000    0.0014810000    0.0000000000
H        0.1311090000    0.0182730000   -0.0000000000
H        0.1352840000    0.0024120000   -0.0000000000
H        0.1378210000    0.0034820000    0.0000000000
H        0.1441290000    0.0041220000   -0.0000000000
C       -0.1328750000    0.9917740000    0.0000000000
H        0.1379870000   -0.0397190000    0.0000000000
13   
Frame  26 IRC: Energy =  -286.8578590000 ; +0.9519 kcal/mol
C       -0.0312360000    0.0368120000   -0.0000000000
C       -0.0639040000   -0.1158920000   -0.0000000000
C       -0.0543980000    0.1350080000   -0.0000000000
C       -0.0890490000   -0.1438740000    0.0000000000
C       -0.2671930000    0.0689900000   -0.0000000000
N       -0.1793170000    0.0373430000   -0.0000000000
H        0.1310000000    0.0014550000    0.0000000000
H        0.1311740000    0.0182380000   -0.0000000000
H        0.1353190000    0.0024570000   -0.0000000000
H        0.1378320000    0.0034550000    0.0000000000
H        0.1441360000    0.0041200000   -0.0000000000
C       -0.1324860000    0.9917440000    0.0000000000
H        0.1381220000   -0.0398560000    0.0000000000
13   
Frame  27 IRC: Energy =  -286.8575370000 ; +1.1540 kcal/mol
C       -0.0306830000    0.0283160000   -0.0000000000
C       -0.0704410000   -0.1129970000   -0.0000000000
C       -0.0589450000    0.1461720000   -0.0000000000
C       -0.0954490000   -0.1388520000    0.0000000000
C       -0.2570090000    0.0580560000   -0.0000000000
N       -0.1789240000    0.0392890000   -0.0000000000
H        0.1310450000    0.0015900000    0.0000000000
H        0.1309970000    0.0164110000   -0.0000000000
H        0.1351080000    0.0034090000   -0.0000000000
H        0.1378300000    0.0028900000    0.0000000000
H        0.1442980000    0.0038860000   -0.0000000000
C       -0.1265700000    0.9942950000    0.0000000000
H        0.1387420000   -0.0424640000    0.0000000000
13   
Frame  28 IRC: Energy =  -286.8575190000 ; +1.1653 kcal/mol
C       -0.0310820000    0.0282960000   -0.0000000000
C       -0.0709070000   -0.1128630000   -0.0000000000
C       -0.0590870000    0.1466770000   -0.0000000000
C       -0.0955300000   -0.1387430000    0.0000000000
C       -0.2564240000    0.0577390000   -0.0000000000
N       -0.1788470000    0.0394080000   -0.0000000000
H        0.1311440000    0.0015700000    0.0000000000
H        0.1310020000    0.0163390000   -0.0000000000
H        0.1351790000    0.0034240000   -0.0000000000
H        0.1378560000    0.0028530000    0.0000000000
H        0.1442730000    0.0038610000   -0.0000000000
C       -0.1263470000    0.9939440000    0.0000000000
H        0.1387690000   -0.0425060000    0.0000000000
13   
Frame  29 IRC: Energy =  -286.8574240000 ; +1.2249 kcal/mol
C       -0.0313690000    0.0259100000   -0.0000000000
C       -0.0711760000   -0.1119410000   -0.0000000000
C       -0.0610140000    0.1496350000   -0.0000000000
C       -0.0970670000   -0.1375010000    0.0000000000
C       -0.2539560000    0.0549550000   -0.0000000000
N       -0.1788130000    0.0398420000   -0.0000000000
H        0.1310910000    0.0016080000    0.0000000000
H        0.1310140000    0.0158800000   -0.0000000000
H        0.1349950000    0.0037100000   -0.0000000000
H        0.1378010000    0.0027390000    0.0000000000
H        0.1443600000    0.0038020000   -0.0000000000
C       -0.1247410000    0.9942890000    0.0000000000
H        0.1388750000   -0.0429290000    0.0000000000
13   
Frame  30 IRC: Energy =  -286.8573940000 ; +1.2437 kcal/mol
C       -0.0314780000    0.0256750000   -0.0000000000
C       -0.0717050000   -0.1117840000   -0.0000000000
C       -0.0617150000    0.1503560000   -0.0000000000
C       -0.0972180000   -0.1373470000    0.0000000000
C       -0.2530760000    0.0544500000   -0.0000000000
N       -0.1784930000    0.0399110000   -0.0000000000
H        0.1310900000    0.0016140000    0.0000000000
H        0.1309960000    0.0157560000   -0.0000000000
H        0.1350540000    0.0037610000   -0.0000000000
H        0.1378030000    0.0027010000    0.0000000000
H        0.1443440000    0.0037650000   -0.0000000000
C       -0.1244890000    0.9941370000    0.0000000000
H        0.1388850000   -0.0429940000    0.0000000000
13   
Frame  31 IRC: Energy =  -286.8572880000 ; +1.3102 kcal/mol
C       -0.0323620000    0.0241440000   -0.0000000000
C       -0.0711510000   -0.1110560000   -0.0000000000
C       -0.0637150000    0.1530600000   -0.0000000000
C       -0.0981530000   -0.1366600000    0.0000000000
C       -0.2509950000    0.0524550000   -0.0000000000
N       -0.1785630000    0.0403390000   -0.0000000000
H        0.1311020000    0.0016210000    0.0000000000
H        0.1310260000    0.0154370000   -0.0000000000
H        0.1349190000    0.0039640000   -0.0000000000
H        0.1377150000    0.0026270000    0.0000000000
H        0.1444140000    0.0037110000   -0.0000000000
C       -0.1232020000    0.9935520000    0.0000000000
H        0.1389650000   -0.0431930000    0.0000000000
13   
Frame  32 IRC: Energy =  -286.8572340000 ; +1.3441 kcal/mol
C       -0.0328730000    0.0240270000   -0.0000000000
C       -0.0714920000   -0.1108400000   -0.0000000000
C       -0.0651400000    0.1541120000   -0.0000000000
C       -0.0979790000   -0.1365870000    0.0000000000
C       -0.2497500000    0.0518520000   -0.0000000000
N       -0.1780650000    0.0405070000   -0.0000000000
H        0.1311270000    0.0016220000    0.0000000000
H        0.1309720000    0.0152740000   -0.0000000000
H        0.1349350000    0.0039940000   -0.0000000000
H        0.1377250000    0.0025920000    0.0000000000
H        0.1443830000    0.0036710000   -0.0000000000
C       -0.1228620000    0.9930100000    0.0000000000
H        0.1390210000   -0.0432350000    0.0000000000
13   
Frame  33 IRC: Energy =  -286.8571040000 ; +1.4257 kcal/mol
C       -0.0337100000    0.0229960000   -0.0000000000
C       -0.0703990000   -0.1102980000   -0.0000000000
C       -0.0669440000    0.1567570000   -0.0000000000
C       -0.0987150000   -0.1363300000    0.0000000000
C       -0.2481240000    0.0504560000   -0.0000000000
N       -0.1782600000    0.0407860000   -0.0000000000
H        0.1311010000    0.0016190000    0.0000000000
H        0.1310160000    0.0150640000   -0.0000000000
H        0.1348580000    0.0041570000   -0.0000000000
H        0.1375810000    0.0025590000    0.0000000000
H        0.1444640000    0.0036260000   -0.0000000000
C       -0.1219150000    0.9919260000    0.0000000000
H        0.1390470000   -0.0433160000    0.0000000000
13   
Frame  34 IRC: Energy =  -286.8570020000 ; +1.4897 kcal/mol
C       -0.0345050000    0.0229280000   -0.0000000000
C       -0.0704490000   -0.1100430000   -0.0000000000
C       -0.0692900000    0.1582040000   -0.0000000000
C       -0.0980390000   -0.1363050000    0.0000000000
C       -0.2466150000    0.0496430000   -0.0000000000
N       -0.1775940000    0.0411360000   -0.0000000000
H        0.1311460000    0.0016250000    0.0000000000
H        0.1309140000    0.0148780000   -0.0000000000
H        0.1348320000    0.0041480000   -0.0000000000
H        0.1375870000    0.0025300000    0.0000000000
H        0.1444260000    0.0035830000   -0.0000000000
C       -0.1215670000    0.9910150000    0.0000000000
H        0.1391540000   -0.0433420000    0.0000000000
13   
Frame  35 IRC: Energy =  -286.8567470000 ; +1.6497 kcal/mol
C       -0.0357630000    0.0223810000   -0.0000000000
C       -0.0685570000   -0.1094710000   -0.0000000000
C       -0.0717410000    0.1624100000   -0.0000000000
C       -0.0985260000   -0.1365720000    0.0000000000
C       -0.2447500000    0.0483050000   -0.0000000000
N       -0.1777950000    0.0413580000   -0.0000000000
H        0.1311120000    0.0015980000    0.0000000000
H        0.1309490000    0.0146700000   -0.0000000000
H        0.1348880000    0.0042700000   -0.0000000000
H        0.1373330000    0.0025320000    0.0000000000
H        0.1445270000    0.0035260000   -0.0000000000
C       -0.1208100000    0.9883020000    0.0000000000
H        0.1391330000   -0.0433090000    0.0000000000
13   
Frame  36 IRC: Energy =  -286.8565230000 ; +1.7903 kcal/mol
C       -0.0370730000    0.0223890000   -0.0000000000
C       -0.0673270000   -0.1091050000   -0.0000000000
C       -0.0766850000    0.1662070000   -0.0000000000
C       -0.0969950000   -0.1369370000    0.0000000000
C       -0.2422160000    0.0470500000   -0.0000000000
N       -0.1771490000    0.0420130000   -0.0000000000
H        0.1311790000    0.0016030000    0.0000000000
H        0.1307900000    0.0144660000   -0.0000000000
H        0.1348490000    0.0040750000   -0.0000000000
H        0.1373830000    0.0025380000    0.0000000000
H        0.1444890000    0.0034980000   -0.0000000000
C       -0.1206310000    0.9854860000    0.0000000000
H        0.1393850000   -0.0432830000    0.0000000000
13   
Frame  37 IRC: Energy =  -286.8559960000 ; +2.1210 kcal/mol
C       -0.0377760000    0.0236520000   -0.0000000000
C       -0.0669510000   -0.1087050000   -0.0000000000
C       -0.0758130000    0.1686180000   -0.0000000000
C       -0.0966490000   -0.1376340000    0.0000000000
C       -0.2427990000    0.0471890000   -0.0000000000
N       -0.1769750000    0.0415530000   -0.0000000000
H        0.1311600000    0.0015310000    0.0000000000
H        0.1307480000    0.0143440000   -0.0000000000
H        0.1347650000    0.0043400000   -0.0000000000
H        0.1368140000    0.0025760000    0.0000000000
H        0.1447780000    0.0034330000   -0.0000000000
C       -0.1203360000    0.9821830000    0.0000000000
H        0.1390330000   -0.0430800000    0.0000000000
13   
Frame  38 IRC: Energy =  -286.8544980000 ; +3.0610 kcal/mol
C       -0.0407070000    0.0226770000   -0.0000000000
C       -0.0540220000   -0.1066040000   -0.0000000000
C       -0.0946170000    0.2033690000   -0.0000000000
C       -0.0899400000   -0.1412600000    0.0000000000
C       -0.2385200000    0.0370880000   -0.0000000000
N       -0.1755700000    0.0451980000   -0.0000000000
H        0.1313410000    0.0015860000    0.0000000000
H        0.1301160000    0.0137330000   -0.0000000000
H        0.1367540000    0.0020110000   -0.0000000000
H        0.1370000000    0.0030270000    0.0000000000
H        0.1442150000    0.0035670000   -0.0000000000
C       -0.1250880000    0.9572670000    0.0000000000
H        0.1390390000   -0.0416590000    0.0000000000
13   