13   
Frame   0 IRC: Energy =  -286.8593760000 ; +0.0000 kcal/mol
C        1.5496462726    0.3496525271   -0.1427244368
C        0.6532827243   -0.8791157454   -0.0374520751
C       -0.6199106274   -0.4064444258   -0.8297216664
C       -1.1644394237    0.1430031707    0.5109342505
C       -0.4681685773    1.0529227793   -0.6025780963
N        0.9081933687    1.4306131125   -0.4105398952
H        2.6086821006    0.3597578582    0.1064054818
H        1.1110930083   -1.8548523534   -0.2086005971
H       -1.1482427887   -0.9240913608   -1.6236226767
H       -2.1766639571    0.3938210758    0.8094396983
H       -1.1273601757    1.7761446239   -1.0697503781
C       -0.1797244718   -0.6564017544    1.2228456146
H        0.0536125476   -0.7850095071    2.2753647762
13   
Frame   1 IRC: Energy =  -286.8593720000 ; +0.0025 kcal/mol
C        1.5500922722    0.3500850487   -0.1428163892
C        0.6531601698   -0.8790674774   -0.0371893244
C       -0.6199835460   -0.4063500481   -0.8297087973
C       -1.1643539993    0.1432460615    0.5107848652
C       -0.4680179876    1.0529057169   -0.6026261029
N        0.9081374094    1.4303974487   -0.4106972201
H        2.6084627880    0.3598852920    0.1061642188
H        1.1112055014   -1.8547585939   -0.2084759971
H       -1.1482619412   -0.9242122968   -1.6233358653
H       -2.1766639162    0.3940592867    0.8095804051
H       -1.1274175499    1.7761052902   -1.0699215995
C       -0.1794404234   -0.6564723412    1.2227662905
H        0.0530812230   -0.7858233874    2.2754755163
13   
Frame   2 IRC: Energy =  -286.8593140000 ; +0.0389 kcal/mol
C        1.5506561725    0.3520273038   -0.1450902281
C        0.6550585616   -0.8771421679   -0.0358011727
C       -0.6189455801   -0.4062989826   -0.8280180672
C       -1.1622372653    0.1472437930    0.5127123124
C       -0.4677967757    1.0535162732   -0.6043400143
N        0.9086196693    1.4321725193   -0.4153139585
H        2.6102343726    0.3636828143    0.1019686621
H        1.1135849028   -1.8527911673   -0.2053450220
H       -1.1494287160   -0.9273840129   -1.6182056943
H       -2.1740509108    0.3987473495    0.8117254008
H       -1.1277071071    1.7748362550   -1.0735240986
C       -0.1787849243   -0.6537643518    1.2235731264
H        0.0407976005   -0.8048456257    2.2756587539
13   
Frame   3 IRC: Energy =  -286.8593070000 ; +0.0433 kcal/mol
C        1.5512191093    0.3523883141   -0.1451505678
C        0.6551147107   -0.8767929276   -0.0358598627
C       -0.6190192991   -0.4062020314   -0.8280500311
C       -1.1621254944    0.1474785041    0.5130562790
C       -0.4680655801    1.0530267996   -0.6044338296
N        0.9091071115    1.4322017419   -0.4155468640
H        2.6099175756    0.3639625077    0.1015665452
H        1.1138630632   -1.8528427591   -0.2051506358
H       -1.1494317370   -0.9275390117   -1.6177286792
H       -2.1736717803    0.3990313734    0.8118086826
H       -1.1278337507    1.7749023234   -1.0738764284
C       -0.1790116973   -0.6534010276    1.2237561234
H        0.0399377685   -0.8062138070    2.2756092683
13   
Frame   4 IRC: Energy =  -286.8592530000 ; +0.0772 kcal/mol
C        1.5513685136    0.3539429244   -0.1469812690
C        0.6563870432   -0.8756927611   -0.0344249027
C       -0.6182395293   -0.4062056447   -0.8266822837
C       -1.1605393507    0.1505351967    0.5139482770
C       -0.4674754319    1.0540201570   -0.6056287499
N        0.9088889679    1.4332152397   -0.4189075653
H        2.6114348912    0.3666129534    0.0986126899
H        1.1153593058   -1.8512394029   -0.2027339595
H       -1.1502657374   -0.9298306313   -1.6141418860
H       -2.1721449762    0.4023889044    0.8135517002
H       -1.1279870224    1.7737663683   -1.0763353981
C       -0.1776852309   -0.6515186631    1.2241561040
H        0.0308985572   -0.8199946409    2.2755672429
13   
Frame   5 IRC: Energy =  -286.8592420000 ; +0.0841 kcal/mol
C        1.5518352019    0.3543233326   -0.1471120699
C        0.6566041661   -0.8751949567   -0.0346791859
C       -0.6181627989   -0.4062160382   -0.8266046387
C       -1.1603274952    0.1508348073    0.5146368658
C       -0.4677840447    1.0535393854   -0.6057533833
N        0.9095188230    1.4333432328   -0.4193109566
H        2.6112241232    0.3670454791    0.0980609569
H        1.1157424264   -1.8512853594   -0.2024111527
H       -1.1503393904   -0.9301168926   -1.6135424748
H       -2.1715426563    0.4027927849    0.8136668402
H       -1.1281576392    1.7738289916   -1.0768526128
C       -0.1781854956   -0.6508119235    1.2245232363
H        0.0295747796   -0.8220828432    2.2753785756
13   
Frame   6 IRC: Energy =  -286.8591900000 ; +0.1167 kcal/mol
C        1.5521723058    0.3554463897   -0.1485983543
C        0.6575222541   -0.8744133086   -0.0332091451
C       -0.6176674415   -0.4061444771   -0.8255134665
C       -1.1590604603    0.1534294280    0.5150008461
C       -0.4672562193    1.0543902750   -0.6067006317
N        0.9090420607    1.4342517905   -0.4220460744
H        2.6124078994    0.3691205880    0.0957051172
H        1.1168353004   -1.8499427856   -0.2003813366
H       -1.1509336441   -0.9318990881   -1.6106550338
H       -2.1704969938    0.4054542331    0.8151765641
H       -1.1282500304    1.7728136693   -1.0787403941
C       -0.1765195635   -0.6493219497    1.2247332860
H        0.0222045325   -0.8331847645    2.2752286233
13   
Frame   7 IRC: Energy =  -286.8591750000 ; +0.1261 kcal/mol
C        1.5526155736    0.3557575910   -0.1487456664
C        0.6578659061   -0.8737914823   -0.0336708715
C       -0.6174517468   -0.4062706081   -0.8253293263
C       -1.1587848423    0.1537566722    0.5159819251
C       -0.4675567385    1.0539437287   -0.6068171255
N        0.9097044975    1.4344993812   -0.4225870875
H        2.6122608508    0.3696488192    0.0950570892
H        1.1172874685   -1.8500068456   -0.1999669343
H       -1.1510672809   -0.9322809484   -1.6100143140
H       -2.1697146728    0.4059124540    0.8153022852
H       -1.1284640509    1.7728843235   -1.0793717980
C       -0.1772650039   -0.6483074561    1.2252750782
H        0.0205700396   -0.8357456291    2.2748867458
13   
Frame   8 IRC: Energy =  -286.8591310000 ; +0.1537 kcal/mol
C        1.5527517098    0.3567889700   -0.1500302234
C        0.6584736602   -0.8733748534   -0.0320936927
C       -0.6172163288   -0.4060987388   -0.8245129214
C       -1.1578032776    0.1559100293    0.5158062543
C       -0.4670758809    1.0547236126   -0.6075879440
N        0.9091696531    1.4350314207   -0.4246647327
H        2.6132755671    0.3712027162    0.0932823357
H        1.1180076814   -1.8488451913   -0.1983296475
H       -1.1514562052   -0.9336087856   -1.6077428044
H       -2.1691605138    0.4079883292    0.8165950729
H       -1.1284715682    1.7719596732   -1.0807230543
C       -0.1752800655   -0.6473295839    1.2252279805
H        0.0147855684   -0.8443475983    2.2747733771
13   
Frame   9 IRC: Energy =  -286.8591100000 ; +0.1669 kcal/mol
C        1.5531982780    0.3571453034   -0.1502743409
C        0.6589367748   -0.8726447637   -0.0325936000
C       -0.6168968546   -0.4062828846   -0.8241940127
C       -1.1574238127    0.1563963351    0.5169597022
C       -0.4673278825    1.0543437727   -0.6077388960
N        0.9098128208    1.4353609609   -0.4254238605
H        2.6132238531    0.3718855506    0.0924596716
H        1.1185448190   -1.8488532484   -0.1977430848
H       -1.1516517438   -0.9341373404   -1.6069410774
H       -2.1682253555    0.4086045566    0.8168142441
H       -1.1287215607    1.7719757789   -1.0815133409
C       -0.1760386902   -0.6460247672    1.2258925486
H        0.0125693543   -0.8477692539    2.2742960466
13   
Frame  10 IRC: Energy =  -286.8590710000 ; +0.1914 kcal/mol
C        1.5533076747    0.3579963472   -0.1513417665
C        0.6593333632   -0.8724207242   -0.0310750950
C       -0.6168247337   -0.4060854754   -0.8236007546
C       -1.1566511681    0.1581726802    0.5165471855
C       -0.4669504139    1.0549950888   -0.6083692878
N        0.9092981991    1.4357394551   -0.4270343370
H        2.6140413862    0.3730714921    0.0910920025
H        1.1190341118   -1.8478763230   -0.1964188268
H       -1.1518975589   -0.9351309129   -1.6051236411
H       -2.1679458076    0.4102377999    0.8179030326
H       -1.1286879319    1.7711691056   -1.0825031529
C       -0.1740385438   -0.6453486659    1.2257305394
H        0.0079814228   -0.8545198677    2.2741941017
13   
Frame  11 IRC: Energy =  -286.8590420000 ; +0.2096 kcal/mol
C        1.5537487355    0.3585308441   -0.1517743169
C        0.6599565821   -0.8715733757   -0.0315275991
C       -0.6164007453   -0.4062810229   -0.8231080897
C       -1.1561905362    0.1589784633    0.5178371028
C       -0.4671190800    1.0546618957   -0.6085861838
N        0.9099343526    1.4361146869   -0.4281066185
H        2.6141280985    0.3739855248    0.0900003404
H        1.1196821960   -1.8477653892   -0.1955554023
H       -1.1521666812   -0.9358732504   -1.6040380128
H       -2.1667965784    0.4111062426    0.8182874929
H       -1.1289938937    1.7710907445   -1.0835286101
C       -0.1746233182   -0.6437006514    1.2265991685
H        0.0048408682   -0.8592747122    2.2735007284
13   
Frame  12 IRC: Energy =  -286.8590040000 ; +0.2334 kcal/mol
C        1.5537393425    0.3594528943   -0.1527973773
C        0.6602935267   -0.8713464266   -0.0301145803
C       -0.6163772413   -0.4061308698   -0.8225863040
C       -1.1553625644    0.1605242924    0.5174943001
C       -0.4668942746    1.0552151778   -0.6091624055
N        0.9096470371    1.4363121236   -0.4294928019
H        2.6148698310    0.3750406852    0.0887798163
H        1.1201045248   -1.8469207787   -0.1943369437
H       -1.1523482437   -0.9367335799   -1.6023970346
H       -2.1665930524    0.4125608201    0.8192892485
H       -1.1289615603    1.7703402751   -1.0844002516
C       -0.1727896102   -0.6429110089    1.2263596825
H        0.0006722847   -0.8654036046    2.2733646515
13   
Frame  13 IRC: Energy =  -286.8589700000 ; +0.2548 kcal/mol
C        1.5543738077    0.3597272815   -0.1532175124
C        0.6609062160   -0.8705204646   -0.0304030474
C       -0.6159783333   -0.4063435630   -0.8220530620
C       -1.1548810673    0.1614662646    0.5186444806
C       -0.4669855310    1.0550106787   -0.6093947176
N        0.9099575017    1.4369510247   -0.4307214322
H        2.6149889471    0.3759873443    0.0876369078
H        1.1207316438   -1.8467332607   -0.1933843039
H       -1.1526087249   -0.9375056086   -1.6012470118
H       -2.1654914446    0.4134884809    0.8197584658
H       -1.1292379894    1.7701698998   -1.0854236150
C       -0.1730600769   -0.6412232009    1.2271885292
H       -0.0027149491   -0.8704748766    2.2726163191
13   
Frame  14 IRC: Energy =  -286.8589360000 ; +0.2761 kcal/mol
C        1.5542654133    0.3606936843   -0.1541297691
C        0.6611730802   -0.8703644521   -0.0292037733
C       -0.6159720909   -0.4061800931   -0.8216287550
C       -1.1542322907    0.1627619409    0.5183358381
C       -0.4668303981    1.0553771557   -0.6098593585
N        0.9098765376    1.4369357380   -0.4317959236
H        2.6155902726    0.3768390523    0.0866439287
H        1.1210512426   -1.8460394270   -0.1923587900
H       -1.1527423703   -0.9382015330   -1.5999119996
H       -2.1653270677    0.4146636842    0.8205938504
H       -1.1292401220    1.7695636221   -1.0861385191
C       -0.1714236498   -0.6405284228    1.2270779426
H       -0.0061885567   -0.8755209494    2.2723753283
13   
Frame  15 IRC: Energy =  -286.8588950000 ; +0.3018 kcal/mol
C        1.5549545971    0.3609749700   -0.1546514300
C        0.6618601541   -0.8694525364   -0.0293911262
C       -0.6155584979   -0.4064399091   -0.8209872748
C       -1.1536054767    0.1638944086    0.5195119313
C       -0.4669024345    1.0552649581   -0.6101413641
N        0.9100788244    1.4376802836   -0.4332510439
H        2.6158033810    0.3779193515    0.0853363621
H        1.1217290081   -1.8457778879   -0.1912096406
H       -1.1530108742   -0.9390788353   -1.5985654396
H       -2.1641561237    0.4157528307    0.8212005778
H       -1.1295156814    1.7692744127   -1.0872683701
C       -0.1714838999   -0.6385258134    1.2279150406
H       -0.0101929765   -0.8814862329    2.2715017778
13   
Frame  16 IRC: Energy =  -286.8588610000 ; +0.3232 kcal/mol
C        1.5548113861    0.3619320714   -0.1555131008
C        0.6620797491   -0.8693514960   -0.0281833645
C       -0.6155743978   -0.4062740377   -0.8205993715
C       -1.1530328152    0.1650786905    0.5192003348
C       -0.4667841656    1.0555435394   -0.6105564411
N        0.9100741285    1.4375862825   -0.4341858008
H        2.6163263973    0.3786739183    0.0844459291
H        1.1219703795   -1.8451121112   -0.1902652624
H       -1.1531148385   -0.9396891049   -1.5973746477
H       -2.1640341966    0.4168074461    0.8219639177
H       -1.1295329672    1.7687323388   -1.0879059756
C       -0.1698047242   -0.6378980296    1.2278353228
H       -0.0133839355   -0.8860295077    2.2711384602
13   
Frame  17 IRC: Energy =  -286.8588080000 ; +0.3564 kcal/mol
C        1.5556137341    0.3623326681   -0.1562440622
C        0.6628795626   -0.8683047870   -0.0283411240
C       -0.6151308779   -0.4065650385   -0.8198674889
C       -1.1522355597    0.1665574852    0.5204407363
C       -0.4668511879    1.0555201096   -0.6109236585
N        0.9102526770    1.4384610482   -0.4359286027
H        2.6167057673    0.3799687225    0.0828886348
H        1.1227810040   -1.8448122863   -0.1888128277
H       -1.1534372074   -0.9407913589   -1.5957786598
H       -2.1627101199    0.4181295468    0.8227876874
H       -1.1298914307    1.7683127912   -1.0892522723
C       -0.1696533041   -0.6353737006    1.2288769152
H       -0.0183230572   -0.8934352002    2.2701547225
13   
Frame  18 IRC: Energy =  -286.8587680000 ; +0.3815 kcal/mol
C        1.5557896545    0.3630361227   -0.1573472624
C        0.6630779210   -0.8684953390   -0.0261379009
C       -0.6151518412   -0.4062764920   -0.8197309830
C       -1.1517778137    0.1679373753    0.5198346454
C       -0.4665985546    1.0560149653   -0.6113962569
N        0.9102403506    1.4388183945   -0.4367166441
H        2.6169901451    0.3806852141    0.0820341153
H        1.1229167342   -1.8440876800   -0.1879482814
H       -1.1537700618   -0.9416144962   -1.5949332065
H       -2.1630495358    0.4192488034    0.8236882780
H       -1.1300526018    1.7677901297   -1.0898926160
C       -0.1671393796   -0.6351784759    1.2286145291
H       -0.0214750171   -0.8978785219    2.2699315834
13   
Frame  19 IRC: Energy =  -286.8586740000 ; +0.4405 kcal/mol
C        1.5563982400    0.3642831295   -0.1583807940
C        0.6643423419   -0.8665091146   -0.0270956716
C       -0.6145140488   -0.4068920398   -0.8178480146
C       -1.1502598407    0.1702592177    0.5219344177
C       -0.4668696314    1.0555680546   -0.6118352690
N        0.9103875975    1.4392770076   -0.4400020747
H        2.6178808042    0.3828582753    0.0794033304
H        1.1241437866   -1.8433296671   -0.1852221878
H       -1.1536666740   -0.9428868338   -1.5915150267
H       -2.1604809300    0.4214354306    0.8250539934
H       -1.1302142590    1.7667302740   -1.0918701805
C       -0.1668745115   -0.6303099863    1.2302160125
H       -0.0302728749   -0.9104837477    2.2671614647
13   
Frame  20 IRC: Energy =  -286.8586240000 ; +0.4719 kcal/mol
C        1.5566375108    0.3646051878   -0.1592357769
C        0.6648880378   -0.8663316407   -0.0235508475
C       -0.6154502181   -0.4073820789   -0.8158051843
C       -1.1494457467    0.1709533077    0.5217892179
C       -0.4667006667    1.0559117764   -0.6119726208
N        0.9102930076    1.4393742743   -0.4409174005
H        2.6177676921    0.3836005396    0.0784403676
H        1.1238056007   -1.8418220643   -0.1844237656
H       -1.1536168881   -0.9432593003   -1.5905672502
H       -2.1595978222    0.4224048794    0.8253630985
H       -1.1303295227    1.7664544236   -1.0926394225
C       -0.1642817802   -0.6300878020    1.2291444087
H       -0.0339692043   -0.9144215026    2.2643751757
13   
Frame  21 IRC: Energy =  -286.8584500000 ; +0.5811 kcal/mol
C        1.5577165761    0.3674536447   -0.1622427889
C        0.6665962733   -0.8641302651   -0.0247179341
C       -0.6134543661   -0.4073879878   -0.8159174910
C       -1.1471856872    0.1764560885    0.5238565413
C       -0.4670035375    1.0560070825   -0.6134609528
N        0.9109067969    1.4409950775   -0.4454847906
H        2.6198515709    0.3870275549    0.0741033633
H        1.1263228098   -1.8415628652   -0.1795875812
H       -1.1545329496   -0.9469410191   -1.5862652322
H       -2.1574718983    0.4266805842    0.8291118150
H       -1.1314879762    1.7644470881   -1.0960198634
C       -0.1611267695   -0.6214162777    1.2334782985
H       -0.0491308426   -0.9376287054    2.2631466162
13   
Frame  22 IRC: Energy =  -286.8584180000 ; +0.6012 kcal/mol
C        1.5583707737    0.3671913709   -0.1621909137
C        0.6668881837   -0.8634978668   -0.0261301485
C       -0.6130151307   -0.4073506102   -0.8162372783
C       -1.1471111360    0.1770363588    0.5246706260
C       -0.4674396864    1.0555090826   -0.6136151234
N        0.9111123393    1.4418069729   -0.4461558530
H        2.6199333082    0.3874636995    0.0735508301
H        1.1268862736   -1.8419910266   -0.1790212032
H       -1.1546009744   -0.9473347875   -1.5857005056
H       -2.1568381990    0.4270215108    0.8294392960
H       -1.1316461803    1.7643211228   -1.0964547919
C       -0.1618512613   -0.6197925818    1.2345557292
H       -0.0506883105   -0.9403832455    2.2632893362
13   
Frame  23 IRC: Energy =  -286.8582830000 ; +0.6859 kcal/mol
C        1.5587610302    0.3691818587   -0.1647183493
C        0.6682882700   -0.8623165832   -0.0217433453
C       -0.6133990547   -0.4083709334   -0.8125808378
C       -1.1449544474    0.1805548820    0.5252791378
C       -0.4669905539    1.0559662196   -0.6138631999
N        0.9107411694    1.4417244047   -0.4497660712
H        2.6208587986    0.3901747876    0.0701719052
H        1.1276331854   -1.8393300857   -0.1754486129
H       -1.1541529342   -0.9492677864   -1.5819334407
H       -2.1547861221    0.4307548715    0.8322282770
H       -1.1318866800    1.7623298324   -1.0985325859
C       -0.1566070710   -0.6154123848    1.2344017678
H       -0.0635055904   -0.9559890832    2.2565053551
13   
Frame  24 IRC: Energy =  -286.8582260000 ; +0.7216 kcal/mol
C        1.5581611355    0.3702246625   -0.1655983642
C        0.6680479285   -0.8630054030   -0.0193811130
C       -0.6132325108   -0.4087812103   -0.8114676611
C       -1.1445654716    0.1812709501    0.5243115853
C       -0.4655012004    1.0577880611   -0.6138856573
N        0.9092957693    1.4406733629   -0.4502828650
H        2.6214409039    0.3904047850    0.0698400609
H        1.1272792391   -1.8381240318   -0.1749149434
H       -1.1543252300   -0.9497528964   -1.5817447188
H       -2.1553344957    0.4315272386    0.8329059606
H       -1.1317881748    1.7616727104   -1.0986025506
C       -0.1539688345   -0.6158972457    1.2334366894
H       -0.0655090585   -0.9580009834    2.2553835771
13   
Frame  25 IRC: Energy =  -286.8578780000 ; +0.9400 kcal/mol
C        1.5618967914    0.3741558280   -0.1711604274
C        0.6726998353   -0.8567264859   -0.0187222901
C       -0.6122527961   -0.4094639598   -0.8066647251
C       -1.1389302929    0.1915513207    0.5289323679
C       -0.4674212057    1.0568618660   -0.6162484443
N        0.9126910003    1.4445538536   -0.4597016534
H        2.6241714910    0.3964206105    0.0636771440
H        1.1294588381   -1.8365137872   -0.1646543148
H       -1.1609533979   -0.9553818476   -1.5668630750
H       -2.1517136699    0.4313227979    0.8330861328
H       -1.1315399742    1.7606517933   -1.1061684802
C       -0.1425018546   -0.5927784564    1.2429402197
H       -0.0956047647   -1.0046535331    2.2415475459
13   
Frame  26 IRC: Energy =  -286.8578590000 ; +0.9519 kcal/mol
C        1.5624171870    0.3736852870   -0.1711439194
C        0.6729280986   -0.8561477357   -0.0189828955
C       -0.6122339994   -0.4093706403   -0.8065129353
C       -1.1388479066    0.1919166531    0.5293571285
C       -0.4680860890    1.0564161749   -0.6164473953
N        0.9130752491    1.4453332784   -0.4601283092
H        2.6241178183    0.3967047255    0.0633988114
H        1.1296738730   -1.8367024453   -0.1642834084
H       -1.1611898197   -0.9555611640   -1.5662417421
H       -2.1512943636    0.4312307941    0.8329811325
H       -1.1314606687    1.7606333625   -1.1064463327
C       -0.1424002781   -0.5916254117    1.2432659534
H       -0.0966991010   -1.0065128786    2.2411839121
13   
Frame  27 IRC: Energy =  -286.8575370000 ; +1.1540 kcal/mol
C        1.5615431159    0.3782155939   -0.1755856723
C        0.6753920554   -0.8542893845   -0.0168965599
C       -0.6124642670   -0.4148567508   -0.8024129820
C       -1.1320244621    0.2024700115    0.5335713365
C       -0.4696870267    1.0530083429   -0.6190377882
N        0.9101790392    1.4454374822   -0.4698548167
H        2.6215244873    0.4049235058    0.0682838996
H        1.1325626452   -1.8340387299   -0.1594665553
H       -1.1545347776   -0.9614789649   -1.5674500900
H       -2.1367631548    0.4557495620    0.8536519632
H       -1.1391094808    1.7481179913   -1.1138501260
C       -0.1290578635   -0.5758037729    1.2484148686
H       -0.1275603106   -1.0474548864    2.2206325226
13   
Frame  28 IRC: Energy =  -286.8575190000 ; +1.1653 kcal/mol
C        1.5617012752    0.3781789454   -0.1756982252
C        0.6752455009   -0.8543838689   -0.0168175041
C       -0.6120119694   -0.4153984010   -0.8019514443
C       -1.1316480031    0.2028559321    0.5336420584
C       -0.4688544723    1.0538832108   -0.6190835512
N        0.9088798740    1.4454045627   -0.4704518759
H        2.6215598492    0.4051778311    0.0685274868
H        1.1326132018   -1.8337799049   -0.1592764716
H       -1.1544752352   -0.9619003152   -1.5678254602
H       -2.1364563054    0.4567985692    0.8545933648
H       -1.1394161260    1.7475016335   -1.1140845896
C       -0.1283659788   -0.5753414346    1.2486419213
H       -0.1287716110   -1.0489967603    2.2197842906
13   
Frame  29 IRC: Energy =  -286.8574240000 ; +1.2249 kcal/mol
C        1.5610278861    0.3791140609   -0.1763902511
C        0.6759566580   -0.8539366590   -0.0167737908
C       -0.6127791537   -0.4167252980   -0.8019304503
C       -1.1301722661    0.2053456239    0.5351887758
C       -0.4710353007    1.0508394451   -0.6198929747
N        0.9092860921    1.4457276936   -0.4724783709
H        2.6199314188    0.4076003806    0.0704856281
H        1.1338205246   -1.8335731290   -0.1587477560
H       -1.1506782293   -0.9631931445   -1.5698760427
H       -2.1307257534    0.4657597496    0.8619906701
H       -1.1421919209    1.7435131607   -1.1159805803
C       -0.1262362470   -0.5723277587    1.2496375337
H       -0.1362037085   -1.0581441252    2.2147676091
13   
Frame  30 IRC: Energy =  -286.8573940000 ; +1.2437 kcal/mol
C        1.5604743975    0.3796855489   -0.1767233707
C        0.6758265022   -0.8541752169   -0.0166422857
C       -0.6123070424   -0.4174934784   -0.8014950021
C       -1.1296608894    0.2059632776    0.5352944956
C       -0.4703056740    1.0515738932   -0.6200683102
N        0.9080181002    1.4451170320   -0.4731134730
H        2.6198840251    0.4081227726    0.0711309104
H        1.1340072287   -1.8332415528   -0.1586153766
H       -1.1499213925   -0.9638268604   -1.5709786467
H       -2.1296585589    0.4683465145    0.8642352190
H       -1.1429349256    1.7422190250   -1.1163480917
C       -0.1253069559   -0.5719267735    1.2498134203
H       -0.1381148151   -1.0603641818    2.2135105112
13   
Frame  31 IRC: Energy =  -286.8572880000 ; +1.3102 kcal/mol
C        1.5599445006    0.3800187533   -0.1767742797
C        0.6760817817   -0.8540312593   -0.0169640264
C       -0.6128988208   -0.4187943460   -0.8021282154
C       -1.1286665297    0.2077116561    0.5367188072
C       -0.4724525603    1.0485786941   -0.6207250264
N        0.9078370844    1.4456386346   -0.4743815144
H        2.6179936079    0.4101986919    0.0728935476
H        1.1353970100   -1.8332990425   -0.1586012278
H       -1.1454293279   -0.9650697108   -1.5743884958
H       -2.1237627806    0.4776817077    0.8720288507
H       -1.1456941980    1.7384702076   -1.1177451786
C       -0.1246806718   -0.5707715207    1.2500952990
H       -0.1436690955   -1.0663324660    2.2099714599
13   
Frame  32 IRC: Energy =  -286.8572340000 ; +1.3441 kcal/mol
C        1.5590757433    0.3805253887   -0.1770158438
C        0.6760088074   -0.8547495118   -0.0167518784
C       -0.6124722368   -0.4199608597   -0.8020531564
C       -1.1280555013    0.2084026344    0.5366986638
C       -0.4713613723    1.0494330265   -0.6208325116
N        0.9057822797    1.4450070956   -0.4750347103
H        2.6178446799    0.4108720487    0.0737393810
H        1.1356543433   -1.8327087137   -0.1585504642
H       -1.1438424824   -0.9659068366   -1.5763614977
H       -2.1221361429    0.4817884846    0.8756484720
H       -1.1468514842    1.7366874714   -1.1181508955
C       -0.1237877709   -0.5708643415    1.2498428026
H       -0.1458588629   -1.0685258865    2.2088216386
13   
Frame  33 IRC: Energy =  -286.8571040000 ; +1.4257 kcal/mol
C        1.5584646699    0.3807841654   -0.1766718600
C        0.6759571506   -0.8545541325   -0.0174919635
C       -0.6129334254   -0.4209502711   -0.8032589211
C       -1.1275072277    0.2096346135    0.5382392849
C       -0.4740647297    1.0460267846   -0.6214546397
N        0.9059836970    1.4455824068   -0.4754382152
H        2.6158711029    0.4127424681    0.0750299226
H        1.1373460773   -1.8331716610   -0.1586648531
H       -1.1389728199   -0.9672612169   -1.5804112928
H       -2.1158374350    0.4911031279    0.8835711512
H       -1.1494420393    1.7333234769   -1.1192421270
C       -0.1246073780   -0.5708941860    1.2496773289
H       -0.1502576427   -1.0723655758    2.2061161850
13   
Frame  34 IRC: Energy =  -286.8570020000 ; +1.4897 kcal/mol
C        1.5572703391    0.3812804563   -0.1767075741
C        0.6759405903   -0.8556807074   -0.0171194177
C       -0.6125257360   -0.4225937967   -0.8037603327
C       -1.1268746827    0.2105111686    0.5378949502
C       -0.4727867590    1.0469789609   -0.6215149772
N        0.9031295212    1.4448437129   -0.4758941599
H        2.6154340102    0.4136655515    0.0759041835
H        1.1377824390   -1.8323039372   -0.1585590969
H       -1.1362456618   -0.9685490349   -1.5835473260
H       -2.1133112962    0.4974037166    0.8892820293
H       -1.1511216682    1.7308926791   -1.1197035410
C       -0.1237048449   -0.5719134697    1.2486609059
H       -0.1529862510   -1.0745353001    2.2050643566
13   
Frame  35 IRC: Energy =  -286.8567470000 ; +1.6497 kcal/mol
C        1.5561274659    0.3818718048   -0.1757771988
C        0.6754556319   -0.8557244488   -0.0186178807
C       -0.6123965575   -0.4238068350   -0.8063725846
C       -1.1264483096    0.2120228223    0.5399381127
C       -0.4763338516    1.0425357370   -0.6222320091
N        0.9026256830    1.4458277230   -0.4752137734
H        2.6131269009    0.4159575433    0.0768170459
H        1.1404447936   -1.8332263186   -0.1582788894
H       -1.1292104099   -0.9712941317   -1.5900421121
H       -2.1038809177    0.5106954797    0.9013163983
H       -1.1545357405    1.7265518341   -1.1209183540
C       -0.1267194778   -0.5737111767    1.2474857656
H       -0.1582552107   -1.0777000334    2.2018954796
13   
Frame  36 IRC: Energy =  -286.8565230000 ; +1.7903 kcal/mol
C        1.5546056292    0.3823545163   -0.1754249054
C        0.6760711207   -0.8571087927   -0.0180965511
C       -0.6109894302   -0.4263026390   -0.8093373776
C       -1.1256895681    0.2133636381    0.5398114748
C       -0.4757578716    1.0431699307   -0.6221816295
N        0.8988301121    1.4450832473   -0.4748510182
H        2.6121239249    0.4171309346    0.0773095512
H        1.1411341326   -1.8321435578   -0.1577017738
H       -1.1248815932   -0.9735751284   -1.5946902015
H       -2.0998643902    0.5205856405    0.9108117529
H       -1.1570053525    1.7234594052   -1.1215959210
C       -0.1266616217   -0.5761932915    1.2447843461
H       -0.1619150919   -1.0798239032    2.2011622530
13   
Frame  37 IRC: Energy =  -286.8559960000 ; +2.1210 kcal/mol
C        1.5529163701    0.3832028291   -0.1732668095
C        0.6740791136   -0.8579903137   -0.0214929471
C       -0.6127226449   -0.4261653256   -0.8112444829
C       -1.1269229639    0.2128899958    0.5401536152
C       -0.4784343105    1.0395035094   -0.6232991557
N        0.8981633424    1.4469996316   -0.4711756234
H        2.6107058257    0.4200859229    0.0768501298
H        1.1452325252   -1.8337900572   -0.1552073329
H       -1.1146007434   -0.9785177569   -1.6020254564
H       -2.0849438039    0.5377928092    0.9280451515
H       -1.1622665142    1.7177952645   -1.1233429140
C       -0.1327079349   -0.5810562678    1.2406989739
H       -0.1684982613   -1.0807502413    2.1953068516
13   
Frame  38 IRC: Energy =  -286.8544980000 ; +3.0610 kcal/mol
C        1.5500514397    0.3860537446   -0.1698214900
C        0.6749834685   -0.8601856042   -0.0242566257
C       -0.5981310705   -0.4320764714   -0.8338979744
C       -1.1210688790    0.2359820422    0.5492169211
C       -0.4831807343    1.0336139401   -0.6187275605
N        0.8914046187    1.4490236673   -0.4636156547
H        2.6091829723    0.4234368022    0.0740651669
H        1.1487746103   -1.8342904090   -0.1475293139
H       -1.1040900605   -0.9944457309   -1.6170610528
H       -2.0736570115    0.5638028039    0.9625709763
H       -1.1690600162    1.7050414467   -1.1219389730
C       -0.1472880080   -0.5944490827    1.2241713224
H       -0.1779213296   -1.0815071488    2.1868242583
13   