13   
Frame   0 IRC: Energy =  -286.8593760000 ; +0.0000 kcal/mol
C        1.5496462726    0.3496525271   -0.1427244368
C        0.6532827243   -0.8791157454   -0.0374520751
C       -0.6199106274   -0.4064444258   -0.8297216664
C       -1.1644394237    0.1430031707    0.5109342505
C       -0.4681685773    1.0529227793   -0.6025780963
N        0.9081933687    1.4306131125   -0.4105398952
H        2.6086821006    0.3597578582    0.1064054818
H        1.1110930083   -1.8548523534   -0.2086005971
H       -1.1482427887   -0.9240913608   -1.6236226767
H       -2.1766639571    0.3938210758    0.8094396983
H       -1.1273601757    1.7761446239   -1.0697503781
C       -0.1797244718   -0.6564017544    1.2228456146
H        0.0536125476   -0.7850095071    2.2753647762
13   
Frame   1 IRC: Energy =  -286.8585204220 ; +0.5369 kcal/mol
C        1.5572798521    0.3663008049   -0.1610257780
C        0.6659049088   -0.8650212153   -0.0242455858
C       -0.6142621359   -0.4073855963   -0.8158720378
C       -1.1481003882    0.1742289793    0.5230198453
C       -0.4668809583    1.0559685098   -0.6128585886
N        0.9106583814    1.4403390990   -0.4436362568
H        2.6190081745    0.3856405585    0.0758586544
H        1.1253040341   -1.8416677694   -0.1815449026
H       -1.1541621972   -0.9454509379   -1.5880063635
H       -2.1583323114    0.4249501025    0.8275946183
H       -1.1310191219    1.7652595056   -1.0946517168
C       -0.1624036790   -0.6249258545    1.2317242679
H       -0.0429945589   -0.9282361861    2.2636438441
13   
Frame   2 IRC: Energy =  -286.8574671358 ; +1.1978 kcal/mol
C        1.5613336462    0.3786894609   -0.1760760288
C        0.6756337489   -0.8541397198   -0.0167936393
C       -0.6124308048   -0.4161228051   -0.8019399829
C       -1.1308423414    0.2042151507    0.5344864709
C       -0.4700450705    1.0522215020   -0.6195254466
N        0.9091016441    1.4455809723   -0.4715582175
H        2.6206708264    0.4065003941    0.0695965115
H        1.1332723258   -1.8336670180   -0.1589878254
H       -1.1524023036   -0.9626061205   -1.5689449521
H       -2.1333277765    0.4616908224    0.8586318384
H       -1.1409315393    1.7453241727   -1.1151196839
C       -0.1272032763   -0.5736961529    1.2491854644
H       -0.1328290790   -1.0539906588    2.2170454911
13   
Frame   3 IRC: Energy =  -286.8547456713 ; +2.9056 kcal/mol
C        1.5505251121    0.3855823894   -0.1703911208
C        0.6748339473   -0.8598226465   -0.0237996938
C       -0.6005435638   -0.4310991540   -0.8301525667
C       -1.1220367622    0.2321641261    0.5477184423
C       -0.4823959859    1.0345876902   -0.6194834038
N        0.8925220701    1.4486890240   -0.4648655797
H        2.6094347528    0.4228827856    0.0745256178
H        1.1481889808   -1.8342076835   -0.1487987567
H       -1.1058278409   -0.9918122845   -1.6145751473
H       -2.0755231097    0.5595024498    0.9568626602
H       -1.1679368147    1.7071500951   -1.1221710932
C       -0.1448774163   -0.5922347860    1.2269039164
H       -0.1763633696   -1.0813820057    2.1882267251
13   
Frame   4 IRC: Energy =  -286.8482061849 ; +7.0092 kcal/mol (Transition State)
C        1.5460598542    0.3891662717   -0.1669028664
C        0.6729216159   -0.8600407809   -0.0317352928
C       -0.5130505296   -0.4459791232   -0.9388477538
C       -1.1005114353    0.3048331747    0.6239064904
C       -0.5094501154    1.0011273125   -0.6030474365
N        0.8769588807    1.4482838412   -0.4526088405
H        2.6073806635    0.4263579474    0.0687581909
H        1.1515444980   -1.8333552414   -0.1343751981
H       -1.1029978282   -1.0264964746   -1.6367958473
H       -2.0718914843    0.5965447025    1.0166948891
H       -1.1750196193    1.6882456649   -1.1160219757
C       -0.1891876313   -0.6054534851    1.2010323461
H       -0.1927568691   -1.0832338097    2.1699432946
13   
Frame   5 IRC: Energy =  -286.8555883017 ; +2.3768 kcal/mol
C        1.5436412337    0.3920636111   -0.1634154839
C        0.6687646352   -0.8580055688   -0.0412232606
C       -0.4124884739   -0.4566658613   -1.0618248302
C       -1.0863918562    0.3596680083    0.7109538571
C       -0.5404468773    0.9609810198   -0.5908180228
N        0.8660230515    1.4430494625   -0.4450469582
H        2.6071103277    0.4282341683    0.0640885964
H        1.1530629368   -1.8308415442   -0.1239704134
H       -1.1070624167   -1.0500393081   -1.6362026923
H       -2.0725090348    0.6225649619    1.0637547484
H       -1.1777312362    1.6761546922   -1.1098099276
C       -0.2341663168   -0.5984432808    1.1822606709
H       -0.2078059729   -1.0887203609    2.1512537163
13   
Frame   6 IRC: Energy =  -286.8668627366 ; -4.6980 kcal/mol
C        1.5401517024    0.3990498057   -0.1498603676
C        0.6689960099   -0.8564242558   -0.0533263704
C       -0.3215001153   -0.4544623749   -1.1663512713
C       -1.0918000129    0.3941718947    0.7518713774
C       -0.5631278202    0.9242067024   -0.5940408630
N        0.8523587583    1.4395542755   -0.4340071146
H        2.6077609913    0.4338260394    0.0572478536
H        1.1595774128   -1.8277083367   -0.1051177173
H       -1.0980062228   -1.0756343757   -1.6075275373
H       -2.0587612471    0.6777876168    1.1464773330
H       -1.1859853828    1.6537248569   -1.1069211002
C       -0.2730605139   -0.5996636228    1.1496952198
H       -0.2366035597   -1.1084282256    2.1118605579
13   
Frame   7 IRC: Energy =  -286.8717321687 ; -7.7536 kcal/mol
C        1.5317137709    0.4138851570   -0.1358679233
C        0.6716653902   -0.8563090000   -0.0594411858
C       -0.2916065533   -0.4595805553   -1.1910218619
C       -1.0996428378    0.4003691605    0.7462010872
C       -0.5749995880    0.9127796956   -0.6044439516
N        0.8375385602    1.4478442334   -0.4237796959
H        2.6024493017    0.4521668767    0.0553191233
H        1.1771501280   -1.8206568076   -0.0889780286
H       -1.0703996400   -1.1125048391   -1.5813205907
H       -1.9873915703    0.7738101581    1.2457557311
H       -1.2017901665    1.6287867867   -1.1313173491
C       -0.3050833928   -0.6221122694    1.1136576741
H       -0.2896034024   -1.1584785966    2.0552369711
13   
Frame   8 IRC: Energy =  -286.8734940000 ; -8.8592 kcal/mol
C        1.5188731107    0.4265845352   -0.1304215167
C        0.6711528669   -0.8581953245   -0.0611550905
C       -0.2857587804   -0.4733424048   -1.1952985030
C       -1.0862928721    0.4165772456    0.7567081818
C       -0.5842708130    0.9023703352   -0.6135865516
N        0.8212158864    1.4525105299   -0.4359184148
H        2.5859780293    0.4828549821    0.0744824409
H        1.1978338096   -1.8116088804   -0.0880632137
H       -1.0475255999   -1.1467664840   -1.5826381289
H       -1.8890061097    0.8730616446    1.3232794843
H       -1.2220693287    1.5985979342   -1.1540818266
C       -0.3250772513   -0.6389045068    1.0975285494
H       -0.3550529479   -1.2237396064    2.0091645894
