
Running Job 1 of 1 irc_product.in
qchem irc_product.in_8499.0 ./irc_product.d/ 1
/home/leeping/opt/qchem/5.0.2-openmp/exe/qcprog.exe_s irc_product.in_8499.0 ./irc_product.d/
Check license passed

                  Welcome to Q-Chem
     A Quantum Leap Into The Future Of Chemistry


 Q-Chem 5.0, Q-Chem, Inc., Pleasanton, CA (2017)

 Yihan Shao,  Zhengting Gan,  E. Epifanovsky,  A. T. B. Gilbert,  M. Wormit,  
 J. Kussmann,  A. W. Lange,  A. Behn,  Jia Deng,  Xintian Feng,  D. Ghosh,  
 M. Goldey,  P. R. Horn,  L. D. Jacobson,  I. Kaliman,  T. Kus,  A. Landau,  
 Jie Liu,  E. I. Proynov,  R. M. Richard,  R. P. Steele,  E. J. Sundstrom,  
 H. L. Woodcock III,  P. M. Zimmerman,  D. Zuev,  B. Albrecht,  E. Alguire,  
 S. A. Baeppler,  D. Barton,  Z. Benda,  Y. A. Bernard,  E. J. Berquist,  
 K. B. Bravaya,  H. Burton,  D. Casanova,  Chun-Min Chang,  Yunqing Chen,  
 A. Chien,  K. D. Closser,  M. P. Coons,  S. Dasgupta,  A. L. Dempwolff,  
 M. Diedenhofen,  Hainam Do,  R. G. Edgar,  Po-Tung Fang,  S. Fatehi,  
 Qingguo Feng,  J. Fosso-Tande,  Qinghui Ge,  A. Ghysels,  G. Gidofalvi,  
 J. Gomes,  J. Gonthier,  A. Gunina,  M. W. D. Hanson-Heine,  
 P. H. P. Harbach,  A. W. Hauser,  J. E. Herr,  E. G. Hohenstein,  
 Z. C. Holden,  Kerwin Hui,  T.-C. Jagau,  Hyunjun Ji,  B. Kaduk,  
 K. Khistyaev,  Jaehoon Kim,  P. Klunzinger,  K. Koh,  D. Kosenkov,  
 L. Koulias,  T. Kowalczyk,  C. M. Krauter,  A. Kunitsa,  Ka Un Lao,  
 A. Laurent,  K. V. Lawler,  Joonho Lee,  D. Lefrancois,  S. Lehtola,  
 D. S. Levine,  Yi-Pei Li,  You-Sheng Lin,  Fenglai Liu,  E. Livshits,  
 A. Luenser,  P. Manohar,  E. Mansoor,  S. F. Manzer,  Shan-Ping Mao,  
 Yuezhi Mao,  N. Mardirossian,  A. V. Marenich,  T. Markovich,  
 L. A. Martinez-Martinez,  S. A. Maurer,  N. J. Mayhall,  S. C. McKenzie,  
 J.-M. Mewes,  A. F. Morrison,  J. W. Mullinax,  K. Nanda,  
 T. S. Nguyen-Beck,  R. Olivares-Amaya,  J. A. Parkhill,  T. M. Perrine,  
 F. Plasser,  S. Prager,  A. Prociuk,  E. Ramos,  D. R. Rehn,  F. Rob,  
 M. Schneider,  N. Sergueev,  S. M. Sharada,  S. Sharma,  D. W. Small,  
 T. Stauch,  T. Stein,  Yu-Chuan Su,  A. J. W. Thom,  A. Tkatchenko,  
 T. Tsuchimochi,  L. Vogt,  O. Vydrov,  M. A. Watson,  J. Wenzel,  
 M. de Wergifosse,  T. A. Wesolowski,  A. White,  J. Witte,  A. Yamada,  
 Jun Yang,  K. Yao,  S. Yeganeh,  S. R. Yost,  Zhi-Qiang You,  A. Zech,  
 Igor Ying Zhang,  Xing Zhang,  Yan Zhao,  Ying Zhu,  B. R. Brooks,  
 G. K. L. Chan,  C. J. Cramer,  M. S. Gordon,  W. J. Hehre,  A. Klamt,  
 M. W. Schmidt,  C. D. Sherrill,  D. G. Truhlar,  A. Aspuru-Guzik,  R. Baer,  
 A. T. Bell,  N. A. Besley,  Jeng-Da Chai,  R. A. DiStasio Jr.,  A. Dreuw,  
 B. D. Dunietz,  T. R. Furlani,  Chao-Ping Hsu,  Yousung Jung,  Jing Kong,  
 D. S. Lambrecht,  WanZhen Liang,  C. Ochsenfeld,  V. A. Rassolov,  
 L. V. Slipchenko,  J. E. Subotnik,  T. Van Voorhis,  J. M. Herbert,  
 A. I. Krylov,  P. M. W. Gill,  M. Head-Gordon

 Contributors to earlier versions of Q-Chem not listed above: 
 R. D. Adamson,  B. Austin,  J. Baker,  G. J. O. Beran,  K. Brandhorst,  
 S. T. Brown,  E. F. C. Byrd,  A. K. Chakraborty,  C.-L. Cheng,  
 Siu Hung Chien,  D. M. Chipman,  D. L. Crittenden,  H. Dachsel,  
 R. J. Doerksen,  A. D. Dutoi,  L. Fusti-Molnar,  W. A. Goddard III,  
 A. Golubeva-Zadorozhnaya,  S. R. Gwaltney,  G. Hawkins,  A. Heyden,  
 S. Hirata,  G. Kedziora,  F. J. Keil,  C. Kelley,  Jihan Kim,  R. A. King,  
 R. Z. Khaliullin,  P. P. Korambath,  W. Kurlancheek,  A. M. Lee,  M. S. Lee,  
 S. V. Levchenko,  Ching Yeh Lin,  D. Liotard,  R. C. Lochan,  I. Lotan,  
 P. E. Maslen,  N. Nair,  D. P. O'Neill,  D. Neuhauser,  E. Neuscamman,  
 C. M. Oana,  R. Olson,  B. Peters,  R. Peverati,  P. A. Pieniazek,  
 Y. M. Rhee,  J. Ritchie,  M. A. Rohrdanz,  E. Rosta,  N. J. Russ,  
 H. F. Schaefer III,  N. E. Schultz,  N. Shenvi,  A. C. Simmonett,  A. Sodt,  
 D. Stuck,  K. S. Thanthiriwatte,  V. Vanovschi,  Tao Wang,  A. Warshel,  
 C. F. Williams,  Q. Wu,  X. Xu,  W. Zhang

 Please cite Q-Chem as follows:
 Y. Shao et al., Mol. Phys. 113, 184-215 (2015)
 DOI: 10.1080/00268976.2014.952696

 Q-Chem 5.0.2 for Intel X86 EM64T Linux

 Parts of Q-Chem use Armadillo 5.200.1 (Boston Tea Smuggler).
 http://arma.sourceforge.net/

 Q-Chem begins on Thu Mar  3 14:12:05 2022  

Host: 
0

     Scratch files written to ./irc_product.d//
 Dec517 15110_ 26548  26544 5633   
Processing $rem in /home/leeping/opt/qchem/5.0.2-openmp/config/preferences.
 MEM_STATIC 2000
 MEM_TOTAL  8000
 SYMMETRY   OFF
 SYM_IGNORE TRUE 

Checking the input file for inconsistencies... 	...done.

--------------------------------------------------------------
User input:
--------------------------------------------------------------
$molecule
0 2
C        1.5188731107    0.4265845352   -0.1304215167
C        0.6711528669   -0.8581953245   -0.0611550905
C       -0.2857587804   -0.4733424048   -1.1952985030
C       -1.0862928721    0.4165772456    0.7567081818
C       -0.5842708130    0.9023703352   -0.6135865516
N        0.8212158864    1.4525105299   -0.4359184148
H        2.5859780293    0.4828549821    0.0744824409
H        1.1978338096   -1.8116088804   -0.0880632137
H       -1.0475255999   -1.1467664840   -1.5826381289
H       -1.8890061097    0.8730616446    1.3232794843
H       -1.2220693287    1.5985979342   -1.1540818266
C       -0.3250772513   -0.6389045068    1.0975285494
H       -0.3550529479   -1.2237396064    2.0091645894
$end

$rem
method                b3lyp
basis                 6-31+g(d,p)
unrestricted          true
symmetry              off
sym_ignore            true
incdft                false
incfock               0
scf_convergence       8
thresh                14
jobtype               sp
scf_guess             core
scf_guess_mix         5
scf_algorithm         diis
max_scf_cycles        100
$end

--------------------------------------------------------------
 ----------------------------------------------------------------
             Standard Nuclear Orientation (Angstroms)
    I     Atom           X                Y                Z
 ----------------------------------------------------------------
    1      C       1.5188731107     0.4265845352    -0.1304215167
    2      C       0.6711528669    -0.8581953245    -0.0611550905
    3      C      -0.2857587804    -0.4733424048    -1.1952985030
    4      C      -1.0862928721     0.4165772456     0.7567081818
    5      C      -0.5842708130     0.9023703352    -0.6135865516
    6      N       0.8212158864     1.4525105299    -0.4359184148
    7      H       2.5859780293     0.4828549821     0.0744824409
    8      H       1.1978338096    -1.8116088804    -0.0880632137
    9      H      -1.0475255999    -1.1467664840    -1.5826381289
   10      H      -1.8890061097     0.8730616446     1.3232794843
   11      H      -1.2220693287     1.5985979342    -1.1540818266
   12      C      -0.3250772513    -0.6389045068     1.0975285494
   13      H      -0.3550529479    -1.2237396064     2.0091645894
 ----------------------------------------------------------------
 Nuclear Repulsion Energy =   279.0089279499 hartrees
 There are       25 alpha and       24 beta electrons
 Requested basis set is 6-31+G(d,p)
 There are 53 shells and 163 basis functions

 Total QAlloc Memory Limit   8000 MB
 Mega-Array Size      1956 MB
 MEM_STATIC part      2000 MB

                       Distance Matrix (Angstroms)
             C (  1)   C (  2)   C (  3)   C (  4)   C (  5)   N (  6)
   C (  2)  1.540807
   C (  3)  2.280467  1.532995
   C (  4)  2.752088  2.320035  2.289791
   C (  5)  2.209759  2.231784  1.523182  1.538093
   N (  6)  1.277724  2.345704  2.347544  2.476713  1.519741
   H (  7)  1.088056  2.341659  3.282305  3.735692  3.271072  2.077288
   H (  8)  2.261497  1.089548  2.284289  3.300862  3.289036  3.304137
   H (  9)  3.342270  2.313448  1.088035  2.813910  2.313575  3.400500
   H ( 10)  3.731786  3.386491  3.275125  1.083388  2.335518  3.282658
   H ( 11)  3.151866  3.288558  2.274052  2.250939  1.087959  2.170741
   C ( 12)  2.458309  1.543733  2.299133  1.345232  2.317461  2.835395
   H ( 13)  3.288312  2.339433  3.291881  2.189520  3.384037  3.811083
             H (  7)   H (  8)   H (  9)   H ( 10)   H ( 11)   C ( 12)
   H (  8)  2.686621
   H (  9)  4.313243  2.778022
   H ( 10)  4.662321  4.327577  3.637603
   H ( 11)  4.153971  4.315303  2.784089  2.666182
   C ( 12)  3.283171  2.258345  2.821905  2.186979  3.298600
   H ( 13)  3.912176  2.674960  3.658755  2.687011  4.327058  1.083518

 
 A cutoff of  1.0D-14 yielded   1410 shell pairs
 There are     13528 function pairs
 
 -------------------------------------------------------
 OpenMP Integral Computing Module                       
 Release: version 1.0, May 2013, Q-Chem Inc. Pittsburgh 
 -------------------------------------------------------
 Integral Job Info:
 Integral job number is                      11
 Integral operator is                         1
 short-range coefficients                     0
 long-range coefficients              100000000
 Omega coefficients                           0
 if combine SR and LR in K                    0
 Integral screening is                        0
 Integral computing path is                   2
 max size of driver memory is            800000
 size of driver memory is                593474
 size of scratch memory is              2361544
 max col of scratch BK array               1296
 max len of scratch array in speh3          155
 max len of scratch index in speh4           18
 max int batch size is                      520
 min int batch size is                       52
 fixed nKL is                                52
 max L of basis functions is                  2
 order of int derivative is                   0
 number of shells is                         53
 number of basis is                         163
 number of cartesian basis is               163
 number of contracted shell pairs          1410
 number of primitive shell pairs           4819
 maxK2 (contraction) of shell pair           36
 max number of K2 of shell pair               1
 max number of CS2 of shell pair            127
 max number of PS2 of shell pair            684
 mem total for path MDJ                  535308
 -------------------------------------------------------
 Smallest overlap matrix eigenvalue = 2.23E-05

 Scale SEOQF with 1.000000e-01/1.000000e-01/1.000000e-01

 Standard Electronic Orientation quadrupole field applied
 Nucleus-field energy     =     0.0000000010 hartrees
 Guess MOs from core Hamiltonian diagonalization
 Mixing HOMO and LUMO in initial guess
 Adding  50% of the LUMO to the HOMO
 An unrestricted hybrid HF-DFT SCF calculation will be
 performed using Pulay DIIS extrapolation
 Exchange:     0.2000 Hartree-Fock + 0.0800 Slater + 0.7200 B88
 Correlation:  0.1900 VWN1RPA + 0.8100 LYP
 Using SG-1 standard quadrature grid
 SCF converges when DIIS error is below 1.0E-08
 using 4 threads for integral computing
 -------------------------------------------------------
 OpenMP Integral computing Module                
 Release: version 1.0, May 2013, Q-Chem Inc. Pittsburgh 
 -------------------------------------------------------
 -------------------------------------------------------
 OpenMP BLAS3 based DFT computing Module                
 Release: version 1.0, May 2013, Q-Chem Inc. Pittsburgh 
 -------------------------------------------------------
 ---------------------------------------
  Cycle       Energy         DIIS Error
 ---------------------------------------
    1    -234.7338183166      1.00E-01
    2    -215.2720289480      7.13E-02
    3    -253.7127462481      7.78E-02
    4    -280.8574026948      3.80E-02
    5    -279.8861364977      3.54E-02
    6    -286.0841206539      1.37E-02
    7    -286.2293411666      1.30E-02
    8    -286.7779737918      5.30E-03
    9    -286.8474208121      2.89E-03
   10    -286.8707310626      9.16E-04
   11    -286.8731587207      3.03E-04
   12    -286.8734789443      5.09E-05
   13    -286.8734911192      1.50E-05
   14    -286.8734924380      6.07E-06
   15    -286.8734928716      1.99E-06
   16    -286.8734930566      4.46E-07
   17    -286.8734931080      1.60E-07
   18    -286.8734931219      7.76E-08
   19    -286.8734931292      4.90E-08
   20    -286.8734931371      1.79E-08
   21    -286.8734931391      5.91E-09 Convergence criterion met
 ---------------------------------------
 <S^2> = 0.7539
 SCF time:  CPU 104.72 s  wall 26.76 s
 SCF   energy in the final basis set = -286.87349314
 Total energy in the final basis set = -286.87349314
 
 --------------------------------------------------------------
 
                    Orbital Energies (a.u.)
 --------------------------------------------------------------
 
 Alpha MOs
 -- Occupied --
-14.337 -10.235 -10.231 -10.221 -10.216 -10.213 -10.209  -0.965
 -0.832  -0.737  -0.715  -0.589  -0.583  -0.539  -0.520  -0.481
 -0.429  -0.420  -0.391  -0.382  -0.358  -0.305  -0.283  -0.271
 -0.206
 -- Virtual --
 -0.041   0.002   0.002   0.020   0.026   0.032   0.048   0.049
  0.065   0.072   0.075   0.093   0.104   0.106   0.109   0.120
  0.121   0.131   0.138   0.150   0.170   0.171   0.185   0.190
  0.193   0.199   0.204   0.219   0.230   0.234   0.239   0.248
  0.257   0.267   0.280   0.286   0.303   0.325   0.336   0.342
  0.353   0.392   0.420   0.455   0.616   0.669   0.682   0.701
  0.707   0.717   0.727   0.737   0.746   0.764   0.777   0.789
  0.806   0.832   0.859   0.893   0.898   0.951   0.958   0.994
  1.011   1.026   1.052   1.071   1.083   1.107   1.121   1.145
  1.210   1.288   1.308   1.332   1.360   1.406   1.428   1.481
  1.498   1.576   1.624   1.685   1.743   1.753   1.809   1.832
  1.890   1.899   1.971   1.986   2.032   2.047   2.093   2.112
  2.122   2.170   2.219   2.266   2.292   2.322   2.354   2.396
  2.402   2.449   2.455   2.479   2.494   2.513   2.516   2.557
  2.590   2.605   2.626   2.636   2.686   2.742   2.777   2.791
  2.817   2.867   2.916   3.044   3.110   3.286   3.329   3.387
  3.448   3.542   3.717   4.140   4.375   4.473   4.555   4.612
  4.763   4.826
 
 Beta MOs
 -- Occupied --
-14.336 -10.235 -10.231 -10.221 -10.211 -10.208 -10.202  -0.961
 -0.827  -0.735  -0.700  -0.587  -0.571  -0.536  -0.517  -0.472
 -0.426  -0.416  -0.389  -0.379  -0.352  -0.298  -0.273  -0.268
 -- Virtual --
 -0.064  -0.036   0.003   0.003   0.021   0.028   0.033   0.048
  0.050   0.068   0.073   0.076   0.094   0.105   0.107   0.109
  0.120   0.127   0.132   0.140   0.152   0.170   0.171   0.185
  0.191   0.197   0.200   0.208   0.222   0.233   0.238   0.241
  0.251   0.261   0.269   0.280   0.291   0.308   0.328   0.340
  0.345   0.362   0.394   0.422   0.457   0.620   0.682   0.687
  0.710   0.714   0.725   0.733   0.740   0.749   0.769   0.790
  0.795   0.808   0.835   0.861   0.899   0.905   0.953   0.967
  0.999   1.013   1.029   1.057   1.077   1.084   1.109   1.125
  1.148   1.213   1.292   1.311   1.337   1.363   1.408   1.433
  1.486   1.508   1.584   1.631   1.692   1.747   1.759   1.817
  1.841   1.895   1.911   1.974   1.990   2.048   2.055   2.097
  2.123   2.130   2.172   2.225   2.272   2.306   2.324   2.359
  2.398   2.406   2.452   2.458   2.480   2.496   2.517   2.521
  2.564   2.601   2.610   2.636   2.638   2.689   2.745   2.779
  2.796   2.821   2.871   2.918   3.045   3.112   3.287   3.329
  3.396   3.451   3.543   3.718   4.142   4.385   4.477   4.571
  4.619   4.766   4.827
 --------------------------------------------------------------
 
          Ground-State Mulliken Net Atomic Charges

     Atom                 Charge (a.u.)    Spin (a.u.)
  --------------------------------------------------------
      1 C                    -0.092135      -0.031636
      2 C                     0.009551      -0.061315
      3 C                    -0.270662       1.034917
      4 C                    -0.147431       0.044939
      5 C                     0.024174      -0.089632
      6 N                    -0.203175       0.025933
      7 H                     0.137373      -0.000090
      8 H                     0.124762       0.003437
      9 H                     0.138860      -0.026237
     10 H                     0.138823       0.000695
     11 H                     0.129333       0.003590
     12 C                    -0.127845       0.095311
     13 H                     0.138372       0.000089
  --------------------------------------------------------
  Sum of atomic charges =     0.000000
  Sum of spin   charges =     1.000000

 -----------------------------------------------------------------
                    Cartesian Multipole Moments
 -----------------------------------------------------------------
    Charge (ESU x 10^10)
                 0.0000
    Dipole Moment (Debye)
         X      -0.7360      Y      -2.2349      Z       1.0826
       Tot       2.5901
    Quadrupole Moments (Debye-Ang)
        XX     -38.2273     XY      -4.3955     YY     -44.9488
        XZ       1.4090     YZ       0.2331     ZZ     -42.2880
    Octopole Moments (Debye-Ang^2)
       XXX      -3.6104    XXY      -4.9578    XYY     -10.5746
       YYY     -31.5928    XXZ       4.4657    XYZ       0.5071
       YYZ       5.0462    XZZ      -8.7986    YZZ      -8.6934
       ZZZ      15.4813
    Hexadecapole Moments (Debye-Ang^3)
      XXXX    -247.4953   XXXY     -11.1114   XXYY     -87.6537
      XYYY     -26.0947   YYYY    -265.7921   XXXZ      19.1038
      XXYZ      11.2825   XYYZ      11.3284   YYYZ      22.0445
      XXZZ     -78.8336   XYZZ      -4.1054   YYZZ     -73.7452
      XZZZ      19.7896   YZZZ      12.4170   ZZZZ    -221.8660
 -----------------------------------------------------------------
Archival summary:
1\1\c8-66\SP\ProcedureUnspecified\6-31+G**\166(2)\hpark21\ThuMar314:12:342022ThuMar314:12:342022\0\\#,ProcedureUnspecified,6-31+G**,\\0,2\N\C,1,1.27772\H,2,1.08806,1,122.616\C,1,1.51974,2,104.02,3,-179.421,0\H,4,1.08796,1,111.628,2,-163.2,0\C,4,1.52318,1,100.973,2,-34.2819,0\H,6,1.08804,4,123.901,1,-172.05,0\C,6,1.53299,4,93.8148,1,53.2883,0\H,8,1.08955,6,120.208,4,-176.904,0\C,4,1.53809,1,108.182,2,66.7415,0\H,10,1.08339,4,125.076,1,112.078,0\C,10,1.34523,4,106.788,1,-66.7507,0\H,12,1.08352,10,128.39,4,177.558,0\\\@

 Total job time:  29.00s(wall), 106.70s(cpu) 
 Thu Mar  3 14:12:34 2022

        *************************************************************
        *                                                           *
        *  Thank you very much for using Q-Chem.  Have a nice day.  *
        *                                                           *
        *************************************************************


