
Running Job 1 of 1 irc_reactant.in
qchem irc_reactant.in_8465.0 ./irc_reactant.d/ 1
/home/leeping/opt/qchem/5.0.2-openmp/exe/qcprog.exe_s irc_reactant.in_8465.0 ./irc_reactant.d/
Check license passed

                  Welcome to Q-Chem
     A Quantum Leap Into The Future Of Chemistry


 Q-Chem 5.0, Q-Chem, Inc., Pleasanton, CA (2017)

 Yihan Shao,  Zhengting Gan,  E. Epifanovsky,  A. T. B. Gilbert,  M. Wormit,  
 J. Kussmann,  A. W. Lange,  A. Behn,  Jia Deng,  Xintian Feng,  D. Ghosh,  
 M. Goldey,  P. R. Horn,  L. D. Jacobson,  I. Kaliman,  T. Kus,  A. Landau,  
 Jie Liu,  E. I. Proynov,  R. M. Richard,  R. P. Steele,  E. J. Sundstrom,  
 H. L. Woodcock III,  P. M. Zimmerman,  D. Zuev,  B. Albrecht,  E. Alguire,  
 S. A. Baeppler,  D. Barton,  Z. Benda,  Y. A. Bernard,  E. J. Berquist,  
 K. B. Bravaya,  H. Burton,  D. Casanova,  Chun-Min Chang,  Yunqing Chen,  
 A. Chien,  K. D. Closser,  M. P. Coons,  S. Dasgupta,  A. L. Dempwolff,  
 M. Diedenhofen,  Hainam Do,  R. G. Edgar,  Po-Tung Fang,  S. Fatehi,  
 Qingguo Feng,  J. Fosso-Tande,  Qinghui Ge,  A. Ghysels,  G. Gidofalvi,  
 J. Gomes,  J. Gonthier,  A. Gunina,  M. W. D. Hanson-Heine,  
 P. H. P. Harbach,  A. W. Hauser,  J. E. Herr,  E. G. Hohenstein,  
 Z. C. Holden,  Kerwin Hui,  T.-C. Jagau,  Hyunjun Ji,  B. Kaduk,  
 K. Khistyaev,  Jaehoon Kim,  P. Klunzinger,  K. Koh,  D. Kosenkov,  
 L. Koulias,  T. Kowalczyk,  C. M. Krauter,  A. Kunitsa,  Ka Un Lao,  
 A. Laurent,  K. V. Lawler,  Joonho Lee,  D. Lefrancois,  S. Lehtola,  
 D. S. Levine,  Yi-Pei Li,  You-Sheng Lin,  Fenglai Liu,  E. Livshits,  
 A. Luenser,  P. Manohar,  E. Mansoor,  S. F. Manzer,  Shan-Ping Mao,  
 Yuezhi Mao,  N. Mardirossian,  A. V. Marenich,  T. Markovich,  
 L. A. Martinez-Martinez,  S. A. Maurer,  N. J. Mayhall,  S. C. McKenzie,  
 J.-M. Mewes,  A. F. Morrison,  J. W. Mullinax,  K. Nanda,  
 T. S. Nguyen-Beck,  R. Olivares-Amaya,  J. A. Parkhill,  T. M. Perrine,  
 F. Plasser,  S. Prager,  A. Prociuk,  E. Ramos,  D. R. Rehn,  F. Rob,  
 M. Schneider,  N. Sergueev,  S. M. Sharada,  S. Sharma,  D. W. Small,  
 T. Stauch,  T. Stein,  Yu-Chuan Su,  A. J. W. Thom,  A. Tkatchenko,  
 T. Tsuchimochi,  L. Vogt,  O. Vydrov,  M. A. Watson,  J. Wenzel,  
 M. de Wergifosse,  T. A. Wesolowski,  A. White,  J. Witte,  A. Yamada,  
 Jun Yang,  K. Yao,  S. Yeganeh,  S. R. Yost,  Zhi-Qiang You,  A. Zech,  
 Igor Ying Zhang,  Xing Zhang,  Yan Zhao,  Ying Zhu,  B. R. Brooks,  
 G. K. L. Chan,  C. J. Cramer,  M. S. Gordon,  W. J. Hehre,  A. Klamt,  
 M. W. Schmidt,  C. D. Sherrill,  D. G. Truhlar,  A. Aspuru-Guzik,  R. Baer,  
 A. T. Bell,  N. A. Besley,  Jeng-Da Chai,  R. A. DiStasio Jr.,  A. Dreuw,  
 B. D. Dunietz,  T. R. Furlani,  Chao-Ping Hsu,  Yousung Jung,  Jing Kong,  
 D. S. Lambrecht,  WanZhen Liang,  C. Ochsenfeld,  V. A. Rassolov,  
 L. V. Slipchenko,  J. E. Subotnik,  T. Van Voorhis,  J. M. Herbert,  
 A. I. Krylov,  P. M. W. Gill,  M. Head-Gordon

 Contributors to earlier versions of Q-Chem not listed above: 
 R. D. Adamson,  B. Austin,  J. Baker,  G. J. O. Beran,  K. Brandhorst,  
 S. T. Brown,  E. F. C. Byrd,  A. K. Chakraborty,  C.-L. Cheng,  
 Siu Hung Chien,  D. M. Chipman,  D. L. Crittenden,  H. Dachsel,  
 R. J. Doerksen,  A. D. Dutoi,  L. Fusti-Molnar,  W. A. Goddard III,  
 A. Golubeva-Zadorozhnaya,  S. R. Gwaltney,  G. Hawkins,  A. Heyden,  
 S. Hirata,  G. Kedziora,  F. J. Keil,  C. Kelley,  Jihan Kim,  R. A. King,  
 R. Z. Khaliullin,  P. P. Korambath,  W. Kurlancheek,  A. M. Lee,  M. S. Lee,  
 S. V. Levchenko,  Ching Yeh Lin,  D. Liotard,  R. C. Lochan,  I. Lotan,  
 P. E. Maslen,  N. Nair,  D. P. O'Neill,  D. Neuhauser,  E. Neuscamman,  
 C. M. Oana,  R. Olson,  B. Peters,  R. Peverati,  P. A. Pieniazek,  
 Y. M. Rhee,  J. Ritchie,  M. A. Rohrdanz,  E. Rosta,  N. J. Russ,  
 H. F. Schaefer III,  N. E. Schultz,  N. Shenvi,  A. C. Simmonett,  A. Sodt,  
 D. Stuck,  K. S. Thanthiriwatte,  V. Vanovschi,  Tao Wang,  A. Warshel,  
 C. F. Williams,  Q. Wu,  X. Xu,  W. Zhang

 Please cite Q-Chem as follows:
 Y. Shao et al., Mol. Phys. 113, 184-215 (2015)
 DOI: 10.1080/00268976.2014.952696

 Q-Chem 5.0.2 for Intel X86 EM64T Linux

 Parts of Q-Chem use Armadillo 5.200.1 (Boston Tea Smuggler).
 http://arma.sourceforge.net/

 Q-Chem begins on Thu Mar  3 14:11:57 2022  

Host: 
0

     Scratch files written to ./irc_reactant.d//
 Dec517 15110_ 26548  26544 5633   
Processing $rem in /home/leeping/opt/qchem/5.0.2-openmp/config/preferences.
 MEM_STATIC 2000
 MEM_TOTAL  8000
 SYMMETRY   OFF
 SYM_IGNORE TRUE 

Checking the input file for inconsistencies... 	...done.

--------------------------------------------------------------
User input:
--------------------------------------------------------------
$molecule
0 2
C        1.5496462726    0.3496525271   -0.1427244368
C        0.6532827243   -0.8791157454   -0.0374520751
C       -0.6199106274   -0.4064444258   -0.8297216664
C       -1.1644394237    0.1430031707    0.5109342505
C       -0.4681685773    1.0529227793   -0.6025780963
N        0.9081933687    1.4306131125   -0.4105398952
H        2.6086821006    0.3597578582    0.1064054818
H        1.1110930083   -1.8548523534   -0.2086005971
H       -1.1482427887   -0.9240913608   -1.6236226767
H       -2.1766639571    0.3938210758    0.8094396983
H       -1.1273601757    1.7761446239   -1.0697503781
C       -0.1797244718   -0.6564017544    1.2228456146
H        0.0536125476   -0.7850095071    2.2753647762
$end

$rem
method                b3lyp
basis                 6-31+g(d,p)
unrestricted          true
symmetry              off
sym_ignore            true
incdft                false
incfock               0
scf_convergence       8
thresh                14
jobtype               sp
scf_guess             read
scf_algorithm         diis
max_scf_cycles        100
scf_final_print       1
$end

--------------------------------------------------------------
 ----------------------------------------------------------------
             Standard Nuclear Orientation (Angstroms)
    I     Atom           X                Y                Z
 ----------------------------------------------------------------
    1      C       1.5496462726     0.3496525271    -0.1427244368
    2      C       0.6532827243    -0.8791157454    -0.0374520751
    3      C      -0.6199106274    -0.4064444258    -0.8297216664
    4      C      -1.1644394237     0.1430031707     0.5109342505
    5      C      -0.4681685773     1.0529227793    -0.6025780963
    6      N       0.9081933687     1.4306131125    -0.4105398952
    7      H       2.6086821006     0.3597578582     0.1064054818
    8      H       1.1110930083    -1.8548523534    -0.2086005971
    9      H      -1.1482427887    -0.9240913608    -1.6236226767
   10      H      -2.1766639571     0.3938210758     0.8094396983
   11      H      -1.1273601757     1.7761446239    -1.0697503781
   12      C      -0.1797244718    -0.6564017544     1.2228456146
   13      H       0.0536125476    -0.7850095071     2.2753647762
 ----------------------------------------------------------------
 Nuclear Repulsion Energy =   282.0241613748 hartrees
 There are       25 alpha and       24 beta electrons
 Requested basis set is 6-31+G(d,p)
 There are 53 shells and 163 basis functions

 Total QAlloc Memory Limit   8000 MB
 Mega-Array Size      1956 MB
 MEM_STATIC part      2000 MB

                       Distance Matrix (Angstroms)
             C (  1)   C (  2)   C (  3)   C (  4)   C (  5)   N (  6)
   C (  2)  1.524605
   C (  3)  2.398046  1.572301
   C (  4)  2.799328  2.156286  1.547825
   C (  5)  2.185779  2.304299  1.484713  1.597704
   N (  6)  1.285170  2.353513  2.426025  2.608229  1.440104
   H (  7)  1.087991  2.319286  3.447783  3.800930  3.232668  2.075000
   H (  8)  2.248669  1.091304  2.340951  3.112427  3.332333  3.297913
   H (  9)  3.330779  2.400720  1.085068  2.386480  2.326718  3.353376
   H ( 10)  3.846291  3.216550  2.398073  1.084718  2.312394  3.475577
   H ( 11)  3.171848  3.359574  2.253622  2.273123  1.084358  2.167355
   C ( 12)  2.422323  1.527041  2.114066  1.454486  2.517372  2.864811
   H ( 13)  3.061492  2.391147  3.199767  2.336252  3.454389  3.585161
             H (  7)   H (  8)   H (  9)   H ( 10)   H ( 11)   C ( 12)
   H (  8)  2.691932
   H (  9)  4.330791  2.823686
   H ( 10)  4.836833  4.111239  2.952005
   H ( 11)  4.165034  4.351596  2.756535  2.557970
   C ( 12)  3.170841  2.269699  3.018620  2.293826  3.474376
   H ( 13)  3.541646  2.903948  4.082389  2.917655  4.375386  1.085718

 
 A cutoff of  1.0D-14 yielded   1403 shell pairs
 There are     13511 function pairs
 
 -------------------------------------------------------
 OpenMP Integral Computing Module                       
 Release: version 1.0, May 2013, Q-Chem Inc. Pittsburgh 
 -------------------------------------------------------
 Integral Job Info:
 Integral job number is                      11
 Integral operator is                         1
 short-range coefficients                     0
 long-range coefficients              100000000
 Omega coefficients                           0
 if combine SR and LR in K                    0
 Integral screening is                        0
 Integral computing path is                   2
 max size of driver memory is            800000
 size of driver memory is                593474
 size of scratch memory is              2361544
 max col of scratch BK array               1296
 max len of scratch array in speh3          155
 max len of scratch index in speh4           18
 max int batch size is                      520
 min int batch size is                       52
 fixed nKL is                                52
 max L of basis functions is                  2
 order of int derivative is                   0
 number of shells is                         53
 number of basis is                         163
 number of cartesian basis is               163
 number of contracted shell pairs          1403
 number of primitive shell pairs           4841
 maxK2 (contraction) of shell pair           36
 max number of K2 of shell pair               1
 max number of CS2 of shell pair            126
 max number of PS2 of shell pair            720
 mem total for path MDJ                  535308
 -------------------------------------------------------
 Smallest overlap matrix eigenvalue = 2.39E-05

 Scale SEOQF with 1.000000e-01/1.000000e-01/1.000000e-01

 Standard Electronic Orientation quadrupole field applied
 Nucleus-field energy     =     0.0000000015 hartrees
 Guess MOs from SCF MO coefficient file
 Reading MOs from coefficient file
 Reading MOs from coefficient file
 An unrestricted hybrid HF-DFT SCF calculation will be
 performed using Pulay DIIS extrapolation
 Exchange:     0.2000 Hartree-Fock + 0.0800 Slater + 0.7200 B88
 Correlation:  0.1900 VWN1RPA + 0.8100 LYP
 Using SG-1 standard quadrature grid
 SCF converges when DIIS error is below 1.0E-08
Using Q-Chem read-in guess as SCF_GUESS READ specified.

 using 4 threads for integral computing
 -------------------------------------------------------
 OpenMP Integral computing Module                
 Release: version 1.0, May 2013, Q-Chem Inc. Pittsburgh 
 -------------------------------------------------------
 -------------------------------------------------------
 OpenMP BLAS3 based DFT computing Module                
 Release: version 1.0, May 2013, Q-Chem Inc. Pittsburgh 
 -------------------------------------------------------
 ---------------------------------------
  Cycle       Energy         DIIS Error
 ---------------------------------------
    1    -286.8593755044      5.84E-10
    2    -286.8593755044      1.13E-09 Convergence criterion met
 ---------------------------------------
 One-Electron    Energy =  -944.4116518686
 Total Coulomb   Energy =   417.1656155733
 Alpha Exchange  Energy =    -4.0219923596
 Beta  Exchange  Energy =    -3.9277965078
 DFT   Exchange  Energy =   -31.5750673591
 DFT Correlation Energy =    -2.1126443589
 Nuclear Repu.   Energy =   282.0241613764
 Nuclear Attr.   Energy = -1228.5601403767
 Kinetic         Energy =   284.1484885081
 <S^2> = 0.7568
 SCF time:  CPU 9.93 s  wall 2.68 s
 Final Alpha MO Eigenvalues
            1           2           3           4           5           6
    1 -14.3339833 -10.2336944 -10.2301445 -10.2199428 -10.2192588 -10.2187482
            7           8           9          10          11          12
    1 -10.2157701  -0.9786461  -0.8666151  -0.7587911  -0.6736081  -0.6155112
           13          14          15          16          17          18
    1  -0.5801186  -0.5443044  -0.5237966  -0.4750366  -0.4483407  -0.4151617
           19          20          21          22          23          24
    1  -0.4097852  -0.3656970  -0.3464003  -0.3091969  -0.2852533  -0.2674679
           25          26          27          28          29          30
    1  -0.1879655  -0.0178596   0.0021133   0.0159156   0.0196525   0.0317978
 Final Beta MO Eigenvalues
            1           2           3           4           5           6
    1 -14.3331061 -10.2319802 -10.2293178 -10.2206732 -10.2198385 -10.2173715
            7           8           9          10          11          12
    1 -10.2037281  -0.9746929  -0.8606441  -0.7513476  -0.6618263  -0.6109266
           13          14          15          16          17          18
    1  -0.5759334  -0.5372918  -0.5177208  -0.4690030  -0.4441305  -0.4122158
           19          20          21          22          23          24
    1  -0.4037065  -0.3583186  -0.3416770  -0.3016004  -0.2741697  -0.2621359
           25          26          27          28          29
    1  -0.0751802  -0.0071120   0.0026518   0.0158639   0.0203348
 SCF   energy in the final basis set = -286.85937550
 Total energy in the final basis set = -286.85937550
 
 --------------------------------------------------------------
 
                    Orbital Energies (a.u.)
 --------------------------------------------------------------
 
 Alpha MOs
 -- Occupied --
-14.334 -10.234 -10.230 -10.220 -10.219 -10.219 -10.216  -0.979
 -0.867  -0.759  -0.674  -0.616  -0.580  -0.544  -0.524  -0.475
 -0.448  -0.415  -0.410  -0.366  -0.346  -0.309  -0.285  -0.267
 -0.188
 -- Virtual --
 -0.018   0.002   0.016   0.020   0.032   0.045   0.047   0.060
  0.072   0.074   0.080   0.092   0.103   0.108   0.111   0.115
  0.125   0.138   0.146   0.162   0.165   0.175   0.183   0.186
  0.188   0.194   0.211   0.215   0.227   0.240   0.246   0.254
  0.260   0.264   0.283   0.293   0.300   0.321   0.332   0.338
  0.358   0.386   0.421   0.457   0.617   0.663   0.674   0.689
  0.706   0.724   0.731   0.744   0.751   0.764   0.788   0.793
  0.803   0.812   0.832   0.872   0.903   0.919   0.932   0.982
  0.991   1.030   1.042   1.044   1.079   1.088   1.103   1.154
  1.229   1.260   1.324   1.388   1.415   1.470   1.484   1.495
  1.545   1.578   1.645   1.686   1.690   1.777   1.801   1.850
  1.908   1.914   1.959   1.979   2.022   2.080   2.119   2.143
  2.162   2.183   2.229   2.304   2.346   2.361   2.368   2.399
  2.416   2.449   2.464   2.482   2.499   2.512   2.543   2.561
  2.566   2.587   2.616   2.641   2.684   2.716   2.765   2.804
  2.822   2.874   2.998   3.046   3.094   3.271   3.333   3.360
  3.529   3.552   3.660   4.180   4.428   4.456   4.601   4.616
  4.659   4.877
 
 Beta MOs
 -- Occupied --
-14.333 -10.232 -10.229 -10.221 -10.220 -10.217 -10.204  -0.975
 -0.861  -0.751  -0.662  -0.611  -0.576  -0.537  -0.518  -0.469
 -0.444  -0.412  -0.404  -0.358  -0.342  -0.302  -0.274  -0.262
 -- Virtual --
 -0.075  -0.007   0.003   0.016   0.020   0.035   0.046   0.048
  0.060   0.073   0.078   0.082   0.094   0.104   0.109   0.112
  0.117   0.128   0.140   0.148   0.162   0.167   0.177   0.184
  0.187   0.191   0.195   0.212   0.220   0.233   0.242   0.249
  0.256   0.263   0.266   0.286   0.296   0.303   0.323   0.334
  0.341   0.362   0.389   0.426   0.461   0.620   0.669   0.688
  0.698   0.710   0.729   0.742   0.751   0.756   0.773   0.791
  0.801   0.808   0.814   0.839   0.874   0.906   0.921   0.935
  0.984   0.995   1.032   1.046   1.047   1.082   1.092   1.110
  1.162   1.231   1.265   1.330   1.391   1.417   1.478   1.495
  1.501   1.549   1.584   1.648   1.689   1.699   1.783   1.807
  1.863   1.912   1.924   1.967   1.985   2.026   2.086   2.133
  2.154   2.169   2.187   2.232   2.308   2.352   2.363   2.373
  2.403   2.420   2.458   2.467   2.487   2.506   2.518   2.546
  2.564   2.574   2.593   2.623   2.647   2.688   2.722   2.772
  2.808   2.824   2.878   3.000   3.049   3.097   3.273   3.335
  3.365   3.530   3.557   3.664   4.182   4.445   4.458   4.603
  4.620   4.664   4.882
 --------------------------------------------------------------
 
          Ground-State Mulliken Net Atomic Charges

     Atom                 Charge (a.u.)    Spin (a.u.)
  --------------------------------------------------------
      1 C                    -0.051057       0.053956
      2 C                    -0.027988      -0.115576
      3 C                    -0.061441       0.087313
      4 C                    -0.054085      -0.154997
      5 C                    -0.291670       0.103791
      6 N                    -0.171278       0.035488
      7 H                     0.131168       0.001040
      8 H                     0.133697       0.023535
      9 H                     0.133346       0.000305
     10 H                     0.138595       0.005188
     11 H                     0.144214       0.003555
     12 C                    -0.154368       0.979482
     13 H                     0.130867      -0.023081
  --------------------------------------------------------
  Sum of atomic charges =    -0.000000
  Sum of spin   charges =     1.000000

 -----------------------------------------------------------------
                    Cartesian Multipole Moments
 -----------------------------------------------------------------
    Charge (ESU x 10^10)
                -0.0000
    Dipole Moment (Debye)
         X      -0.9714      Y      -2.0838      Z       0.0494
       Tot       2.2996
    Quadrupole Moments (Debye-Ang)
        XX     -38.3172     XY      -4.9305     YY     -46.0111
        XZ       2.0078     YZ       0.9658     ZZ     -40.7348
    Octopole Moments (Debye-Ang^2)
       XXX      -7.5376    XXY      -6.1411    XYY      -9.7406
       YYY     -25.7776    XXZ       2.0271    XYZ       1.0490
       YYZ      -0.6639    XZZ      -6.5615    YZZ      -7.4820
       ZZZ       6.3395
    Hexadecapole Moments (Debye-Ang^3)
      XXXX    -263.5501   XXXY     -18.0076   XXYY     -94.4761
      XYYY     -34.1538   YYYY    -260.7628   XXXZ       9.1258
      XXYZ      13.5124   XYYZ       9.7719   YYYZ      34.9619
      XXZZ     -80.0622   XYZZ      -6.7626   YYZZ     -72.0359
      XZZZ      11.7477   YZZZ      29.5496   ZZZZ    -177.2794
 -----------------------------------------------------------------
 Mayer SCF Bond Order, atomic valence on the diagonal:

            1           2           3           4           5           6
    1   3.7816202   0.8591585   0.0299754   0.0276512   0.0133877   1.6827676
    2   0.8591585   3.5951922   1.0062668  -0.0650700   0.0100732  -0.0451569
    3   0.0299754   1.0062668   3.8340542   0.8787004   0.9811019  -0.0108360
    4   0.0276512  -0.0650700   0.8787004   3.7359754   0.8471088  -0.0471699
    5   0.0133877   0.0100732   0.9811019   0.8471088   3.9879492   1.0507225
    6   1.6827676  -0.0451569  -0.0108360  -0.0471699   1.0507225   2.6901638
    7   0.9655607  -0.0541020   0.0204590  -0.0082567   0.0187873  -0.0236998
    8  -0.0013708   0.8718528   0.0347494   0.0089224  -0.0054942   0.0141944
    9  -0.0134798   0.0669163   0.8002125   0.0570984   0.0505139   0.0063750
   10  -0.0013990   0.0117604   0.0293852   0.8328322   0.0485068  -0.0011514
   11   0.0111909   0.0043691   0.0094983   0.0057000   0.9270253  -0.0209300
   12   0.1777718   0.9140243   0.0355738   1.1297469   0.0701621   0.0849500
   13   0.0304060   0.0150996   0.0189674   0.0687116  -0.0239460   0.0000983
            7           8           9          10          11          12
    1   0.9655607  -0.0013708  -0.0134798  -0.0013990   0.0111909   0.1777718
    2  -0.0541020   0.8718528   0.0669163   0.0117604   0.0043691   0.9140243
    3   0.0204590   0.0347494   0.8002125   0.0293852   0.0094983   0.0355738
    4  -0.0082567   0.0089224   0.0570984   0.8328322   0.0057000   1.1297469
    5   0.0187873  -0.0054942   0.0505139   0.0485068   0.9270253   0.0701621
    6  -0.0236998   0.0141944   0.0063750  -0.0011514  -0.0209300   0.0849500
    7   0.9474564   0.0001462   0.0004799   0.0004201   0.0022957   0.0253408
    8   0.0001462   0.9550580   0.0002960   0.0023328   0.0013963   0.0277225
    9   0.0004799   0.0002960   0.9624863   0.0005555   0.0003363  -0.0088835
   10   0.0004201   0.0023328   0.0005555   0.9549418  -0.0002538   0.0316276
   11   0.0022957   0.0013963   0.0003363  -0.0002538   0.9473070   0.0065696
   12   0.0253408   0.0277225  -0.0088835   0.0316276   0.0065696   3.3380946
   13   0.0000252   0.0003102   0.0020656   0.0003253   0.0001093   0.8434886
           13
    1   0.0304060
    2   0.0150996
    3   0.0189674
    4   0.0687116
    5  -0.0239460
    6   0.0000983
    7   0.0000252
    8   0.0003102
    9   0.0020656
   10   0.0003253
   11   0.0001093
   12   0.8434886
   13   0.9556610


Archival summary:
1\1\c8-66\SP\ProcedureUnspecified\6-31+G**\166(2)\hpark21\ThuMar314:12:022022ThuMar314:12:022022\0\\#,ProcedureUnspecified,6-31+G**,\\0,2\N\C,1,1.28517\H,2,1.08799,1,121.718\C,1,1.4401,2,106.512,3,-176.281,0\H,4,1.08436,1,117.615,2,-165.488,0\C,4,1.48471,1,112.078,2,-16.7672,0\H,6,1.08507,4,129.096,1,-128.838,0\C,2,1.52461,1,113.505,3,172.646,0\H,8,1.0913,2,117.59,1,156.268,0\C,8,1.52704,2,105.08,1,-68.3469,0\H,10,1.08572,8,131.726,2,-79.0324,0\C,10,1.45449,8,92.6088,2,84.6126,0\H,12,1.08472,10,128.621,8,161.811,0\\\@

 Total job time:  5.07s(wall), 11.72s(cpu) 
 Thu Mar  3 14:12:02 2022

        *************************************************************
        *                                                           *
        *  Thank you very much for using Q-Chem.  Have a nice day.  *
        *                                                           *
        *************************************************************


