
Running Job 1 of 1 qcts2.in
qchem qcts2.in_2404.0 ./qcts2.d/ 1
/home/leeping/opt/qchem/5.0.2-openmp/exe/qcprog.exe_s qcts2.in_2404.0 ./qcts2.d/
Check license passed

                  Welcome to Q-Chem
     A Quantum Leap Into The Future Of Chemistry


 Q-Chem 5.0, Q-Chem, Inc., Pleasanton, CA (2017)

 Yihan Shao,  Zhengting Gan,  E. Epifanovsky,  A. T. B. Gilbert,  M. Wormit,  
 J. Kussmann,  A. W. Lange,  A. Behn,  Jia Deng,  Xintian Feng,  D. Ghosh,  
 M. Goldey,  P. R. Horn,  L. D. Jacobson,  I. Kaliman,  T. Kus,  A. Landau,  
 Jie Liu,  E. I. Proynov,  R. M. Richard,  R. P. Steele,  E. J. Sundstrom,  
 H. L. Woodcock III,  P. M. Zimmerman,  D. Zuev,  B. Albrecht,  E. Alguire,  
 S. A. Baeppler,  D. Barton,  Z. Benda,  Y. A. Bernard,  E. J. Berquist,  
 K. B. Bravaya,  H. Burton,  D. Casanova,  Chun-Min Chang,  Yunqing Chen,  
 A. Chien,  K. D. Closser,  M. P. Coons,  S. Dasgupta,  A. L. Dempwolff,  
 M. Diedenhofen,  Hainam Do,  R. G. Edgar,  Po-Tung Fang,  S. Fatehi,  
 Qingguo Feng,  J. Fosso-Tande,  Qinghui Ge,  A. Ghysels,  G. Gidofalvi,  
 J. Gomes,  J. Gonthier,  A. Gunina,  M. W. D. Hanson-Heine,  
 P. H. P. Harbach,  A. W. Hauser,  J. E. Herr,  E. G. Hohenstein,  
 Z. C. Holden,  Kerwin Hui,  T.-C. Jagau,  Hyunjun Ji,  B. Kaduk,  
 K. Khistyaev,  Jaehoon Kim,  P. Klunzinger,  K. Koh,  D. Kosenkov,  
 L. Koulias,  T. Kowalczyk,  C. M. Krauter,  A. Kunitsa,  Ka Un Lao,  
 A. Laurent,  K. V. Lawler,  Joonho Lee,  D. Lefrancois,  S. Lehtola,  
 D. S. Levine,  Yi-Pei Li,  You-Sheng Lin,  Fenglai Liu,  E. Livshits,  
 A. Luenser,  P. Manohar,  E. Mansoor,  S. F. Manzer,  Shan-Ping Mao,  
 Yuezhi Mao,  N. Mardirossian,  A. V. Marenich,  T. Markovich,  
 L. A. Martinez-Martinez,  S. A. Maurer,  N. J. Mayhall,  S. C. McKenzie,  
 J.-M. Mewes,  A. F. Morrison,  J. W. Mullinax,  K. Nanda,  
 T. S. Nguyen-Beck,  R. Olivares-Amaya,  J. A. Parkhill,  T. M. Perrine,  
 F. Plasser,  S. Prager,  A. Prociuk,  E. Ramos,  D. R. Rehn,  F. Rob,  
 M. Schneider,  N. Sergueev,  S. M. Sharada,  S. Sharma,  D. W. Small,  
 T. Stauch,  T. Stein,  Yu-Chuan Su,  A. J. W. Thom,  A. Tkatchenko,  
 T. Tsuchimochi,  L. Vogt,  O. Vydrov,  M. A. Watson,  J. Wenzel,  
 M. de Wergifosse,  T. A. Wesolowski,  A. White,  J. Witte,  A. Yamada,  
 Jun Yang,  K. Yao,  S. Yeganeh,  S. R. Yost,  Zhi-Qiang You,  A. Zech,  
 Igor Ying Zhang,  Xing Zhang,  Yan Zhao,  Ying Zhu,  B. R. Brooks,  
 G. K. L. Chan,  C. J. Cramer,  M. S. Gordon,  W. J. Hehre,  A. Klamt,  
 M. W. Schmidt,  C. D. Sherrill,  D. G. Truhlar,  A. Aspuru-Guzik,  R. Baer,  
 A. T. Bell,  N. A. Besley,  Jeng-Da Chai,  R. A. DiStasio Jr.,  A. Dreuw,  
 B. D. Dunietz,  T. R. Furlani,  Chao-Ping Hsu,  Yousung Jung,  Jing Kong,  
 D. S. Lambrecht,  WanZhen Liang,  C. Ochsenfeld,  V. A. Rassolov,  
 L. V. Slipchenko,  J. E. Subotnik,  T. Van Voorhis,  J. M. Herbert,  
 A. I. Krylov,  P. M. W. Gill,  M. Head-Gordon

 Contributors to earlier versions of Q-Chem not listed above: 
 R. D. Adamson,  B. Austin,  J. Baker,  G. J. O. Beran,  K. Brandhorst,  
 S. T. Brown,  E. F. C. Byrd,  A. K. Chakraborty,  C.-L. Cheng,  
 Siu Hung Chien,  D. M. Chipman,  D. L. Crittenden,  H. Dachsel,  
 R. J. Doerksen,  A. D. Dutoi,  L. Fusti-Molnar,  W. A. Goddard III,  
 A. Golubeva-Zadorozhnaya,  S. R. Gwaltney,  G. Hawkins,  A. Heyden,  
 S. Hirata,  G. Kedziora,  F. J. Keil,  C. Kelley,  Jihan Kim,  R. A. King,  
 R. Z. Khaliullin,  P. P. Korambath,  W. Kurlancheek,  A. M. Lee,  M. S. Lee,  
 S. V. Levchenko,  Ching Yeh Lin,  D. Liotard,  R. C. Lochan,  I. Lotan,  
 P. E. Maslen,  N. Nair,  D. P. O'Neill,  D. Neuhauser,  E. Neuscamman,  
 C. M. Oana,  R. Olson,  B. Peters,  R. Peverati,  P. A. Pieniazek,  
 Y. M. Rhee,  J. Ritchie,  M. A. Rohrdanz,  E. Rosta,  N. J. Russ,  
 H. F. Schaefer III,  N. E. Schultz,  N. Shenvi,  A. C. Simmonett,  A. Sodt,  
 D. Stuck,  K. S. Thanthiriwatte,  V. Vanovschi,  Tao Wang,  A. Warshel,  
 C. F. Williams,  Q. Wu,  X. Xu,  W. Zhang

 Please cite Q-Chem as follows:
 Y. Shao et al., Mol. Phys. 113, 184-215 (2015)
 DOI: 10.1080/00268976.2014.952696

 Q-Chem 5.0.2 for Intel X86 EM64T Linux

 Parts of Q-Chem use Armadillo 5.200.1 (Boston Tea Smuggler).
 http://arma.sourceforge.net/

 Q-Chem begins on Thu Mar  3 11:52:03 2022  

Host: 
0

     Scratch files written to ./qcts2.d//
 Dec517 15110_ 26548  26544 5633   
Processing $rem in /home/leeping/opt/qchem/5.0.2-openmp/config/preferences.
 MEM_STATIC 2000
 MEM_TOTAL  8000
 SYMMETRY   OFF
 SYM_IGNORE TRUE 

Checking the input file for inconsistencies... 	...done.

--------------------------------------------------------------
User input:
--------------------------------------------------------------
$molecule
0 2
C        1.5434760884    0.3858143662   -0.1753184021
C        0.6693660864   -0.8625081413   -0.0379138367
C       -0.5043027226   -0.4499525031   -0.9576563082
C       -1.0965489010    0.3134439487    0.6396653382
C       -0.5173978408    0.9939002290   -0.6010755935
N        0.8727826079    1.4447284963   -0.4575641644
H        2.6060839659    0.4219049182    0.0550351109
H        1.1473966534   -1.8362532132   -0.1394733930
H       -1.1132032332   -1.0316439148   -1.6356304807
H       -2.0691905420    0.6006635492    1.0295884180
H       -1.1801588377    1.6853956861   -1.1129971504
C       -0.1937864422   -0.6066654359    1.1967551791
H       -0.1890614072   -1.0851859466    2.1660495624
$end

$rem
method                b3lyp
basis                 6-31+g(d,p)
unrestricted          true
symmetry              off
sym_ignore            true
incdft                false
incfock               0
scf_convergence       8
thresh                14
jobtype               freq
scf_guess             read
scf_algorithm         diis
max_scf_cycles        100
$end

--------------------------------------------------------------
 ----------------------------------------------------------------
             Standard Nuclear Orientation (Angstroms)
    I     Atom           X                Y                Z
 ----------------------------------------------------------------
    1      C       1.5434760884     0.3858143662    -0.1753184021
    2      C       0.6693660864    -0.8625081413    -0.0379138367
    3      C      -0.5043027226    -0.4499525031    -0.9576563082
    4      C      -1.0965489010     0.3134439487     0.6396653382
    5      C      -0.5173978408     0.9939002290    -0.6010755935
    6      N       0.8727826079     1.4447284963    -0.4575641644
    7      H       2.6060839659     0.4219049182     0.0550351109
    8      H       1.1473966534    -1.8362532132    -0.1394733930
    9      H      -1.1132032332    -1.0316439148    -1.6356304807
   10      H      -2.0691905420     0.6006635492     1.0295884180
   11      H      -1.1801588377     1.6853956861    -1.1129971504
   12      C      -0.1937864422    -0.6066654359     1.1967551791
   13      H      -0.1890614072    -1.0851859466     2.1660495624
 ----------------------------------------------------------------
 Nuclear Repulsion Energy =   281.0292385591 hartrees
 There are       25 alpha and       24 beta electrons
 Requested basis set is 6-31+G(d,p)
 There are 53 shells and 163 basis functions

 Total QAlloc Memory Limit   8000 MB
 Mega-Array Size      1956 MB
 MEM_STATIC part      2000 MB

                       Distance Matrix (Angstroms)
             C (  1)   C (  2)   C (  3)   C (  4)   C (  5)   N (  6)
   C (  2)  1.530117
   C (  3)  2.346051  1.547135
   C (  4)  2.763904  2.227203  1.866806
   C (  5)  2.190488  2.274162  1.487290  1.529011
   N (  6)  1.284831  2.353896  2.395052  2.522297  1.468483
   H (  7)  1.087888  2.325776  3.385289  3.750073  3.242499  2.076839
   H (  8)  2.257376  1.089499  2.306375  3.203677  3.315778  3.307784
   H (  9)  3.346587  2.399762  1.081098  2.643201  2.351195  3.385912
   H ( 10)  3.814357  3.283310  2.738943  1.086539  2.285117  3.402833
   H ( 11)  3.160117  3.326915  2.245133  2.227346  1.086039  2.168428
   C ( 12)  2.426043  1.528036  2.182308  1.404254  2.428730  2.842984
   H ( 13)  3.263056  2.375697  3.203192  2.260431  3.476692  3.796226
             H (  7)   H (  8)   H (  9)   H ( 10)   H ( 11)   C ( 12)
   H (  8)  2.695344
   H (  9)  4.336387  2.827754
   H ( 10)  4.779111  4.201393  3.268292
   H ( 11)  4.158887  4.332121  2.767658  2.560800
   C ( 12)  3.193862  2.257469  3.008046  2.236678  3.400210
   H ( 13)  3.813206  2.768693  3.912758  2.769209  4.405740  1.080988

 
 A cutoff of  1.0D-14 yielded   1405 shell pairs
 There are     13515 function pairs
 Smallest overlap matrix eigenvalue = 2.77E-05
 Guess MOs from SCF MO coefficient file
 Reading MOs from coefficient file
 Reading MOs from coefficient file
 An unrestricted hybrid HF-DFT SCF calculation will be
 performed using Pulay DIIS extrapolation
 Exchange:     0.2000 Hartree-Fock + 0.0800 Slater + 0.7200 B88
 Correlation:  0.1900 VWN1RPA + 0.8100 LYP
 Using SG-1 standard quadrature grid
 SCF converges when DIIS error is below 1.0E-08
Using Q-Chem read-in guess as SCF_GUESS READ specified.

 -------------------------------------------------------
 OpenMP BLAS3 based DFT computing Module                
 -------------------------------------------------------
 ---------------------------------------
  Cycle       Energy         DIIS Error
 ---------------------------------------
    1    -286.8476211924      4.22E-10
    2    -286.8476211924      7.40E-10 Convergence criterion met
 ---------------------------------------
 <S^2> = 0.7773
 SCF time:  CPU 6.45 s  wall 7.04 s
 SCF   energy in the final basis set = -286.84762119
 Total energy in the final basis set = -286.84762119
 
 --------------------------------------------------------------
 
                    Orbital Energies (a.u.)
 --------------------------------------------------------------
 
 Alpha MOs
 -- Occupied --
-14.330 -10.235 -10.230 -10.229 -10.226 -10.221 -10.206  -0.972
 -0.849  -0.751  -0.696  -0.602  -0.585  -0.548  -0.522  -0.472
 -0.444  -0.424  -0.409  -0.378  -0.356  -0.296  -0.284  -0.277
 -0.157
 -- Virtual --
 -0.017  -0.010   0.001   0.018   0.029   0.033   0.046   0.048
  0.063   0.071   0.074   0.095   0.100   0.107   0.109   0.118
  0.124   0.129   0.141   0.153   0.164   0.178   0.180   0.185
  0.192   0.196   0.207   0.217   0.225   0.234   0.240   0.251
  0.259   0.268   0.281   0.287   0.309   0.313   0.331   0.368
  0.372   0.382   0.407   0.455   0.629   0.668   0.675   0.695
  0.699   0.713   0.725   0.734   0.744   0.753   0.778   0.793
  0.806   0.814   0.858   0.901   0.916   0.936   0.955   1.002
  1.015   1.033   1.047   1.070   1.082   1.095   1.104   1.139
  1.202   1.217   1.325   1.341   1.384   1.419   1.437   1.487
  1.558   1.622   1.626   1.691   1.724   1.767   1.817   1.865
  1.879   1.908   1.952   1.980   2.043   2.093   2.105   2.126
  2.156   2.212   2.220   2.277   2.304   2.327   2.363   2.397
  2.404   2.437   2.447   2.485   2.504   2.520   2.534   2.553
  2.569   2.606   2.618   2.655   2.685   2.703   2.745   2.777
  2.852   2.857   2.981   3.071   3.083   3.291   3.316   3.326
  3.508   3.599   3.687   4.171   4.413   4.487   4.568   4.620
  4.694   4.830
 
 Beta MOs
 -- Occupied --
-14.329 -10.235 -10.231 -10.230 -10.222 -10.217 -10.197  -0.968
 -0.842  -0.747  -0.684  -0.598  -0.577  -0.541  -0.519  -0.463
 -0.441  -0.419  -0.407  -0.373  -0.351  -0.287  -0.275  -0.265
 -- Virtual --
 -0.054  -0.009  -0.002   0.003   0.019   0.031   0.038   0.047
  0.049   0.063   0.072   0.077   0.096   0.101   0.108   0.109
  0.119   0.128   0.132   0.142   0.153   0.164   0.179   0.181
  0.188   0.195   0.197   0.208   0.223   0.228   0.237   0.242
  0.254   0.260   0.273   0.282   0.288   0.312   0.315   0.333
  0.372   0.376   0.385   0.411   0.457   0.634   0.674   0.678
  0.700   0.711   0.727   0.734   0.744   0.749   0.759   0.784
  0.796   0.808   0.817   0.859   0.905   0.919   0.939   0.958
  1.005   1.019   1.036   1.049   1.071   1.087   1.102   1.109
  1.148   1.207   1.221   1.330   1.346   1.387   1.425   1.442
  1.490   1.566   1.627   1.635   1.698   1.732   1.770   1.828
  1.870   1.885   1.913   1.955   1.984   2.048   2.102   2.110
  2.129   2.165   2.220   2.229   2.283   2.310   2.330   2.367
  2.403   2.406   2.443   2.454   2.489   2.508   2.526   2.542
  2.556   2.573   2.615   2.620   2.664   2.692   2.706   2.747
  2.782   2.857   2.861   2.983   3.074   3.085   3.292   3.318
  3.327   3.510   3.602   3.691   4.173   4.423   4.486   4.581
  4.626   4.696   4.835
 --------------------------------------------------------------
 
          Ground-State Mulliken Net Atomic Charges

     Atom                 Charge (a.u.)    Spin (a.u.)
  --------------------------------------------------------
      1 C                    -0.069086      -0.002268
      2 C                     0.000110      -0.102176
      3 C                    -0.199458       0.595144
      4 C                    -0.101941      -0.233477
      5 C                    -0.134048      -0.021038
      6 N                    -0.179473       0.062202
      7 H                     0.132718       0.001541
      8 H                     0.129224       0.010588
      9 H                     0.146008      -0.024477
     10 H                     0.139191       0.010303
     11 H                     0.138901       0.004344
     12 C                    -0.141245       0.728135
     13 H                     0.139098      -0.028819
  --------------------------------------------------------
  Sum of atomic charges =    -0.000000
  Sum of spin   charges =     1.000000

 -----------------------------------------------------------------
                    Cartesian Multipole Moments
 -----------------------------------------------------------------
    Charge (ESU x 10^10)
                -0.0000
    Dipole Moment (Debye)
         X      -1.2205      Y      -2.2885      Z       0.2422
       Tot       2.6049
    Quadrupole Moments (Debye-Ang)
        XX     -38.1806     XY      -4.9044     YY     -45.4807
        XZ       1.4551     YZ       0.6474     ZZ     -41.6963
    Octopole Moments (Debye-Ang^2)
       XXX      -7.4217    XXY      -5.8395    XYY     -10.5636
       YYY     -30.4979    XXZ       2.9170    XYZ       0.9886
       YYZ       2.0011    XZZ      -9.1627    YZZ      -9.9301
       ZZZ       8.0583
    Hexadecapole Moments (Debye-Ang^3)
      XXXX    -255.1613   XXXY     -14.7199   XXYY     -91.3351
      XYYY     -30.5473   YYYY    -262.5613   XXXZ      12.7285
      XXYZ      13.2017   XYYZ      11.3646   YYYZ      30.4462
      XXZZ     -79.7205   XYZZ      -4.6422   YYZZ     -71.5007
      XZZZ      14.2657   YZZZ      21.6591   ZZZZ    -202.1387
 -----------------------------------------------------------------
 Calculating MO derivatives via CPSCF
   1         3          39      0.294636    0.058081
   2         3          39      0.037884    0.007077
   3         3          39      0.004787    0.000894
   4         3          39      0.000736    0.000180
   5        24          18      0.000062    0.000016
   6        40           2      0.000003    0.000001
   7        42           0      0.000000    0.000000    Roots Converged
 Time for AOints: 19.4 s (CPU) 19.4 s (wall)
 ------------------------------------------------------------------------------
                     AOints        : Timing summary (seconds)
 ------------------------------------------------------------------------------
     job step          cpu (% of tot)      sys (% of tot)     wall (% of tot)
 ------------------------------------------------------------------------------
  cpscf_lag         0.1173E+03 (27.9)   0.3800E-04 (36.2)   0.1186E+03 (28.0)
  iterzp            0.2829E+03 (67.4)   0.6400E-04 (61.0)   0.2851E+03 (67.3)
  make_fx           0.0000E+00 ( 0.0)   0.0000E+00 ( 0.0)   0.0000E+00 ( 0.0)
  AOints            0.1938E+02 ( 4.6)   0.1000E-05 ( 1.0)   0.1942E+02 ( 4.6)
 ------------------------------------------------------------------------------
   Grand Totals     0.4199E+03          0.1050E-03          0.4235E+03
 ------------------------------------------------------------------------------
 Calculating analytic Hessian of the SCF energy
 Polarizability Matrix (a.u.)
            1           2           3
    1 -75.0116670   1.1246057   0.6520715
    2   1.1246057 -67.7846580   3.8518743
    3   0.6520715   3.8518743 -74.4466030
 
 Direct stationary perturbation theory relativistic correction:
 
 rels  =       0.069333127154
 relv  =      -0.341429819045
 rel2e =       0.159088123308
 E_rel =      -0.113008568583
 
 Hessian of the SCF Energy
            1           2           3           4           5           6
    1   0.7812483  -0.1384790   0.1425344  -0.1081469  -0.0340774  -0.0051034
    2  -0.1384790   0.5971458  -0.1002139  -0.0305585  -0.1237614  -0.0050554
    3   0.1425344  -0.1002139   0.1964446  -0.0027821   0.0047226  -0.0565153
    4  -0.1081469  -0.0305585  -0.0027821   0.4429679  -0.1605880  -0.0118441
    5  -0.0340774  -0.1237614   0.0047226  -0.1605880   0.6334656   0.0213293
    6  -0.0051034  -0.0050554  -0.0565153  -0.0118441   0.0213293   0.3102353
    7  -0.0354559  -0.0201568  -0.0141556  -0.0993349   0.0152977  -0.0539829
    8  -0.0084260   0.0019374  -0.0093153   0.0278968  -0.0816110   0.0064081
    9  -0.0128232  -0.0041115  -0.0010843  -0.0552336   0.0056100  -0.0842768
   10  -0.0093694   0.0023405   0.0033432  -0.0475265   0.0198610   0.0195097
   11   0.0091547  -0.0136170   0.0054935   0.0343952  -0.0027634  -0.0145513
   12  -0.0002891   0.0111982   0.0025896   0.0179651  -0.0239723   0.0058324
   13  -0.0715488   0.0347367  -0.0193083  -0.0232148   0.0232389  -0.0024715
   14   0.0250463   0.0085196  -0.0013146   0.0127698  -0.0316707   0.0120188
   15  -0.0132377  -0.0046860  -0.0024158  -0.0018331   0.0122734  -0.0122103
   16  -0.2252477   0.2073943  -0.0655310   0.0186540   0.0028827  -0.0071606
   17   0.1703779  -0.4034170   0.0869844  -0.0032166  -0.0550077   0.0141486
   18  -0.0594282   0.0877043  -0.0769760  -0.0012283   0.0166041   0.0155734
   19  -0.3217357  -0.0178950  -0.0578041  -0.0046510   0.0027310  -0.0038155
   20  -0.0261798  -0.0544276   0.0001959  -0.0179209   0.0039853  -0.0048937
   21  -0.0610529   0.0011601  -0.0513879   0.0036016   0.0022900   0.0042914
   22   0.0150481  -0.0158172  -0.0018811  -0.1021470   0.1093634   0.0064664
   23   0.0139205  -0.0127174  -0.0004426   0.1093902  -0.2723189  -0.0244378
   24  -0.0024227   0.0024188  -0.0011820   0.0080674  -0.0263408  -0.0497423
   25  -0.0016363  -0.0010964  -0.0025790  -0.0012731  -0.0126062  -0.0027854
   26  -0.0002233  -0.0031428   0.0017698   0.0047263   0.0089270   0.0079495
   27  -0.0001327   0.0004120   0.0009151   0.0013014  -0.0046091  -0.0020373
   28   0.0003543   0.0005087   0.0004275  -0.0001311   0.0036634   0.0006060
   29  -0.0007177  -0.0021849   0.0006920   0.0070777   0.0002026   0.0025566
   30   0.0016018  -0.0007430   0.0010633   0.0015380   0.0046529  -0.0001576
   31  -0.0061613  -0.0020620  -0.0013142  -0.0004626  -0.0009617  -0.0002980
   32  -0.0036533  -0.0009812   0.0000763  -0.0002920  -0.0052129  -0.0006023
   33  -0.0006753  -0.0004668   0.0007864   0.0010191  -0.0034420   0.0008174
   34  -0.0174623  -0.0217083   0.0177925  -0.0767828   0.0420969   0.0505803
   35  -0.0060920   0.0067735   0.0114846   0.0166133  -0.0780929  -0.0082471
   36   0.0117063   0.0127631  -0.0117636   0.0432468  -0.0153157  -0.1270373
   37   0.0001136   0.0027929   0.0012578   0.0020488  -0.0109017   0.0102989
   38  -0.0006508  -0.0001269  -0.0001326  -0.0002932   0.0038583  -0.0066232
   39  -0.0006773  -0.0003800  -0.0004741  -0.0038183   0.0061975  -0.0047730
            7           8           9          10          11          12
    1  -0.0354559  -0.0084260  -0.0128232  -0.0093694   0.0091547  -0.0002891
    2  -0.0201568   0.0019374  -0.0041115   0.0023405  -0.0136170   0.0111982
    3  -0.0141556  -0.0093153  -0.0010843   0.0033432   0.0054935   0.0025896
    4  -0.0993349   0.0278968  -0.0552336  -0.0475265   0.0343952   0.0179651
    5   0.0152977  -0.0816110   0.0056100   0.0198610  -0.0027634  -0.0239723
    6  -0.0539829   0.0064081  -0.0842768   0.0195097  -0.0145513   0.0058324
    7   0.3082830   0.1019368   0.2970279  -0.0390820  -0.0186893  -0.0619113
    8   0.1019368   0.4669771   0.1277869   0.0171808  -0.0042899   0.0043130
    9   0.2970279   0.1277869   0.2693826   0.0365032   0.0148821   0.0736804
   10  -0.0390820   0.0171808   0.0365032   0.6368780  -0.2232392  -0.1365992
   11  -0.0186893  -0.0042899   0.0148821  -0.2232392   0.3109186  -0.1153643
   12  -0.0619113   0.0043130   0.0736804  -0.1365992  -0.1153643   0.2441829
   13  -0.0275218  -0.0176123  -0.0645510  -0.0817873   0.0215758   0.0595237
   14   0.0336877  -0.2204590  -0.0754857  -0.0042395  -0.0520874   0.0907012
   15  -0.0289215  -0.0241508  -0.0329108   0.0328002   0.0253981  -0.1231983
   16  -0.0161623  -0.0280788  -0.0012270  -0.0205380  -0.0322785   0.0231636
   17  -0.0202230  -0.0346056  -0.0132885  -0.0002858  -0.0014572   0.0026584
   18  -0.0208203  -0.0109398   0.0016209   0.0233457   0.0049962   0.0028922
   19  -0.0004564  -0.0003397   0.0009639   0.0005887  -0.0001047  -0.0002784
   20  -0.0022090  -0.0024114   0.0001492  -0.0009207   0.0004605   0.0003638
   21   0.0020204   0.0003946  -0.0023959  -0.0022141   0.0005713   0.0013644
   22  -0.0024162   0.0149952   0.0065682  -0.0017498   0.0008345   0.0032421
   23  -0.0016607   0.0007969   0.0009355  -0.0007703  -0.0000529  -0.0006222
   24  -0.0023302   0.0189523   0.0060434   0.0026274  -0.0001062  -0.0063684
   25  -0.1376811  -0.0926870  -0.1319537   0.0073437   0.0047816   0.0008348
   26  -0.0868708  -0.1393189  -0.1172558   0.0008961  -0.0022011   0.0028905
   27  -0.1370146  -0.1131179  -0.1438699  -0.0068067  -0.0051561  -0.0035974
   28   0.0012850   0.0025649   0.0032480  -0.2864964   0.0770174   0.0896049
   29   0.0002758   0.0020124   0.0080406   0.0714296  -0.0578247  -0.0268170
   30  -0.0027914   0.0085552   0.0088361   0.0902140  -0.0235614  -0.0966040
   31  -0.0001877   0.0008097   0.0020991   0.0083648  -0.0093187   0.0049152
   32   0.0151266  -0.0110760   0.0140898   0.0026708  -0.0025188  -0.0003622
   33   0.0116687  -0.0083684   0.0076836  -0.0173735   0.0178079  -0.0106891
   34   0.0477962  -0.0168119  -0.0755236  -0.1757804   0.1281043   0.0103962
   35  -0.0166565   0.0247776   0.0446913   0.1196045  -0.1717692   0.0387927
   36   0.0126923   0.0005356  -0.0966087  -0.0482590   0.0910464  -0.0906032
   37   0.0009341  -0.0014284  -0.0050983   0.0091545   0.0077670  -0.0105675
   38   0.0001415  -0.0027295  -0.0060440  -0.0045279  -0.0027976   0.0162203
   39  -0.0014816  -0.0010534  -0.0061007   0.0029092  -0.0014561   0.0005186
           13          14          15          16          17          18
    1  -0.0715488   0.0250463  -0.0132377  -0.2252477   0.1703779  -0.0594282
    2   0.0347367   0.0085196  -0.0046860   0.2073943  -0.4034170   0.0877043
    3  -0.0193083  -0.0013146  -0.0024158  -0.0655310   0.0869844  -0.0769760
    4  -0.0232148   0.0127698  -0.0018331   0.0186540  -0.0032166  -0.0012283
    5   0.0232389  -0.0316707   0.0122734   0.0028827  -0.0550077   0.0166041
    6  -0.0024715   0.0120188  -0.0122103  -0.0071606   0.0141486   0.0155734
    7  -0.0275218   0.0336877  -0.0289215  -0.0161623  -0.0202230  -0.0208203
    8  -0.0176123  -0.2204590  -0.0241508  -0.0280788  -0.0346056  -0.0109398
    9  -0.0645510  -0.0754857  -0.0329108  -0.0012270  -0.0132885   0.0016209
   10  -0.0817873  -0.0042395   0.0328002  -0.0205380  -0.0002858   0.0233457
   11   0.0215758  -0.0520874   0.0253981  -0.0322785  -0.0014572   0.0049962
   12   0.0595237   0.0907012  -0.1231983   0.0231636   0.0026584   0.0028922
   13   0.4974877  -0.1508016   0.1266756  -0.1308998  -0.0097193  -0.0155142
   14  -0.1508016   0.5589238  -0.1299517  -0.0289914  -0.0838052   0.0014372
   15   0.1266756  -0.1299517   0.3619889  -0.0251194   0.0106400  -0.0729139
   16  -0.1308998  -0.0289914  -0.0251194   0.4212743  -0.1515274   0.0848612
   17  -0.0097193  -0.0838052   0.0106400  -0.1515274   0.5758752  -0.1046901
   18  -0.0155142   0.0014372  -0.0729139   0.0848612  -0.1046901   0.1345686
   19   0.0001695   0.0023769  -0.0044521  -0.0151031   0.0042859  -0.0029632
   20   0.0019168  -0.0047892   0.0026207   0.0334023   0.0021219   0.0054463
   21  -0.0038576   0.0010288   0.0125646  -0.0049011  -0.0023406  -0.0057138
   22  -0.0040281  -0.0001533  -0.0023819  -0.0023893  -0.0050436   0.0018715
   23  -0.0009251  -0.0012573  -0.0005497  -0.0013432  -0.0049412   0.0010764
   24  -0.0037043   0.0027586  -0.0025155  -0.0003209   0.0013480   0.0005059
   25   0.0017549   0.0087652   0.0053168  -0.0041393  -0.0009536  -0.0002705
   26  -0.0127463   0.0001361  -0.0116063  -0.0023035  -0.0018210  -0.0023255
   27   0.0041882  -0.0013520  -0.0009414   0.0031372   0.0030582   0.0007709
   28  -0.0045886   0.0027528  -0.0013068   0.0001897  -0.0003209   0.0007957
   29  -0.0134440   0.0055923   0.0026383  -0.0015468   0.0012290   0.0021668
   30   0.0202582  -0.0030108  -0.0094382  -0.0016527  -0.0004946  -0.0020972
   31  -0.1521275   0.1089925  -0.0840744  -0.0173092   0.0181631  -0.0123713
   32   0.1104590  -0.1696751   0.0905258  -0.0084024   0.0105732  -0.0080955
   33  -0.0862228   0.0886297  -0.1070853   0.0002423  -0.0000494  -0.0014798
   34   0.0004401  -0.0108257  -0.0057182  -0.0097948   0.0003399   0.0012996
   35   0.0104643  -0.0084360   0.0223127   0.0097896  -0.0046719   0.0064630
   36  -0.0146677   0.0164714  -0.0132674  -0.0062440   0.0024643   0.0029490
   37  -0.0041354   0.0006203   0.0022526   0.0014657  -0.0018767   0.0004225
   38   0.0028571  -0.0009920   0.0045356   0.0010032  -0.0000726   0.0001566
   39  -0.0003483  -0.0019309   0.0023433   0.0007525  -0.0004387   0.0002998
           19          20          21          22          23          24
    1  -0.3217357  -0.0261798  -0.0610529   0.0150481   0.0139205  -0.0024227
    2  -0.0178950  -0.0544276   0.0011601  -0.0158172  -0.0127174   0.0024188
    3  -0.0578041   0.0001959  -0.0513879  -0.0018811  -0.0004426  -0.0011820
    4  -0.0046510  -0.0179209   0.0036016  -0.1021470   0.1093902   0.0080674
    5   0.0027310   0.0039853   0.0022900   0.1093634  -0.2723189  -0.0263408
    6  -0.0038155  -0.0048937   0.0042914   0.0064664  -0.0244378  -0.0497423
    7  -0.0004564  -0.0022090   0.0020204  -0.0024162  -0.0016607  -0.0023302
    8  -0.0003397  -0.0024114   0.0003946   0.0149952   0.0007969   0.0189523
    9   0.0009639   0.0001492  -0.0023959   0.0065682   0.0009355   0.0060434
   10   0.0005887  -0.0009207  -0.0022141  -0.0017498  -0.0007703   0.0026274
   11  -0.0001047   0.0004605   0.0005713   0.0008345  -0.0000529  -0.0001062
   12  -0.0002784   0.0003638   0.0013644   0.0032421  -0.0006222  -0.0063684
   13   0.0001695   0.0019168  -0.0038576  -0.0040281  -0.0009251  -0.0037043
   14   0.0023769  -0.0047892   0.0010288  -0.0001533  -0.0012573   0.0027586
   15  -0.0044521   0.0026207   0.0125646  -0.0023819  -0.0005497  -0.0025155
   16  -0.0151031   0.0334023  -0.0049011  -0.0023893  -0.0013432  -0.0003209
   17   0.0042859   0.0021219  -0.0023406  -0.0050436  -0.0049412   0.0013480
   18  -0.0029632   0.0054463  -0.0057138   0.0018715   0.0010764   0.0005059
   19   0.3420056   0.0098870   0.0679692  -0.0001466  -0.0006553   0.0001205
   20   0.0098870   0.0537442  -0.0032569   0.0011130   0.0002801  -0.0001210
   21   0.0679692  -0.0032569   0.0396216  -0.0000453  -0.0001124   0.0000503
   22  -0.0001466   0.0011130  -0.0000453   0.1046717  -0.1184776  -0.0138574
   23  -0.0006553   0.0002801  -0.0001124  -0.1184776   0.2887535   0.0246080
   24   0.0001205  -0.0001210   0.0000503  -0.0138574   0.0246080   0.0472542
   25  -0.0002403  -0.0008931   0.0000984   0.0005028   0.0002905   0.0003906
   26   0.0001876   0.0005824  -0.0003002  -0.0004273  -0.0000194  -0.0006733
   27   0.0000834  -0.0001814  -0.0004600  -0.0001119   0.0003830   0.0004366
   28   0.0001417   0.0002145  -0.0001454  -0.0003370  -0.0003583   0.0007689
   29   0.0002103   0.0005248  -0.0000034   0.0008160   0.0001586  -0.0002885
   30  -0.0000057   0.0002653   0.0011036  -0.0003758   0.0000930   0.0011178
   31  -0.0008636   0.0013401   0.0004005   0.0002278   0.0001695  -0.0000973
   32  -0.0003940   0.0007622   0.0003674   0.0006787   0.0001721   0.0010410
   33   0.0002135   0.0001940   0.0003852   0.0006601  -0.0001444   0.0008386
   34   0.0004934   0.0006125  -0.0018147  -0.0076565  -0.0000392   0.0118456
   35  -0.0002016  -0.0009556   0.0002320   0.0126663   0.0009763  -0.0241090
   36  -0.0001514  -0.0009787   0.0006755  -0.0000582  -0.0006199   0.0030850
   37  -0.0002023  -0.0003627  -0.0000590   0.0004200   0.0004590  -0.0010876
   38  -0.0000884   0.0001223  -0.0000306  -0.0005481   0.0001696   0.0005123
   39   0.0001200   0.0001967  -0.0000990  -0.0000966  -0.0001668   0.0004767
           25          26          27          28          29          30
    1  -0.0016363  -0.0002233  -0.0001327   0.0003543  -0.0007177   0.0016018
    2  -0.0010964  -0.0031428   0.0004120   0.0005087  -0.0021849  -0.0007430
    3  -0.0025790   0.0017698   0.0009151   0.0004275   0.0006920   0.0010633
    4  -0.0012731   0.0047263   0.0013014  -0.0001311   0.0070777   0.0015380
    5  -0.0126062   0.0089270  -0.0046091   0.0036634   0.0002026   0.0046529
    6  -0.0027854   0.0079495  -0.0020373   0.0006060   0.0025566  -0.0001576
    7  -0.1376811  -0.0868708  -0.1370146   0.0012850   0.0002758  -0.0027914
    8  -0.0926870  -0.1393189  -0.1131179   0.0025649   0.0020124   0.0085552
    9  -0.1319537  -0.1172558  -0.1438699   0.0032480   0.0080406   0.0088361
   10   0.0073437   0.0008961  -0.0068067  -0.2864964   0.0714296   0.0902140
   11   0.0047816  -0.0022011  -0.0051561   0.0770174  -0.0578247  -0.0235614
   12   0.0008348   0.0028905  -0.0035974   0.0896049  -0.0268170  -0.0966040
   13   0.0017549  -0.0127463   0.0041882  -0.0045886  -0.0134440   0.0202582
   14   0.0087652   0.0001361  -0.0013520   0.0027528   0.0055923  -0.0030108
   15   0.0053168  -0.0116063  -0.0009414  -0.0013068   0.0026383  -0.0094382
   16  -0.0041393  -0.0023035   0.0031372   0.0001897  -0.0015468  -0.0016527
   17  -0.0009536  -0.0018210   0.0030582  -0.0003209   0.0012290  -0.0004946
   18  -0.0002705  -0.0023255   0.0007709   0.0007957   0.0021668  -0.0020972
   19  -0.0002403   0.0001876   0.0000834   0.0001417   0.0002103  -0.0000057
   20  -0.0008931   0.0005824  -0.0001814   0.0002145   0.0005248   0.0002653
   21   0.0000984  -0.0003002  -0.0004600  -0.0001454  -0.0000034   0.0011036
   22   0.0005028  -0.0004273  -0.0001119  -0.0003370   0.0008160  -0.0003758
   23   0.0002905  -0.0000194   0.0003830  -0.0003583   0.0001586   0.0000930
   24   0.0003906  -0.0006733   0.0004366   0.0007689  -0.0002885   0.0011178
   25   0.1365926   0.0965850   0.1324300  -0.0004867  -0.0008960  -0.0012417
   26   0.0965850   0.1351413   0.1187612   0.0000635   0.0006029  -0.0002836
   27   0.1324300   0.1187612   0.1490394   0.0009685   0.0006301   0.0010454
   28  -0.0004867   0.0000635   0.0009685   0.2934136  -0.0819127  -0.1041176
   29  -0.0008960   0.0006029   0.0006301  -0.0819127   0.0574948   0.0189719
   30  -0.0012417  -0.0002836   0.0010454  -0.1041176   0.0189719   0.0793861
   31   0.0001839   0.0001727   0.0000901   0.0005123   0.0003196  -0.0005949
   32  -0.0002400   0.0007602  -0.0005797  -0.0002221  -0.0000780   0.0001099
   33  -0.0001371   0.0008344  -0.0000805  -0.0000263  -0.0012302   0.0011795
   34  -0.0015597   0.0003802   0.0019360  -0.0034655   0.0200766  -0.0025595
   35  -0.0010820   0.0003255   0.0023502  -0.0035929  -0.0068143  -0.0034475
   36  -0.0003047  -0.0001857  -0.0002167   0.0096692  -0.0070059   0.0150559
   37   0.0006386  -0.0004403  -0.0000688  -0.0003913  -0.0016883  -0.0002727
   38   0.0000321   0.0000277  -0.0005985  -0.0003783  -0.0009156  -0.0011075
   39   0.0002014   0.0004251  -0.0010043  -0.0004926  -0.0003511  -0.0004906
           31          32          33          34          35          36
    1  -0.0061613  -0.0036533  -0.0006753  -0.0174623  -0.0060920   0.0117063
    2  -0.0020620  -0.0009812  -0.0004668  -0.0217083   0.0067735   0.0127631
    3  -0.0013142   0.0000763   0.0007864   0.0177925   0.0114846  -0.0117636
    4  -0.0004626  -0.0002920   0.0010191  -0.0767828   0.0166133   0.0432468
    5  -0.0009617  -0.0052129  -0.0034420   0.0420969  -0.0780929  -0.0153157
    6  -0.0002980  -0.0006023   0.0008174   0.0505803  -0.0082471  -0.1270373
    7  -0.0001877   0.0151266   0.0116687   0.0477962  -0.0166565   0.0126923
    8   0.0008097  -0.0110760  -0.0083684  -0.0168119   0.0247776   0.0005356
    9   0.0020991   0.0140898   0.0076836  -0.0755236   0.0446913  -0.0966087
   10   0.0083648   0.0026708  -0.0173735  -0.1757804   0.1196045  -0.0482590
   11  -0.0093187  -0.0025188   0.0178079   0.1281043  -0.1717692   0.0910464
   12   0.0049152  -0.0003622  -0.0106891   0.0103962   0.0387927  -0.0906032
   13  -0.1521275   0.1104590  -0.0862228   0.0004401   0.0104643  -0.0146677
   14   0.1089925  -0.1696751   0.0886297  -0.0108257  -0.0084360   0.0164714
   15  -0.0840744   0.0905258  -0.1070853  -0.0057182   0.0223127  -0.0132674
   16  -0.0173092  -0.0084024   0.0002423  -0.0097948   0.0097896  -0.0062440
   17   0.0181631   0.0105732  -0.0000494   0.0003399  -0.0046719   0.0024643
   18  -0.0123713  -0.0080955  -0.0014798   0.0012996   0.0064630   0.0029490
   19  -0.0008636  -0.0003940   0.0002135   0.0004934  -0.0002016  -0.0001514
   20   0.0013401   0.0007622   0.0001940   0.0006125  -0.0009556  -0.0009787
   21   0.0004005   0.0003674   0.0003852  -0.0018147   0.0002320   0.0006755
   22   0.0002278   0.0006787   0.0006601  -0.0076565   0.0126663  -0.0000582
   23   0.0001695   0.0001721  -0.0001444  -0.0000392   0.0009763  -0.0006199
   24  -0.0000973   0.0010410   0.0008386   0.0118456  -0.0241090   0.0030850
   25   0.0001839  -0.0002400  -0.0001371  -0.0015597  -0.0010820  -0.0003047
   26   0.0001727   0.0007602   0.0008344   0.0003802   0.0003255  -0.0001857
   27   0.0000901  -0.0005797  -0.0000805   0.0019360   0.0023502  -0.0002167
   28   0.0005123  -0.0002221  -0.0000263  -0.0034655  -0.0035929   0.0096692
   29   0.0003196  -0.0000780  -0.0012302   0.0200766  -0.0068143  -0.0070059
   30  -0.0005949   0.0001099   0.0011795  -0.0025595  -0.0034475   0.0150559
   31   0.1675345  -0.1161279   0.0888188  -0.0003281  -0.0011344   0.0024036
   32  -0.1161279   0.1768281  -0.0963564   0.0003189   0.0004078  -0.0000304
   33   0.0888188  -0.0963564   0.1119706   0.0026050   0.0017534  -0.0045338
   34  -0.0003281   0.0003189   0.0026050   0.2855588  -0.1624639  -0.0205146
   35  -0.0011344   0.0004078   0.0017534  -0.1624639   0.3242943  -0.2346153
   36   0.0024036  -0.0000304  -0.0045338  -0.0205146  -0.2346153   0.6131274
   37   0.0006167   0.0000777  -0.0007926  -0.0414583   0.0220853   0.0104813
   38  -0.0003627   0.0000385   0.0008383   0.0199197  -0.0868152   0.1354708
   39   0.0000228  -0.0001837   0.0002074   0.0096754   0.1423389  -0.2908621
           37          38          39
    1   0.0001136  -0.0006508  -0.0006773
    2   0.0027929  -0.0001269  -0.0003800
    3   0.0012578  -0.0001326  -0.0004741
    4   0.0020488  -0.0002932  -0.0038183
    5  -0.0109017   0.0038583   0.0061975
    6   0.0102989  -0.0066232  -0.0047730
    7   0.0009341   0.0001415  -0.0014816
    8  -0.0014284  -0.0027295  -0.0010534
    9  -0.0050983  -0.0060440  -0.0061007
   10   0.0091545  -0.0045279   0.0029092
   11   0.0077670  -0.0027976  -0.0014561
   12  -0.0105675   0.0162203   0.0005186
   13  -0.0041354   0.0028571  -0.0003483
   14   0.0006203  -0.0009920  -0.0019309
   15   0.0022526   0.0045356   0.0023433
   16   0.0014657   0.0010032   0.0007525
   17  -0.0018767  -0.0000726  -0.0004387
   18   0.0004225   0.0001566   0.0002998
   19  -0.0002023  -0.0000884   0.0001200
   20  -0.0003627   0.0001223   0.0001967
   21  -0.0000590  -0.0000306  -0.0000990
   22   0.0004200  -0.0005481  -0.0000966
   23   0.0004590   0.0001696  -0.0001668
   24  -0.0010876   0.0005123   0.0004767
   25   0.0006386   0.0000321   0.0002014
   26  -0.0004403   0.0000277   0.0004251
   27  -0.0000688  -0.0005985  -0.0010043
   28  -0.0003913  -0.0003783  -0.0004926
   29  -0.0016883  -0.0009156  -0.0003511
   30  -0.0002727  -0.0011075  -0.0004906
   31   0.0006167  -0.0003627   0.0000228
   32   0.0000777   0.0000385  -0.0001837
   33  -0.0007926   0.0008383   0.0002074
   34  -0.0414583   0.0199197   0.0096754
   35   0.0220853  -0.0868152   0.1423389
   36   0.0104813   0.1354708  -0.2908621
   37   0.0307954  -0.0171042  -0.0067666
   38  -0.0171042   0.0902331  -0.1431975
   39  -0.0067666  -0.1431975   0.2999580
 Gradient time:  CPU 551.62 s  wall 555.94 s
 **********************************************************************
 **                                                                  **
 **                       VIBRATIONAL ANALYSIS                       **
 **                       --------------------                       **
 **                                                                  **
 **        VIBRATIONAL FREQUENCIES (CM**-1) AND NORMAL MODES         **
 **     FORCE CONSTANTS (mDYN/ANGSTROM) AND REDUCED MASSES (AMU)     **
 **                  INFRARED INTENSITIES (KM/MOL)                   **
 **                                                                  **
 **********************************************************************
 

 Mode:                 1                      2                      3
 Frequency:      -656.98                 335.96                 394.17
 Force Cnst:      1.3837                 0.0778                 0.1034
 Red. Mass:       5.4411                 1.1700                 1.1291
 IR Active:          YES                    YES                    YES
 IR Intens:       34.880                 22.148                 29.289
 Raman Active:       YES                    YES                    YES
               X      Y      Z        X      Y      Z        X      Y      Z
 C          0.013 -0.004  0.009   -0.019 -0.003  0.040   -0.001  0.024  0.018
 C          0.021 -0.002  0.010   -0.002 -0.019 -0.029    0.023  0.005  0.014
 C         -0.265  0.082  0.352    0.023  0.009 -0.023    0.010  0.008  0.018
 C         -0.063 -0.198 -0.320    0.024  0.015 -0.012    0.044  0.019 -0.017
 C          0.106  0.128 -0.057    0.000  0.011 -0.029    0.012  0.032 -0.011
 N          0.038  0.018 -0.005   -0.018  0.000  0.034   -0.000  0.010 -0.039
 H         -0.006 -0.001  0.094   -0.037  0.008  0.120   -0.011  0.047  0.059
 H         -0.011 -0.006 -0.125    0.010 -0.010 -0.068    0.053  0.024 -0.022
 H         -0.004  0.230 -0.030   -0.269 -0.119  0.356   -0.467 -0.220  0.652
 H         -0.181 -0.341 -0.513    0.055  0.072  0.027   -0.035 -0.093 -0.131
 H          0.058  0.094 -0.034    0.002  0.012 -0.029   -0.003  0.026  0.001
 C          0.138 -0.039  0.051   -0.028 -0.063 -0.045   -0.021 -0.051 -0.010
 H          0.214  0.162  0.144    0.502  0.630  0.305   -0.314 -0.366 -0.166
 TransDip  -0.039 -0.007 -0.185    0.045  0.102  0.102   -0.149 -0.080  0.039

 Mode:                 4                      5                      6
 Frequency:       439.31                 484.06                 606.49
 Force Cnst:      0.4272                 0.5257                 0.9976
 Red. Mass:       3.7574                 3.8078                 4.6032
 IR Active:          YES                    YES                    YES
 IR Intens:        7.017                  5.879                 14.858
 Raman Active:       YES                    YES                    YES
               X      Y      Z        X      Y      Z        X      Y      Z
 C         -0.101 -0.020  0.210    0.060 -0.094 -0.188    0.045  0.075 -0.157
 C         -0.038 -0.063 -0.136    0.014 -0.008 -0.019    0.079 -0.048 -0.033
 C         -0.120 -0.069 -0.044    0.071 -0.028 -0.070   -0.097 -0.180  0.225
 C          0.132  0.081 -0.011   -0.114 -0.028 -0.099    0.087  0.206 -0.029
 C         -0.015 -0.040 -0.126   -0.035 -0.008  0.052    0.069 -0.070 -0.089
 N         -0.073 -0.032  0.101   -0.043 -0.036  0.279   -0.072  0.095  0.222
 H         -0.208  0.025  0.689    0.118 -0.126 -0.447    0.062  0.125 -0.232
 H         -0.032 -0.058 -0.125   -0.102 -0.081  0.133    0.135 -0.021 -0.028
 H         -0.116 -0.028 -0.088   -0.304 -0.212  0.432    0.176 -0.053 -0.135
 H          0.183  0.094  0.095   -0.219 -0.227 -0.216    0.249  0.505  0.153
 H         -0.015 -0.037 -0.120    0.082  0.043 -0.027    0.099 -0.190 -0.291
 C          0.244  0.170 -0.028    0.092  0.251  0.014   -0.139 -0.121 -0.124
 H         -0.023 -0.254 -0.245   -0.041  0.103 -0.063   -0.244 -0.052 -0.086
 TransDip  -0.048 -0.069 -0.009   -0.051 -0.051 -0.030    0.035  0.060 -0.102

 Mode:                 7                      8                      9
 Frequency:       740.98                 784.75                 827.16
 Force Cnst:      1.9294                 2.5652                 0.8625
 Red. Mass:       5.9643                 7.0698                 2.1397
 IR Active:          YES                    YES                    YES
 IR Intens:        3.429                  4.970                 16.728
 Raman Active:       YES                    YES                    YES
               X      Y      Z        X      Y      Z        X      Y      Z
 C         -0.260 -0.066 -0.141    0.011  0.115 -0.085   -0.017 -0.047 -0.061
 C         -0.099 -0.173  0.157   -0.260  0.088 -0.052   -0.051  0.010 -0.116
 C          0.211  0.144 -0.053   -0.129 -0.140 -0.165    0.152  0.047  0.148
 C          0.273 -0.007 -0.093    0.000 -0.203  0.051   -0.086  0.042  0.117
 C          0.063  0.116 -0.122    0.136 -0.169 -0.153   -0.022 -0.003 -0.084
 N         -0.184  0.064  0.059    0.243  0.321  0.082    0.035  0.027  0.001
 H         -0.244 -0.039 -0.258   -0.007 -0.284  0.090   -0.113 -0.061  0.386
 H         -0.052 -0.125 -0.064   -0.167  0.138 -0.072   -0.253 -0.062 -0.351
 H          0.219  0.249 -0.149   -0.310 -0.270  0.102    0.301 -0.091  0.154
 H          0.209 -0.004 -0.266    0.116  0.229  0.026   -0.281 -0.336 -0.078
 H         -0.124  0.014 -0.022    0.040 -0.117  0.049    0.010 -0.201 -0.393
 C          0.049 -0.095  0.225   -0.020 -0.027  0.273    0.002 -0.008  0.020
 H         -0.269 -0.023  0.266    0.079 -0.143  0.219    0.108 -0.114 -0.028
 TransDip  -0.025 -0.019 -0.050   -0.010 -0.063  0.032   -0.071 -0.089 -0.065

 Mode:                10                     11                     12
 Frequency:       852.00                 884.28                 892.71
 Force Cnst:      1.8288                 0.9390                 0.7134
 Red. Mass:       4.2760                 2.0381                 1.5195
 IR Active:          YES                    YES                    YES
 IR Intens:       10.409                  8.841                  2.661
 Raman Active:       YES                    YES                    YES
               X      Y      Z        X      Y      Z        X      Y      Z
 C          0.228  0.017 -0.082   -0.086 -0.081  0.052   -0.033 -0.047  0.034
 C          0.073  0.145 -0.023    0.039  0.155  0.072    0.013  0.107 -0.044
 C         -0.105  0.129 -0.085   -0.068  0.011 -0.027    0.052  0.022  0.046
 C          0.039 -0.022  0.100    0.026  0.044  0.079   -0.040 -0.098 -0.046
 C          0.052 -0.056 -0.180   -0.019  0.016 -0.143    0.002  0.047 -0.039
 N         -0.157 -0.208  0.062    0.028 -0.022  0.052   -0.027 -0.058  0.003
 H          0.107  0.506  0.417    0.035 -0.382 -0.483    0.008 -0.131 -0.168
 H         -0.175  0.037 -0.147    0.284  0.265  0.191   -0.020  0.114 -0.241
 H         -0.167  0.219 -0.106    0.047 -0.080 -0.060    0.230 -0.314  0.182
 H         -0.074  0.004 -0.204   -0.158 -0.382 -0.066    0.339  0.594  0.395
 H          0.115  0.157  0.024    0.087  0.069 -0.214    0.018  0.109  0.023
 C         -0.082 -0.047  0.181    0.027 -0.065 -0.035   -0.008  0.016  0.032
 H         -0.087 -0.026  0.200    0.265 -0.136 -0.072   -0.048 -0.113 -0.032
 TransDip   0.014  0.101 -0.015    0.003 -0.051 -0.081    0.047  0.021 -0.011

 Mode:                13                     14                     15
 Frequency:       913.60                 927.12                 957.83
 Force Cnst:      0.9887                 0.8296                 1.1249
 Red. Mass:       2.0105                 1.6382                 2.0810
 IR Active:          YES                    YES                    YES
 IR Intens:        1.234                 19.943                  2.373
 Raman Active:       YES                    YES                    YES
               X      Y      Z        X      Y      Z        X      Y      Z
 C          0.050  0.015 -0.066   -0.082 -0.095 -0.143   -0.107 -0.003  0.020
 C         -0.047 -0.065  0.171    0.080  0.071  0.018    0.086 -0.043 -0.078
 C          0.001  0.071 -0.009   -0.018 -0.043 -0.015    0.023  0.033  0.004
 C         -0.079 -0.075  0.035    0.003 -0.014 -0.003   -0.116 -0.032  0.063
 C         -0.004  0.046 -0.098    0.019  0.042  0.048    0.193 -0.052  0.025
 N         -0.002  0.021  0.016    0.021  0.014  0.007   -0.061  0.008 -0.033
 H         -0.018  0.172  0.240   -0.277 -0.104  0.752   -0.074 -0.058 -0.153
 H         -0.176 -0.158  0.433    0.347  0.181  0.235    0.373  0.084  0.056
 H         -0.132  0.123  0.068    0.051 -0.090 -0.042   -0.425  0.523 -0.006
 H          0.165  0.150  0.485    0.018  0.027 -0.001   -0.053  0.207  0.050
 H          0.068 -0.015 -0.283   -0.030  0.126  0.224    0.261 -0.231 -0.297
 C          0.066 -0.021 -0.113   -0.034  0.008 -0.012   -0.021  0.049  0.036
 H          0.271 -0.223 -0.219   -0.018  0.035  0.001    0.065 -0.069 -0.020
 TransDip  -0.002 -0.001  0.035   -0.053  0.004  0.133    0.018 -0.039 -0.025

 Mode:                16                     17                     18
 Frequency:       973.49                1026.03                1084.50
 Force Cnst:      1.1129                 1.2794                 1.2066
 Red. Mass:       1.9932                 2.0627                 1.7411
 IR Active:          YES                    YES                    YES
 IR Intens:        2.514                  3.820                  5.449
 Raman Active:       YES                    YES                    YES
               X      Y      Z        X      Y      Z        X      Y      Z
 C         -0.022  0.027 -0.009   -0.013  0.038  0.015    0.013 -0.007  0.004
 C         -0.141  0.099  0.015    0.017 -0.113 -0.042    0.084 -0.105 -0.002
 C          0.041 -0.044  0.017   -0.038 -0.110 -0.033   -0.009 -0.003 -0.039
 C          0.016  0.038 -0.013   -0.058 -0.020  0.098   -0.100  0.084 -0.010
 C          0.162 -0.042  0.084    0.120  0.174 -0.053   -0.100  0.043 -0.030
 N         -0.095 -0.041 -0.017   -0.042  0.011 -0.019    0.040  0.018  0.007
 H         -0.030  0.086 -0.003    0.010  0.246 -0.127    0.019  0.069 -0.018
 H         -0.285  0.018  0.198    0.025 -0.123  0.020    0.195 -0.057 -0.054
 H          0.153 -0.166  0.030    0.241 -0.443 -0.020    0.031 -0.078 -0.022
 H         -0.108  0.160 -0.430   -0.125 -0.310  0.162   -0.141  0.510 -0.401
 H          0.122  0.039  0.262    0.340  0.522  0.123   -0.123  0.129  0.098
 C          0.021 -0.018 -0.062   -0.015  0.020  0.020    0.025 -0.050  0.107
 H          0.544 -0.291 -0.209   -0.075  0.082  0.058    0.493 -0.386 -0.050
 TransDip   0.039  0.006  0.032    0.039  0.013  0.047    0.037  0.028 -0.059

 Mode:                19                     20                     21
 Frequency:      1139.18                1175.68                1216.39
 Force Cnst:      1.2894                 1.4535                 1.3482
 Red. Mass:       1.6863                 1.7848                 1.5465
 IR Active:          YES                    YES                    YES
 IR Intens:       15.099                  1.849                  5.786
 Raman Active:       YES                    YES                    YES
               X      Y      Z        X      Y      Z        X      Y      Z
 C         -0.029 -0.026  0.027    0.030 -0.008  0.029    0.039  0.022 -0.003
 C          0.087 -0.032 -0.033   -0.006  0.034 -0.166   -0.070  0.016  0.019
 C          0.014  0.062  0.062    0.039 -0.061  0.029    0.101 -0.131  0.054
 C          0.000 -0.041  0.064    0.072 -0.040 -0.019   -0.006  0.019 -0.041
 C          0.035 -0.076 -0.127   -0.061  0.116  0.010   -0.032  0.040 -0.062
 N          0.004  0.050  0.004   -0.002 -0.010 -0.003   -0.006 -0.028  0.004
 H         -0.002 -0.112 -0.113    0.045 -0.006 -0.047    0.039 -0.108  0.030
 H         -0.255 -0.231  0.253   -0.143 -0.137  0.856    0.175  0.172 -0.288
 H          0.009  0.079  0.066   -0.082  0.148 -0.042   -0.339  0.520 -0.105
 H         -0.036  0.029 -0.088    0.088 -0.022 -0.001    0.043 -0.203  0.257
 H         -0.417  0.113  0.718   -0.110 -0.112 -0.251   -0.046  0.322  0.330
 C         -0.051  0.061 -0.060   -0.063 -0.009  0.074   -0.033  0.021  0.015
 H         -0.027  0.043 -0.076    0.118 -0.109  0.030    0.216 -0.145 -0.071
 TransDip  -0.087 -0.075  0.048    0.011  0.005  0.042    0.014  0.075  0.013

 Mode:                22                     23                     24
 Frequency:      1242.97                1272.70                1318.81
 Force Cnst:      1.4609                 1.1991                 1.5490
 Red. Mass:       1.6049                 1.2565                 1.5116
 IR Active:          YES                    YES                    YES
 IR Intens:        6.901                  0.932                  6.413
 Raman Active:       YES                    YES                    YES
               X      Y      Z        X      Y      Z        X      Y      Z
 C          0.066  0.039 -0.004   -0.032 -0.055  0.003   -0.101 -0.018 -0.009
 C         -0.157 -0.063 -0.055   -0.015 -0.009 -0.003   -0.014  0.032 -0.035
 C          0.024  0.072  0.041   -0.026  0.024 -0.011    0.036  0.019  0.042
 C         -0.021 -0.008  0.036    0.022  0.010 -0.038    0.001  0.004 -0.014
 C         -0.001 -0.016 -0.041    0.047  0.009  0.004   -0.076 -0.108 -0.008
 N         -0.005 -0.046  0.011    0.053 -0.016  0.019    0.088 -0.012  0.011
 H          0.077 -0.004 -0.009   -0.029  0.647 -0.128   -0.108  0.626 -0.117
 H          0.739  0.339  0.306    0.178  0.098 -0.108   -0.039  0.003  0.194
 H          0.160 -0.104  0.090    0.063 -0.118  0.029   -0.043  0.139  0.030
 H         -0.046  0.114 -0.117    0.062 -0.247  0.246    0.014  0.068 -0.027
 H         -0.152 -0.017  0.153   -0.353 -0.340  0.052    0.488  0.461  0.044
 C          0.048 -0.009 -0.029   -0.074  0.050  0.021    0.034 -0.029 -0.003
 H         -0.218  0.132  0.041    0.266 -0.154 -0.086   -0.116  0.058  0.042
 TransDip   0.033  0.077  0.009   -0.000 -0.031  0.004   -0.052  0.062 -0.005

 Mode:                25                     26                     27
 Frequency:      1323.17                1406.06                1626.66
 Force Cnst:      1.8310                 3.1715                11.7174
 Red. Mass:       1.7751                 2.7227                 7.5160
 IR Active:          YES                    YES                    YES
 IR Intens:       15.981                  1.696                 44.244
 Raman Active:       YES                    YES                    YES
               X      Y      Z        X      Y      Z        X      Y      Z
 C         -0.020 -0.056  0.008   -0.018 -0.008  0.001   -0.261  0.496 -0.127
 C         -0.021  0.062  0.039    0.009  0.071 -0.036    0.051 -0.039  0.007
 C          0.023 -0.118 -0.004    0.022 -0.024 -0.044   -0.008  0.006 -0.005
 C         -0.018 -0.066  0.106   -0.176  0.182 -0.095    0.008 -0.029  0.025
 C          0.011  0.127 -0.025    0.087 -0.006 -0.012    0.021  0.055 -0.022
 N          0.040 -0.013  0.017   -0.006 -0.018  0.001    0.239 -0.379  0.105
 H         -0.017  0.386 -0.098   -0.023  0.035 -0.011   -0.313 -0.381  0.030
 H         -0.117  0.048 -0.176   -0.228 -0.074  0.280   -0.203 -0.170  0.001
 H         -0.194  0.202 -0.102   -0.058  0.007 -0.001    0.022 -0.039  0.008
 H         -0.107  0.358 -0.430   -0.078 -0.146  0.496   -0.013 -0.015 -0.033
 H         -0.340 -0.217 -0.062   -0.347 -0.187  0.308   -0.278 -0.217  0.002
 C          0.070 -0.019 -0.074    0.173 -0.171  0.074   -0.030  0.024  0.000
 H         -0.305  0.222  0.041   -0.330  0.096  0.248    0.062 -0.010 -0.020
 TransDip  -0.102  0.077 -0.013    0.020  0.035 -0.010    0.052  0.189 -0.084

 Mode:                28                     29                     30
 Frequency:      3146.99                3183.84                3185.57
 Force Cnst:      6.3610                 6.5247                 6.5292
 Red. Mass:       1.0902                 1.0925                 1.0920
 IR Active:          YES                    YES                    YES
 IR Intens:       17.664                 22.879                  4.461
 Raman Active:       YES                    YES                    YES
               X      Y      Z        X      Y      Z        X      Y      Z
 C         -0.011  0.001 -0.002   -0.078 -0.001 -0.016   -0.034  0.000 -0.007
 C          0.038 -0.076 -0.007   -0.003  0.010  0.001   -0.002  0.005 -0.000
 C          0.001  0.003  0.001    0.001 -0.000  0.000   -0.002 -0.002 -0.003
 C         -0.002  0.001  0.000    0.013 -0.004 -0.004   -0.037  0.012  0.013
 C         -0.000  0.000 -0.000   -0.018  0.020 -0.015    0.042 -0.044  0.032
 N          0.000 -0.000 -0.000    0.001 -0.002  0.001    0.001 -0.001  0.000
 H          0.130  0.001  0.028    0.886  0.031  0.190    0.377  0.014  0.080
 H         -0.432  0.881  0.092    0.047 -0.109 -0.010    0.022 -0.053 -0.005
 H         -0.019 -0.022 -0.022   -0.003 -0.001 -0.004    0.031  0.028  0.036
 H          0.013 -0.004 -0.005   -0.141  0.043  0.055    0.423 -0.127 -0.165
 H          0.000  0.001  0.000    0.219 -0.232  0.170   -0.477  0.501 -0.366
 C         -0.001  0.001 -0.002    0.000 -0.001  0.002    0.001  0.001 -0.003
 H          0.003 -0.015  0.029   -0.001  0.014 -0.029   -0.002 -0.018  0.039
 TransDip   0.061 -0.120 -0.006   -0.144  0.040 -0.035   -0.028 -0.038  0.048

 Mode:                31                     32                     33
 Frequency:      3195.54                3258.32                3264.22
 Force Cnst:      6.5748                 6.8498                 6.8832
 Red. Mass:       1.0928                 1.0951                 1.0964
 IR Active:          YES                    YES                    YES
 IR Intens:       19.083                  1.139                  0.528
 Raman Active:       YES                    YES                    YES
               X      Y      Z        X      Y      Z        X      Y      Z
 C          0.005  0.000  0.001   -0.001 -0.000  0.000    0.002 -0.000  0.001
 C         -0.000  0.001  0.000   -0.002  0.002  0.002    0.004 -0.004  0.001
 C          0.004  0.002  0.002   -0.014 -0.012 -0.013   -0.049 -0.047 -0.053
 C         -0.068  0.021  0.026    0.011 -0.006 -0.003   -0.005  0.002  0.001
 C         -0.026  0.028 -0.021   -0.000  0.001  0.000   -0.003  0.008 -0.003
 N          0.001 -0.000 -0.000    0.000  0.000  0.000    0.000  0.001  0.000
 H         -0.045 -0.001 -0.010    0.009  0.001  0.001   -0.016 -0.001 -0.004
 H          0.006 -0.012 -0.001    0.010 -0.018 -0.006   -0.021  0.038  0.002
 H         -0.034 -0.031 -0.036    0.146  0.139  0.158    0.545  0.517  0.596
 H          0.767 -0.226 -0.302   -0.097  0.029  0.033    0.047 -0.014 -0.020
 H          0.298 -0.316  0.235    0.006 -0.007  0.004    0.042 -0.048  0.032
 C          0.002  0.002 -0.007   -0.001  0.040 -0.075    0.001 -0.011  0.021
 H         -0.001 -0.049  0.100    0.005 -0.432  0.853   -0.000  0.113 -0.221
 TransDip  -0.123  0.067  0.005   -0.010  0.003 -0.032   -0.000 -0.016  0.017

 STANDARD THERMODYNAMIC QUANTITIES AT   298.15 K  AND     1.00 ATM

   This Molecule has  1 Imaginary Frequencies
   Zero point vibrational energy:       63.016 kcal/mol

   Atom    1 Element C  Has Mass   12.00000
   Atom    2 Element C  Has Mass   12.00000
   Atom    3 Element C  Has Mass   12.00000
   Atom    4 Element C  Has Mass   12.00000
   Atom    5 Element C  Has Mass   12.00000
   Atom    6 Element N  Has Mass   14.00307
   Atom    7 Element H  Has Mass    1.00783
   Atom    8 Element H  Has Mass    1.00783
   Atom    9 Element H  Has Mass    1.00783
   Atom   10 Element H  Has Mass    1.00783
   Atom   11 Element H  Has Mass    1.00783
   Atom   12 Element C  Has Mass   12.00000
   Atom   13 Element H  Has Mass    1.00783
   Molecular Mass:    92.050050 amu
   Principal axes and moments of inertia in amu*Bohr^2:
                             1           2           3
    Eigenvalues --      376.97261   456.55755   566.62923
          X               0.73265     0.67241     0.10526
          Y               0.53302    -0.66305     0.52560
          Z              -0.42321     0.32898     0.84420
   Rotational Symmetry Number is   1
   The Molecule is an Asymmetric Top
   Translational Enthalpy:        0.889 kcal/mol
   Rotational Enthalpy:           0.889 kcal/mol
   Vibrational Enthalpy:         64.361 kcal/mol
   gas constant (RT):             0.592 kcal/mol
   Translational Entropy:        39.471  cal/mol.K
   Rotational Entropy:           26.081  cal/mol.K
   Vibrational Entropy:           6.211  cal/mol.K

   Total Enthalpy:               66.731 kcal/mol
   Total Entropy:                71.763  cal/mol.K
Archival summary:
1\1\c8-66\FREQ\ProcedureUnspecified\6-31+G**\166(2)\hpark21\ThuMar312:01:282022ThuMar312:01:282022\0\\#,FREQ,ProcedureUnspecified,6-31+G**,\\0,2\N\C,1,1.28483\H,2,1.08789,1,121.941\C,1,1.46848,2,105.226,3,-175.812,0\H,4,1.08604,1,115.36,2,-163.127,0\C,4,1.48729,1,108.248,2,-24.4405,0\H,6,1.0811,4,131.892,1,-141.15,0\C,4,1.52901,1,114.576,2,58.6491,0\H,8,1.08654,4,120.84,1,131.561,0\C,8,1.40425,4,111.716,1,-44.7416,0\H,10,1.08099,8,130.435,4,164.986,0\C,10,1.52804,8,98.7604,4,-21.9756,0\H,12,1.0895,10,118.217,8,-150.596,0\\\@

 Total job time:  564.89s(wall), 558.30s(cpu) 
 Thu Mar  3 12:01:28 2022

        *************************************************************
        *                                                           *
        *  Thank you very much for using Q-Chem.  Have a nice day.  *
        *                                                           *
        *************************************************************


