
Running Job 1 of 1 qcts2.in
qchem qcts2.in_1944.0 ./qcts2.d/ 1
/home/leeping/opt/qchem/5.0.2-openmp/exe/qcprog.exe_s qcts2.in_1944.0 ./qcts2.d/
Check license passed

                  Welcome to Q-Chem
     A Quantum Leap Into The Future Of Chemistry


 Q-Chem 5.0, Q-Chem, Inc., Pleasanton, CA (2017)

 Yihan Shao,  Zhengting Gan,  E. Epifanovsky,  A. T. B. Gilbert,  M. Wormit,  
 J. Kussmann,  A. W. Lange,  A. Behn,  Jia Deng,  Xintian Feng,  D. Ghosh,  
 M. Goldey,  P. R. Horn,  L. D. Jacobson,  I. Kaliman,  T. Kus,  A. Landau,  
 Jie Liu,  E. I. Proynov,  R. M. Richard,  R. P. Steele,  E. J. Sundstrom,  
 H. L. Woodcock III,  P. M. Zimmerman,  D. Zuev,  B. Albrecht,  E. Alguire,  
 S. A. Baeppler,  D. Barton,  Z. Benda,  Y. A. Bernard,  E. J. Berquist,  
 K. B. Bravaya,  H. Burton,  D. Casanova,  Chun-Min Chang,  Yunqing Chen,  
 A. Chien,  K. D. Closser,  M. P. Coons,  S. Dasgupta,  A. L. Dempwolff,  
 M. Diedenhofen,  Hainam Do,  R. G. Edgar,  Po-Tung Fang,  S. Fatehi,  
 Qingguo Feng,  J. Fosso-Tande,  Qinghui Ge,  A. Ghysels,  G. Gidofalvi,  
 J. Gomes,  J. Gonthier,  A. Gunina,  M. W. D. Hanson-Heine,  
 P. H. P. Harbach,  A. W. Hauser,  J. E. Herr,  E. G. Hohenstein,  
 Z. C. Holden,  Kerwin Hui,  T.-C. Jagau,  Hyunjun Ji,  B. Kaduk,  
 K. Khistyaev,  Jaehoon Kim,  P. Klunzinger,  K. Koh,  D. Kosenkov,  
 L. Koulias,  T. Kowalczyk,  C. M. Krauter,  A. Kunitsa,  Ka Un Lao,  
 A. Laurent,  K. V. Lawler,  Joonho Lee,  D. Lefrancois,  S. Lehtola,  
 D. S. Levine,  Yi-Pei Li,  You-Sheng Lin,  Fenglai Liu,  E. Livshits,  
 A. Luenser,  P. Manohar,  E. Mansoor,  S. F. Manzer,  Shan-Ping Mao,  
 Yuezhi Mao,  N. Mardirossian,  A. V. Marenich,  T. Markovich,  
 L. A. Martinez-Martinez,  S. A. Maurer,  N. J. Mayhall,  S. C. McKenzie,  
 J.-M. Mewes,  A. F. Morrison,  J. W. Mullinax,  K. Nanda,  
 T. S. Nguyen-Beck,  R. Olivares-Amaya,  J. A. Parkhill,  T. M. Perrine,  
 F. Plasser,  S. Prager,  A. Prociuk,  E. Ramos,  D. R. Rehn,  F. Rob,  
 M. Schneider,  N. Sergueev,  S. M. Sharada,  S. Sharma,  D. W. Small,  
 T. Stauch,  T. Stein,  Yu-Chuan Su,  A. J. W. Thom,  A. Tkatchenko,  
 T. Tsuchimochi,  L. Vogt,  O. Vydrov,  M. A. Watson,  J. Wenzel,  
 M. de Wergifosse,  T. A. Wesolowski,  A. White,  J. Witte,  A. Yamada,  
 Jun Yang,  K. Yao,  S. Yeganeh,  S. R. Yost,  Zhi-Qiang You,  A. Zech,  
 Igor Ying Zhang,  Xing Zhang,  Yan Zhao,  Ying Zhu,  B. R. Brooks,  
 G. K. L. Chan,  C. J. Cramer,  M. S. Gordon,  W. J. Hehre,  A. Klamt,  
 M. W. Schmidt,  C. D. Sherrill,  D. G. Truhlar,  A. Aspuru-Guzik,  R. Baer,  
 A. T. Bell,  N. A. Besley,  Jeng-Da Chai,  R. A. DiStasio Jr.,  A. Dreuw,  
 B. D. Dunietz,  T. R. Furlani,  Chao-Ping Hsu,  Yousung Jung,  Jing Kong,  
 D. S. Lambrecht,  WanZhen Liang,  C. Ochsenfeld,  V. A. Rassolov,  
 L. V. Slipchenko,  J. E. Subotnik,  T. Van Voorhis,  J. M. Herbert,  
 A. I. Krylov,  P. M. W. Gill,  M. Head-Gordon

 Contributors to earlier versions of Q-Chem not listed above: 
 R. D. Adamson,  B. Austin,  J. Baker,  G. J. O. Beran,  K. Brandhorst,  
 S. T. Brown,  E. F. C. Byrd,  A. K. Chakraborty,  C.-L. Cheng,  
 Siu Hung Chien,  D. M. Chipman,  D. L. Crittenden,  H. Dachsel,  
 R. J. Doerksen,  A. D. Dutoi,  L. Fusti-Molnar,  W. A. Goddard III,  
 A. Golubeva-Zadorozhnaya,  S. R. Gwaltney,  G. Hawkins,  A. Heyden,  
 S. Hirata,  G. Kedziora,  F. J. Keil,  C. Kelley,  Jihan Kim,  R. A. King,  
 R. Z. Khaliullin,  P. P. Korambath,  W. Kurlancheek,  A. M. Lee,  M. S. Lee,  
 S. V. Levchenko,  Ching Yeh Lin,  D. Liotard,  R. C. Lochan,  I. Lotan,  
 P. E. Maslen,  N. Nair,  D. P. O'Neill,  D. Neuhauser,  E. Neuscamman,  
 C. M. Oana,  R. Olson,  B. Peters,  R. Peverati,  P. A. Pieniazek,  
 Y. M. Rhee,  J. Ritchie,  M. A. Rohrdanz,  E. Rosta,  N. J. Russ,  
 H. F. Schaefer III,  N. E. Schultz,  N. Shenvi,  A. C. Simmonett,  A. Sodt,  
 D. Stuck,  K. S. Thanthiriwatte,  V. Vanovschi,  Tao Wang,  A. Warshel,  
 C. F. Williams,  Q. Wu,  X. Xu,  W. Zhang

 Please cite Q-Chem as follows:
 Y. Shao et al., Mol. Phys. 113, 184-215 (2015)
 DOI: 10.1080/00268976.2014.952696

 Q-Chem 5.0.2 for Intel X86 EM64T Linux

 Parts of Q-Chem use Armadillo 5.200.1 (Boston Tea Smuggler).
 http://arma.sourceforge.net/

 Q-Chem begins on Thu Mar  3 11:37:35 2022  

Host: 
0

     Scratch files written to ./qcts2.d//
 Dec517 15110_ 26548  26544 5633   
Processing $rem in /home/leeping/opt/qchem/5.0.2-openmp/config/preferences.
 MEM_STATIC 2000
 MEM_TOTAL  8000
 SYMMETRY   OFF
 SYM_IGNORE TRUE 

Checking the input file for inconsistencies... 	...done.

--------------------------------------------------------------
User input:
--------------------------------------------------------------
$molecule
0 2
C        1.5398761790    0.3852238667   -0.1724696979
C        0.6669202501   -0.8652302544   -0.0424861583
C       -0.4983697281   -0.4482166394   -0.9673938242
C       -1.0980725063    0.3080255447    0.6362327750
C       -0.5160688272    0.9934617569   -0.5994030073
N        0.8736458510    1.4463525825   -0.4493701622
H        2.6024045254    0.4194068431    0.0629829749
H        1.1457317946   -1.8391615549   -0.1473633886
H       -1.1194472671   -1.0329678674   -1.6312876832
H       -2.0707355557    0.5975034759    1.0271046751
H       -1.1776573678    1.6872203521   -1.1119894888
C       -0.2001174052   -0.6151477720    1.1902834726
H       -0.1726544674   -1.0628282949    2.1746237925
$end

$rem
method                b3lyp
basis                 6-31+g(d,p)
unrestricted          true
symmetry              off
sym_ignore            true
incdft                false
incfock               0
scf_convergence       8
thresh                14
jobtype               freq
scf_guess             read
scf_algorithm         diis
max_scf_cycles        100
$end

--------------------------------------------------------------
 ----------------------------------------------------------------
             Standard Nuclear Orientation (Angstroms)
    I     Atom           X                Y                Z
 ----------------------------------------------------------------
    1      C       1.5398761790     0.3852238667    -0.1724696979
    2      C       0.6669202501    -0.8652302544    -0.0424861583
    3      C      -0.4983697281    -0.4482166394    -0.9673938242
    4      C      -1.0980725063     0.3080255447     0.6362327750
    5      C      -0.5160688272     0.9934617569    -0.5994030073
    6      N       0.8736458510     1.4463525825    -0.4493701622
    7      H       2.6024045254     0.4194068431     0.0629829749
    8      H       1.1457317946    -1.8391615549    -0.1473633886
    9      H      -1.1194472671    -1.0329678674    -1.6312876832
   10      H      -2.0707355557     0.5975034759     1.0271046751
   11      H      -1.1776573678     1.6872203521    -1.1119894888
   12      C      -0.2001174052    -0.6151477720     1.1902834726
   13      H      -0.1726544674    -1.0628282949     2.1746237925
 ----------------------------------------------------------------
 Nuclear Repulsion Energy =   281.0950772404 hartrees
 There are       25 alpha and       24 beta electrons
 Requested basis set is 6-31+G(d,p)
 There are 53 shells and 163 basis functions

 Total QAlloc Memory Limit   8000 MB
 Mega-Array Size      1956 MB
 MEM_STATIC part      2000 MB

                       Distance Matrix (Angstroms)
             C (  1)   C (  2)   C (  3)   C (  4)   C (  5)   N (  6)
   C (  2)  1.530550
   C (  3)  2.341148  1.545075
   C (  4)  2.760205  2.225396  1.871674
   C (  5)  2.186123  2.272522  1.488008  1.528184
   N (  6)  1.283172  2.356206  2.395865  2.522300  1.469329
   H (  7)  1.088840  2.325407  3.380717  3.746272  3.239316  2.075025
   H (  8)  2.259175  1.090322  2.304397  3.202982  3.315068  3.310565
   H (  9)  3.348346  2.396567  1.080938  2.634458  2.352715  3.393579
   H ( 10)  3.810585  3.283043  2.746614  1.087498  2.284578  3.401456
   H ( 11)  3.156403  3.325854  2.245536  2.228182  1.087081  2.169084
   C ( 12)  2.425988  1.527749  2.184580  1.401979  2.427020  2.844506
   H ( 13)  3.246300  2.378972  3.218091  2.258824  3.470085  3.778370
             H (  7)   H (  8)   H (  9)   H ( 10)   H ( 11)   C ( 12)
   H (  8)  2.695788
   H (  9)  4.339600  2.825423
   H ( 10)  4.774881  4.202663  3.260435
   H ( 11)  4.156535  4.331744  2.769925  2.561405
   C ( 12)  3.192998  2.258056  2.996832  2.235254  3.399551
   H ( 13)  3.789063  2.780730  3.922024  2.770598  4.401662  1.081711

 
 A cutoff of  1.0D-14 yielded   1405 shell pairs
 There are     13515 function pairs
 Smallest overlap matrix eigenvalue = 2.74E-05
 Guess MOs from SCF MO coefficient file
 Reading MOs from coefficient file
 Reading MOs from coefficient file
 An unrestricted hybrid HF-DFT SCF calculation will be
 performed using Pulay DIIS extrapolation
 Exchange:     0.2000 Hartree-Fock + 0.0800 Slater + 0.7200 B88
 Correlation:  0.1900 VWN1RPA + 0.8100 LYP
 Using SG-1 standard quadrature grid
 SCF converges when DIIS error is below 1.0E-08
Using Q-Chem read-in guess as SCF_GUESS READ specified.

 -------------------------------------------------------
 OpenMP BLAS3 based DFT computing Module                
 -------------------------------------------------------
 ---------------------------------------
  Cycle       Energy         DIIS Error
 ---------------------------------------
    1    -286.8475784521      1.30E-09
    2    -286.8475784521      1.99E-09 Convergence criterion met
 ---------------------------------------
 <S^2> = 0.7778
 SCF time:  CPU 6.45 s  wall 7.26 s
 SCF   energy in the final basis set = -286.84757845
 Total energy in the final basis set = -286.84757845
 
 --------------------------------------------------------------
 
                    Orbital Energies (a.u.)
 --------------------------------------------------------------
 
 Alpha MOs
 -- Occupied --
-14.330 -10.235 -10.230 -10.228 -10.226 -10.221 -10.207  -0.973
 -0.850  -0.750  -0.696  -0.601  -0.585  -0.547  -0.522  -0.473
 -0.444  -0.425  -0.408  -0.378  -0.356  -0.296  -0.284  -0.278
 -0.158
 -- Virtual --
 -0.017  -0.010   0.001   0.018   0.028   0.033   0.046   0.048
  0.063   0.071   0.074   0.095   0.100   0.107   0.109   0.118
  0.124   0.129   0.141   0.153   0.165   0.178   0.180   0.185
  0.192   0.196   0.207   0.218   0.225   0.234   0.241   0.251
  0.259   0.267   0.281   0.287   0.309   0.314   0.331   0.369
  0.372   0.383   0.407   0.455   0.629   0.668   0.676   0.695
  0.700   0.716   0.725   0.735   0.745   0.753   0.776   0.793
  0.807   0.814   0.858   0.898   0.917   0.935   0.954   1.001
  1.017   1.034   1.048   1.068   1.083   1.086   1.103   1.141
  1.201   1.216   1.336   1.340   1.385   1.424   1.435   1.485
  1.554   1.615   1.625   1.692   1.723   1.761   1.818   1.869
  1.883   1.909   1.952   1.975   2.044   2.091   2.103   2.129
  2.152   2.212   2.219   2.278   2.306   2.327   2.363   2.400
  2.408   2.438   2.448   2.483   2.506   2.516   2.537   2.554
  2.568   2.602   2.618   2.654   2.686   2.704   2.743   2.780
  2.848   2.859   2.980   3.072   3.082   3.293   3.318   3.326
  3.506   3.599   3.682   4.171   4.412   4.486   4.571   4.619
  4.694   4.830
 
 Beta MOs
 -- Occupied --
-14.329 -10.235 -10.231 -10.230 -10.222 -10.217 -10.197  -0.969
 -0.842  -0.747  -0.684  -0.597  -0.577  -0.541  -0.519  -0.464
 -0.441  -0.419  -0.406  -0.373  -0.351  -0.287  -0.275  -0.265
 -- Virtual --
 -0.055  -0.009  -0.002   0.003   0.019   0.031   0.038   0.047
  0.049   0.063   0.072   0.077   0.096   0.101   0.108   0.109
  0.119   0.128   0.131   0.142   0.153   0.164   0.179   0.181
  0.188   0.195   0.197   0.208   0.223   0.228   0.237   0.242
  0.254   0.260   0.272   0.282   0.288   0.312   0.316   0.334
  0.372   0.376   0.385   0.411   0.457   0.633   0.674   0.679
  0.699   0.711   0.728   0.734   0.746   0.749   0.759   0.782
  0.796   0.809   0.817   0.859   0.903   0.919   0.938   0.956
  1.004   1.021   1.037   1.050   1.070   1.087   1.093   1.109
  1.150   1.207   1.220   1.339   1.346   1.387   1.429   1.441
  1.489   1.562   1.622   1.633   1.699   1.731   1.764   1.828
  1.874   1.889   1.914   1.956   1.980   2.050   2.101   2.108
  2.132   2.161   2.220   2.227   2.284   2.312   2.330   2.367
  2.405   2.412   2.445   2.454   2.487   2.509   2.522   2.544
  2.557   2.572   2.610   2.620   2.663   2.693   2.707   2.745
  2.784   2.853   2.861   2.982   3.075   3.084   3.294   3.320
  3.328   3.507   3.602   3.686   4.173   4.422   4.485   4.584
  4.625   4.696   4.834
 --------------------------------------------------------------
 
          Ground-State Mulliken Net Atomic Charges

     Atom                 Charge (a.u.)    Spin (a.u.)
  --------------------------------------------------------
      1 C                    -0.070325      -0.001689
      2 C                     0.005671      -0.102152
      3 C                    -0.200104       0.600334
      4 C                    -0.099295      -0.236728
      5 C                    -0.136301      -0.018742
      6 N                    -0.178808       0.062273
      7 H                     0.132192       0.001589
      8 H                     0.129512       0.011083
      9 H                     0.147001      -0.025690
     10 H                     0.138928       0.010793
     11 H                     0.138630       0.004605
     12 C                    -0.145695       0.720855
     13 H                     0.138594      -0.026530
  --------------------------------------------------------
  Sum of atomic charges =     0.000000
  Sum of spin   charges =     1.000000

 -----------------------------------------------------------------
                    Cartesian Multipole Moments
 -----------------------------------------------------------------
    Charge (ESU x 10^10)
                 0.0000
    Dipole Moment (Debye)
         X      -1.2054      Y      -2.2656      Z       0.2667
       Tot       2.5802
    Quadrupole Moments (Debye-Ang)
        XX     -38.2199     XY      -4.9033     YY     -45.5322
        XZ       1.5245     YZ       0.6836     ZZ     -41.6396
    Octopole Moments (Debye-Ang^2)
       XXX      -7.4616    XXY      -5.8242    XYY     -10.4715
       YYY     -30.1520    XXZ       2.9437    XYZ       0.8776
       YYZ       1.8361    XZZ      -8.9544    YZZ      -9.7127
       ZZZ       8.6371
    Hexadecapole Moments (Debye-Ang^3)
      XXXX    -255.1417   XXXY     -14.8001   XXYY     -91.3487
      XYYY     -30.6877   YYYY    -263.0146   XXXZ      12.7981
      XXYZ      13.1629   XYYZ      11.3641   YYYZ      30.3680
      XXZZ     -79.5477   XYZZ      -4.7127   YYZZ     -71.6971
      XZZZ      14.4393   YZZZ      21.4855   ZZZZ    -201.2156
 -----------------------------------------------------------------
 Calculating MO derivatives via CPSCF
   1         3          39      0.294691    0.057864
   2         3          39      0.037800    0.007024
   3         3          39      0.004761    0.000879
   4         3          39      0.000727    0.000176
   5        24          18      0.000061    0.000015
   6        40           2      0.000003    0.000001
   7        42           0      0.000000    0.000000    Roots Converged
 Time for AOints: 19.4 s (CPU) 19.5 s (wall)
 ------------------------------------------------------------------------------
                     AOints        : Timing summary (seconds)
 ------------------------------------------------------------------------------
     job step          cpu (% of tot)      sys (% of tot)     wall (% of tot)
 ------------------------------------------------------------------------------
  cpscf_lag         0.1174E+03 (27.9)   0.4100E-04 (34.5)   0.1186E+03 (28.0)
  iterzp            0.2836E+03 (67.4)   0.7400E-04 (62.2)   0.2850E+03 (67.3)
  make_fx           0.0000E+00 ( 0.0)   0.0000E+00 ( 0.0)   0.0000E+00 ( 0.0)
  AOints            0.1943E+02 ( 4.6)   0.2000E-05 ( 1.7)   0.1948E+02 ( 4.6)
 ------------------------------------------------------------------------------
   Grand Totals     0.4208E+03          0.1190E-03          0.4234E+03
 ------------------------------------------------------------------------------
 Calculating analytic Hessian of the SCF energy
 Polarizability Matrix (a.u.)
            1           2           3
    1 -75.0185516   1.1198658   0.7831062
    2   1.1198658 -67.9094555   3.9366131
    3   0.7831062   3.9366131 -74.3712964
 
 Direct stationary perturbation theory relativistic correction:
 
 rels  =       0.069333333262
 relv  =      -0.341460093315
 rel2e =       0.159114108837
 E_rel =      -0.113012651216
 
 Hessian of the SCF Energy
            1           2           3           4           5           6
    1   0.7792256  -0.1424561   0.1440551  -0.1079238  -0.0336715  -0.0055457
    2  -0.1424561   0.6029441  -0.0996800  -0.0299173  -0.1231882  -0.0057128
    3   0.1440551  -0.0996800   0.1962846  -0.0032592   0.0042103  -0.0565272
    4  -0.1079238  -0.0299173  -0.0032592   0.4442063  -0.1610205  -0.0100469
    5  -0.0336715  -0.1231882   0.0042103  -0.1610205   0.6310451   0.0227341
    6  -0.0055457  -0.0057128  -0.0565272  -0.0100469   0.0227341   0.3110582
    7  -0.0354308  -0.0205905  -0.0144598  -0.0999074   0.0156833  -0.0553060
    8  -0.0086208   0.0019678  -0.0094384   0.0282621  -0.0822032   0.0070078
    9  -0.0131534  -0.0038693  -0.0011137  -0.0563471   0.0059740  -0.0856972
   10  -0.0093820   0.0022430   0.0033487  -0.0477555   0.0202590   0.0193079
   11   0.0091129  -0.0140199   0.0054091   0.0342887  -0.0026492  -0.0144209
   12  -0.0000367   0.0109915   0.0026366   0.0183448  -0.0238546   0.0063680
   13  -0.0722102   0.0355543  -0.0194558  -0.0235411   0.0230753  -0.0022629
   14   0.0251531   0.0089380  -0.0011908   0.0126352  -0.0320625   0.0116464
   15  -0.0134712  -0.0044315  -0.0024309  -0.0021732   0.0123622  -0.0122269
   16  -0.2253013   0.2100330  -0.0654209   0.0189587   0.0029130  -0.0071013
   17   0.1734536  -0.4095949   0.0871160  -0.0034145  -0.0547550   0.0137449
   18  -0.0593920   0.0874643  -0.0759902  -0.0009541   0.0162141   0.0155712
   19  -0.3189287  -0.0173333  -0.0584084  -0.0047158   0.0027156  -0.0038720
   20  -0.0256255  -0.0546455   0.0001256  -0.0179779   0.0039505  -0.0049666
   21  -0.0618168   0.0012063  -0.0522790   0.0034418   0.0022898   0.0043153
   22   0.0150331  -0.0158011  -0.0018864  -0.1019069   0.1086700   0.0067237
   23   0.0139260  -0.0126739  -0.0004038   0.1086671  -0.2705963  -0.0249547
   24  -0.0023082   0.0022938  -0.0012302   0.0083769  -0.0269680  -0.0500293
   25  -0.0016433  -0.0010039  -0.0026689  -0.0015523  -0.0125145  -0.0026579
   26  -0.0001620  -0.0032297   0.0018198   0.0049062   0.0090926   0.0080226
   27  -0.0001671   0.0003061   0.0009059   0.0010075  -0.0049309  -0.0020880
   28   0.0003538   0.0004887   0.0004379  -0.0001017   0.0037141   0.0007316
   29  -0.0007190  -0.0022436   0.0006568   0.0071616   0.0002712   0.0026523
   30   0.0016022  -0.0008662   0.0010789   0.0016651   0.0047023  -0.0000010
   31  -0.0061735  -0.0020815  -0.0013480  -0.0004465  -0.0009231  -0.0003178
   32  -0.0036429  -0.0010108   0.0000585  -0.0002428  -0.0052212  -0.0006362
   33  -0.0007356  -0.0004662   0.0007856   0.0010212  -0.0034770   0.0007615
   34  -0.0178002  -0.0218082   0.0179278  -0.0776945   0.0416243   0.0499410
   35  -0.0061625   0.0069034   0.0114024   0.0173689  -0.0771288  -0.0089525
   36   0.0116078   0.0131917  -0.0117562   0.0433677  -0.0149513  -0.1270922
   37   0.0001812   0.0026728   0.0011382   0.0023805  -0.0105249   0.0104061
   38  -0.0005852  -0.0001467  -0.0000854  -0.0007167   0.0034451  -0.0061643
   39  -0.0006383  -0.0004277  -0.0003642  -0.0044446   0.0056949  -0.0044125
            7           8           9          10          11          12
    1  -0.0354308  -0.0086208  -0.0131534  -0.0093820   0.0091129  -0.0000367
    2  -0.0205905   0.0019678  -0.0038693   0.0022430  -0.0140199   0.0109915
    3  -0.0144598  -0.0094384  -0.0011137   0.0033487   0.0054091   0.0026366
    4  -0.0999074   0.0282621  -0.0563471  -0.0477555   0.0342887   0.0183448
    5   0.0156833  -0.0822032   0.0059740   0.0202590  -0.0026492  -0.0238546
    6  -0.0553060   0.0070078  -0.0856972   0.0193079  -0.0144209   0.0063680
    7   0.3103613   0.1035592   0.3002821  -0.0377900  -0.0185070  -0.0639932
    8   0.1035592   0.4685290   0.1270387   0.0161075  -0.0043179   0.0032736
    9   0.3002821   0.1270387   0.2643680   0.0350972   0.0141165   0.0740148
   10  -0.0377900   0.0161075   0.0350972   0.6363318  -0.2246609  -0.1331357
   11  -0.0185070  -0.0043179   0.0141165  -0.2246609   0.3141109  -0.1154658
   12  -0.0639932   0.0032736   0.0740148  -0.1331357  -0.1154658   0.2456376
   13  -0.0267556  -0.0165102  -0.0648448  -0.0820924   0.0213999   0.0602096
   14   0.0357011  -0.2190741  -0.0767255  -0.0047290  -0.0527409   0.0917234
   15  -0.0286421  -0.0261490  -0.0331808   0.0335218   0.0253214  -0.1227557
   16  -0.0164519  -0.0276601  -0.0011997  -0.0207427  -0.0326861   0.0227628
   17  -0.0195247  -0.0343665  -0.0139730  -0.0003624  -0.0012490   0.0027972
   18  -0.0211417  -0.0112585   0.0012563   0.0232577   0.0051257   0.0029247
   19  -0.0005085  -0.0003584   0.0009830   0.0005907  -0.0001015  -0.0002976
   20  -0.0022404  -0.0024391   0.0001563  -0.0009107   0.0004688   0.0003531
   21   0.0021385   0.0004167  -0.0024419  -0.0022232   0.0006042   0.0013790
   22  -0.0025007   0.0149539   0.0065120  -0.0017364   0.0008182   0.0032929
   23  -0.0016127   0.0006258   0.0009636  -0.0007764  -0.0000688  -0.0006010
   24  -0.0024750   0.0190312   0.0061121   0.0027289  -0.0001138  -0.0063007
   25  -0.1414575  -0.0958866  -0.1333908   0.0073778   0.0048808   0.0016794
   26  -0.0895793  -0.1409769  -0.1161986   0.0007996  -0.0021142   0.0028417
   27  -0.1372395  -0.1106865  -0.1377356  -0.0070893  -0.0053346  -0.0047478
   28   0.0009739   0.0026729   0.0035186  -0.2841266   0.0769018   0.0885974
   29  -0.0001449   0.0020430   0.0082074   0.0711863  -0.0581425  -0.0271325
   30  -0.0034437   0.0085447   0.0092665   0.0895430  -0.0233467  -0.0971021
   31  -0.0002980   0.0008930   0.0020302   0.0084023  -0.0094073   0.0049351
   32   0.0150339  -0.0111253   0.0139684   0.0027792  -0.0026033  -0.0003029
   33   0.0117516  -0.0084322   0.0077952  -0.0172990   0.0177576  -0.0105751
   34   0.0479511  -0.0158773  -0.0733805  -0.1784799   0.1311763   0.0068685
   35  -0.0186742   0.0241974   0.0474485   0.1215840  -0.1739238   0.0373554
   36   0.0137564   0.0016215  -0.0956874  -0.0500638   0.0921803  -0.0925454
   37   0.0018139  -0.0015351  -0.0061068   0.0094028   0.0067842  -0.0092273
   38   0.0008961  -0.0028601  -0.0071070  -0.0035191  -0.0027503   0.0180210
   39  -0.0012275  -0.0009695  -0.0069563   0.0030058  -0.0018330   0.0010662
           13          14          15          16          17          18
    1  -0.0722102   0.0251531  -0.0134712  -0.2253013   0.1734536  -0.0593920
    2   0.0355543   0.0089380  -0.0044315   0.2100330  -0.4095949   0.0874643
    3  -0.0194558  -0.0011908  -0.0024309  -0.0654209   0.0871160  -0.0759902
    4  -0.0235411   0.0126352  -0.0021732   0.0189587  -0.0034145  -0.0009541
    5   0.0230753  -0.0320625   0.0123622   0.0029130  -0.0547550   0.0162141
    6  -0.0022629   0.0116464  -0.0122269  -0.0071013   0.0137449   0.0155712
    7  -0.0267556   0.0357011  -0.0286421  -0.0164519  -0.0195247  -0.0211417
    8  -0.0165102  -0.2190741  -0.0261490  -0.0276601  -0.0343665  -0.0112585
    9  -0.0648448  -0.0767255  -0.0331808  -0.0011997  -0.0139730   0.0012563
   10  -0.0820924  -0.0047290   0.0335218  -0.0207427  -0.0003624   0.0232577
   11   0.0213999  -0.0527409   0.0253214  -0.0326861  -0.0012490   0.0051257
   12   0.0602096   0.0917234  -0.1227557   0.0227628   0.0027972   0.0029247
   13   0.4955644  -0.1513298   0.1256092  -0.1294592  -0.0098201  -0.0155001
   14  -0.1513298   0.5572777  -0.1288035  -0.0284838  -0.0838144   0.0014574
   15   0.1256092  -0.1288035   0.3621616  -0.0252806   0.0106376  -0.0730995
   16  -0.1294592  -0.0284838  -0.0252806   0.4200046  -0.1548503   0.0850021
   17  -0.0098201  -0.0838144   0.0106376  -0.1548503   0.5816229  -0.1038447
   18  -0.0155001   0.0014574  -0.0730995   0.0850021  -0.1038447   0.1338751
   19   0.0001659   0.0024657  -0.0045079  -0.0152383   0.0043802  -0.0030503
   20   0.0019527  -0.0048156   0.0025404   0.0335497   0.0020179   0.0056639
   21  -0.0039742   0.0008772   0.0125898  -0.0047495  -0.0022934  -0.0055863
   22  -0.0040099  -0.0001328  -0.0023995  -0.0024029  -0.0050191   0.0018015
   23  -0.0008549  -0.0012656  -0.0005274  -0.0013466  -0.0048825   0.0010019
   24  -0.0037274   0.0027932  -0.0025653  -0.0003452   0.0012840   0.0005318
   25   0.0016895   0.0086368   0.0056723  -0.0040170  -0.0010301  -0.0002759
   26  -0.0129582   0.0003426  -0.0109345  -0.0023900  -0.0018574  -0.0024320
   27   0.0042723  -0.0012721  -0.0013149   0.0030572   0.0032532   0.0008158
   28  -0.0045770   0.0028309  -0.0012597   0.0001865  -0.0003119   0.0007846
   29  -0.0132983   0.0057109   0.0027472  -0.0015826   0.0012475   0.0021218
   30   0.0205608  -0.0027557  -0.0095293  -0.0017599  -0.0003912  -0.0021426
   31  -0.1508328   0.1079530  -0.0831292  -0.0172680   0.0182010  -0.0123506
   32   0.1094433  -0.1693326   0.0898739  -0.0084013   0.0105941  -0.0080568
   33  -0.0853207   0.0879866  -0.1068405   0.0001724   0.0000880  -0.0015682
   34   0.0000825  -0.0111413  -0.0062347  -0.0095186   0.0000099   0.0014578
   35   0.0105239  -0.0082582   0.0226492   0.0101682  -0.0049613   0.0064549
   36  -0.0151970   0.0162862  -0.0130424  -0.0057269   0.0019134   0.0031740
   37  -0.0040243   0.0004407   0.0022947   0.0012499  -0.0017115   0.0003609
   38   0.0028221  -0.0009053   0.0047140   0.0007369  -0.0000014   0.0000879
   39  -0.0003690  -0.0020228   0.0022348   0.0005894  -0.0003322   0.0002378
           19          20          21          22          23          24
    1  -0.3189287  -0.0256255  -0.0618168   0.0150331   0.0139260  -0.0023082
    2  -0.0173333  -0.0546455   0.0012063  -0.0158011  -0.0126739   0.0022938
    3  -0.0584084   0.0001256  -0.0522790  -0.0018864  -0.0004038  -0.0012302
    4  -0.0047158  -0.0179779   0.0034418  -0.1019069   0.1086671   0.0083769
    5   0.0027156   0.0039505   0.0022898   0.1086700  -0.2705963  -0.0269680
    6  -0.0038720  -0.0049666   0.0043153   0.0067237  -0.0249547  -0.0500293
    7  -0.0005085  -0.0022404   0.0021385  -0.0025007  -0.0016127  -0.0024750
    8  -0.0003584  -0.0024391   0.0004167   0.0149539   0.0006258   0.0190312
    9   0.0009830   0.0001563  -0.0024419   0.0065120   0.0009636   0.0061121
   10   0.0005907  -0.0009107  -0.0022232  -0.0017364  -0.0007764   0.0027289
   11  -0.0001015   0.0004688   0.0006042   0.0008182  -0.0000688  -0.0001138
   12  -0.0002976   0.0003531   0.0013790   0.0032929  -0.0006010  -0.0063007
   13   0.0001659   0.0019527  -0.0039742  -0.0040099  -0.0008549  -0.0037274
   14   0.0024657  -0.0048156   0.0008772  -0.0001328  -0.0012656   0.0027932
   15  -0.0045079   0.0025404   0.0125898  -0.0023995  -0.0005274  -0.0025653
   16  -0.0152383   0.0335497  -0.0047495  -0.0024029  -0.0013466  -0.0003452
   17   0.0043802   0.0020179  -0.0022934  -0.0050191  -0.0048825   0.0012840
   18  -0.0030503   0.0056639  -0.0055863   0.0018015   0.0010019   0.0005318
   19   0.3394529   0.0091840   0.0687792  -0.0001459  -0.0006595   0.0001150
   20   0.0091840   0.0541176  -0.0032411   0.0011163   0.0002844  -0.0001193
   21   0.0687792  -0.0032411   0.0403577  -0.0000433  -0.0001179   0.0000465
   22  -0.0001459   0.0011163  -0.0000433   0.1046569  -0.1178763  -0.0141733
   23  -0.0006595   0.0002844  -0.0001179  -0.1178763   0.2870188   0.0252025
   24   0.0001150  -0.0001193   0.0000465  -0.0141733   0.0252025   0.0476690
   25  -0.0002307  -0.0008834   0.0000880   0.0004835   0.0002902   0.0003878
   26   0.0001920   0.0005945  -0.0003128  -0.0004218  -0.0000199  -0.0006779
   27   0.0000792  -0.0001989  -0.0004261  -0.0001034   0.0003642   0.0004098
   28   0.0001412   0.0002168  -0.0001382  -0.0003404  -0.0003662   0.0007639
   29   0.0002089   0.0005239   0.0000140   0.0008050   0.0001594  -0.0002879
   30  -0.0000097   0.0002596   0.0011306  -0.0003825   0.0000874   0.0011126
   31  -0.0008811   0.0013425   0.0004117   0.0002279   0.0001719  -0.0001018
   32  -0.0004008   0.0007594   0.0003719   0.0006729   0.0001649   0.0010406
   33   0.0002119   0.0002026   0.0003911   0.0006644  -0.0001520   0.0008478
   34   0.0005012   0.0006420  -0.0018783  -0.0077650  -0.0000274   0.0118100
   35  -0.0002019  -0.0009232   0.0002093   0.0127319   0.0011368  -0.0239755
   36  -0.0001557  -0.0009685   0.0006210   0.0000497  -0.0006787   0.0029731
   37  -0.0002030  -0.0003662  -0.0000357   0.0004067   0.0004646  -0.0010516
   38  -0.0000912   0.0001063  -0.0000243  -0.0005172   0.0001171   0.0004969
   39   0.0001333   0.0001929  -0.0000976  -0.0000557  -0.0001842   0.0004229
           25          26          27          28          29          30
    1  -0.0016433  -0.0001620  -0.0001671   0.0003538  -0.0007190   0.0016022
    2  -0.0010039  -0.0032297   0.0003061   0.0004887  -0.0022436  -0.0008662
    3  -0.0026689   0.0018198   0.0009059   0.0004379   0.0006568   0.0010789
    4  -0.0015523   0.0049062   0.0010075  -0.0001017   0.0071616   0.0016651
    5  -0.0125145   0.0090926  -0.0049309   0.0037141   0.0002712   0.0047023
    6  -0.0026579   0.0080226  -0.0020880   0.0007316   0.0026523  -0.0000010
    7  -0.1414575  -0.0895793  -0.1372395   0.0009739  -0.0001449  -0.0034437
    8  -0.0958866  -0.1409769  -0.1106865   0.0026729   0.0020430   0.0085447
    9  -0.1333908  -0.1161986  -0.1377356   0.0035186   0.0082074   0.0092665
   10   0.0073778   0.0007996  -0.0070893  -0.2841266   0.0711863   0.0895430
   11   0.0048808  -0.0021142  -0.0053346   0.0769018  -0.0581425  -0.0233467
   12   0.0016794   0.0028417  -0.0047478   0.0885974  -0.0271325  -0.0971021
   13   0.0016895  -0.0129582   0.0042723  -0.0045770  -0.0132983   0.0205608
   14   0.0086368   0.0003426  -0.0012721   0.0028309   0.0057109  -0.0027557
   15   0.0056723  -0.0109345  -0.0013149  -0.0012597   0.0027472  -0.0095293
   16  -0.0040170  -0.0023900   0.0030572   0.0001865  -0.0015826  -0.0017599
   17  -0.0010301  -0.0018574   0.0032532  -0.0003119   0.0012475  -0.0003912
   18  -0.0002759  -0.0024320   0.0008158   0.0007846   0.0021218  -0.0021426
   19  -0.0002307   0.0001920   0.0000792   0.0001412   0.0002089  -0.0000097
   20  -0.0008834   0.0005945  -0.0001989   0.0002168   0.0005239   0.0002596
   21   0.0000880  -0.0003128  -0.0004261  -0.0001382   0.0000140   0.0011306
   22   0.0004835  -0.0004218  -0.0001034  -0.0003404   0.0008050  -0.0003825
   23   0.0002902  -0.0000199   0.0003642  -0.0003662   0.0001594   0.0000874
   24   0.0003878  -0.0006779   0.0004098   0.0007639  -0.0002879   0.0011126
   25   0.1410972   0.0993487   0.1326727  -0.0004860  -0.0008685  -0.0011535
   26   0.0993487   0.1364689   0.1172167   0.0000697   0.0005984  -0.0002638
   27   0.1326727   0.1172167   0.1439552   0.0009488   0.0005932   0.0009648
   28  -0.0004860   0.0000697   0.0009488   0.2911620  -0.0818766  -0.1035821
   29  -0.0008685   0.0005984   0.0005932  -0.0818766   0.0580714   0.0188810
   30  -0.0011535  -0.0002638   0.0009648  -0.1035821   0.0188810   0.0792519
   31   0.0001794   0.0001839   0.0000900   0.0005059   0.0003108  -0.0006164
   32  -0.0002445   0.0007193  -0.0005553  -0.0002281  -0.0000781   0.0000997
   33  -0.0001630   0.0008143  -0.0000941  -0.0000223  -0.0012123   0.0011843
   34  -0.0020260   0.0005018   0.0023682  -0.0033055   0.0204259  -0.0022455
   35  -0.0007414   0.0004082   0.0016848  -0.0037285  -0.0072362  -0.0038882
   36  -0.0004180  -0.0003222   0.0003238   0.0096811  -0.0069906   0.0152177
   37   0.0005855  -0.0004904   0.0001032  -0.0003861  -0.0016085  -0.0001780
   38   0.0000165  -0.0000263  -0.0004399  -0.0003836  -0.0009252  -0.0010630
   39   0.0002278   0.0004268  -0.0009687  -0.0004616  -0.0002503  -0.0004323
           31          32          33          34          35          36
    1  -0.0061735  -0.0036429  -0.0007356  -0.0178002  -0.0061625   0.0116078
    2  -0.0020815  -0.0010108  -0.0004662  -0.0218082   0.0069034   0.0131917
    3  -0.0013480   0.0000585   0.0007856   0.0179278   0.0114024  -0.0117562
    4  -0.0004465  -0.0002428   0.0010212  -0.0776945   0.0173689   0.0433677
    5  -0.0009231  -0.0052212  -0.0034770   0.0416243  -0.0771288  -0.0149513
    6  -0.0003178  -0.0006362   0.0007615   0.0499410  -0.0089525  -0.1270922
    7  -0.0002980   0.0150339   0.0117516   0.0479511  -0.0186742   0.0137564
    8   0.0008930  -0.0111253  -0.0084322  -0.0158773   0.0241974   0.0016215
    9   0.0020302   0.0139684   0.0077952  -0.0733805   0.0474485  -0.0956874
   10   0.0084023   0.0027792  -0.0172990  -0.1784799   0.1215840  -0.0500638
   11  -0.0094073  -0.0026033   0.0177576   0.1311763  -0.1739238   0.0921803
   12   0.0049351  -0.0003029  -0.0105751   0.0068685   0.0373554  -0.0925454
   13  -0.1508328   0.1094433  -0.0853207   0.0000825   0.0105239  -0.0151970
   14   0.1079530  -0.1693326   0.0879866  -0.0111413  -0.0082582   0.0162862
   15  -0.0831292   0.0898739  -0.1068405  -0.0062347   0.0226492  -0.0130424
   16  -0.0172680  -0.0084013   0.0001724  -0.0095186   0.0101682  -0.0057269
   17   0.0182010   0.0105941   0.0000880   0.0000099  -0.0049613   0.0019134
   18  -0.0123506  -0.0080568  -0.0015682   0.0014578   0.0064549   0.0031740
   19  -0.0008811  -0.0004008   0.0002119   0.0005012  -0.0002019  -0.0001557
   20   0.0013425   0.0007594   0.0002026   0.0006420  -0.0009232  -0.0009685
   21   0.0004117   0.0003719   0.0003911  -0.0018783   0.0002093   0.0006210
   22   0.0002279   0.0006729   0.0006644  -0.0077650   0.0127319   0.0000497
   23   0.0001719   0.0001649  -0.0001520  -0.0000274   0.0011368  -0.0006787
   24  -0.0001018   0.0010406   0.0008478   0.0118100  -0.0239755   0.0029731
   25   0.0001794  -0.0002445  -0.0001630  -0.0020260  -0.0007414  -0.0004180
   26   0.0001839   0.0007193   0.0008143   0.0005018   0.0004082  -0.0003222
   27   0.0000900  -0.0005553  -0.0000941   0.0023682   0.0016848   0.0003238
   28   0.0005059  -0.0002281  -0.0000223  -0.0033055  -0.0037285   0.0096811
   29   0.0003108  -0.0000781  -0.0012123   0.0204259  -0.0072362  -0.0069906
   30  -0.0006164   0.0000997   0.0011843  -0.0022455  -0.0038882   0.0152177
   31   0.1662870  -0.1151631   0.0879350  -0.0003008  -0.0011221   0.0024535
   32  -0.1151631   0.1766989  -0.0957063   0.0003223   0.0004047   0.0000316
   33   0.0879350  -0.0957063   0.1116511   0.0025426   0.0017920  -0.0045465
   34  -0.0003008   0.0003223   0.0025426   0.2916282  -0.1674485  -0.0123830
   35  -0.0011221   0.0004047   0.0017920  -0.1674485   0.3172074  -0.2277303
   36   0.0024535   0.0000316  -0.0045465  -0.0123830  -0.2277303   0.6202712
   37   0.0005982   0.0000721  -0.0007585  -0.0432726   0.0257021   0.0030283
   38  -0.0003589   0.0000300   0.0008051   0.0216002  -0.0778264   0.1264169
   39   0.0000080  -0.0001870   0.0002079   0.0032061   0.1355500  -0.2979106
           37          38          39
    1   0.0001812  -0.0005852  -0.0006383
    2   0.0026728  -0.0001467  -0.0004277
    3   0.0011382  -0.0000854  -0.0003642
    4   0.0023805  -0.0007167  -0.0044446
    5  -0.0105249   0.0034451   0.0056949
    6   0.0104061  -0.0061643  -0.0044125
    7   0.0018139   0.0008961  -0.0012275
    8  -0.0015351  -0.0028601  -0.0009695
    9  -0.0061068  -0.0071070  -0.0069563
   10   0.0094028  -0.0035191   0.0030058
   11   0.0067842  -0.0027503  -0.0018330
   12  -0.0092273   0.0180210   0.0010662
   13  -0.0040243   0.0028221  -0.0003690
   14   0.0004407  -0.0009053  -0.0020228
   15   0.0022947   0.0047140   0.0022348
   16   0.0012499   0.0007369   0.0005894
   17  -0.0017115  -0.0000014  -0.0003322
   18   0.0003609   0.0000879   0.0002378
   19  -0.0002030  -0.0000912   0.0001333
   20  -0.0003662   0.0001063   0.0001929
   21  -0.0000357  -0.0000243  -0.0000976
   22   0.0004067  -0.0005172  -0.0000557
   23   0.0004646   0.0001171  -0.0001842
   24  -0.0010516   0.0004969   0.0004229
   25   0.0005855   0.0000165   0.0002278
   26  -0.0004904  -0.0000263   0.0004268
   27   0.0001032  -0.0004399  -0.0009687
   28  -0.0003861  -0.0003836  -0.0004616
   29  -0.0016085  -0.0009252  -0.0002503
   30  -0.0001780  -0.0010630  -0.0004323
   31   0.0005982  -0.0003589   0.0000080
   32   0.0000721   0.0000300  -0.0001870
   33  -0.0007585   0.0008051   0.0002079
   34  -0.0432726   0.0216002   0.0032061
   35   0.0257021  -0.0778264   0.1355500
   36   0.0030283   0.1264169  -0.2979106
   37   0.0312674  -0.0199000   0.0000264
   38  -0.0199000   0.0817432  -0.1356580
   39   0.0000264  -0.1356580   0.3069726
 Gradient time:  CPU 553.12 s  wall 560.82 s
 **********************************************************************
 **                                                                  **
 **                       VIBRATIONAL ANALYSIS                       **
 **                       --------------------                       **
 **                                                                  **
 **        VIBRATIONAL FREQUENCIES (CM**-1) AND NORMAL MODES         **
 **     FORCE CONSTANTS (mDYN/ANGSTROM) AND REDUCED MASSES (AMU)     **
 **                  INFRARED INTENSITIES (KM/MOL)                   **
 **                                                                  **
 **********************************************************************
 

 Mode:                 1                      2                      3
 Frequency:      -668.55                 362.76                 396.18
 Force Cnst:      1.3646                 0.0936                 0.1066
 Red. Mass:       5.1820                 1.2071                 1.1528
 IR Active:          YES                    YES                    YES
 IR Intens:       37.896                 15.833                 30.639
 Raman Active:       YES                    YES                    YES
               X      Y      Z        X      Y      Z        X      Y      Z
 C          0.012 -0.004  0.009   -0.023  0.001  0.053    0.011  0.026 -0.006
 C          0.020 -0.002  0.010    0.002 -0.020 -0.033    0.026  0.015  0.031
 C         -0.261  0.078  0.344    0.019  0.005 -0.023    0.007  0.011  0.031
 C         -0.058 -0.189 -0.309    0.040  0.025 -0.019    0.026  0.004 -0.016
 C          0.104  0.125 -0.055    0.001  0.015 -0.035    0.015  0.034  0.006
 N          0.036  0.018 -0.005   -0.022 -0.000  0.033    0.011  0.012 -0.056
 H         -0.006 -0.001  0.092   -0.048  0.019  0.160    0.013  0.042 -0.016
 H         -0.010 -0.005 -0.121    0.022 -0.006 -0.077    0.051  0.030  0.005
 H          0.031  0.231 -0.083   -0.394 -0.173  0.528   -0.377 -0.172  0.557
 H         -0.176 -0.328 -0.501    0.053  0.052 -0.004   -0.066 -0.124 -0.150
 H          0.055  0.091 -0.031    0.002  0.016 -0.034   -0.000  0.028  0.019
 C          0.129 -0.045  0.048   -0.018 -0.062 -0.047   -0.030 -0.046  0.001
 H          0.250  0.215  0.159    0.403  0.517  0.216   -0.418 -0.493 -0.196
 TransDip  -0.034  0.000 -0.194    0.007  0.083  0.097   -0.147 -0.094  0.033

 Mode:                 4                      5                      6
 Frequency:       444.35                 482.36                 604.45
 Force Cnst:      0.3630                 0.5544                 0.9956
 Red. Mass:       3.1207                 4.0440                 4.6251
 IR Active:          YES                    YES                    YES
 IR Intens:       12.999                  7.197                 15.656
 Raman Active:       YES                    YES                    YES
               X      Y      Z        X      Y      Z        X      Y      Z
 C         -0.091 -0.009  0.197    0.058 -0.097 -0.181    0.044  0.074 -0.157
 C         -0.031 -0.050 -0.112    0.012 -0.010 -0.025    0.079 -0.050 -0.035
 C         -0.117 -0.058 -0.028    0.058 -0.032 -0.071   -0.096 -0.182  0.223
 C          0.127  0.070 -0.005   -0.112 -0.031 -0.106    0.093  0.210 -0.028
 C         -0.008 -0.029 -0.112   -0.034 -0.010  0.047    0.067 -0.069 -0.091
 N         -0.058 -0.026  0.057   -0.047 -0.041  0.288   -0.076  0.094  0.226
 H         -0.191  0.032  0.633    0.111 -0.127 -0.414    0.060  0.124 -0.229
 H         -0.017 -0.041 -0.109   -0.108 -0.085  0.132    0.133 -0.023 -0.028
 H         -0.114 -0.025 -0.064   -0.307 -0.205  0.428    0.167 -0.066 -0.129
 H          0.154  0.054  0.061   -0.222 -0.240 -0.227    0.250  0.497  0.150
 H         -0.019 -0.029 -0.097    0.085  0.044 -0.030    0.099 -0.186 -0.291
 C          0.217  0.144 -0.018    0.116  0.275  0.017   -0.135 -0.116 -0.123
 H         -0.163 -0.437 -0.285   -0.077  0.042 -0.091   -0.259 -0.075 -0.097
 TransDip  -0.068 -0.093 -0.006   -0.056 -0.061 -0.023    0.031  0.056 -0.109

 Mode:                 7                      8                      9
 Frequency:       741.20                 784.34                 831.01
 Force Cnst:      1.9633                 2.6206                 0.8751
 Red. Mass:       6.0655                 7.2301                 2.1508
 IR Active:          YES                    YES                    YES
 IR Intens:        3.235                  5.098                 17.418
 Raman Active:       YES                    YES                    YES
               X      Y      Z        X      Y      Z        X      Y      Z
 C         -0.260 -0.066 -0.143    0.010  0.120 -0.083   -0.018 -0.048 -0.062
 C         -0.099 -0.174  0.160   -0.261  0.082 -0.049   -0.049  0.013 -0.114
 C          0.211  0.148 -0.058   -0.135 -0.145 -0.170    0.150  0.049  0.146
 C          0.277 -0.008 -0.092    0.002 -0.205  0.048   -0.086  0.040  0.120
 C          0.066  0.118 -0.123    0.137 -0.170 -0.152   -0.021 -0.004 -0.092
 N         -0.188  0.061  0.059    0.248  0.329  0.084    0.036  0.028  0.004
 H         -0.244 -0.035 -0.258   -0.006 -0.284  0.081   -0.116 -0.068  0.379
 H         -0.052 -0.125 -0.054   -0.158  0.136 -0.060   -0.247 -0.057 -0.349
 H          0.193  0.255 -0.135   -0.327 -0.248  0.093    0.289 -0.088  0.159
 H          0.205 -0.015 -0.279    0.118  0.220  0.027   -0.285 -0.340 -0.082
 H         -0.123  0.021 -0.015    0.039 -0.121  0.046    0.014 -0.199 -0.402
 C          0.048 -0.095  0.227   -0.020 -0.030  0.272    0.002 -0.010  0.024
 H         -0.264 -0.031  0.268    0.072 -0.131  0.226    0.112 -0.118 -0.024
 TransDip  -0.027 -0.019 -0.047   -0.010 -0.062  0.035   -0.073 -0.090 -0.067

 Mode:                10                     11                     12
 Frequency:       851.74                 885.81                 894.98
 Force Cnst:      1.8701                 0.9776                 0.7108
 Red. Mass:       4.3753                 2.1146                 1.5062
 IR Active:          YES                    YES                    YES
 IR Intens:       10.722                  8.058                  2.164
 Raman Active:       YES                    YES                    YES
               X      Y      Z        X      Y      Z        X      Y      Z
 C          0.232  0.020 -0.074   -0.093 -0.090  0.053   -0.034 -0.045  0.026
 C          0.073  0.153 -0.032    0.044  0.176  0.067    0.015  0.095 -0.053
 C         -0.107  0.127 -0.086   -0.066  0.008 -0.027    0.055  0.015  0.049
 C          0.040 -0.025  0.098    0.028  0.037  0.072   -0.039 -0.103 -0.053
 C          0.057 -0.061 -0.177   -0.020  0.020 -0.141    0.005  0.048 -0.025
 N         -0.159 -0.212  0.059    0.027 -0.031  0.053   -0.024 -0.050 -0.001
 H          0.116  0.497  0.396    0.033 -0.402 -0.494   -0.007 -0.117 -0.111
 H         -0.173  0.047 -0.167    0.303  0.294  0.174   -0.019  0.104 -0.255
 H         -0.173  0.217 -0.104    0.074 -0.124 -0.049    0.226 -0.311  0.184
 H         -0.065  0.026 -0.205   -0.126 -0.320 -0.047    0.349  0.600  0.397
 H          0.117  0.154  0.034    0.084  0.090 -0.187    0.010  0.105  0.047
 C         -0.086 -0.045  0.188    0.023 -0.064 -0.029   -0.013  0.023  0.037
 H         -0.104 -0.014  0.212    0.257 -0.140 -0.071   -0.095 -0.089 -0.013
 TransDip   0.014  0.103 -0.015    0.006 -0.044 -0.079    0.042  0.020  0.005

 Mode:                13                     14                     15
 Frequency:       913.65                 930.08                 958.37
 Force Cnst:      1.0112                 0.8097                 1.1212
 Red. Mass:       2.0561                 1.5887                 2.0718
 IR Active:          YES                    YES                    YES
 IR Intens:        0.459                 21.160                  2.300
 Raman Active:       YES                    YES                    YES
               X      Y      Z        X      Y      Z        X      Y      Z
 C          0.062  0.025 -0.044   -0.069 -0.087 -0.150   -0.107 -0.003  0.023
 C         -0.057 -0.062  0.170    0.074  0.055  0.035    0.089 -0.045 -0.077
 C          0.001  0.079 -0.005   -0.019 -0.034 -0.019    0.019  0.032  0.006
 C         -0.079 -0.078  0.036   -0.006 -0.019  0.004   -0.115 -0.033  0.063
 C         -0.003  0.043 -0.113    0.019  0.044  0.039    0.192 -0.049  0.022
 N         -0.010  0.011  0.017    0.020  0.018  0.008   -0.059  0.010 -0.033
 H          0.024  0.176  0.122   -0.276 -0.067  0.779   -0.068 -0.063 -0.174
 H         -0.215 -0.166  0.393    0.318  0.150  0.281    0.380  0.083  0.057
 H         -0.131  0.126  0.079    0.019 -0.053 -0.044   -0.422  0.527 -0.010
 H          0.172  0.158  0.495    0.025  0.026  0.044   -0.052  0.187  0.063
 H          0.082 -0.016 -0.313   -0.022  0.113  0.184    0.263 -0.223 -0.298
 C          0.070 -0.024 -0.111   -0.027  0.005 -0.022   -0.021  0.049  0.033
 H          0.288 -0.235 -0.219    0.001  0.026 -0.014    0.049 -0.056 -0.014
 TransDip   0.009  0.002  0.020   -0.057  0.006  0.136    0.018 -0.039 -0.023

 Mode:                16                     17                     18
 Frequency:       974.34                1026.79                1087.43
 Force Cnst:      1.1281                 1.2829                 1.2004
 Red. Mass:       2.0168                 2.0653                 1.7230
 IR Active:          YES                    YES                    YES
 IR Intens:        2.639                  3.482                  5.303
 Raman Active:       YES                    YES                    YES
               X      Y      Z        X      Y      Z        X      Y      Z
 C         -0.025  0.026 -0.011   -0.009  0.038  0.015    0.013 -0.007  0.003
 C         -0.140  0.101  0.010    0.019 -0.114 -0.041    0.085 -0.102 -0.003
 C          0.043 -0.047  0.017   -0.039 -0.111 -0.038   -0.007 -0.001 -0.038
 C          0.010  0.036 -0.011   -0.058 -0.016  0.098   -0.099  0.080 -0.013
 C          0.168 -0.041  0.087    0.113  0.178 -0.053   -0.100  0.043 -0.030
 N         -0.096 -0.041 -0.019   -0.040  0.011 -0.018    0.039  0.017  0.007
 H         -0.036  0.082  0.006    0.015  0.243 -0.127    0.019  0.067 -0.015
 H         -0.272  0.025  0.183    0.027 -0.123  0.015    0.200 -0.051 -0.053
 H          0.157 -0.178  0.033    0.241 -0.447 -0.027    0.020 -0.067 -0.016
 H         -0.105  0.180 -0.421   -0.131 -0.315  0.156   -0.129  0.521 -0.390
 H          0.132  0.041  0.261    0.335  0.521  0.114   -0.127  0.119  0.090
 C          0.019 -0.016 -0.057   -0.015  0.016  0.023    0.022 -0.047  0.108
 H          0.547 -0.294 -0.207   -0.068  0.087  0.065    0.493 -0.394 -0.052
 TransDip   0.040  0.005  0.033    0.039  0.014  0.043    0.037  0.027 -0.058

 Mode:                19                     20                     21
 Frequency:      1142.39                1178.46                1217.82
 Force Cnst:      1.2869                 1.4349                 1.3620
 Red. Mass:       1.6736                 1.7537                 1.5587
 IR Active:          YES                    YES                    YES
 IR Intens:       14.936                  1.742                  6.105
 Raman Active:       YES                    YES                    YES
               X      Y      Z        X      Y      Z        X      Y      Z
 C         -0.030 -0.025  0.025    0.028 -0.009  0.029    0.040  0.022 -0.002
 C          0.087 -0.031 -0.031   -0.004  0.036 -0.164   -0.073  0.016  0.015
 C          0.012  0.061  0.060    0.038 -0.059  0.029    0.102 -0.132  0.056
 C         -0.002 -0.040  0.065    0.070 -0.040 -0.018   -0.005  0.018 -0.040
 C          0.037 -0.075 -0.127   -0.059  0.112  0.011   -0.032  0.041 -0.062
 N          0.004  0.050  0.004   -0.002 -0.009 -0.003   -0.006 -0.030  0.003
 H         -0.002 -0.108 -0.113    0.043 -0.010 -0.048    0.040 -0.110  0.030
 H         -0.255 -0.231  0.248   -0.159 -0.147  0.856    0.189  0.181 -0.278
 H          0.015  0.067  0.067   -0.081  0.147 -0.041   -0.335  0.521 -0.104
 H         -0.040  0.029 -0.091    0.086 -0.024 -0.000    0.042 -0.205  0.251
 H         -0.410  0.123  0.724   -0.113 -0.116 -0.243   -0.056  0.320  0.339
 C         -0.048  0.058 -0.061   -0.061 -0.009  0.071   -0.033  0.022  0.014
 H         -0.028  0.048 -0.073    0.113 -0.104  0.028    0.209 -0.141 -0.069
 TransDip  -0.088 -0.073  0.047    0.011  0.003  0.041    0.015  0.076  0.014

 Mode:                22                     23                     24
 Frequency:      1245.27                1275.86                1320.82
 Force Cnst:      1.4581                 1.2074                 1.5552
 Red. Mass:       1.5959                 1.2589                 1.5130
 IR Active:          YES                    YES                    YES
 IR Intens:        6.529                  1.071                  4.724
 Raman Active:       YES                    YES                    YES
               X      Y      Z        X      Y      Z        X      Y      Z
 C          0.065  0.037 -0.003   -0.032 -0.056  0.003   -0.098 -0.013 -0.010
 C         -0.155 -0.065 -0.057   -0.012 -0.008 -0.003   -0.014  0.026 -0.038
 C          0.021  0.074  0.040   -0.026  0.023 -0.012    0.033  0.028  0.043
 C         -0.018 -0.009  0.036    0.022  0.011 -0.039    0.004  0.008 -0.022
 C          0.000 -0.014 -0.040    0.048  0.009  0.004   -0.077 -0.116 -0.006
 N         -0.005 -0.044  0.011    0.052 -0.016  0.019    0.084 -0.012  0.010
 H          0.076  0.003 -0.011   -0.027  0.643 -0.123   -0.104  0.604 -0.107
 H          0.735  0.334  0.313    0.167  0.093 -0.107   -0.021  0.003  0.203
 H          0.170 -0.121  0.094    0.062 -0.118  0.028   -0.025  0.120  0.038
 H         -0.045  0.112 -0.120    0.062 -0.255  0.254    0.023  0.040  0.002
 H         -0.156 -0.030  0.142   -0.355 -0.343  0.051    0.516  0.478  0.049
 C          0.046 -0.007 -0.027   -0.075  0.050  0.022    0.028 -0.025  0.003
 H         -0.214  0.129  0.041    0.267 -0.154 -0.086   -0.087  0.034  0.035
 TransDip   0.034  0.073  0.011   -0.001 -0.033  0.004   -0.042  0.055 -0.003

 Mode:                25                     26                     27
 Frequency:      1324.93                1412.65                1634.67
 Force Cnst:      1.7964                 3.2777                11.9303
 Red. Mass:       1.7368                 2.7877                 7.5778
 IR Active:          YES                    YES                    YES
 IR Intens:       17.580                  1.865                 44.572
 Raman Active:       YES                    YES                    YES
               X      Y      Z        X      Y      Z        X      Y      Z
 C         -0.029 -0.056  0.007   -0.018 -0.006  0.001   -0.261  0.499 -0.126
 C         -0.023  0.064  0.035    0.007  0.069 -0.035    0.051 -0.039  0.007
 C          0.025 -0.113 -0.001    0.023 -0.021 -0.043   -0.009  0.006 -0.005
 C         -0.019 -0.062  0.102   -0.180  0.187 -0.099    0.008 -0.030  0.024
 C          0.005  0.115 -0.024    0.085 -0.010 -0.013    0.022  0.054 -0.021
 N          0.047 -0.015  0.018   -0.005 -0.019  0.001    0.239 -0.382  0.104
 H         -0.025  0.444 -0.107   -0.024  0.035 -0.011   -0.316 -0.378  0.027
 H         -0.117  0.049 -0.153   -0.221 -0.074  0.281   -0.200 -0.168  0.000
 H         -0.191  0.210 -0.100   -0.056  0.008  0.004    0.025 -0.040  0.007
 H         -0.104  0.361 -0.424   -0.078 -0.142  0.502   -0.013 -0.016 -0.034
 H         -0.298 -0.180 -0.057   -0.336 -0.178  0.307   -0.274 -0.215  0.000
 C          0.073 -0.023 -0.073    0.178 -0.175  0.076   -0.030  0.024  0.000
 H         -0.311  0.226  0.046   -0.336  0.087  0.249    0.061 -0.010 -0.021
 TransDip  -0.105  0.082 -0.015    0.022  0.036 -0.010    0.053  0.190 -0.083

 Mode:                28                     29                     30
 Frequency:      3139.09                3174.19                3175.68
 Force Cnst:      6.3291                 6.4823                 6.4916
 Red. Mass:       1.0902                 1.0920                 1.0925
 IR Active:          YES                    YES                    YES
 IR Intens:       17.347                 24.040                  5.151
 Raman Active:       YES                    YES                    YES
               X      Y      Z        X      Y      Z        X      Y      Z
 C         -0.011  0.001 -0.003   -0.074 -0.001 -0.016   -0.042  0.000 -0.009
 C          0.038 -0.076 -0.008   -0.003  0.010  0.001   -0.002  0.007  0.000
 C          0.001  0.003  0.001    0.001 -0.000  0.001   -0.002 -0.001 -0.002
 C         -0.002  0.001  0.000    0.016 -0.005 -0.005   -0.035  0.011  0.012
 C         -0.000  0.000 -0.000   -0.022  0.025 -0.018    0.040 -0.042  0.030
 N          0.000 -0.000 -0.000    0.001 -0.002  0.001    0.001 -0.001  0.000
 H          0.137  0.001  0.030    0.839  0.028  0.183    0.469  0.016  0.102
 H         -0.433  0.880  0.095    0.047 -0.107 -0.010    0.029 -0.068 -0.007
 H         -0.017 -0.021 -0.019   -0.006 -0.003 -0.006    0.027  0.024  0.030
 H          0.013 -0.004 -0.006   -0.181  0.056  0.071    0.401 -0.121 -0.157
 H          0.000  0.001  0.000    0.270 -0.286  0.210   -0.452  0.477 -0.347
 C         -0.001  0.001 -0.002   -0.000 -0.001  0.002    0.001  0.000 -0.002
 H          0.004 -0.014  0.028   -0.001  0.015 -0.032   -0.001 -0.014  0.034
 TransDip   0.059 -0.119 -0.006   -0.145  0.046 -0.041   -0.045 -0.034  0.045

 Mode:                31                     32                     33
 Frequency:      3185.81                3250.94                3267.31
 Force Cnst:      6.5352                 6.8235                 6.8909
 Red. Mass:       1.0929                 1.0958                 1.0956
 IR Active:          YES                    YES                    YES
 IR Intens:       19.761                  1.928                  0.410
 Raman Active:       YES                    YES                    YES
               X      Y      Z        X      Y      Z        X      Y      Z
 C          0.005  0.000  0.001   -0.001 -0.000  0.000    0.002 -0.000  0.001
 C         -0.000  0.001  0.000   -0.002  0.002  0.002    0.003 -0.003  0.002
 C          0.003  0.001  0.002   -0.005 -0.004 -0.003   -0.051 -0.048 -0.054
 C         -0.068  0.021  0.026    0.012 -0.006 -0.003   -0.002  0.001  0.001
 C         -0.026  0.028 -0.021    0.000 -0.001  0.001   -0.003  0.007 -0.002
 N          0.001 -0.000 -0.000    0.000 -0.000  0.000    0.000  0.001  0.000
 H         -0.047 -0.001 -0.011    0.012  0.001  0.002   -0.012 -0.001 -0.004
 H          0.006 -0.011 -0.001    0.013 -0.024 -0.006   -0.017  0.031  0.000
 H         -0.029 -0.025 -0.029    0.046  0.044  0.046    0.573  0.537  0.603
 H          0.769 -0.228 -0.304   -0.101  0.031  0.035    0.024 -0.008 -0.012
 H          0.294 -0.314  0.232   -0.003  0.003 -0.002    0.035 -0.041  0.026
 C          0.002  0.001 -0.007   -0.003  0.039 -0.079    0.001 -0.003  0.007
 H          0.001 -0.045  0.099    0.025 -0.419  0.892   -0.001  0.032 -0.066
 TransDip  -0.125  0.068  0.006   -0.010  0.009 -0.043    0.000 -0.014  0.015

 STANDARD THERMODYNAMIC QUANTITIES AT   298.15 K  AND     1.00 ATM

   This Molecule has  1 Imaginary Frequencies
   Zero point vibrational energy:       63.067 kcal/mol

   Atom    1 Element C  Has Mass   12.00000
   Atom    2 Element C  Has Mass   12.00000
   Atom    3 Element C  Has Mass   12.00000
   Atom    4 Element C  Has Mass   12.00000
   Atom    5 Element C  Has Mass   12.00000
   Atom    6 Element N  Has Mass   14.00307
   Atom    7 Element H  Has Mass    1.00783
   Atom    8 Element H  Has Mass    1.00783
   Atom    9 Element H  Has Mass    1.00783
   Atom   10 Element H  Has Mass    1.00783
   Atom   11 Element H  Has Mass    1.00783
   Atom   12 Element C  Has Mass   12.00000
   Atom   13 Element H  Has Mass    1.00783
   Molecular Mass:    92.050050 amu
   Principal axes and moments of inertia in amu*Bohr^2:
                             1           2           3
    Eigenvalues --      376.95184   456.73561   565.60534
          X               0.73137     0.67405     0.10375
          Y               0.53737    -0.66324     0.52091
          Z              -0.41993     0.32522     0.84728
   Rotational Symmetry Number is   1
   The Molecule is an Asymmetric Top
   Translational Enthalpy:        0.889 kcal/mol
   Rotational Enthalpy:           0.889 kcal/mol
   Vibrational Enthalpy:         64.388 kcal/mol
   gas constant (RT):             0.592 kcal/mol
   Translational Entropy:        39.471  cal/mol.K
   Rotational Entropy:           26.079  cal/mol.K
   Vibrational Entropy:           6.064  cal/mol.K

   Total Enthalpy:               66.758 kcal/mol
   Total Entropy:                71.614  cal/mol.K
Archival summary:
1\1\c8-66\FREQ\ProcedureUnspecified\6-31+G**\166(2)\hpark21\ThuMar311:47:052022ThuMar311:47:052022\0\\#,FREQ,ProcedureUnspecified,6-31+G**,\\0,2\N\C,1,1.28317\H,2,1.08884,1,121.827\C,1,1.46933,2,104.964,3,-175.726,0\H,4,1.08708,1,115.281,2,-162.961,0\C,4,1.48801,1,108.218,2,-24.5436,0\H,6,1.08094,4,132.004,1,-142.996,0\C,4,1.52818,1,114.576,2,58.8055,0\H,8,1.0875,4,120.787,1,131.172,0\C,8,1.40198,4,111.775,1,-44.9723,0\H,10,1.08171,8,130.421,4,161.697,0\C,10,1.52775,8,98.7658,4,-21.8788,0\H,12,1.09032,10,118.233,8,-150.701,0\\\@

 Total job time:  569.15s(wall), 559.79s(cpu) 
 Thu Mar  3 11:47:05 2022

        *************************************************************
        *                                                           *
        *  Thank you very much for using Q-Chem.  Have a nice day.  *
        *                                                           *
        *************************************************************


