
Running Job 1 of 1 qcts1.in
qchem qcts1.in_1675.0 ./qcts1.d/ 1
/home/leeping/opt/qchem/5.0.2-openmp/exe/qcprog.exe_s qcts1.in_1675.0 ./qcts1.d/
Check license passed

                  Welcome to Q-Chem
     A Quantum Leap Into The Future Of Chemistry


 Q-Chem 5.0, Q-Chem, Inc., Pleasanton, CA (2017)

 Yihan Shao,  Zhengting Gan,  E. Epifanovsky,  A. T. B. Gilbert,  M. Wormit,  
 J. Kussmann,  A. W. Lange,  A. Behn,  Jia Deng,  Xintian Feng,  D. Ghosh,  
 M. Goldey,  P. R. Horn,  L. D. Jacobson,  I. Kaliman,  T. Kus,  A. Landau,  
 Jie Liu,  E. I. Proynov,  R. M. Richard,  R. P. Steele,  E. J. Sundstrom,  
 H. L. Woodcock III,  P. M. Zimmerman,  D. Zuev,  B. Albrecht,  E. Alguire,  
 S. A. Baeppler,  D. Barton,  Z. Benda,  Y. A. Bernard,  E. J. Berquist,  
 K. B. Bravaya,  H. Burton,  D. Casanova,  Chun-Min Chang,  Yunqing Chen,  
 A. Chien,  K. D. Closser,  M. P. Coons,  S. Dasgupta,  A. L. Dempwolff,  
 M. Diedenhofen,  Hainam Do,  R. G. Edgar,  Po-Tung Fang,  S. Fatehi,  
 Qingguo Feng,  J. Fosso-Tande,  Qinghui Ge,  A. Ghysels,  G. Gidofalvi,  
 J. Gomes,  J. Gonthier,  A. Gunina,  M. W. D. Hanson-Heine,  
 P. H. P. Harbach,  A. W. Hauser,  J. E. Herr,  E. G. Hohenstein,  
 Z. C. Holden,  Kerwin Hui,  T.-C. Jagau,  Hyunjun Ji,  B. Kaduk,  
 K. Khistyaev,  Jaehoon Kim,  P. Klunzinger,  K. Koh,  D. Kosenkov,  
 L. Koulias,  T. Kowalczyk,  C. M. Krauter,  A. Kunitsa,  Ka Un Lao,  
 A. Laurent,  K. V. Lawler,  Joonho Lee,  D. Lefrancois,  S. Lehtola,  
 D. S. Levine,  Yi-Pei Li,  You-Sheng Lin,  Fenglai Liu,  E. Livshits,  
 A. Luenser,  P. Manohar,  E. Mansoor,  S. F. Manzer,  Shan-Ping Mao,  
 Yuezhi Mao,  N. Mardirossian,  A. V. Marenich,  T. Markovich,  
 L. A. Martinez-Martinez,  S. A. Maurer,  N. J. Mayhall,  S. C. McKenzie,  
 J.-M. Mewes,  A. F. Morrison,  J. W. Mullinax,  K. Nanda,  
 T. S. Nguyen-Beck,  R. Olivares-Amaya,  J. A. Parkhill,  T. M. Perrine,  
 F. Plasser,  S. Prager,  A. Prociuk,  E. Ramos,  D. R. Rehn,  F. Rob,  
 M. Schneider,  N. Sergueev,  S. M. Sharada,  S. Sharma,  D. W. Small,  
 T. Stauch,  T. Stein,  Yu-Chuan Su,  A. J. W. Thom,  A. Tkatchenko,  
 T. Tsuchimochi,  L. Vogt,  O. Vydrov,  M. A. Watson,  J. Wenzel,  
 M. de Wergifosse,  T. A. Wesolowski,  A. White,  J. Witte,  A. Yamada,  
 Jun Yang,  K. Yao,  S. Yeganeh,  S. R. Yost,  Zhi-Qiang You,  A. Zech,  
 Igor Ying Zhang,  Xing Zhang,  Yan Zhao,  Ying Zhu,  B. R. Brooks,  
 G. K. L. Chan,  C. J. Cramer,  M. S. Gordon,  W. J. Hehre,  A. Klamt,  
 M. W. Schmidt,  C. D. Sherrill,  D. G. Truhlar,  A. Aspuru-Guzik,  R. Baer,  
 A. T. Bell,  N. A. Besley,  Jeng-Da Chai,  R. A. DiStasio Jr.,  A. Dreuw,  
 B. D. Dunietz,  T. R. Furlani,  Chao-Ping Hsu,  Yousung Jung,  Jing Kong,  
 D. S. Lambrecht,  WanZhen Liang,  C. Ochsenfeld,  V. A. Rassolov,  
 L. V. Slipchenko,  J. E. Subotnik,  T. Van Voorhis,  J. M. Herbert,  
 A. I. Krylov,  P. M. W. Gill,  M. Head-Gordon

 Contributors to earlier versions of Q-Chem not listed above: 
 R. D. Adamson,  B. Austin,  J. Baker,  G. J. O. Beran,  K. Brandhorst,  
 S. T. Brown,  E. F. C. Byrd,  A. K. Chakraborty,  C.-L. Cheng,  
 Siu Hung Chien,  D. M. Chipman,  D. L. Crittenden,  H. Dachsel,  
 R. J. Doerksen,  A. D. Dutoi,  L. Fusti-Molnar,  W. A. Goddard III,  
 A. Golubeva-Zadorozhnaya,  S. R. Gwaltney,  G. Hawkins,  A. Heyden,  
 S. Hirata,  G. Kedziora,  F. J. Keil,  C. Kelley,  Jihan Kim,  R. A. King,  
 R. Z. Khaliullin,  P. P. Korambath,  W. Kurlancheek,  A. M. Lee,  M. S. Lee,  
 S. V. Levchenko,  Ching Yeh Lin,  D. Liotard,  R. C. Lochan,  I. Lotan,  
 P. E. Maslen,  N. Nair,  D. P. O'Neill,  D. Neuhauser,  E. Neuscamman,  
 C. M. Oana,  R. Olson,  B. Peters,  R. Peverati,  P. A. Pieniazek,  
 Y. M. Rhee,  J. Ritchie,  M. A. Rohrdanz,  E. Rosta,  N. J. Russ,  
 H. F. Schaefer III,  N. E. Schultz,  N. Shenvi,  A. C. Simmonett,  A. Sodt,  
 D. Stuck,  K. S. Thanthiriwatte,  V. Vanovschi,  Tao Wang,  A. Warshel,  
 C. F. Williams,  Q. Wu,  X. Xu,  W. Zhang

 Please cite Q-Chem as follows:
 Y. Shao et al., Mol. Phys. 113, 184-215 (2015)
 DOI: 10.1080/00268976.2014.952696

 Q-Chem 5.0.2 for Intel X86 EM64T Linux

 Parts of Q-Chem use Armadillo 5.200.1 (Boston Tea Smuggler).
 http://arma.sourceforge.net/

 Q-Chem begins on Thu Mar  3 11:31:46 2022  

Host: 
0

     Scratch files written to ./qcts1.d//
 Dec517 15110_ 26548  26544 5633   
Processing $rem in /home/leeping/opt/qchem/5.0.2-openmp/config/preferences.
 MEM_STATIC 2000
 MEM_TOTAL  8000
 SYMMETRY   OFF
 SYM_IGNORE TRUE 

Checking the input file for inconsistencies... 	...done.

--------------------------------------------------------------
User input:
--------------------------------------------------------------
$molecule
0 2
C        1.5398761790    0.3852238667   -0.1724696979
C        0.6669202501   -0.8652302544   -0.0424861583
C       -0.4983697281   -0.4482166394   -0.9673938242
C       -1.0980725063    0.3080255447    0.6362327750
C       -0.5160688272    0.9934617569   -0.5994030073
N        0.8736458510    1.4463525825   -0.4493701622
H        2.6024045254    0.4194068431    0.0629829749
H        1.1457317946   -1.8391615549   -0.1473633886
H       -1.1194472671   -1.0329678674   -1.6312876832
H       -2.0707355557    0.5975034759    1.0271046751
H       -1.1776573678    1.6872203521   -1.1119894888
C       -0.2001174052   -0.6151477720    1.1902834726
H       -0.1726544674   -1.0628282949    2.1746237925
$end

$rem
method                b3lyp
basis                 6-31g(d)
unrestricted          true
symmetry              off
sym_ignore            true
incdft                false
incfock               0
scf_convergence       6
thresh                14
jobtype               sp
scf_guess             read
scf_algorithm         diis
max_scf_cycles        100
stability_analysis    true
max_cis_cycles        100
cis_n_roots           4
$end

--------------------------------------------------------------
 ----------------------------------------------------------------
             Standard Nuclear Orientation (Angstroms)
    I     Atom           X                Y                Z
 ----------------------------------------------------------------
    1      C       1.5398761790     0.3852238667    -0.1724696979
    2      C       0.6669202501    -0.8652302544    -0.0424861583
    3      C      -0.4983697281    -0.4482166394    -0.9673938242
    4      C      -1.0980725063     0.3080255447     0.6362327750
    5      C      -0.5160688272     0.9934617569    -0.5994030073
    6      N       0.8736458510     1.4463525825    -0.4493701622
    7      H       2.6024045254     0.4194068431     0.0629829749
    8      H       1.1457317946    -1.8391615549    -0.1473633886
    9      H      -1.1194472671    -1.0329678674    -1.6312876832
   10      H      -2.0707355557     0.5975034759     1.0271046751
   11      H      -1.1776573678     1.6872203521    -1.1119894888
   12      C      -0.2001174052    -0.6151477720     1.1902834726
   13      H      -0.1726544674    -1.0628282949     2.1746237925
 ----------------------------------------------------------------
 Nuclear Repulsion Energy =   281.0950772404 hartrees
 There are       25 alpha and       24 beta electrons
 Requested basis set is 6-31G(d)
 There are 40 shells and 117 basis functions

 Total QAlloc Memory Limit   8000 MB
 Mega-Array Size      1956 MB
 MEM_STATIC part      2000 MB

                       Distance Matrix (Angstroms)
             C (  1)   C (  2)   C (  3)   C (  4)   C (  5)   N (  6)
   C (  2)  1.530550
   C (  3)  2.341148  1.545075
   C (  4)  2.760205  2.225396  1.871674
   C (  5)  2.186123  2.272522  1.488008  1.528184
   N (  6)  1.283172  2.356206  2.395865  2.522300  1.469329
   H (  7)  1.088840  2.325407  3.380717  3.746272  3.239316  2.075025
   H (  8)  2.259175  1.090322  2.304397  3.202982  3.315068  3.310565
   H (  9)  3.348346  2.396567  1.080938  2.634458  2.352715  3.393579
   H ( 10)  3.810585  3.283043  2.746614  1.087498  2.284578  3.401456
   H ( 11)  3.156403  3.325854  2.245536  2.228182  1.087081  2.169084
   C ( 12)  2.425988  1.527749  2.184580  1.401979  2.427020  2.844506
   H ( 13)  3.246300  2.378972  3.218091  2.258824  3.470085  3.778370
             H (  7)   H (  8)   H (  9)   H ( 10)   H ( 11)   C ( 12)
   H (  8)  2.695788
   H (  9)  4.339600  2.825423
   H ( 10)  4.774881  4.202663  3.260435
   H ( 11)  4.156535  4.331744  2.769925  2.561405
   C ( 12)  3.192998  2.258056  2.996832  2.235254  3.399551
   H ( 13)  3.789063  2.780730  3.922024  2.770598  4.401662  1.081711

 
 A cutoff of  1.0D-14 yielded    813 shell pairs
 There are      7085 function pairs
 Smallest overlap matrix eigenvalue = 1.37E-03

 Scale SEOQF with 1.000000e-01/1.000000e-01/1.000000e-01

 Standard Electronic Orientation quadrupole field applied
 Nucleus-field energy     =     0.0000000013 hartrees
 Guess MOs from SCF MO coefficient file
 Reading MOs from coefficient file
 Reading MOs from coefficient file
 An unrestricted hybrid HF-DFT SCF calculation will be
 performed using Pulay DIIS extrapolation
 Exchange:     0.2000 Hartree-Fock + 0.0800 Slater + 0.7200 B88
 Correlation:  0.1900 VWN1RPA + 0.8100 LYP
 Using SG-1 standard quadrature grid
 SCF converges when DIIS error is below 1.0E-06
Using Q-Chem read-in guess as SCF_GUESS READ specified.

 -------------------------------------------------------
 OpenMP BLAS3 based DFT computing Module                
 -------------------------------------------------------
 ---------------------------------------
  Cycle       Energy         DIIS Error
 ---------------------------------------
    1    -286.8245545390      9.95E-10
    2    -286.8245545390      1.62E-09 Convergence criterion met
 ---------------------------------------
 <S^2> = 0.7805
 SCF time:  CPU 3.20 s  wall 4.33 s
 SCF   energy in the final basis set = -286.82455454
 Total energy in the final basis set = -286.82455454
 
 Direct TDDFT/TDA calculation will be performed
 Exchange:     0.2000 Hartree-Fock + 0.0800 Slater + 0.7200 B88
 Correlation:  0.1900 VWN1RPA + 0.8100 LYP
 Using SG-1 standard quadrature grid
 CIS energy converged when residual is below 10e- 6
 ---------------------------------------------------
 Iter    Rts Conv    Rts Left    Ttl Dev     Max Dev
 ---------------------------------------------------
   1         0           4      0.006230    0.002357
   2         0           4      0.001537    0.000492
   3         0           4      0.001136    0.000468
   4         0           4      0.000778    0.000452
   5         0           4      0.000372    0.000208
   6         0           4      0.000117    0.000066
   7         2           2      0.000029    0.000016
   8         2           2      0.000010    0.000005
   9         2           2      0.000003    0.000002
  10         4           0      0.000001    0.000000    Roots Converged
 ---------------------------------------------------
 
 ---------------------------------------------------
         TDDFT/TDA Excitation Energies              
 ---------------------------------------------------

 Excited state   1: excitation energy (eV) =    2.7827
 Total energy for state  1:                  -286.72229087 au
    <S**2>     :  0.7827
    Trans. Mom.:  0.2565 X   0.1401 Y   0.2717 Z
    Strength   :     0.0108582707
    S(  1) --> V(  1) amplitude =  0.8139 alpha
    S(  1) --> V(  2) amplitude = -0.5049 alpha
    D( 24) --> S(  1) amplitude = -0.1951 beta

 Excited state   2: excitation energy (eV) =    3.0701
 Total energy for state  2:                  -286.71173134 au
    <S**2>     :  0.8070
    Trans. Mom.:  0.3157 X   0.1877 Y  -0.2452 Z
    Strength   :     0.0146685588
    S(  1) --> V(  1) amplitude =  0.5487 alpha
    S(  1) --> V(  2) amplitude =  0.7902 alpha
    D( 24) --> S(  1) amplitude =  0.2215 beta

 Excited state   3: excitation energy (eV) =    4.4645
 Total energy for state  3:                  -286.66048678 au
    <S**2>     :  1.8441
    Trans. Mom.: -0.0959 X  -0.1542 Y   0.0314 Z
    Strength   :     0.0037134025
    D( 22) --> V(  1) amplitude = -0.1854 alpha
    D( 23) --> V(  1) amplitude = -0.3531 alpha
    D( 24) --> V(  1) amplitude = -0.1889 alpha
    D( 22) --> S(  1) amplitude =  0.2888 beta
    D( 22) --> V(  1) amplitude =  0.1686 beta
    D( 23) --> S(  1) amplitude =  0.6743 beta
    D( 23) --> V(  1) amplitude =  0.2430 beta
    D( 24) --> S(  1) amplitude =  0.2674 beta

 Excited state   4: excitation energy (eV) =    4.5326
 Total energy for state  4:                  -286.65798284 au
    <S**2>     :  1.5779
    Trans. Mom.: -0.0422 X  -0.0842 Y   0.2897 Z
    Strength   :     0.0103036454
    D( 22) --> V(  1) amplitude =  0.1763 alpha
    D( 23) --> V(  1) amplitude =  0.1946 alpha
    D( 24) --> V(  1) amplitude = -0.1862 alpha
    S(  1) --> V(  2) amplitude = -0.1702 alpha
    D( 22) --> S(  1) amplitude = -0.4206 beta
    D( 22) --> V(  1) amplitude = -0.2127 beta
    D( 24) --> S(  1) amplitude =  0.7251 beta
    D( 24) --> V(  1) amplitude =  0.2442 beta
 
 ---------------------------------------------------

 Stability analysis will be performed
 ---------------------------------------------------
 Iter    Rts Conv    Rts Left    Ttl Dev     Max Dev
 ---------------------------------------------------
   1         0           8      0.006347    0.000929
   2         0           8      0.003116    0.001016
   3         0           8      0.001233    0.000398
   4         2           6      0.000644    0.000290
   5         2           6      0.000403    0.000252
   6         4           4      0.000158    0.000115
   7         4           4      0.000056    0.000041
   8         6           2      0.000017    0.000011
   9         7           1      0.000007    0.000003
  10         8           0      0.000005    0.000001    Roots Converged
 UKS-> UKS   stable,    smallest eigenvalue:      0.0864760
 UKS->CUKS   stable,    smallest eigenvalue:      0.1020378
 ---------------------------------------------------
  SETman timing summary (seconds)
  CPU time                79.03s
  System time              0.00s
  Wall time               81.22s
 
 --------------------------------------------------------------
 
                    Orbital Energies (a.u.)
 --------------------------------------------------------------
 
 Alpha MOs
 -- Occupied --
-14.314 -10.224 -10.218 -10.216 -10.212 -10.209 -10.193  -0.959
 -0.836  -0.739  -0.685  -0.590  -0.575  -0.538  -0.513  -0.461
 -0.433  -0.414  -0.398  -0.367  -0.345  -0.284  -0.271  -0.264
 -0.145
 -- Virtual --
  0.006   0.018   0.096   0.138   0.150   0.154   0.156   0.164
  0.171   0.206   0.221   0.277   0.289   0.305   0.353   0.378
  0.490   0.503   0.511   0.535   0.576   0.581   0.591   0.611
  0.634   0.655   0.668   0.687   0.698   0.742   0.768   0.800
  0.811   0.821   0.836   0.849   0.859   0.885   0.896   0.942
  0.975   1.019   1.059   1.120   1.165   1.206   1.307   1.356
  1.400   1.454   1.460   1.512   1.595   1.645   1.666   1.739
  1.758   1.815   1.857   1.891   1.940   1.963   2.028   2.052
  2.108   2.142   2.169   2.228   2.274   2.302   2.319   2.363
  2.413   2.472   2.523   2.549   2.582   2.625   2.648   2.683
  2.693   2.810   2.848   2.908   2.961   3.948   4.203   4.262
  4.313   4.419   4.533   4.617
 
 Beta MOs
 -- Occupied --
-14.313 -10.224 -10.219 -10.218 -10.210 -10.204 -10.184  -0.955
 -0.828  -0.735  -0.673  -0.586  -0.566  -0.531  -0.510  -0.453
 -0.429  -0.408  -0.396  -0.362  -0.340  -0.274  -0.261  -0.251
 -- Virtual --
 -0.035   0.019   0.034   0.099   0.146   0.152   0.157   0.161
  0.166   0.174   0.211   0.225   0.281   0.291   0.309   0.360
  0.380   0.496   0.510   0.516   0.549   0.577   0.587   0.598
  0.618   0.639   0.673   0.677   0.691   0.706   0.749   0.772
  0.801   0.813   0.824   0.837   0.852   0.865   0.888   0.900
  0.945   0.979   1.026   1.064   1.131   1.170   1.211   1.312
  1.362   1.402   1.458   1.465   1.519   1.605   1.650   1.676
  1.748   1.767   1.817   1.863   1.901   1.949   1.972   2.041
  2.060   2.113   2.152   2.174   2.239   2.282   2.308   2.335
  2.374   2.422   2.484   2.528   2.556   2.585   2.633   2.653
  2.690   2.700   2.815   2.851   2.910   2.963   3.950   4.213
  4.263   4.330   4.424   4.536   4.620
 --------------------------------------------------------------
 
          Ground-State Mulliken Net Atomic Charges

     Atom                 Charge (a.u.)    Spin (a.u.)
  --------------------------------------------------------
      1 C                     0.091781       0.008854
      2 C                    -0.259204      -0.069100
      3 C                    -0.128158       0.570023
      4 C                    -0.132218      -0.216095
      5 C                    -0.028451       0.004394
      6 N                    -0.338622       0.064058
      7 H                     0.143589       0.001571
      8 H                     0.137713       0.010588
      9 H                     0.158578      -0.027903
     10 H                     0.147918       0.011883
     11 H                     0.146717       0.004309
     12 C                    -0.081566       0.664151
     13 H                     0.141922      -0.026734
  --------------------------------------------------------
  Sum of atomic charges =     0.000000
  Sum of spin   charges =     1.000000

 -----------------------------------------------------------------
                    Cartesian Multipole Moments
 -----------------------------------------------------------------
    Charge (ESU x 10^10)
                 0.0000
    Dipole Moment (Debye)
         X      -1.1291      Y      -2.0818      Z       0.2753
       Tot       2.3842
    Quadrupole Moments (Debye-Ang)
        XX     -37.1742     XY      -4.2255     YY     -43.9573
        XZ       1.4277     YZ       0.6820     ZZ     -39.8425
    Octopole Moments (Debye-Ang^2)
       XXX      -7.5985    XXY      -5.5917    XYY      -9.5672
       YYY     -27.5911    XXZ       2.8902    XYZ       0.7614
       YYZ       2.0042    XZZ      -7.8042    YZZ      -8.9951
       ZZZ       8.4868
    Hexadecapole Moments (Debye-Ang^3)
      XXXX    -243.3618   XXXY     -11.5816   XXYY     -85.5924
      XYYY     -25.0460   YYYY    -244.0747   XXXZ      12.1323
      XXYZ      12.2381   XYYZ      10.0257   YYYZ      28.7859
      XXZZ     -74.0652   XYZZ      -3.3944   YYZZ     -66.2156
      XZZZ      13.9415   YZZZ      21.9328   ZZZZ    -180.0756
 -----------------------------------------------------------------
Archival summary:
1\1\c8-66\SP\ProcedureUnspecified\6-31G*\166(2)\hpark21\ThuMar311:33:132022ThuMar311:33:132022\0\\#,ProcedureUnspecified,6-31G*,\\0,2\N\C,1,1.28317\H,2,1.08884,1,121.827\C,1,1.46933,2,104.964,3,-175.726,0\H,4,1.08708,1,115.281,2,-162.961,0\C,4,1.48801,1,108.218,2,-24.5436,0\H,6,1.08094,4,132.004,1,-142.996,0\C,4,1.52818,1,114.576,2,58.8055,0\H,8,1.0875,4,120.787,1,131.172,0\C,8,1.40198,4,111.775,1,-44.9723,0\H,10,1.08171,8,130.421,4,161.697,0\C,10,1.52775,8,98.7658,4,-21.8788,0\H,12,1.09032,10,118.233,8,-150.701,0\\\@

 Total job time:  86.80s(wall), 82.41s(cpu) 
 Thu Mar  3 11:33:13 2022

        *************************************************************
        *                                                           *
        *  Thank you very much for using Q-Chem.  Have a nice day.  *
        *                                                           *
        *************************************************************


