
Running Job 1 of 1 qcts1.in
qchem qcts1.in_668.0 ./qcts1.d/ 1
/home/leeping/opt/qchem/5.0.2-openmp/exe/qcprog.exe_s qcts1.in_668.0 ./qcts1.d/
Check license passed

                  Welcome to Q-Chem
     A Quantum Leap Into The Future Of Chemistry


 Q-Chem 5.0, Q-Chem, Inc., Pleasanton, CA (2017)

 Yihan Shao,  Zhengting Gan,  E. Epifanovsky,  A. T. B. Gilbert,  M. Wormit,  
 J. Kussmann,  A. W. Lange,  A. Behn,  Jia Deng,  Xintian Feng,  D. Ghosh,  
 M. Goldey,  P. R. Horn,  L. D. Jacobson,  I. Kaliman,  T. Kus,  A. Landau,  
 Jie Liu,  E. I. Proynov,  R. M. Richard,  R. P. Steele,  E. J. Sundstrom,  
 H. L. Woodcock III,  P. M. Zimmerman,  D. Zuev,  B. Albrecht,  E. Alguire,  
 S. A. Baeppler,  D. Barton,  Z. Benda,  Y. A. Bernard,  E. J. Berquist,  
 K. B. Bravaya,  H. Burton,  D. Casanova,  Chun-Min Chang,  Yunqing Chen,  
 A. Chien,  K. D. Closser,  M. P. Coons,  S. Dasgupta,  A. L. Dempwolff,  
 M. Diedenhofen,  Hainam Do,  R. G. Edgar,  Po-Tung Fang,  S. Fatehi,  
 Qingguo Feng,  J. Fosso-Tande,  Qinghui Ge,  A. Ghysels,  G. Gidofalvi,  
 J. Gomes,  J. Gonthier,  A. Gunina,  M. W. D. Hanson-Heine,  
 P. H. P. Harbach,  A. W. Hauser,  J. E. Herr,  E. G. Hohenstein,  
 Z. C. Holden,  Kerwin Hui,  T.-C. Jagau,  Hyunjun Ji,  B. Kaduk,  
 K. Khistyaev,  Jaehoon Kim,  P. Klunzinger,  K. Koh,  D. Kosenkov,  
 L. Koulias,  T. Kowalczyk,  C. M. Krauter,  A. Kunitsa,  Ka Un Lao,  
 A. Laurent,  K. V. Lawler,  Joonho Lee,  D. Lefrancois,  S. Lehtola,  
 D. S. Levine,  Yi-Pei Li,  You-Sheng Lin,  Fenglai Liu,  E. Livshits,  
 A. Luenser,  P. Manohar,  E. Mansoor,  S. F. Manzer,  Shan-Ping Mao,  
 Yuezhi Mao,  N. Mardirossian,  A. V. Marenich,  T. Markovich,  
 L. A. Martinez-Martinez,  S. A. Maurer,  N. J. Mayhall,  S. C. McKenzie,  
 J.-M. Mewes,  A. F. Morrison,  J. W. Mullinax,  K. Nanda,  
 T. S. Nguyen-Beck,  R. Olivares-Amaya,  J. A. Parkhill,  T. M. Perrine,  
 F. Plasser,  S. Prager,  A. Prociuk,  E. Ramos,  D. R. Rehn,  F. Rob,  
 M. Schneider,  N. Sergueev,  S. M. Sharada,  S. Sharma,  D. W. Small,  
 T. Stauch,  T. Stein,  Yu-Chuan Su,  A. J. W. Thom,  A. Tkatchenko,  
 T. Tsuchimochi,  L. Vogt,  O. Vydrov,  M. A. Watson,  J. Wenzel,  
 M. de Wergifosse,  T. A. Wesolowski,  A. White,  J. Witte,  A. Yamada,  
 Jun Yang,  K. Yao,  S. Yeganeh,  S. R. Yost,  Zhi-Qiang You,  A. Zech,  
 Igor Ying Zhang,  Xing Zhang,  Yan Zhao,  Ying Zhu,  B. R. Brooks,  
 G. K. L. Chan,  C. J. Cramer,  M. S. Gordon,  W. J. Hehre,  A. Klamt,  
 M. W. Schmidt,  C. D. Sherrill,  D. G. Truhlar,  A. Aspuru-Guzik,  R. Baer,  
 A. T. Bell,  N. A. Besley,  Jeng-Da Chai,  R. A. DiStasio Jr.,  A. Dreuw,  
 B. D. Dunietz,  T. R. Furlani,  Chao-Ping Hsu,  Yousung Jung,  Jing Kong,  
 D. S. Lambrecht,  WanZhen Liang,  C. Ochsenfeld,  V. A. Rassolov,  
 L. V. Slipchenko,  J. E. Subotnik,  T. Van Voorhis,  J. M. Herbert,  
 A. I. Krylov,  P. M. W. Gill,  M. Head-Gordon

 Contributors to earlier versions of Q-Chem not listed above: 
 R. D. Adamson,  B. Austin,  J. Baker,  G. J. O. Beran,  K. Brandhorst,  
 S. T. Brown,  E. F. C. Byrd,  A. K. Chakraborty,  C.-L. Cheng,  
 Siu Hung Chien,  D. M. Chipman,  D. L. Crittenden,  H. Dachsel,  
 R. J. Doerksen,  A. D. Dutoi,  L. Fusti-Molnar,  W. A. Goddard III,  
 A. Golubeva-Zadorozhnaya,  S. R. Gwaltney,  G. Hawkins,  A. Heyden,  
 S. Hirata,  G. Kedziora,  F. J. Keil,  C. Kelley,  Jihan Kim,  R. A. King,  
 R. Z. Khaliullin,  P. P. Korambath,  W. Kurlancheek,  A. M. Lee,  M. S. Lee,  
 S. V. Levchenko,  Ching Yeh Lin,  D. Liotard,  R. C. Lochan,  I. Lotan,  
 P. E. Maslen,  N. Nair,  D. P. O'Neill,  D. Neuhauser,  E. Neuscamman,  
 C. M. Oana,  R. Olson,  B. Peters,  R. Peverati,  P. A. Pieniazek,  
 Y. M. Rhee,  J. Ritchie,  M. A. Rohrdanz,  E. Rosta,  N. J. Russ,  
 H. F. Schaefer III,  N. E. Schultz,  N. Shenvi,  A. C. Simmonett,  A. Sodt,  
 D. Stuck,  K. S. Thanthiriwatte,  V. Vanovschi,  Tao Wang,  A. Warshel,  
 C. F. Williams,  Q. Wu,  X. Xu,  W. Zhang

 Please cite Q-Chem as follows:
 Y. Shao et al., Mol. Phys. 113, 184-215 (2015)
 DOI: 10.1080/00268976.2014.952696

 Q-Chem 5.0.2 for Intel X86 EM64T Linux

 Parts of Q-Chem use Armadillo 5.200.1 (Boston Tea Smuggler).
 http://arma.sourceforge.net/

 Q-Chem begins on Thu Mar  3 11:21:11 2022  

Host: 
0

     Scratch files written to ./qcts1.d//
 Dec517 15110_ 26548  26544 5633   
Processing $rem in /home/leeping/opt/qchem/5.0.2-openmp/config/preferences.
 MEM_STATIC 2000
 MEM_TOTAL  8000
 SYMMETRY   OFF
 SYM_IGNORE TRUE 

Checking the input file for inconsistencies... 	...done.

--------------------------------------------------------------
User input:
--------------------------------------------------------------
$molecule
0 2
C        1.5442928244    0.4182702513   -0.1861778306
C        0.7285457093   -0.8543273971   -0.1156981920
C       -0.5250231054   -0.4891610274   -0.8526452250
C       -1.1129416971    0.3505158839    0.6351322477
C       -0.5118740168    0.9805378851   -0.6255407720
N        0.8426807681    1.4693320598   -0.4542173349
H        2.5660942257    0.4919781108    0.1747624510
H        1.2649758466   -1.8037079492   -0.2657202140
H       -1.1393536475   -1.1234533007   -1.4743969711
H       -1.9274314557    0.8584071183    1.1586384540
H       -1.1708011866    1.5941976996   -1.2401369079
C       -0.2473912009   -0.6483063033    1.1718393897
H       -0.3363175888   -1.2706409922    2.0436251848
$end

$rem
method                b3lyp
basis                 6-31g(d)
unrestricted          true
symmetry              off
sym_ignore            true
incdft                false
incfock               0
scf_convergence       8
thresh                14
jobtype               freq
scf_guess             read
scf_algorithm         diis
max_scf_cycles        100
$end

--------------------------------------------------------------
 ----------------------------------------------------------------
             Standard Nuclear Orientation (Angstroms)
    I     Atom           X                Y                Z
 ----------------------------------------------------------------
    1      C       1.5442928244     0.4182702513    -0.1861778306
    2      C       0.7285457093    -0.8543273971    -0.1156981920
    3      C      -0.5250231054    -0.4891610274    -0.8526452250
    4      C      -1.1129416971     0.3505158839     0.6351322477
    5      C      -0.5118740168     0.9805378851    -0.6255407720
    6      N       0.8426807681     1.4693320598    -0.4542173349
    7      H       2.5660942257     0.4919781108     0.1747624510
    8      H       1.2649758466    -1.8037079492    -0.2657202140
    9      H      -1.1393536475    -1.1234533007    -1.4743969711
   10      H      -1.9274314557     0.8584071183     1.1586384540
   11      H      -1.1708011866     1.5941976996    -1.2401369079
   12      C      -0.2473912009    -0.6483063033     1.1718393897
   13      H      -0.3363175888    -1.2706409922     2.0436251848
 ----------------------------------------------------------------
 Nuclear Repulsion Energy =   280.7914220240 hartrees
 There are       25 alpha and       24 beta electrons
 Requested basis set is 6-31G(d)
 There are 40 shells and 117 basis functions

 Total QAlloc Memory Limit   8000 MB
 Mega-Array Size      1956 MB
 MEM_STATIC part      2000 MB

                       Distance Matrix (Angstroms)
             C (  1)   C (  2)   C (  3)   C (  4)   C (  5)   N (  6)
   C (  2)  1.513247
   C (  3)  2.355776  1.499291
   C (  4)  2.782092  2.325182  1.806706
   C (  5)  2.176467  2.272732  1.487200  1.532157
   N (  6)  1.291834  2.350961  2.421787  2.502577  1.450203
   H (  7)  1.086181  2.296408  3.401942  3.710425  3.217618  2.078699
   H (  8)  2.240878  1.100721  2.297087  3.332673  3.322453  3.305549
   H (  9)  3.352369  2.325412  1.079956  2.573596  2.353947  3.419322
   H ( 10)  3.749016  3.407581  2.797848  1.093346  2.280792  3.263136
   H ( 11)  3.140919  3.296537  2.215302  2.250939  1.090180  2.165034
   C ( 12)  2.488358  1.628696  2.049621  1.426491  2.440012  2.883871
   H ( 13)  3.370629  2.443344  3.005778  2.283670  3.496151  3.890592
             H (  7)   H (  8)   H (  9)   H ( 10)   H ( 11)   C ( 12)
   H (  8)  2.675277
   H (  9)  4.365740  2.775688
   H ( 10)  4.614548  4.393987  3.388468
   H ( 11)  4.145023  4.292815  2.727910  2.620687
   C ( 12)  3.195326  2.385117  2.832654  2.256744  3.420401
   H ( 13)  3.876012  2.860311  3.611511  2.801373  4.436976  1.074811

 
 A cutoff of  1.0D-14 yielded    812 shell pairs
 There are      7084 function pairs
 Smallest overlap matrix eigenvalue = 1.54E-03
 Guess MOs from SCF MO coefficient file
 Reading MOs from coefficient file
 Reading MOs from coefficient file
 An unrestricted hybrid HF-DFT SCF calculation will be
 performed using Pulay DIIS extrapolation
 Exchange:     0.2000 Hartree-Fock + 0.0800 Slater + 0.7200 B88
 Correlation:  0.1900 VWN1RPA + 0.8100 LYP
 Using SG-1 standard quadrature grid
 SCF converges when DIIS error is below 1.0E-08
Using Q-Chem read-in guess as SCF_GUESS READ specified.

 -------------------------------------------------------
 OpenMP BLAS3 based DFT computing Module                
 -------------------------------------------------------
 ---------------------------------------
  Cycle       Energy         DIIS Error
 ---------------------------------------
    1    -286.8028480842      2.33E-09
    2    -286.8028480842      3.31E-09 Convergence criterion met
 ---------------------------------------
 <S^2> = 0.7708
 SCF time:  CPU 3.27 s  wall 4.03 s
 SCF   energy in the final basis set = -286.80284808
 Total energy in the final basis set = -286.80284808
 
 --------------------------------------------------------------
 
                    Orbital Energies (a.u.)
 --------------------------------------------------------------
 
 Alpha MOs
 -- Occupied --
-14.314 -10.225 -10.222 -10.219 -10.217 -10.213 -10.195  -0.962
 -0.840  -0.739  -0.682  -0.592  -0.579  -0.538  -0.518  -0.459
 -0.430  -0.410  -0.396  -0.381  -0.324  -0.304  -0.266  -0.262
 -0.123
 -- Virtual --
  0.002   0.010   0.098   0.138   0.145   0.153   0.154   0.156
  0.178   0.196   0.212   0.277   0.283   0.298   0.348   0.396
  0.489   0.504   0.511   0.539   0.563   0.578   0.584   0.608
  0.622   0.648   0.662   0.683   0.699   0.748   0.749   0.794
  0.812   0.824   0.835   0.848   0.872   0.884   0.915   0.937
  0.985   1.019   1.057   1.103   1.198   1.241   1.286   1.320
  1.369   1.455   1.467   1.509   1.554   1.645   1.684   1.728
  1.759   1.831   1.852   1.874   1.934   1.983   2.011   2.044
  2.078   2.115   2.164   2.239   2.274   2.326   2.333   2.368
  2.403   2.467   2.519   2.540   2.576   2.609   2.650   2.684
  2.704   2.778   2.830   2.901   2.967   3.944   4.180   4.257
  4.335   4.419   4.532   4.576
 
 Beta MOs
 -- Occupied --
-14.313 -10.225 -10.224 -10.217 -10.213 -10.211 -10.184  -0.958
 -0.831  -0.736  -0.670  -0.586  -0.572  -0.532  -0.514  -0.451
 -0.428  -0.405  -0.393  -0.377  -0.317  -0.290  -0.258  -0.255
 -- Virtual --
 -0.015   0.018   0.026   0.100   0.145   0.151   0.155   0.156
  0.159   0.181   0.199   0.216   0.280   0.286   0.302   0.355
  0.399   0.500   0.510   0.516   0.552   0.567   0.583   0.589
  0.611   0.630   0.665   0.677   0.685   0.703   0.752   0.755
  0.795   0.813   0.824   0.837   0.852   0.879   0.888   0.920
  0.940   0.987   1.026   1.066   1.109   1.207   1.246   1.295
  1.325   1.372   1.469   1.470   1.511   1.563   1.652   1.690
  1.738   1.766   1.834   1.856   1.879   1.940   1.998   2.020
  2.053   2.084   2.125   2.168   2.254   2.282   2.338   2.347
  2.377   2.415   2.477   2.525   2.546   2.581   2.614   2.658
  2.691   2.709   2.783   2.833   2.903   2.968   3.946   4.192
  4.258   4.349   4.424   4.537   4.579
 --------------------------------------------------------------
 
          Ground-State Mulliken Net Atomic Charges

     Atom                 Charge (a.u.)    Spin (a.u.)
  --------------------------------------------------------
      1 C                     0.088643       0.033002
      2 C                    -0.242873      -0.059737
      3 C                    -0.114971       0.430836
      4 C                    -0.147695      -0.161806
      5 C                    -0.017169      -0.000224
      6 N                    -0.343873       0.034242
      7 H                     0.145226       0.000685
      8 H                     0.139246       0.007534
      9 H                     0.160850      -0.018530
     10 H                     0.159500       0.005925
     11 H                     0.149099       0.003710
     12 C                    -0.120404       0.758153
     13 H                     0.144423      -0.033790
  --------------------------------------------------------
  Sum of atomic charges =     0.000000
  Sum of spin   charges =     1.000000

 -----------------------------------------------------------------
                    Cartesian Multipole Moments
 -----------------------------------------------------------------
    Charge (ESU x 10^10)
                 0.0000
    Dipole Moment (Debye)
         X      -1.1495      Y      -2.0935      Z       0.0283
       Tot       2.3885
    Quadrupole Moments (Debye-Ang)
        XX     -37.3358     XY      -4.1966     YY     -43.5679
        XZ       1.0341     YZ       0.9670     ZZ     -40.2273
    Octopole Moments (Debye-Ang^2)
       XXX      -5.5021    XXY      -5.2326    XYY      -9.7722
       YYY     -29.0534    XXZ       3.3350    XYZ       0.8518
       YYZ       2.7300    XZZ      -8.2996    YZZ      -8.1910
       ZZZ       7.0225
    Hexadecapole Moments (Debye-Ang^3)
      XXXX    -250.6737   XXXY     -12.1378   XXYY     -84.7833
      XYYY     -24.9059   YYYY    -253.5062   XXXZ      17.0045
      XXYZ      13.6486   XYYZ       9.3237   YYYZ      28.6756
      XXZZ     -72.5368   XYZZ      -4.1057   YYZZ     -64.0365
      XZZZ      14.4672   YZZZ      21.2273   ZZZZ    -177.1573
 -----------------------------------------------------------------
 Calculating MO derivatives via CPSCF
   1         3          39      0.275638    0.055814
   2         3          39      0.033810    0.005867
   3         3          39      0.004044    0.000908
   4         3          39      0.000483    0.000100
   5        31          11      0.000038    0.000011
   6        41           1      0.000001    0.000001
   7        42           0      0.000000    0.000000    Roots Converged
 Time for AOints: 5.7 s (CPU) 5.8 s (wall)
 ------------------------------------------------------------------------------
                     AOints        : Timing summary (seconds)
 ------------------------------------------------------------------------------
     job step          cpu (% of tot)      sys (% of tot)     wall (% of tot)
 ------------------------------------------------------------------------------
  cpscf_lag         0.5549E+02 (28.8)   0.3600E-04 (44.4)   0.5589E+02 (28.6)
  iterzp            0.1311E+03 (68.1)   0.4400E-04 (54.3)   0.1333E+03 (68.3)
  make_fx           0.0000E+00 ( 0.0)   0.0000E+00 ( 0.0)   0.0000E+00 ( 0.0)
  AOints            0.5736E+01 ( 3.0)   0.1000E-05 ( 1.2)   0.5815E+01 ( 3.0)
 ------------------------------------------------------------------------------
   Grand Totals     0.1924E+03          0.8100E-04          0.1951E+03
 ------------------------------------------------------------------------------
 Calculating analytic Hessian of the SCF energy
 Polarizability Matrix (a.u.)
            1           2           3
    1 -65.0602129   3.7599793   1.9917465
    2   3.7599793 -58.0979631   4.3681456
    3   1.9917465   4.3681456 -56.7689778
 
 Direct stationary perturbation theory relativistic correction:
 
 rels  =       0.069244248018
 relv  =      -0.341196504308
 rel2e =       0.159038037577
 E_rel =      -0.112914218713
 
 Hessian of the SCF Energy
            1           2           3           4           5           6
    1   0.7710246  -0.1094433   0.1837396  -0.1146334  -0.0420930  -0.0094814
    2  -0.1094433   0.6025131  -0.0825598  -0.0374072  -0.1416788  -0.0062508
    3   0.1837396  -0.0825598   0.2144094  -0.0068887   0.0039404  -0.0562658
    4  -0.1146334  -0.0374072  -0.0068887   0.4734882  -0.1456278   0.0611421
    5  -0.0420930  -0.1416788   0.0039404  -0.1456278   0.6247452   0.0160232
    6  -0.0094814  -0.0062508  -0.0562658   0.0611421   0.0160232   0.2358626
    7  -0.0341614  -0.0214301  -0.0125619  -0.1497012   0.0273796  -0.0646553
    8  -0.0115263   0.0061194  -0.0103032   0.0331395  -0.0853407   0.0089819
    9  -0.0126844  -0.0005526  -0.0021202  -0.0914492   0.0093652  -0.0776311
   10  -0.0098945   0.0029935   0.0061923  -0.0367058   0.0125942   0.0130853
   11   0.0093050  -0.0162656   0.0058994   0.0284358  -0.0048529  -0.0105592
   12  -0.0023562   0.0135756   0.0014711   0.0204989  -0.0200864   0.0014755
   13  -0.0792870   0.0366903  -0.0214424  -0.0242614   0.0217044  -0.0022205
   14   0.0214928   0.0069339   0.0011978   0.0169624  -0.0312943   0.0122307
   15  -0.0083948  -0.0106470  -0.0038493   0.0042794   0.0135268  -0.0100317
   16  -0.2223180   0.2001311  -0.0701765   0.0178083   0.0086304  -0.0090209
   17   0.1589138  -0.3821555   0.0755858  -0.0019266  -0.0577810   0.0115062
   18  -0.0611096   0.0766500  -0.0775171  -0.0022505   0.0140312   0.0159169
   19  -0.3051024  -0.0292805  -0.0897481  -0.0052740   0.0022218  -0.0045690
   20  -0.0354383  -0.0581238  -0.0055471  -0.0191756   0.0039028  -0.0081226
   21  -0.0987921  -0.0046114  -0.0691930   0.0032640   0.0026657   0.0030099
   22   0.0151021  -0.0140130  -0.0022220  -0.1128090   0.1069411   0.0112857
   23   0.0155803  -0.0140156  -0.0008046   0.1059776  -0.2473213  -0.0309033
   24  -0.0014268   0.0024339  -0.0006861   0.0134545  -0.0355116  -0.0488530
   25  -0.0009117  -0.0018062  -0.0029892  -0.0026947  -0.0144588  -0.0071706
   26   0.0002976  -0.0032806   0.0024293   0.0059074   0.0091120   0.0079079
   27  -0.0011694   0.0026165   0.0007499  -0.0004085  -0.0053485  -0.0019355
   28  -0.0002384   0.0010966   0.0005719   0.0009759   0.0037126   0.0025851
   29  -0.0014002  -0.0009828   0.0003095   0.0054238  -0.0012823   0.0042153
   30   0.0017654  -0.0012212   0.0007919   0.0016302   0.0050367   0.0004018
   31  -0.0055090  -0.0032074  -0.0019399  -0.0001642  -0.0003155  -0.0009282
   32  -0.0031149  -0.0012127   0.0001528  -0.0004592  -0.0055909  -0.0005932
   33  -0.0004857   0.0000512   0.0008662   0.0004573  -0.0033219   0.0010892
   34  -0.0151742  -0.0271448   0.0157444  -0.0452094   0.0310648  -0.0002771
   35  -0.0016935   0.0022388   0.0095480   0.0088851  -0.0657053   0.0028774
   36   0.0115955   0.0097875  -0.0084186  -0.0018925  -0.0046586  -0.0578576
   37   0.0011035   0.0028209   0.0017205  -0.0008193  -0.0117538   0.0102249
   38  -0.0008800  -0.0000900   0.0001516  -0.0001350   0.0030874  -0.0073134
   39  -0.0012001   0.0007281  -0.0002384  -0.0018369   0.0043378  -0.0051811
            7           8           9          10          11          12
    1  -0.0341614  -0.0115263  -0.0126844  -0.0098945   0.0093050  -0.0023562
    2  -0.0214301   0.0061194  -0.0005526   0.0029935  -0.0162656   0.0135756
    3  -0.0125619  -0.0103032  -0.0021202   0.0061923   0.0058994   0.0014711
    4  -0.1497012   0.0331395  -0.0914492  -0.0367058   0.0284358   0.0204989
    5   0.0273796  -0.0853407   0.0093652   0.0125942  -0.0048529  -0.0200864
    6  -0.0646553   0.0089819  -0.0776311   0.0130853  -0.0105592   0.0014755
    7   0.3591772   0.1088761   0.3151482  -0.0414928  -0.0200869  -0.0613918
    8   0.1088761   0.4869784   0.0891234   0.0233248  -0.0071632   0.0004875
    9   0.3151482   0.0891234   0.2316501   0.0500938   0.0013288   0.0829580
   10  -0.0414928   0.0233248   0.0500938   0.5089084  -0.2297263  -0.1695721
   11  -0.0200869  -0.0071632   0.0013288  -0.2297263   0.3418102  -0.0520729
   12  -0.0613918   0.0004875   0.0829580  -0.1695721  -0.0520729   0.2736467
   13  -0.0306166  -0.0303294  -0.0705519  -0.0795065   0.0294840   0.0624040
   14   0.0330409  -0.2260035  -0.0589479  -0.0058064  -0.0384534   0.0778454
   15  -0.0301208  -0.0001476  -0.0215690   0.0341494   0.0180109  -0.1257059
   16  -0.0125235  -0.0237787   0.0039672  -0.0217778  -0.0393825   0.0284800
   17  -0.0215556  -0.0348865  -0.0104558  -0.0014940  -0.0028932  -0.0000444
   18  -0.0198002  -0.0091378   0.0067957   0.0210072   0.0034846   0.0009654
   19  -0.0004625  -0.0003992   0.0013984   0.0006843  -0.0005674  -0.0005480
   20  -0.0022141  -0.0029363   0.0007264  -0.0009135   0.0000202   0.0003007
   21   0.0019700  -0.0002666  -0.0039871  -0.0013762   0.0012316   0.0020414
   22  -0.0031714   0.0159659   0.0104067  -0.0028211   0.0018195   0.0012501
   23  -0.0010284   0.0008286   0.0009297  -0.0012045   0.0005145   0.0009324
   24  -0.0035005   0.0193085   0.0061850   0.0018875   0.0000298  -0.0070017
   25  -0.1460692  -0.1021307  -0.1180896   0.0065577   0.0048518   0.0024468
   26  -0.1020941  -0.1568557  -0.1149305   0.0003686  -0.0027456   0.0015950
   27  -0.1306363  -0.1120138  -0.1236592  -0.0078331  -0.0067027  -0.0074071
   28   0.0002605   0.0019672   0.0060198  -0.2054278   0.1055416   0.0930152
   29  -0.0009289   0.0000878   0.0087534   0.1091964  -0.0994719  -0.0619139
   30  -0.0041632   0.0101697   0.0104209   0.1000730  -0.0608519  -0.1177173
   31  -0.0007311   0.0029422   0.0028295   0.0087282  -0.0094710   0.0047091
   32   0.0174156  -0.0127329   0.0172881   0.0004047  -0.0019385  -0.0018573
   33   0.0108040  -0.0080427   0.0053423  -0.0167551   0.0162412  -0.0095586
   34   0.0624156  -0.0183638  -0.0952874  -0.1338165   0.1101552   0.0376073
   35  -0.0142818   0.0322337   0.0564516   0.1020773  -0.1654662   0.0365126
   36   0.0046960   0.0123679  -0.1151681  -0.0287252   0.0846909  -0.0874552
   37  -0.0029235   0.0003126  -0.0018012   0.0065641   0.0096412  -0.0165433
   38  -0.0030921  -0.0003290   0.0009203  -0.0118147  -0.0030945   0.0047258
   39  -0.0057881  -0.0005272   0.0007826  -0.0022268  -0.0007305  -0.0077125
           13          14          15          16          17          18
    1  -0.0792870   0.0214928  -0.0083948  -0.2223180   0.1589138  -0.0611096
    2   0.0366903   0.0069339  -0.0106470   0.2001311  -0.3821555   0.0766500
    3  -0.0214424   0.0011978  -0.0038493  -0.0701765   0.0755858  -0.0775171
    4  -0.0242614   0.0169624   0.0042794   0.0178083  -0.0019266  -0.0022505
    5   0.0217044  -0.0312943   0.0135268   0.0086304  -0.0577810   0.0140312
    6  -0.0022205   0.0122307  -0.0100317  -0.0090209   0.0115062   0.0159169
    7  -0.0306166   0.0330409  -0.0301208  -0.0125235  -0.0215556  -0.0198002
    8  -0.0303294  -0.2260035  -0.0001476  -0.0237787  -0.0348865  -0.0091378
    9  -0.0705519  -0.0589479  -0.0215690   0.0039672  -0.0104558   0.0067957
   10  -0.0795065  -0.0058064   0.0341494  -0.0217778  -0.0014940   0.0210072
   11   0.0294840  -0.0384534   0.0180109  -0.0393825  -0.0028932   0.0034846
   12   0.0624040   0.0778454  -0.1257059   0.0284800  -0.0000444   0.0009654
   13   0.5169835  -0.1229958   0.1398865  -0.1456781  -0.0171870  -0.0162943
   14  -0.1229958   0.5326165  -0.1383853  -0.0405334  -0.0861520  -0.0010363
   15   0.1398865  -0.1383853   0.3809641  -0.0387768   0.0079646  -0.0755790
   16  -0.1456781  -0.0405334  -0.0387768   0.4385182  -0.1366809   0.0921677
   17  -0.0171870  -0.0861520   0.0079646  -0.1366809   0.5588802  -0.0885494
   18  -0.0162943  -0.0010363  -0.0755790   0.0921677  -0.0885494   0.1350013
   19   0.0006222   0.0026272  -0.0066237  -0.0167519   0.0052448  -0.0032218
   20   0.0021085  -0.0048862   0.0022879   0.0323516   0.0039750   0.0080199
   21  -0.0044046   0.0004247   0.0131589  -0.0027127  -0.0032139  -0.0065283
   22  -0.0036100   0.0000005  -0.0020338  -0.0021534  -0.0047955   0.0015714
   23  -0.0013377  -0.0017990  -0.0006884  -0.0011418  -0.0056652   0.0008416
   24  -0.0034756   0.0025584  -0.0017785  -0.0001385   0.0007551   0.0007575
   25   0.0017505   0.0071967   0.0038460  -0.0046864  -0.0002104  -0.0004996
   26  -0.0117921   0.0002982  -0.0127835  -0.0020439  -0.0017769  -0.0020779
   27   0.0066915  -0.0018610   0.0005216   0.0051681   0.0033116   0.0016851
   28  -0.0075137   0.0039516   0.0017881   0.0009658  -0.0002079   0.0009440
   29  -0.0150434   0.0069253   0.0062566   0.0003629   0.0010953   0.0016355
   30   0.0206608  -0.0050801  -0.0125662  -0.0016716  -0.0007584  -0.0021587
   31  -0.1480027   0.0924639  -0.0957243  -0.0182710   0.0174914  -0.0138377
   32   0.0931356  -0.1432973   0.0938002  -0.0083371   0.0108906  -0.0097811
   33  -0.0986346   0.0933678  -0.1325106  -0.0001060  -0.0011631  -0.0006811
   34   0.0037510  -0.0087980  -0.0036737  -0.0148491   0.0044631   0.0004818
   35   0.0116096  -0.0132574   0.0178484   0.0084796  -0.0035208   0.0055777
   36  -0.0130143   0.0201509  -0.0138323  -0.0098452   0.0063785   0.0008240
   37  -0.0046312   0.0003976   0.0013985   0.0017170  -0.0020551   0.0008416
   38   0.0039530  -0.0016308   0.0029563   0.0019425  -0.0000100   0.0003421
   39   0.0003954  -0.0024649   0.0027778   0.0026652  -0.0013169   0.0005183
           19          20          21          22          23          24
    1  -0.3051024  -0.0354383  -0.0987921   0.0151021   0.0155803  -0.0014268
    2  -0.0292805  -0.0581238  -0.0046114  -0.0140130  -0.0140156   0.0024339
    3  -0.0897481  -0.0055471  -0.0691930  -0.0022220  -0.0008046  -0.0006861
    4  -0.0052740  -0.0191756   0.0032640  -0.1128090   0.1059776   0.0134545
    5   0.0022218   0.0039028   0.0026657   0.1069411  -0.2473213  -0.0355116
    6  -0.0045690  -0.0081226   0.0030099   0.0112857  -0.0309033  -0.0488530
    7  -0.0004625  -0.0022141   0.0019700  -0.0031714  -0.0010284  -0.0035005
    8  -0.0003992  -0.0029363  -0.0002666   0.0159659   0.0008286   0.0193085
    9   0.0013984   0.0007264  -0.0039871   0.0104067   0.0009297   0.0061850
   10   0.0006843  -0.0009135  -0.0013762  -0.0028211  -0.0012045   0.0018875
   11  -0.0005674   0.0000202   0.0012316   0.0018195   0.0005145   0.0000298
   12  -0.0005480   0.0003007   0.0020414   0.0012501   0.0009324  -0.0070017
   13   0.0006222   0.0021085  -0.0044046  -0.0036100  -0.0013377  -0.0034756
   14   0.0026272  -0.0048862   0.0004247   0.0000005  -0.0017990   0.0025584
   15  -0.0066237   0.0022879   0.0131589  -0.0020338  -0.0006884  -0.0017785
   16  -0.0167519   0.0323516  -0.0027127  -0.0021534  -0.0011418  -0.0001385
   17   0.0052448   0.0039750  -0.0032139  -0.0047955  -0.0056652   0.0007551
   18  -0.0032218   0.0080199  -0.0065283   0.0015714   0.0008416   0.0007575
   19   0.3272169   0.0210723   0.1032582  -0.0003368  -0.0008627   0.0000758
   20   0.0210723   0.0561367   0.0030394   0.0009649   0.0001220  -0.0000379
   21   0.1032582   0.0030394   0.0588362   0.0000866  -0.0001339   0.0000003
   22  -0.0003368   0.0009649   0.0000866   0.1142311  -0.1149760  -0.0178579
   23  -0.0008627   0.0001220  -0.0001339  -0.1149760   0.2638322   0.0313670
   24   0.0000758  -0.0000379   0.0000003  -0.0178579   0.0313670   0.0468637
   25  -0.0003298  -0.0009731   0.0003359   0.0005838   0.0001991   0.0007744
   26   0.0002686   0.0006242  -0.0003357  -0.0005244   0.0000567  -0.0007998
   27   0.0002047  -0.0002632  -0.0007735  -0.0001050   0.0006012   0.0005066
   28   0.0002245   0.0003618  -0.0003301   0.0001716  -0.0002518   0.0008130
   29   0.0002471   0.0004400  -0.0004062   0.0010361   0.0004510  -0.0007072
   30  -0.0001822   0.0002361   0.0010836  -0.0005438   0.0000446   0.0008549
   31  -0.0011357   0.0013961   0.0006917   0.0001703   0.0002272  -0.0002359
   32  -0.0004044   0.0007153   0.0005246   0.0006461   0.0001555   0.0009787
   33   0.0003167   0.0000585   0.0002428   0.0005849  -0.0001705   0.0007773
   34   0.0008805   0.0007262  -0.0020199  -0.0056104  -0.0017848   0.0109487
   35  -0.0001148  -0.0001357   0.0010465   0.0074279   0.0026703  -0.0206162
   36  -0.0004727  -0.0009010   0.0021661  -0.0022088  -0.0020495   0.0023695
   37  -0.0002352  -0.0002670   0.0000293   0.0002531   0.0006036  -0.0013185
   38  -0.0000527   0.0001459   0.0000353  -0.0004930   0.0001703   0.0002411
   39   0.0001117   0.0002030  -0.0000571  -0.0002141   0.0000337   0.0000043
           25          26          27          28          29          30
    1  -0.0009117   0.0002976  -0.0011694  -0.0002384  -0.0014002   0.0017654
    2  -0.0018062  -0.0032806   0.0026165   0.0010966  -0.0009828  -0.0012212
    3  -0.0029892   0.0024293   0.0007499   0.0005719   0.0003095   0.0007919
    4  -0.0026947   0.0059074  -0.0004085   0.0009759   0.0054238   0.0016302
    5  -0.0144588   0.0091120  -0.0053485   0.0037126  -0.0012823   0.0050367
    6  -0.0071706   0.0079079  -0.0019355   0.0025851   0.0042153   0.0004018
    7  -0.1460692  -0.1020941  -0.1306363   0.0002605  -0.0009289  -0.0041632
    8  -0.1021307  -0.1568557  -0.1120138   0.0019672   0.0000878   0.0101697
    9  -0.1180896  -0.1149305  -0.1236592   0.0060198   0.0087534   0.0104209
   10   0.0065577   0.0003686  -0.0078331  -0.2054278   0.1091964   0.1000730
   11   0.0048518  -0.0027456  -0.0067027   0.1055416  -0.0994719  -0.0608519
   12   0.0024468   0.0015950  -0.0074071   0.0930152  -0.0619139  -0.1177173
   13   0.0017505  -0.0117921   0.0066915  -0.0075137  -0.0150434   0.0206608
   14   0.0071967   0.0002982  -0.0018610   0.0039516   0.0069253  -0.0050801
   15   0.0038460  -0.0127835   0.0005216   0.0017881   0.0062566  -0.0125662
   16  -0.0046864  -0.0020439   0.0051681   0.0009658   0.0003629  -0.0016716
   17  -0.0002104  -0.0017769   0.0033116  -0.0002079   0.0010953  -0.0007584
   18  -0.0004996  -0.0020779   0.0016851   0.0009440   0.0016355  -0.0021587
   19  -0.0003298   0.0002686   0.0002047   0.0002245   0.0002471  -0.0001822
   20  -0.0009731   0.0006242  -0.0002632   0.0003618   0.0004400   0.0002361
   21   0.0003359  -0.0003357  -0.0007735  -0.0003301  -0.0004062   0.0010836
   22   0.0005838  -0.0005244  -0.0001050   0.0001716   0.0010361  -0.0005438
   23   0.0001991   0.0000567   0.0006012  -0.0002518   0.0004510   0.0000446
   24   0.0007744  -0.0007998   0.0005066   0.0008130  -0.0007072   0.0008549
   25   0.1468861   0.1086736   0.1234242  -0.0002181  -0.0001893  -0.0010206
   26   0.1086736   0.1529852   0.1182954   0.0003148   0.0005659  -0.0002898
   27   0.1234242   0.1182954   0.1289639   0.0007763   0.0002022   0.0011326
   28  -0.0002181   0.0003148   0.0007763   0.2142231  -0.1128843  -0.1123018
   29  -0.0001893   0.0005659   0.0002022  -0.1128843   0.0984495   0.0554284
   30  -0.0010206  -0.0002898   0.0011326  -0.1123018   0.0554284   0.1053819
   31   0.0001257   0.0000597   0.0001658   0.0008020   0.0006442  -0.0008488
   32  -0.0002372   0.0009501  -0.0009776  -0.0002901   0.0000341   0.0002692
   33  -0.0000268   0.0008909  -0.0001428  -0.0004973  -0.0013849   0.0016203
   34  -0.0018532   0.0006756   0.0042576  -0.0032244   0.0151117  -0.0028509
   35  -0.0009005  -0.0001659   0.0029849  -0.0027594  -0.0059863  -0.0018991
   36  -0.0012363  -0.0003673   0.0020322   0.0074215  -0.0120798   0.0117476
   37   0.0008595  -0.0001114  -0.0005360  -0.0010008  -0.0015757  -0.0005465
   38  -0.0000149   0.0002326  -0.0008449  -0.0005528  -0.0003255  -0.0010841
   39   0.0002054   0.0004660  -0.0016739  -0.0008057  -0.0003088  -0.0009931
           31          32          33          34          35          36
    1  -0.0055090  -0.0031149  -0.0004857  -0.0151742  -0.0016935   0.0115955
    2  -0.0032074  -0.0012127   0.0000512  -0.0271448   0.0022388   0.0097875
    3  -0.0019399   0.0001528   0.0008662   0.0157444   0.0095480  -0.0084186
    4  -0.0001642  -0.0004592   0.0004573  -0.0452094   0.0088851  -0.0018925
    5  -0.0003155  -0.0055909  -0.0033219   0.0310648  -0.0657053  -0.0046586
    6  -0.0009282  -0.0005932   0.0010892  -0.0002771   0.0028774  -0.0578576
    7  -0.0007311   0.0174156   0.0108040   0.0624156  -0.0142818   0.0046960
    8   0.0029422  -0.0127329  -0.0080427  -0.0183638   0.0322337   0.0123679
    9   0.0028295   0.0172881   0.0053423  -0.0952874   0.0564516  -0.1151681
   10   0.0087282   0.0004047  -0.0167551  -0.1338165   0.1020773  -0.0287252
   11  -0.0094710  -0.0019385   0.0162412   0.1101552  -0.1654662   0.0846909
   12   0.0047091  -0.0018573  -0.0095586   0.0376073   0.0365126  -0.0874552
   13  -0.1480027   0.0931356  -0.0986346   0.0037510   0.0116096  -0.0130143
   14   0.0924639  -0.1432973   0.0933678  -0.0087980  -0.0132574   0.0201509
   15  -0.0957243   0.0938002  -0.1325106  -0.0036737   0.0178484  -0.0138323
   16  -0.0182710  -0.0083371  -0.0001060  -0.0148491   0.0084796  -0.0098452
   17   0.0174914   0.0108906  -0.0011631   0.0044631  -0.0035208   0.0063785
   18  -0.0138377  -0.0097811  -0.0006811   0.0004818   0.0055777   0.0008240
   19  -0.0011357  -0.0004044   0.0003167   0.0008805  -0.0001148  -0.0004727
   20   0.0013961   0.0007153   0.0000585   0.0007262  -0.0001357  -0.0009010
   21   0.0006917   0.0005246   0.0002428  -0.0020199   0.0010465   0.0021661
   22   0.0001703   0.0006461   0.0005849  -0.0056104   0.0074279  -0.0022088
   23   0.0002272   0.0001555  -0.0001705  -0.0017848   0.0026703  -0.0020495
   24  -0.0002359   0.0009787   0.0007773   0.0109487  -0.0206162   0.0023695
   25   0.0001257  -0.0002372  -0.0000268  -0.0018532  -0.0009005  -0.0012363
   26   0.0000597   0.0009501   0.0008909   0.0006756  -0.0001659  -0.0003673
   27   0.0001658  -0.0009776  -0.0001428   0.0042576   0.0029849   0.0020322
   28   0.0008020  -0.0002901  -0.0004973  -0.0032244  -0.0027594   0.0074215
   29   0.0006442   0.0000341  -0.0013849   0.0151117  -0.0059863  -0.0120798
   30  -0.0008488   0.0002692   0.0016203  -0.0028509  -0.0018991   0.0117476
   31   0.1640349  -0.0997487   0.1023738  -0.0007464  -0.0018058   0.0028428
   32  -0.0997487   0.1514334  -0.0996578   0.0008404   0.0005081   0.0001931
   33   0.1023738  -0.0996578   0.1370418   0.0027032   0.0019809  -0.0046734
   34  -0.0007464   0.0008404   0.0027032   0.1839707  -0.1184696  -0.0108653
   35  -0.0018058   0.0005081   0.0019809  -0.1184696   0.3551834  -0.2931161
   36   0.0028428   0.0001931  -0.0046734  -0.0108653  -0.2931161   0.5095110
   37   0.0006989   0.0001492  -0.0007344  -0.0305341   0.0015459   0.0417045
   38  -0.0006763   0.0000851   0.0011503   0.0115240  -0.1385968   0.1796036
   39  -0.0000978  -0.0003397   0.0005866   0.0432314   0.1808034  -0.2412453
           37          38          39
    1   0.0011035  -0.0008800  -0.0012001
    2   0.0028209  -0.0000900   0.0007281
    3   0.0017205   0.0001516  -0.0002384
    4  -0.0008193  -0.0001350  -0.0018369
    5  -0.0117538   0.0030874   0.0043378
    6   0.0102249  -0.0073134  -0.0051811
    7  -0.0029235  -0.0030921  -0.0057881
    8   0.0003126  -0.0003290  -0.0005272
    9  -0.0018012   0.0009203   0.0007826
   10   0.0065641  -0.0118147  -0.0022268
   11   0.0096412  -0.0030945  -0.0007305
   12  -0.0165433   0.0047258  -0.0077125
   13  -0.0046312   0.0039530   0.0003954
   14   0.0003976  -0.0016308  -0.0024649
   15   0.0013985   0.0029563   0.0027778
   16   0.0017170   0.0019425   0.0026652
   17  -0.0020551  -0.0000100  -0.0013169
   18   0.0008416   0.0003421   0.0005183
   19  -0.0002352  -0.0000527   0.0001117
   20  -0.0002670   0.0001459   0.0002030
   21   0.0000293   0.0000353  -0.0000571
   22   0.0002531  -0.0004930  -0.0002141
   23   0.0006036   0.0001703   0.0000337
   24  -0.0013185   0.0002411   0.0000043
   25   0.0008595  -0.0000149   0.0002054
   26  -0.0001114   0.0002326   0.0004660
   27  -0.0005360  -0.0008449  -0.0016739
   28  -0.0010008  -0.0005528  -0.0008057
   29  -0.0015757  -0.0003255  -0.0003088
   30  -0.0005465  -0.0010841  -0.0009931
   31   0.0006989  -0.0006763  -0.0000978
   32   0.0001492   0.0000851  -0.0003397
   33  -0.0007344   0.0011503   0.0005866
   34  -0.0305341   0.0115240   0.0432314
   35   0.0015459  -0.1385968   0.1808034
   36   0.0417045   0.1796036  -0.2412453
   37   0.0289479   0.0002921  -0.0344397
   38   0.0002921   0.1403552  -0.1808838
   39  -0.0344397  -0.1808838   0.2524318
 Gradient time:  CPU 257.36 s  wall 262.00 s
 **********************************************************************
 **                                                                  **
 **                       VIBRATIONAL ANALYSIS                       **
 **                       --------------------                       **
 **                                                                  **
 **        VIBRATIONAL FREQUENCIES (CM**-1) AND NORMAL MODES         **
 **     FORCE CONSTANTS (mDYN/ANGSTROM) AND REDUCED MASSES (AMU)     **
 **                  INFRARED INTENSITIES (KM/MOL)                   **
 **                                                                  **
 **********************************************************************
 

 Mode:                 1                      2                      3
 Frequency:      -720.39                -423.33                 415.47
 Force Cnst:      1.3173                 0.1363                 0.3903
 Red. Mass:       4.3084                 1.2913                 3.8373
 IR Active:          YES                    YES                    YES
 IR Intens:       63.065                  9.555                  1.119
 Raman Active:       YES                    YES                    YES
               X      Y      Z        X      Y      Z        X      Y      Z
 C          0.012 -0.001  0.010    0.002 -0.002  0.010   -0.096 -0.042  0.186
 C          0.010  0.005  0.011    0.006 -0.000 -0.003   -0.048 -0.065 -0.124
 C         -0.225  0.071  0.316   -0.031  0.037  0.064   -0.091 -0.070 -0.071
 C         -0.066 -0.137 -0.255   -0.006 -0.042 -0.047    0.096  0.075 -0.030
 C          0.079  0.086 -0.051    0.027  0.037 -0.024   -0.031 -0.043 -0.116
 N          0.033  0.009 -0.013    0.004  0.008  0.001   -0.081 -0.041  0.160
 H         -0.018 -0.002  0.097   -0.012  0.002  0.052   -0.241 -0.048  0.603
 H         -0.036  0.001 -0.112   -0.007 -0.001 -0.049   -0.041 -0.064 -0.101
 H          0.018  0.182 -0.074   -0.060  0.023  0.106   -0.156 -0.075 -0.004
 H         -0.217 -0.250 -0.400   -0.017 -0.043 -0.065    0.231  0.143  0.119
 H          0.036  0.047 -0.037    0.015  0.029 -0.019    0.009 -0.023 -0.137
 C          0.188  0.005  0.057   -0.040 -0.092 -0.047    0.251  0.180 -0.070
 H         -0.230 -0.451 -0.327    0.523  0.625  0.531    0.344  0.230 -0.028
 TransDip  -0.058 -0.069 -0.238    0.037  0.066  0.063   -0.015 -0.030  0.008

 Mode:                 4                      5                      6
 Frequency:       438.45                 514.59                 620.40
 Force Cnst:      0.2013                 0.3196                 0.6938
 Red. Mass:       1.7777                 2.0482                 3.0592
 IR Active:          YES                    YES                    YES
 IR Intens:       12.009                  8.908                 14.744
 Raman Active:       YES                    YES                    YES
               X      Y      Z        X      Y      Z        X      Y      Z
 C         -0.031  0.043  0.096    0.060 -0.033 -0.137    0.034  0.062 -0.065
 C          0.019  0.001 -0.007    0.067 -0.008 -0.052    0.097 -0.013 -0.157
 C         -0.001  0.017  0.042    0.049 -0.032  0.025   -0.080 -0.105  0.174
 C          0.110  0.060  0.026   -0.049  0.035 -0.073    0.050  0.137  0.028
 C          0.011  0.022 -0.062   -0.008  0.005  0.010    0.066 -0.101 -0.090
 N         -0.010  0.017 -0.095   -0.043 -0.015  0.187   -0.051  0.054  0.105
 H         -0.111  0.101  0.316    0.104 -0.024 -0.267   -0.009  0.108  0.054
 H          0.052  0.034 -0.103    0.016 -0.043 -0.005    0.089 -0.005 -0.209
 H         -0.392 -0.213  0.678   -0.380 -0.279  0.717    0.301  0.145 -0.476
 H          0.071  0.040 -0.023   -0.171 -0.060 -0.181    0.275  0.450  0.099
 H         -0.047  0.004 -0.018    0.074  0.019 -0.065    0.057 -0.202 -0.184
 C         -0.046 -0.139 -0.044   -0.029  0.077 -0.006   -0.152 -0.080  0.043
 H         -0.197 -0.259 -0.143   -0.101  0.058 -0.027   -0.198 -0.039  0.069
 TransDip  -0.102 -0.035  0.025   -0.066 -0.020 -0.067    0.046  0.058 -0.098

 Mode:                 7                      8                      9
 Frequency:       699.37                 750.64                 790.06
 Force Cnst:      1.4352                 1.9084                 1.7412
 Red. Mass:       4.9803                 5.7485                 4.7346
 IR Active:          YES                    YES                    YES
 IR Intens:        2.098                  2.834                  5.675
 Raman Active:       YES                    YES                    YES
               X      Y      Z        X      Y      Z        X      Y      Z
 C         -0.035  0.034 -0.129   -0.180 -0.064 -0.140    0.055  0.110 -0.026
 C         -0.127 -0.054  0.360   -0.081 -0.092  0.063   -0.179  0.130  0.014
 C         -0.034 -0.047  0.042    0.147  0.161 -0.110   -0.209 -0.181 -0.160
 C          0.151  0.130 -0.065    0.250 -0.127 -0.056    0.011 -0.169 -0.010
 C         -0.006  0.008 -0.042    0.082  0.087 -0.196    0.120 -0.115 -0.055
 N         -0.067  0.071  0.132   -0.150  0.050  0.090    0.182  0.216  0.060
 H          0.081  0.028 -0.460   -0.229 -0.021 -0.030    0.093 -0.203 -0.055
 H         -0.075 -0.045  0.470   -0.064 -0.043 -0.181   -0.037  0.180  0.203
 H          0.129  0.008 -0.185    0.049  0.207 -0.055   -0.396 -0.370  0.201
 H          0.204  0.012  0.131    0.191  0.008 -0.294    0.271  0.249  0.009
 H          0.037 -0.054 -0.154   -0.108  0.119  0.039    0.073  0.072  0.192
 C          0.097 -0.145 -0.284    0.003 -0.049  0.347   -0.021 -0.013  0.115
 H          0.015 -0.056 -0.233   -0.378  0.025  0.374    0.131 -0.093  0.073
 TransDip  -0.006  0.027 -0.037   -0.044 -0.017 -0.027    0.025 -0.034  0.063

 Mode:                10                     11                     12
 Frequency:       843.50                 870.78                 887.28
 Force Cnst:      1.2371                 1.3340                 0.6454
 Red. Mass:       2.9510                 2.9861                 1.3914
 IR Active:          YES                    YES                    YES
 IR Intens:        1.372                 29.619                 26.762
 Raman Active:       YES                    YES                    YES
               X      Y      Z        X      Y      Z        X      Y      Z
 C         -0.150  0.028  0.100   -0.139 -0.038 -0.079    0.090  0.029 -0.109
 C          0.036 -0.135 -0.066   -0.079 -0.116 -0.039   -0.018 -0.039  0.015
 C         -0.014 -0.137 -0.002    0.160 -0.013  0.095   -0.038 -0.025 -0.028
 C          0.129  0.070 -0.135   -0.126  0.022  0.076    0.058  0.031  0.021
 C         -0.014  0.021  0.197    0.007 -0.004 -0.026   -0.010 -0.028  0.052
 N          0.050  0.110 -0.047    0.127  0.212 -0.004    0.007  0.016  0.002
 H          0.056 -0.164 -0.466   -0.243 -0.322  0.284   -0.186  0.216  0.674
 H          0.275 -0.003 -0.087   -0.098 -0.113 -0.120   -0.077 -0.091  0.133
 H         -0.056 -0.009 -0.100    0.149 -0.035  0.143   -0.110  0.144 -0.129
 H         -0.119 -0.248 -0.238   -0.222 -0.175  0.120   -0.318 -0.363 -0.221
 H         -0.112 -0.009  0.281    0.040 -0.367 -0.438   -0.067 -0.008  0.137
 C         -0.018  0.035 -0.001    0.040 -0.002 -0.014   -0.014  0.011 -0.008
 H         -0.367  0.313  0.161    0.240 -0.139 -0.089   -0.152  0.127  0.061
 TransDip   0.018 -0.023  0.024   -0.060 -0.160 -0.034   -0.128  0.037  0.099

 Mode:                13                     14                     15
 Frequency:       892.76                 945.83                 962.03
 Force Cnst:      0.7775                 0.9549                 0.8531
 Red. Mass:       1.6558                 1.8117                 1.5645
 IR Active:          YES                    YES                    YES
 IR Intens:        7.698                  6.318                  2.181
 Raman Active:       YES                    YES                    YES
               X      Y      Z        X      Y      Z        X      Y      Z
 C          0.003  0.025 -0.057   -0.085 -0.118 -0.079   -0.110 -0.036 -0.022
 C          0.009 -0.101  0.021    0.044  0.156  0.007    0.056  0.034 -0.008
 C          0.051 -0.004  0.011    0.003 -0.065  0.033   -0.010  0.005 -0.021
 C         -0.068 -0.073 -0.098    0.042  0.006 -0.031   -0.015  0.028  0.028
 C          0.039  0.034  0.117   -0.043  0.078  0.018    0.146 -0.039  0.044
 N         -0.036  0.021 -0.036    0.030 -0.022  0.015   -0.061 -0.011 -0.014
 H         -0.142  0.183  0.334   -0.228 -0.301  0.365   -0.120 -0.087  0.002
 H         -0.038 -0.136  0.075    0.200  0.236  0.073    0.313  0.110  0.440
 H         -0.072  0.031  0.101    0.441 -0.453 -0.018   -0.316  0.345 -0.058
 H          0.525  0.590  0.235    0.079  0.020  0.014   -0.159  0.125 -0.308
 H         -0.064  0.020  0.217   -0.116  0.241  0.265    0.120 -0.053  0.064
 C         -0.006  0.035 -0.029   -0.029 -0.006 -0.022   -0.019  0.003 -0.006
 H         -0.046  0.026 -0.042    0.015 -0.021 -0.031    0.417 -0.229 -0.133
 TransDip   0.051  0.019  0.070   -0.036  0.008  0.072   -0.001 -0.031  0.036

 Mode:                16                     17                     18
 Frequency:       981.04                1042.23                1065.43
 Force Cnst:      0.9238                 1.1916                 1.6130
 Red. Mass:       1.6292                 1.8619                 2.4117
 IR Active:          YES                    YES                    YES
 IR Intens:        2.767                  8.441                  1.947
 Raman Active:       YES                    YES                    YES
               X      Y      Z        X      Y      Z        X      Y      Z
 C         -0.020 -0.027 -0.016   -0.001  0.050  0.012   -0.052  0.013 -0.009
 C          0.127 -0.058  0.020   -0.022 -0.109 -0.032   -0.101  0.120 -0.030
 C         -0.079 -0.013 -0.025   -0.021 -0.105 -0.014    0.034 -0.007  0.056
 C         -0.029 -0.068  0.057   -0.036  0.019  0.069    0.045 -0.092  0.040
 C         -0.022  0.098 -0.080    0.115  0.156 -0.032    0.213 -0.049  0.077
 N          0.031  0.024  0.005   -0.060 -0.004 -0.019   -0.090 -0.043 -0.028
 H         -0.035 -0.040  0.033    0.015  0.353 -0.102   -0.062 -0.027  0.006
 H          0.414  0.046  0.325   -0.136 -0.194  0.083   -0.172  0.121 -0.206
 H         -0.249  0.166 -0.052    0.304 -0.434 -0.027    0.069 -0.053  0.085
 H          0.129 -0.257  0.507   -0.187 -0.129 -0.026    0.059 -0.359  0.302
 H          0.133  0.102 -0.257    0.285  0.464  0.095    0.390 -0.166 -0.215
 C         -0.018  0.025 -0.014   -0.010  0.001  0.022   -0.019  0.079 -0.100
 H         -0.328  0.153  0.049    0.245 -0.148 -0.055   -0.471  0.310  0.009
 TransDip  -0.018 -0.007  0.050    0.063  0.041  0.055   -0.005 -0.022  0.039

 Mode:                19                     20                     21
 Frequency:      1118.17                1147.55                1204.21
 Force Cnst:      1.1583                 1.4354                 1.1633
 Red. Mass:       1.5724                 1.8500                 1.3616
 IR Active:          YES                    YES                    YES
 IR Intens:       15.139                  7.481                  0.889
 Raman Active:       YES                    YES                    YES
               X      Y      Z        X      Y      Z        X      Y      Z
 C          0.009 -0.013  0.041   -0.034 -0.013 -0.009    0.005 -0.006 -0.003
 C          0.006 -0.002 -0.085    0.065 -0.063  0.084   -0.002  0.007  0.058
 C          0.033  0.040  0.079   -0.028  0.056  0.004    0.032 -0.065  0.024
 C          0.072 -0.076  0.026   -0.082 -0.003  0.095    0.041  0.010 -0.069
 C         -0.005 -0.024 -0.073    0.079 -0.112 -0.099    0.005  0.006 -0.027
 N         -0.002  0.039  0.003    0.006  0.040  0.006    0.004 -0.008  0.005
 H          0.070 -0.084 -0.132   -0.020 -0.057 -0.046   -0.003  0.071  0.007
 H         -0.363 -0.303  0.623    0.154  0.061 -0.487   -0.027  0.067 -0.438
 H          0.091  0.029  0.044    0.043 -0.042  0.034   -0.222  0.262 -0.053
 H          0.056 -0.135  0.037   -0.148  0.095 -0.109    0.096 -0.383  0.397
 H         -0.376 -0.014  0.344   -0.199  0.298  0.632   -0.106  0.078  0.170
 C         -0.071  0.073 -0.059    0.025  0.043 -0.084   -0.102  0.069  0.018
 H          0.033 -0.006 -0.118   -0.213  0.178 -0.017    0.449 -0.241 -0.161
 TransDip  -0.058 -0.089  0.065   -0.085 -0.009 -0.019   -0.001 -0.015  0.026

 Mode:                22                     23                     24
 Frequency:      1269.84                1311.34                1315.92
 Force Cnst:      1.4963                 1.7054                 2.0070
 Red. Mass:       1.5749                 1.6833                 1.9671
 IR Active:          YES                    YES                    YES
 IR Intens:        4.645                  9.865                  3.629
 Raman Active:       YES                    YES                    YES
               X      Y      Z        X      Y      Z        X      Y      Z
 C         -0.050 -0.058 -0.009    0.044  0.027 -0.002    0.064 -0.028  0.017
 C          0.042 -0.032  0.020   -0.184 -0.037 -0.074   -0.017 -0.009  0.039
 C         -0.104  0.116 -0.049    0.068  0.004  0.050   -0.003 -0.101  0.009
 C          0.039 -0.014 -0.009   -0.035  0.029 -0.013    0.046 -0.108  0.111
 C          0.035 -0.036  0.042    0.024  0.013 -0.043    0.013  0.177 -0.012
 N          0.056  0.006  0.022    0.021 -0.059  0.019   -0.024  0.001  0.006
 H         -0.077  0.622 -0.084    0.048  0.246 -0.042    0.084 -0.099 -0.012
 H          0.122  0.015 -0.044    0.690  0.405  0.217    0.104  0.108 -0.312
 H          0.260 -0.383  0.084    0.059  0.033  0.052   -0.107  0.084 -0.096
 H          0.033 -0.089  0.040   -0.013 -0.077  0.140   -0.058  0.303 -0.480
 H         -0.176 -0.456 -0.154   -0.305 -0.077  0.222   -0.419 -0.440 -0.199
 C         -0.054  0.048 -0.001    0.024 -0.015  0.006   -0.042  0.069 -0.070
 H          0.167 -0.071 -0.074   -0.058  0.032  0.036    0.006  0.030 -0.112
 TransDip  -0.004 -0.068  0.009    0.050  0.087 -0.001   -0.051  0.029  0.018

 Mode:                25                     26                     27
 Frequency:      1328.39                1370.94                1607.76
 Force Cnst:      1.7000                 2.1128                 9.9836
 Red. Mass:       1.6351                 1.9079                 6.5553
 IR Active:          YES                    YES                    YES
 IR Intens:       15.265                  1.759                 39.617
 Raman Active:       YES                    YES                    YES
               X      Y      Z        X      Y      Z        X      Y      Z
 C         -0.103 -0.063 -0.004   -0.009  0.041 -0.013   -0.244  0.464 -0.113
 C          0.001  0.092 -0.016   -0.053 -0.064 -0.004    0.059 -0.042  0.018
 C          0.060 -0.092  0.032    0.016  0.052  0.072   -0.016  0.011 -0.009
 C         -0.020 -0.020  0.027    0.104 -0.108  0.038    0.001 -0.026  0.027
 C         -0.035  0.012 -0.029   -0.127 -0.075  0.013    0.029  0.053 -0.028
 N          0.104 -0.019  0.026    0.041 -0.004  0.002    0.221 -0.339  0.093
 H         -0.132  0.771 -0.141   -0.016  0.065  0.018   -0.258 -0.452  0.027
 H         -0.258 -0.034 -0.002    0.315  0.139 -0.043   -0.224 -0.201 -0.005
 H         -0.231  0.288 -0.058    0.096  0.034  0.034    0.011 -0.050  0.023
 H         -0.014  0.145 -0.116    0.064  0.162 -0.332   -0.016  0.007 -0.025
 H          0.029  0.159  0.048    0.581  0.464 -0.197   -0.306 -0.255  0.024
 C          0.041 -0.027 -0.022   -0.081  0.089 -0.050   -0.025  0.015 -0.006
 H         -0.175  0.099  0.048    0.158 -0.046 -0.150    0.037  0.004 -0.013
 TransDip  -0.094  0.076 -0.034   -0.021  0.034  0.014    0.055  0.172 -0.090

 Mode:                28                     29                     30
 Frequency:      3063.15                3141.82                3162.20
 Force Cnst:      6.0323                 6.3444                 6.4285
 Red. Mass:       1.0912                 1.0909                 1.0911
 IR Active:          YES                    YES                    YES
 IR Intens:       19.867                  3.448                 25.422
 Raman Active:       YES                    YES                    YES
               X      Y      Z        X      Y      Z        X      Y      Z
 C         -0.002  0.001 -0.001   -0.000  0.001  0.000   -0.001 -0.001 -0.000
 C          0.042 -0.076 -0.009    0.000  0.001 -0.000    0.000 -0.000  0.000
 C         -0.000  0.003 -0.000    0.001 -0.001 -0.001    0.003  0.001  0.002
 C         -0.001  0.001  0.001   -0.066  0.039  0.037   -0.014  0.008  0.009
 C         -0.000  0.000 -0.000    0.011 -0.009  0.009   -0.051  0.049 -0.047
 N          0.000  0.000 -0.000    0.000 -0.000  0.000    0.000 -0.000  0.000
 H          0.037 -0.002  0.013    0.001  0.001 -0.000    0.017  0.001  0.005
 H         -0.472  0.867  0.126    0.006 -0.010 -0.001    0.002 -0.003 -0.000
 H         -0.015 -0.020 -0.015   -0.003 -0.004 -0.004   -0.029 -0.026 -0.029
 H          0.007 -0.005 -0.005    0.745 -0.441 -0.448    0.152 -0.087 -0.092
 H         -0.000  0.002 -0.001   -0.122  0.114 -0.109    0.588 -0.560  0.540
 C         -0.000  0.001 -0.000    0.002 -0.000 -0.001    0.000 -0.001  0.000
 H          0.002 -0.003  0.004   -0.005 -0.021  0.033   -0.001 -0.004  0.006
 TransDip   0.069 -0.123 -0.022   -0.056 -0.006  0.018   -0.113  0.090 -0.072

 Mode:                31                     32                     33
 Frequency:      3213.64                3276.50                3325.26
 Force Cnst:      6.6500                 6.9217                 7.1301
 Red. Mass:       1.0929                 1.0943                 1.0944
 IR Active:          YES                    YES                    YES
 IR Intens:       19.406                  0.485                  0.887
 Raman Active:       YES                    YES                    YES
               X      Y      Z        X      Y      Z        X      Y      Z
 C         -0.083 -0.005 -0.027    0.002 -0.000  0.001   -0.001 -0.000 -0.000
 C         -0.000  0.004  0.000    0.004 -0.003  0.001   -0.001  0.000  0.001
 C         -0.000 -0.001 -0.001   -0.053 -0.051 -0.049    0.002  0.002  0.004
 C          0.000 -0.000 -0.000   -0.001  0.000  0.000    0.005 -0.004 -0.001
 C          0.002 -0.001  0.000   -0.001  0.006 -0.002   -0.000 -0.001  0.001
 N          0.001 -0.002  0.001    0.000  0.001  0.000    0.000 -0.000  0.000
 H          0.939  0.072  0.321   -0.015 -0.002 -0.006    0.008  0.001  0.002
 H          0.012 -0.035 -0.004   -0.015  0.022  0.000    0.004 -0.004 -0.004
 H          0.011  0.012  0.011    0.577  0.579  0.565   -0.026 -0.025 -0.027
 H         -0.003  0.002  0.002    0.010 -0.005 -0.008   -0.028  0.017  0.013
 H         -0.010  0.009 -0.007    0.025 -0.028  0.023   -0.001  0.000 -0.000
 C          0.000 -0.000  0.000    0.001  0.002 -0.002    0.005  0.053 -0.071
 H         -0.001  0.005 -0.006   -0.003 -0.029  0.038   -0.078 -0.586  0.800
 TransDip  -0.140 -0.009 -0.013   -0.017 -0.014  0.004   -0.025  0.013 -0.010

 STANDARD THERMODYNAMIC QUANTITIES AT   298.15 K  AND     1.00 ATM

   This Molecule has  2 Imaginary Frequencies
   Zero point vibrational energy:       62.296 kcal/mol

   Atom    1 Element C  Has Mass   12.00000
   Atom    2 Element C  Has Mass   12.00000
   Atom    3 Element C  Has Mass   12.00000
   Atom    4 Element C  Has Mass   12.00000
   Atom    5 Element C  Has Mass   12.00000
   Atom    6 Element N  Has Mass   14.00307
   Atom    7 Element H  Has Mass    1.00783
   Atom    8 Element H  Has Mass    1.00783
   Atom    9 Element H  Has Mass    1.00783
   Atom   10 Element H  Has Mass    1.00783
   Atom   11 Element H  Has Mass    1.00783
   Atom   12 Element C  Has Mass   12.00000
   Atom   13 Element H  Has Mass    1.00783
   Molecular Mass:    92.050050 amu
   Principal axes and moments of inertia in amu*Bohr^2:
                             1           2           3
    Eigenvalues --      372.28450   458.70595   575.07503
          X               0.73680    -0.65838     0.15380
          Y               0.54005     0.70997     0.45199
          Z              -0.40677    -0.24996     0.87867
   Rotational Symmetry Number is   1
   The Molecule is an Asymmetric Top
   Translational Enthalpy:        0.889 kcal/mol
   Rotational Enthalpy:           0.889 kcal/mol
   Vibrational Enthalpy:         63.401 kcal/mol
   gas constant (RT):             0.592 kcal/mol
   Translational Entropy:        39.471  cal/mol.K
   Rotational Entropy:           26.088  cal/mol.K
   Vibrational Entropy:           4.935  cal/mol.K

   Total Enthalpy:               65.771 kcal/mol
   Total Entropy:                70.493  cal/mol.K
Archival summary:
1\1\c8-66\FREQ\ProcedureUnspecified\6-31G*\166(2)\hpark21\ThuMar311:25:382022ThuMar311:25:382022\0\\#,FREQ,ProcedureUnspecified,6-31G*,\\0,2\N\C,1,1.29183\H,2,1.08618,1,121.645\C,1,1.4502,2,104.926,3,-168.361,0\H,4,1.09018,1,116.195,2,-155.591,0\C,4,1.4872,1,111.062,2,-17.4669,0\H,6,1.07996,4,132.327,1,-143.6,0\C,6,1.49929,4,99.1048,1,27.9693,0\H,8,1.10072,6,123.405,4,-161.512,0\C,4,1.53216,1,114.068,2,63.2384,0\H,10,1.09335,4,119.683,1,110.726,0\C,10,1.42649,4,111.067,1,-52.2365,0\H,12,1.07481,10,131.33,4,178.711,0\\\@

 Total job time:  267.56s(wall), 260.83s(cpu) 
 Thu Mar  3 11:25:38 2022

        *************************************************************
        *                                                           *
        *  Thank you very much for using Q-Chem.  Have a nice day.  *
        *                                                           *
        *************************************************************


