13
image # 1 Energy = -286.82496
C 1.31198   0.30246   0.24185   
C 0.60678   -1.00073  -0.18273  
C -0.68800  -0.46527  -0.84427  
C -1.07826  0.19103   0.45065   
C -0.51918  1.05940   -0.69249  
N 0.82905   1.42317   -0.47140  
H 2.34857   0.28927   0.56033   
H 1.12220   -1.93518  -0.37455  
H -1.29510  -0.93642  -1.60917  
H -2.05245  0.33603   0.90403   
H -1.16541  1.74208   -1.23318  
C 0.21679   -0.34454  1.11217   
H 0.36302   -0.66130  2.13876   
13
image # 2 Energy = -286.82234
C 1.33229   0.30661   0.22437   
C 0.62773   -0.99877  -0.18944  
C -0.68715  -0.46920  -0.83338  
C -1.09350  0.20487   0.46159   
C -0.52269  1.05483   -0.68458  
N 0.82400   1.42770   -0.46564  
H 2.37435   0.31085   0.50982   
H 1.15636   -1.91755  -0.39055  
H -1.27189  -0.96279  -1.59451  
H -2.05205  0.40758   0.93787   
H -1.16331  1.71979   -1.24460  
C 0.20032   -0.36403  1.12090   
H 0.27295   -0.72169  2.13586   
13
image # 3 Energy = -286.81520
C 1.35288   0.31874   0.19784   
C 0.64039   -0.98934  -0.18520  
C -0.68547  -0.47296  -0.82267  
C -1.10193  0.21749   0.47183   
C -0.52538  1.04710   -0.67286  
N 0.82080   1.42801   -0.45500  
H 2.40353   0.33596   0.45578   
H 1.19503   -1.89892  -0.40593  
H -1.24702  -0.99273  -1.57800  
H -2.04645  0.49144   0.97603   
H -1.16220  1.69504   -1.25842  
C 0.17885   -0.38811  1.12600   
H 0.17148   -0.79589  2.12763   
13
image # 4 Energy = -286.80633
C 1.36403   0.32654   0.17561   
C 0.63770   -0.97157  -0.17384  
C -0.66938  -0.48331  -0.81009  
C -1.10849  0.22909   0.49914   
C -0.52427  1.03929   -0.66732  
N 0.81873   1.43302   -0.44736  
H 2.43237   0.36050   0.40660   
H 1.22559   -1.87345  -0.41266  
H -1.23273  -1.02515  -1.57102  
H -2.01219  0.56484   1.00076   
H -1.16383  1.67278   -1.26859  
C 0.14573   -0.40353  1.12285   
H 0.07810   -0.87590  2.11621   
13
image # 5 Energy = -286.79714
C 1.38556   0.34377   0.13716   
C 0.66173   -0.95472  -0.17295  
C -0.66860  -0.49563  -0.80731  
C -1.09877  0.25021   0.50545   
C -0.52612  1.02349   -0.65833  
N 0.81974   1.43449   -0.43744  
H 2.45451   0.38124   0.36486   
H 1.25017   -1.85440  -0.41320  
H -1.21331  -1.04786  -1.55361  
H -1.99493  0.63613   1.03779   
H -1.16464  1.65223   -1.27463  
C 0.08928   -0.43450  1.14416   
H -0.00508  -0.94566  2.09494   
13
image # 6 Energy = -286.79867
C 1.42587   0.37841   0.05984   
C 0.68381   -0.93006  -0.16049  
C -0.65509  -0.49964  -0.80117  
C -1.10892  0.27678   0.52294   
C -0.52245  1.01250   -0.65948  
N 0.82628   1.42827   -0.42168  
H 2.47017   0.39962   0.33297   
H 1.26631   -1.83735  -0.40309  
H -1.20256  -1.07173  -1.54004  
H -1.96880  0.69184   1.06543   
H -1.16462  1.63192   -1.27281  
C 0.01762   -0.47914  1.16066   
H -0.08165  -1.01591  2.08135   
13
image # 7 Energy = -286.81223
C 1.48481   0.40266   -0.06571  
C 0.69621   -0.89635  -0.11968  
C -0.64090  -0.49388  -0.80663  
C -1.09968  0.28743   0.54379   
C -0.51042  0.99571   -0.66255  
N 0.83168   1.44695   -0.41294  
H 2.49285   0.42122   0.31046   
H 1.26471   -1.80672  -0.37454  
H -1.19561  -1.09268  -1.52396  
H -1.94165  0.73476   1.08429   
H -1.16739  1.61734   -1.26685  
C -0.07571  -0.53668  1.18163   
H -0.15605  -1.09747  2.07597   
13
image # 8 Energy = -286.81044
C 1.52028   0.40371   -0.13226  
C 0.71342   -0.87588  -0.11497  
C -0.61348  -0.49688  -0.81115  
C -1.11140  0.30991   0.57108   
C -0.51043  0.99146   -0.65680  
N 0.83161   1.46483   -0.42295  
H 2.52371   0.44953   0.27568   
H 1.27594   -1.78848  -0.35115  
H -1.17934  -1.11094  -1.49979  
H -1.92619  0.79467   1.11385   
H -1.16548  1.59911   -1.26167  
C -0.13821  -0.58449  1.18380   
H -0.24049  -1.17702  2.06961   
13
image # 9 Energy = -286.79939
C 1.53206   0.41885   -0.17043  
C 0.73990   -0.87079  -0.13497  
C -0.57923  -0.50081  -0.80523  
C -1.12007  0.33518   0.60399   
C -0.50967  0.97839   -0.64056  
N 0.83922   1.46152   -0.42924  
H 2.54953   0.47300   0.24454   
H 1.29455   -1.78744  -0.33621  
H -1.16504  -1.12840  -1.47769  
H -1.92041  0.85321   1.14958   
H -1.16733  1.58846   -1.26357  
C -0.20987  -0.61326  1.17191   
H -0.30615  -1.23137  2.05356   
13
image # 10 Energy = -286.78951
C 1.55925   0.42279   -0.18955  
C 0.74810   -0.85369  -0.13953  
C -0.53336  -0.50454  -0.83015  
C -1.12397  0.37233   0.64733   
C -0.51483  0.97049   -0.62246  
N 0.83778   1.46633   -0.44870  
H 2.56989   0.50471   0.19452   
H 1.31407   -1.79688  -0.30989  
H -1.14589  -1.14672  -1.44365  
H -1.91466  0.91554   1.18699   
H -1.16797  1.57274   -1.25800  
C -0.27626  -0.66087  1.16199   
H -0.37670  -1.28859  2.02056   
13
image # 11 Energy = -286.81054
C 1.56369   0.42716   -0.19901  
C 0.76314   -0.85641  -0.13239  
C -0.47301  -0.51317  -0.89714  
C -1.10944  0.41374   0.71047   
C -0.53297  0.96024   -0.60558  
N 0.83697   1.47007   -0.46173  
H 2.59055   0.53222   0.14931   
H 1.31931   -1.80045  -0.27839  
H -1.13218  -1.16746  -1.40621  
H -1.91286  0.96889   1.22462   
H -1.16614  1.55602   -1.24744  
C -0.34547  -0.68340  1.12779   
H -0.42728  -1.33694  1.98888   
13
image # 12 Energy = -286.80698
C 1.55077   0.43315   -0.18989  
C 0.78014   -0.86813  -0.14126  
C -0.43166  -0.52507  -0.97899  
C -1.09651  0.45131   0.76457   
C -0.54867  0.95088   -0.59214  
N 0.82991   1.46910   -0.45676  
H 2.60595   0.54770   0.12743   
H 1.34472   -1.82720  -0.27540  
H -1.12080  -1.18809  -1.37738  
H -1.92195  1.01740   1.26952   
H -1.16037  1.53792   -1.24538  
C -0.41191  -0.69576  1.10680   
H -0.44805  -1.33723  1.96471   
13
image # 13 Energy = -286.80583
C 1.56593   0.44575   -0.19756  
C 0.78755   -0.86158  -0.09225  
C -0.43154  -0.53710  -0.94699  
C -1.06097  0.48907   0.78213   
C -0.54779  0.94366   -0.58683  
N 0.83044   1.47375   -0.48369  
H 2.61378   0.55971   0.09221   
H 1.32277   -1.80750  -0.23191  
H -1.11127  -1.20486  -1.38054  
H -1.91017  1.03065   1.28732   
H -1.17242  1.53337   -1.23302  
C -0.41456  -0.71654  1.04432   
H -0.50136  -1.38280  1.92449   
13
image # 14 Energy = -286.80851
C 1.56491   0.45613   -0.19327  
C 0.84926   -0.84590  -0.12884  
C -0.42891  -0.61164  -0.82695  
C -1.07385  0.54212   0.78606   
C -0.56014  0.93624   -0.58179  
N 0.82983   1.45949   -0.47261  
H 2.60368   0.52926   0.11899   
H 1.32075   -1.81972  -0.24651  
H -1.11656  -1.19560  -1.39351  
H -1.91707  1.02325   1.31081   
H -1.17065  1.53884   -1.23558  
C -0.43644  -0.70246  0.96097   
H -0.49361  -1.34315  1.88214   
13
image # 15 Energy = -286.79188
C 1.57271   0.41432   -0.18840  
C 0.91823   -0.85993  -0.29539  
C -0.44824  -0.63305  -0.72509  
C -1.16094  0.52599   0.74986   
C -0.55859  0.93109   -0.57743  
N 0.80994   1.45871   -0.40463  
H 2.58092   0.50146   0.18708   
H 1.37202   -1.83484  -0.32783  
H -1.11722  -1.17718  -1.37661  
H -1.90762  1.06177   1.31889   
H -1.14704  1.53221   -1.27540  
C -0.52554  -0.66942  0.99358   
H -0.41546  -1.28057  1.90576   
13
image # 16 Energy = -286.80850
C 1.57889   0.39131   -0.19246  
C 0.96891   -0.86805  -0.38985  
C -0.43487  -0.64656  -0.66571  
C -1.20616  0.55092   0.76078   
C -0.56158  0.90380   -0.55910  
N 0.79038   1.45355   -0.36510  
H 2.58042   0.49726   0.21288   
H 1.40657   -1.84745  -0.35748  
H -1.11064  -1.18568  -1.35000  
H -1.89689  1.11378   1.35329   
H -1.13506  1.51987   -1.29636  
C -0.61669  -0.65481  0.96650   
H -0.39047  -1.25466  1.87076   
13
image # 17 Energy = -286.82308
C 1.58738   0.39743   -0.19933  
C 0.99673   -0.87260  -0.42418  
C -0.43375  -0.65635  -0.63584  
C -1.22547  0.56100   0.77018   
C -0.56992  0.90431   -0.55856  
N 0.78952   1.43688   -0.34205  
H 2.59954   0.51340   0.18342   
H 1.45603   -1.84933  -0.38172  
H -1.07930  -1.19040  -1.34493  
H -1.86874  1.16261   1.39184   
H -1.12629  1.49390   -1.29235  
C -0.68321  -0.65660  0.96853   
H -0.46990  -1.26871  1.85653   
13
image # 18 Energy = -286.83782
C 1.59647   0.39521   -0.20314  
C 1.02302   -0.87152  -0.44561  
C -0.41657  -0.67148  -0.60804  
C -1.23228  0.58287   0.78921   
C -0.57192  0.89152   -0.53868  
N 0.78769   1.43667   -0.33765  
H 2.61977   0.53203   0.14035   
H 1.49296   -1.84554  -0.39155  
H -1.04776  -1.19610  -1.33863  
H -1.84098  1.20135   1.42674   
H -1.12612  1.47643   -1.28982  
C -0.74534  -0.66002  0.95614   
H -0.56619  -1.29329  1.83535   
13
image # 19 Energy = -286.84852
C 1.60132   0.40406   -0.21073  
C 1.04911   -0.87599  -0.45446  
C -0.40451  -0.67849  -0.58167  
C -1.23173  0.59819   0.81290   
C -0.56876  0.88340   -0.52601  
N 0.78861   1.43454   -0.34039  
H 2.64329   0.55116   0.09152   
H 1.52271   -1.83434  -0.39443  
H -1.01599  -1.20299  -1.33347  
H -1.81284  1.23234   1.45669   
H -1.12612  1.45812   -1.28145  
C -0.80017  -0.66452  0.94194   
H -0.67147  -1.32472  1.81624   
13
image # 20 Energy = -286.85787
C 1.61923   0.40735   -0.22797  
C 1.06558   -0.85787  -0.45329  
C -0.39146  -0.69261  -0.55839  
C -1.22242  0.60837   0.83475   
C -0.56373  0.87720   -0.51079  
N 0.78656   1.43848   -0.34493  
H 2.66466   0.57217   0.03590   
H 1.55654   -1.82976  -0.39192  
H -0.98168  -1.20993  -1.32406  
H -1.78338  1.26270   1.48983   
H -1.12613  1.43821   -1.27108  
C -0.85955  -0.67357  0.93325   
H -0.78893  -1.35759  1.78680   
13
image # 21 Energy = -286.86378
C 1.62580   0.41816   -0.24675  
C 1.08603   -0.85609  -0.44275  
C -0.37992  -0.70159  -0.53702  
C -1.21650  0.61855   0.85554   
C -0.55869  0.87013   -0.49236  
N 0.79418   1.44164   -0.34891  
H 2.68581   0.59211   -0.01973  
H 1.58145   -1.81242  -0.38935  
H -0.95207  -1.21985  -1.31855  
H -1.75193  1.28293   1.51594   
H -1.12810  1.42129   -1.26321  
C -0.90354  -0.68066  0.92783   
H -0.90436  -1.38902  1.75828   
13
image # 22 Energy = -286.86874
C 1.63690   0.42791   -0.26987  
C 1.10300   -0.84988  -0.43030  
C -0.37493  -0.70378  -0.51775  
C -1.21482  0.62777   0.87245   
C -0.54565  0.86616   -0.47394  
N 0.79914   1.44731   -0.34991  
H 2.70718   0.61653   -0.08475  
H 1.61736   -1.79973  -0.38517  
H -0.91800  -1.23736  -1.30538  
H -1.71632  1.30698   1.55145   
H -1.12715  1.39468   -1.24928  
C -0.95132  -0.68767  0.92645   
H -1.03343  -1.42158  1.71666   
13
image # 23 Energy = -286.87255
C 1.65438   0.43824   -0.28966  
C 1.11545   -0.84330  -0.41715  
C -0.36422  -0.71153  -0.49579  
C -1.20999  0.63267   0.89260   
C -0.53576  0.86253   -0.45457  
N 0.80463   1.45308   -0.35138  
H 2.72119   0.63870   -0.14911  
H 1.64938   -1.78497  -0.38117  
H -0.88754  -1.25444  -1.29237  
H -1.68219  1.32597   1.58257   
H -1.12671  1.37053   -1.23677  
C -0.99664  -0.68574  0.91557   
H -1.15492  -1.45114  1.67809   
13
image # 24 Energy = -286.87373
C 1.67507   0.45009   -0.30998  
C 1.12861   -0.84539  -0.40536  
C -0.35610  -0.71430  -0.47585  
C -1.21221  0.65791   0.91057   
C -0.52457  0.85872   -0.43759  
N 0.80372   1.46014   -0.35077  
H 2.73120   0.65738   -0.20790  
H 1.67707   -1.76880  -0.37850  
H -0.85874  -1.27012  -1.27376  
H -1.64975  1.33664   1.60625   
H -1.12409  1.34647   -1.22223  
C -1.03467  -0.70930  0.91666   
H -1.26278  -1.46416  1.62973   
13
image # 25 Energy = -286.87550
C 1.68267   0.45874   -0.33883  
C 1.14264   -0.83559  -0.40146  
C -0.34521  -0.71804  -0.44793  
C -1.21324  0.64602   0.92618   
C -0.51546  0.85250   -0.41857  
N 0.80906   1.46029   -0.34524  
H 2.74654   0.67919   -0.26244  
H 1.71085   -1.75901  -0.37633  
H -0.83086  -1.29045  -1.24910  
H -1.62054  1.35682   1.63887   
H -1.11846  1.31857   -1.20747  
C -1.08345  -0.68487  0.90072   
H -1.36453  -1.48417  1.58161   
