
Running Job 1 of 1 qcirc.in
qchem qcirc.in_48823.0 ./qcirc.d/ 1
/home/leeping/opt/qchem/5.0.2-openmp/exe/qcprog.exe_s qcirc.in_48823.0 ./qcirc.d/
Check license passed

                  Welcome to Q-Chem
     A Quantum Leap Into The Future Of Chemistry


 Q-Chem 5.0, Q-Chem, Inc., Pleasanton, CA (2017)

 Yihan Shao,  Zhengting Gan,  E. Epifanovsky,  A. T. B. Gilbert,  M. Wormit,  
 J. Kussmann,  A. W. Lange,  A. Behn,  Jia Deng,  Xintian Feng,  D. Ghosh,  
 M. Goldey,  P. R. Horn,  L. D. Jacobson,  I. Kaliman,  T. Kus,  A. Landau,  
 Jie Liu,  E. I. Proynov,  R. M. Richard,  R. P. Steele,  E. J. Sundstrom,  
 H. L. Woodcock III,  P. M. Zimmerman,  D. Zuev,  B. Albrecht,  E. Alguire,  
 S. A. Baeppler,  D. Barton,  Z. Benda,  Y. A. Bernard,  E. J. Berquist,  
 K. B. Bravaya,  H. Burton,  D. Casanova,  Chun-Min Chang,  Yunqing Chen,  
 A. Chien,  K. D. Closser,  M. P. Coons,  S. Dasgupta,  A. L. Dempwolff,  
 M. Diedenhofen,  Hainam Do,  R. G. Edgar,  Po-Tung Fang,  S. Fatehi,  
 Qingguo Feng,  J. Fosso-Tande,  Qinghui Ge,  A. Ghysels,  G. Gidofalvi,  
 J. Gomes,  J. Gonthier,  A. Gunina,  M. W. D. Hanson-Heine,  
 P. H. P. Harbach,  A. W. Hauser,  J. E. Herr,  E. G. Hohenstein,  
 Z. C. Holden,  Kerwin Hui,  T.-C. Jagau,  Hyunjun Ji,  B. Kaduk,  
 K. Khistyaev,  Jaehoon Kim,  P. Klunzinger,  K. Koh,  D. Kosenkov,  
 L. Koulias,  T. Kowalczyk,  C. M. Krauter,  A. Kunitsa,  Ka Un Lao,  
 A. Laurent,  K. V. Lawler,  Joonho Lee,  D. Lefrancois,  S. Lehtola,  
 D. S. Levine,  Yi-Pei Li,  You-Sheng Lin,  Fenglai Liu,  E. Livshits,  
 A. Luenser,  P. Manohar,  E. Mansoor,  S. F. Manzer,  Shan-Ping Mao,  
 Yuezhi Mao,  N. Mardirossian,  A. V. Marenich,  T. Markovich,  
 L. A. Martinez-Martinez,  S. A. Maurer,  N. J. Mayhall,  S. C. McKenzie,  
 J.-M. Mewes,  A. F. Morrison,  J. W. Mullinax,  K. Nanda,  
 T. S. Nguyen-Beck,  R. Olivares-Amaya,  J. A. Parkhill,  T. M. Perrine,  
 F. Plasser,  S. Prager,  A. Prociuk,  E. Ramos,  D. R. Rehn,  F. Rob,  
 M. Schneider,  N. Sergueev,  S. M. Sharada,  S. Sharma,  D. W. Small,  
 T. Stauch,  T. Stein,  Yu-Chuan Su,  A. J. W. Thom,  A. Tkatchenko,  
 T. Tsuchimochi,  L. Vogt,  O. Vydrov,  M. A. Watson,  J. Wenzel,  
 M. de Wergifosse,  T. A. Wesolowski,  A. White,  J. Witte,  A. Yamada,  
 Jun Yang,  K. Yao,  S. Yeganeh,  S. R. Yost,  Zhi-Qiang You,  A. Zech,  
 Igor Ying Zhang,  Xing Zhang,  Yan Zhao,  Ying Zhu,  B. R. Brooks,  
 G. K. L. Chan,  C. J. Cramer,  M. S. Gordon,  W. J. Hehre,  A. Klamt,  
 M. W. Schmidt,  C. D. Sherrill,  D. G. Truhlar,  A. Aspuru-Guzik,  R. Baer,  
 A. T. Bell,  N. A. Besley,  Jeng-Da Chai,  R. A. DiStasio Jr.,  A. Dreuw,  
 B. D. Dunietz,  T. R. Furlani,  Chao-Ping Hsu,  Yousung Jung,  Jing Kong,  
 D. S. Lambrecht,  WanZhen Liang,  C. Ochsenfeld,  V. A. Rassolov,  
 L. V. Slipchenko,  J. E. Subotnik,  T. Van Voorhis,  J. M. Herbert,  
 A. I. Krylov,  P. M. W. Gill,  M. Head-Gordon

 Contributors to earlier versions of Q-Chem not listed above: 
 R. D. Adamson,  B. Austin,  J. Baker,  G. J. O. Beran,  K. Brandhorst,  
 S. T. Brown,  E. F. C. Byrd,  A. K. Chakraborty,  C.-L. Cheng,  
 Siu Hung Chien,  D. M. Chipman,  D. L. Crittenden,  H. Dachsel,  
 R. J. Doerksen,  A. D. Dutoi,  L. Fusti-Molnar,  W. A. Goddard III,  
 A. Golubeva-Zadorozhnaya,  S. R. Gwaltney,  G. Hawkins,  A. Heyden,  
 S. Hirata,  G. Kedziora,  F. J. Keil,  C. Kelley,  Jihan Kim,  R. A. King,  
 R. Z. Khaliullin,  P. P. Korambath,  W. Kurlancheek,  A. M. Lee,  M. S. Lee,  
 S. V. Levchenko,  Ching Yeh Lin,  D. Liotard,  R. C. Lochan,  I. Lotan,  
 P. E. Maslen,  N. Nair,  D. P. O'Neill,  D. Neuhauser,  E. Neuscamman,  
 C. M. Oana,  R. Olson,  B. Peters,  R. Peverati,  P. A. Pieniazek,  
 Y. M. Rhee,  J. Ritchie,  M. A. Rohrdanz,  E. Rosta,  N. J. Russ,  
 H. F. Schaefer III,  N. E. Schultz,  N. Shenvi,  A. C. Simmonett,  A. Sodt,  
 D. Stuck,  K. S. Thanthiriwatte,  V. Vanovschi,  Tao Wang,  A. Warshel,  
 C. F. Williams,  Q. Wu,  X. Xu,  W. Zhang

 Please cite Q-Chem as follows:
 Y. Shao et al., Mol. Phys. 113, 184-215 (2015)
 DOI: 10.1080/00268976.2014.952696

 Q-Chem 5.0.2 for Intel X86 EM64T Linux

 Parts of Q-Chem use Armadillo 5.200.1 (Boston Tea Smuggler).
 http://arma.sourceforge.net/

 Q-Chem begins on Tue Mar  1 18:41:52 2022  

Host: 
0

     Scratch files written to ./qcirc.d//
 Dec517 15110_ 26548  26544 5633   
Processing $rem in /home/leeping/opt/qchem/5.0.2-openmp/config/preferences.
 MEM_STATIC 2000
 MEM_TOTAL  8000
 SYMMETRY   OFF
 SYM_IGNORE TRUE 

Checking the input file for inconsistencies... 	...done.

--------------------------------------------------------------
User input:
--------------------------------------------------------------
$molecule
0 2
C        1.1539367683    0.1570357881    0.4046694211
C        0.8941989954   -0.9692349787   -0.5897704539
C       -0.5040175243   -1.0156314701   -0.4941168848
C       -1.0885210295    0.2942758132    0.0493381493
C       -0.3639745787    1.4982520023   -0.5020977489
N        0.8996541443    1.4615896558   -0.2906230978
H        2.0972965999    0.1577065598    0.9474539008
H        1.5809855740   -1.6286134427   -1.1003544089
H       -1.1629887050   -1.8263835181   -0.7933047980
H       -2.1653977568    0.3135143494    0.1975884463
H       -0.8334022982    2.2973513379   -1.0718682761
C       -0.1717451210   -0.1580714850    1.1411728921
H       -0.3786728435   -0.6024897013    2.1037988077
$end

$rem
method                b3lyp
basis                 6-31+g(d,p)
unrestricted          true
symmetry              off
sym_ignore            true
incdft                false
incfock               0
scf_convergence       8
thresh                14
jobtype               rpath
scf_guess             core
scf_guess_mix         5
scf_algorithm         diis
max_scf_cycles        100
rpath_direction       1
rpath_tol_displacement 1000
rpath_max_cycles      50
geom_opt_max_cycles   300
geom_opt_hessian      read
$end

--------------------------------------------------------------
 ----------------------------------------------------------------
             Standard Nuclear Orientation (Angstroms)
    I     Atom           X                Y                Z
 ----------------------------------------------------------------
    1      C       1.1539367683     0.1570357881     0.4046694211
    2      C       0.8941989954    -0.9692349787    -0.5897704539
    3      C      -0.5040175243    -1.0156314701    -0.4941168848
    4      C      -1.0885210295     0.2942758132     0.0493381493
    5      C      -0.3639745787     1.4982520023    -0.5020977489
    6      N       0.8996541443     1.4615896558    -0.2906230978
    7      H       2.0972965999     0.1577065598     0.9474539008
    8      H       1.5809855740    -1.6286134427    -1.1003544089
    9      H      -1.1629887050    -1.8263835181    -0.7933047980
   10      H      -2.1653977568     0.3135143494     0.1975884463
   11      H      -0.8334022982     2.2973513379    -1.0718682761
   12      C      -0.1717451210    -0.1580714850     1.1411728921
   13      H      -0.3786728435    -0.6024897013     2.1037988077
 ----------------------------------------------------------------
 Nuclear Repulsion Energy =   280.5548231697 hartrees
 There are       25 alpha and       24 beta electrons
 Requested basis set is 6-31+G(d,p)
 There are 53 shells and 163 basis functions

 Total QAlloc Memory Limit   8000 MB
 Mega-Array Size      1956 MB
 MEM_STATIC part      2000 MB
 Starting direction for rxn path = 1

                       Distance Matrix (Angstroms)
             C (  1)   C (  2)   C (  3)   C (  4)   C (  5)   N (  6)
   C (  2)  1.524749
   C (  3)  2.220761  1.402252
   C (  4)  2.274580  2.436411  1.533899
   C (  5)  2.219266  2.771133  2.517794  1.509506
   N (  6)  1.499984  2.449169  2.854528  2.330458  1.281727
   H (  7)  1.088367  2.253996  3.197137  3.312808  3.155332  2.160392
   H (  8)  2.374028  1.080348  2.256216  3.485048  3.730693  3.266379
   H (  9)  3.276773  2.237890  1.086773  2.283153  3.431680  3.913816
   H ( 10)  3.329467  3.409767  2.237246  1.087204  2.266780  3.309225
   H ( 11)  3.272710  3.726608  3.379075  2.309654  1.087916  2.076614
   C ( 12)  1.548923  2.188695  1.876163  1.495727  2.341089  2.412724
   H ( 13)  2.410977  3.001670  2.633546  2.351357  3.347242  3.409956
             H (  7)   H (  8)   H (  9)   H ( 10)   H ( 11)   C ( 12)
   H (  8)  2.766050
   H (  9)  4.194796  2.768174
   H ( 10)  4.330951  4.414964  2.562393
   H ( 11)  4.152678  4.609043  4.146253  2.705798
   C ( 12)  2.299085  3.202968  2.740079  2.255526  3.371119
   H ( 13)  2.836451  3.893557  3.241339  2.768589  4.324433  1.080266

 
 A cutoff of  1.0D-14 yielded   1404 shell pairs
 There are     13506 function pairs
 
 -------------------------------------------------------
 OpenMP Integral Computing Module                       
 Release: version 1.0, May 2013, Q-Chem Inc. Pittsburgh 
 -------------------------------------------------------
 Integral Job Info:
 Integral job number is                      11
 Integral operator is                         1
 short-range coefficients                     0
 long-range coefficients              100000000
 Omega coefficients                           0
 if combine SR and LR in K                    0
 Integral screening is                        0
 Integral computing path is                   2
 max size of driver memory is            800000
 size of driver memory is                593474
 size of scratch memory is              2361544
 max col of scratch BK array               1296
 max len of scratch array in speh3          155
 max len of scratch index in speh4           18
 max int batch size is                      520
 min int batch size is                       52
 fixed nKL is                                52
 max L of basis functions is                  2
 order of int derivative is                   0
 number of shells is                         53
 number of basis is                         163
 number of cartesian basis is               163
 number of contracted shell pairs          1404
 number of primitive shell pairs           4827
 maxK2 (contraction) of shell pair           36
 max number of K2 of shell pair               1
 max number of CS2 of shell pair            126
 max number of PS2 of shell pair            696
 mem total for path MDJ                  535308
 -------------------------------------------------------
 Smallest overlap matrix eigenvalue = 2.30E-05

 Scale SEOQF with 1.000000e-01/1.000000e-01/1.000000e-01

 Standard Electronic Orientation quadrupole field applied
 Nucleus-field energy     =     0.0000000028 hartrees
 Guess MOs from core Hamiltonian diagonalization
 Mixing HOMO and LUMO in initial guess
 Adding  50% of the LUMO to the HOMO
 An unrestricted hybrid HF-DFT SCF calculation will be
 performed using Pulay DIIS extrapolation
 Exchange:     0.2000 Hartree-Fock + 0.0800 Slater + 0.7200 B88
 Correlation:  0.1900 VWN1RPA + 0.8100 LYP
 Using SG-1 standard quadrature grid
 SCF converges when DIIS error is below 1.0E-08
 using 4 threads for integral computing
 -------------------------------------------------------
 OpenMP Integral computing Module                
 Release: version 1.0, May 2013, Q-Chem Inc. Pittsburgh 
 -------------------------------------------------------
 -------------------------------------------------------
 OpenMP BLAS3 based DFT computing Module                
 Release: version 1.0, May 2013, Q-Chem Inc. Pittsburgh 
 -------------------------------------------------------
 ---------------------------------------
  Cycle       Energy         DIIS Error
 ---------------------------------------
    1    -236.0590160141      9.84E-02
    2    -213.7417590848      7.17E-02
    3    -256.0808015122      7.15E-02
    4    -276.3210976288      5.20E-02
    5    -273.0854427515      5.32E-02
    6    -282.9202408279      2.78E-02
    7    -285.3620401729      1.88E-02
    8    -286.0388512528      1.28E-02
    9    -286.7659163614      3.41E-03
   10    -286.8009351605      3.32E-03
   11    -286.8393145320      6.12E-04
   12    -286.8422609085      4.49E-04
   13    -286.8434860630      1.47E-04
   14    -286.8437697626      8.04E-05
   15    -286.8438328544      3.32E-05
   16    -286.8438628930      7.93E-06
   17    -286.8438702099      4.69E-06
   18    -286.8438725065      2.64E-06
   19    -286.8438735770      4.63E-07
   20    -286.8438737580      1.93E-07
   21    -286.8438738170      7.93E-08
   22    -286.8438738338      3.98E-08
   23    -286.8438738374      1.18E-08
   24    -286.8438738380      5.80E-09 Convergence criterion met
 ---------------------------------------
 <S^2> = 0.7808
 SCF time:  CPU 125.19 s  wall 66.35 s
 SCF   energy in the final basis set = -286.84387384
 Total energy in the final basis set = -286.84387384
 
 --------------------------------------------------------------
 
                    Orbital Energies (a.u.)
 --------------------------------------------------------------
 
 Alpha MOs
 -- Occupied --
-14.334 -10.234 -10.231 -10.228 -10.225 -10.223 -10.199  -0.969
 -0.850  -0.750  -0.690  -0.601  -0.587  -0.546  -0.524  -0.474
 -0.436  -0.418  -0.409  -0.387  -0.351  -0.307  -0.287  -0.266
 -0.152
 -- Virtual --
 -0.025  -0.009   0.000   0.020   0.026   0.031   0.048   0.048
  0.068   0.071   0.074   0.091   0.103   0.106   0.109   0.115
  0.123   0.129   0.143   0.154   0.167   0.177   0.183   0.185
  0.190   0.199   0.208   0.211   0.228   0.233   0.241   0.246
  0.258   0.268   0.280   0.289   0.301   0.318   0.330   0.353
  0.373   0.385   0.414   0.459   0.617   0.654   0.691   0.698
  0.699   0.715   0.725   0.738   0.752   0.758   0.787   0.795
  0.799   0.816   0.863   0.899   0.913   0.934   0.972   0.986
  1.009   1.015   1.036   1.063   1.088   1.117   1.133   1.162
  1.187   1.255   1.289   1.299   1.384   1.419   1.436   1.517
  1.530   1.610   1.616   1.712   1.717   1.775   1.801   1.832
  1.887   1.916   1.945   1.991   1.999   2.077   2.115   2.137
  2.150   2.221   2.231   2.262   2.278   2.359   2.370   2.379
  2.403   2.420   2.472   2.489   2.500   2.517   2.524   2.554
  2.579   2.595   2.627   2.648   2.684   2.745   2.760   2.774
  2.825   2.875   2.956   3.059   3.110   3.294   3.311   3.337
  3.476   3.625   3.692   4.154   4.388   4.473   4.575   4.639
  4.713   4.851
 
 Beta MOs
 -- Occupied --
-14.334 -10.236 -10.232 -10.228 -10.225 -10.214 -10.189  -0.965
 -0.844  -0.743  -0.680  -0.597  -0.577  -0.544  -0.516  -0.469
 -0.432  -0.413  -0.407  -0.385  -0.346  -0.291  -0.277  -0.262
 -- Virtual --
 -0.043  -0.020  -0.001   0.002   0.020   0.027   0.035   0.048
  0.049   0.070   0.072   0.078   0.092   0.103   0.105   0.110
  0.116   0.128   0.130   0.144   0.155   0.167   0.177   0.184
  0.189   0.191   0.202   0.210   0.216   0.232   0.235   0.243
  0.247   0.261   0.272   0.281   0.291   0.304   0.322   0.331
  0.357   0.376   0.388   0.420   0.462   0.620   0.661   0.692
  0.703   0.708   0.734   0.742   0.745   0.753   0.768   0.791
  0.797   0.804   0.819   0.864   0.903   0.914   0.936   0.974
  0.988   1.010   1.020   1.039   1.067   1.091   1.121   1.140
  1.168   1.192   1.259   1.297   1.300   1.386   1.423   1.445
  1.521   1.537   1.617   1.620   1.718   1.722   1.780   1.806
  1.849   1.891   1.925   1.947   1.999   2.002   2.082   2.125
  2.138   2.158   2.229   2.235   2.270   2.285   2.362   2.374
  2.384   2.408   2.427   2.476   2.497   2.502   2.524   2.530
  2.558   2.589   2.601   2.631   2.654   2.690   2.749   2.763
  2.778   2.827   2.877   2.959   3.061   3.111   3.296   3.312
  3.338   3.477   3.629   3.695   4.154   4.394   4.479   4.588
  4.645   4.716   4.855
 --------------------------------------------------------------
 
          Ground-State Mulliken Net Atomic Charges

     Atom                 Charge (a.u.)    Spin (a.u.)
  --------------------------------------------------------
      1 C                     0.017089      -0.124138
      2 C                    -0.133327       0.738969
      3 C                    -0.139542      -0.230517
      4 C                    -0.018092      -0.032218
      5 C                    -0.063944       0.042183
      6 N                    -0.207011      -0.002884
      7 H                     0.130369       0.008320
      8 H                     0.138847      -0.030202
      9 H                     0.140541       0.012659
     10 H                     0.131571       0.003626
     11 H                     0.134890       0.001350
     12 C                    -0.278707       0.640914
     13 H                     0.147314      -0.028064
  --------------------------------------------------------
  Sum of atomic charges =    -0.000000
  Sum of spin   charges =     1.000000

 -----------------------------------------------------------------
                    Cartesian Multipole Moments
 -----------------------------------------------------------------
    Charge (ESU x 10^10)
                -0.0000
    Dipole Moment (Debye)
         X      -2.1835      Y      -1.8658      Z       0.6421
       Tot       2.9429
    Quadrupole Moments (Debye-Ang)
        XX     -39.7002     XY      -3.8505     YY     -44.0653
        XZ       2.0390     YZ       0.3106     ZZ     -41.6042
    Octopole Moments (Debye-Ang^2)
       XXX     -15.6662    XXY     -11.8728    XYY     -14.4839
       YYY     -23.7520    XXZ       3.5378    XYZ       4.0809
       YYZ      -3.2661    XZZ      -5.1567    YZZ      -8.5483
       ZZZ       9.5219
    Hexadecapole Moments (Debye-Ang^3)
      XXXX    -237.2364   XXXY     -10.6202   XXYY     -98.6551
      XYYY     -18.8163   YYYY    -320.8256   XXXZ       6.7905
      XXYZ       7.0212   XYYZ       6.0965   YYYZ       5.7538
      XXZZ     -68.8827   XYZZ      -2.6288   YYZZ     -76.4518
      XZZZ       4.4945   YZZZ      -2.5452   ZZZZ    -163.8789
 -----------------------------------------------------------------
 Calculating analytic gradient of the SCF energy
 Gradient of SCF Energy
            1           2           3           4           5           6
    1  -0.0000010   0.0000068   0.0000095  -0.0000009  -0.0000151  -0.0000156
    2   0.0000044   0.0000070  -0.0000034  -0.0000090  -0.0000004   0.0000098
    3  -0.0000039  -0.0000107  -0.0000069   0.0000064   0.0000105   0.0000037
            7           8           9          10          11          12
    1   0.0000033   0.0000056   0.0000117  -0.0000018  -0.0000241   0.0000054
    2   0.0000119   0.0000213  -0.0000052  -0.0000190  -0.0000007  -0.0000003
    3  -0.0000088  -0.0000160  -0.0000061   0.0000119   0.0000166   0.0000061
           13
    1   0.0000162
    2  -0.0000164
    3  -0.0000028
 Max gradient component =       2.415E-05
 RMS gradient           =       1.057E-05
 Gradient time:  CPU 17.51 s  wall 6.65 s
rPathMan2.  file_steps = 951
 ------------------------------------------------------------------------
 Reaction path following.  The coordinates are cartesian              
 Step   1 E=    -286.843874 |G|=  0.000066 S_lin= 0.0000 S_tot= 0.0000
 ------------------------------------------------------------------------
 IRC -- neg. force constant =  -0.199040015978609     
 IRC -- max trans/rot const =   6.115535252858081E-005
 In first_irc_step: ISign =            1
 ----------------------------------------------------------------
             Standard Nuclear Orientation (Angstroms)
    I     Atom           X                Y                Z
 ----------------------------------------------------------------
    1      C       1.1505784910     0.1575074621     0.4085527774
    2      C       0.8786713721    -0.9774475115    -0.5832816995
    3      C      -0.5028993988    -1.0162432448    -0.5350752241
    4      C      -1.0833202659     0.2772461222     0.0525759865
    5      C      -0.3636150766     1.4933071086    -0.5033128421
    6      N       0.8989076162     1.4624810909    -0.2913550787
    7      H       2.0982893294     0.1562916364     0.9442049194
    8      H       1.5767111756    -1.6293305379    -1.0949410444
    9      H      -1.1636923225    -1.8301797192    -0.8091468542
   10      H      -2.1623456592     0.3106748599     0.1979966408
   11      H      -0.8345546921     2.2954106928    -1.0694468507
   12      C      -0.1609782919    -0.1121492604     1.1762534096
   13      H      -0.3744000523    -0.6082677886     2.1088618088
 ----------------------------------------------------------------
 Nuclear Repulsion Energy =   280.0543676285 hartrees
 There are       25 alpha and       24 beta electrons

                       Distance Matrix (Angstroms)
             C (  1)   C (  2)   C (  3)   C (  4)   C (  5)   N (  6)
   C (  2)  1.531598
   C (  3)  2.236541  1.382956
   C (  4)  2.265251  2.414121  1.534711
   C (  5)  2.215545  2.766640  2.513613  1.518484
   N (  6)  1.502054  2.457414  2.858065  2.335016  1.280562
   H (  7)  1.088614  2.259657  3.213921  3.306399  3.153394  2.161309
   H (  8)  2.373789  1.083516  2.239220  3.468083  3.723675  3.265650
   H (  9)  3.284744  2.224728  1.083631  2.278216  3.432087  3.919699
   H ( 10)  3.323140  3.393735  2.247636  1.089294  2.264042  3.307173
   H ( 11)  3.270454  3.726003  3.370846  2.322457  1.088881  2.074630
   C ( 12)  1.543457  2.219364  1.965437  1.504990  2.332272  2.399311
   H ( 13)  2.408946  2.992343  2.678313  2.348407  3.352639  3.416190
             H (  7)   H (  8)   H (  9)   H ( 10)   H ( 11)   C ( 12)
   H (  8)  2.760182
   H (  9)  4.202480  2.762577
   H ( 10)  4.328241  4.406343  2.568055
   H ( 11)  4.151168  4.606349  4.146876  2.703446
   C ( 12)  2.286962  3.237241  2.810494  2.267430  3.360539
   H ( 13)  2.838163  3.887642  3.260495  2.773556  4.329519  1.077702

 
 Applying Cartesian multipole field
    Component          Value
    ---------          -----
     (2,0,0)        1.00000E-11
     (0,2,0)        2.00000E-11
     (0,0,2)       -3.00000E-11
 Nucleus-field energy     =     0.0000000027 hartrees
 Requested basis set is 6-31+G(d,p)
 There are 53 shells and 163 basis functions
 A cutoff of  1.0D-14 yielded   1405 shell pairs
 There are     13509 function pairs
 Smallest overlap matrix eigenvalue = 2.26E-05
 Guess MOs from core Hamiltonian diagonalization
 Mixing HOMO and LUMO in initial guess
 Adding  50% of the LUMO to the HOMO
 An unrestricted hybrid HF-DFT SCF calculation will be
 performed using Pulay DIIS extrapolation
 Exchange:     0.2000 Hartree-Fock + 0.0800 Slater + 0.7200 B88
 Correlation:  0.1900 VWN1RPA + 0.8100 LYP
 Using SG-1 standard quadrature grid
 SCF converges when DIIS error is below 1.0E-08
 using 4 threads for integral computing
 -------------------------------------------------------
 OpenMP Integral computing Module                
 Release: version 1.0, May 2013, Q-Chem Inc. Pittsburgh 
 -------------------------------------------------------
 -------------------------------------------------------
 OpenMP BLAS3 based DFT computing Module                
 Release: version 1.0, May 2013, Q-Chem Inc. Pittsburgh 
 -------------------------------------------------------
 ---------------------------------------
  Cycle       Energy         DIIS Error
 ---------------------------------------
    1    -236.1314165260      9.85E-02
    2    -214.0108964863      7.10E-02
    3    -255.4393979354      7.26E-02
    4    -278.4927356065      4.60E-02
    5    -271.8440297553      5.40E-02
    6    -282.9855939142      2.83E-02
    7    -285.4720357145      1.79E-02
    8    -285.7304867880      1.54E-02
    9    -286.7745665307      3.08E-03
   10    -286.8214585108      2.39E-03
   11    -286.8414172911      7.08E-04
   12    -286.8447059867      4.09E-04
   13    -286.8457620153      1.37E-04
   14    -286.8460645923      3.17E-05
   15    -286.8461044279      2.68E-05
   16    -286.8461219331      1.07E-05
   17    -286.8461287440      5.18E-06
   18    -286.8461321917      1.38E-06
   19    -286.8461335957      5.44E-07
   20    -286.8461339373      3.49E-07
   21    -286.8461342157      1.42E-07
   22    -286.8461342775      2.97E-08
   23    -286.8461342786      1.18E-08
   24    -286.8461342786      3.54E-09 Convergence criterion met
 ---------------------------------------
 <S^2> = 0.7824
 SCF time:  CPU 125.47 s  wall 58.79 s
 SCF   energy in the final basis set = -286.84613428
 Total energy in the final basis set = -286.84613428
 
 --------------------------------------------------------------
 
                    Orbital Energies (a.u.)
 --------------------------------------------------------------
 
 Alpha MOs
 -- Occupied --
-14.335 -10.231 -10.231 -10.230 -10.224 -10.214 -10.204  -0.967
 -0.846  -0.747  -0.696  -0.599  -0.586  -0.544  -0.524  -0.474
 -0.436  -0.417  -0.407  -0.389  -0.352  -0.305  -0.287  -0.266
 -0.156
 -- Virtual --
 -0.033  -0.010   0.001   0.020   0.026   0.029   0.048   0.048
  0.068   0.071   0.073   0.091   0.103   0.106   0.109   0.115
  0.124   0.128   0.142   0.153   0.167   0.176   0.184   0.187
  0.190   0.199   0.207   0.213   0.227   0.231   0.240   0.246
  0.257   0.268   0.280   0.288   0.303   0.323   0.329   0.354
  0.369   0.390   0.412   0.458   0.615   0.655   0.689   0.700
  0.706   0.716   0.727   0.742   0.753   0.761   0.781   0.795
  0.798   0.819   0.861   0.899   0.913   0.938   0.969   0.989
  1.008   1.018   1.043   1.063   1.089   1.104   1.131   1.145
  1.192   1.257   1.284   1.301   1.383   1.409   1.442   1.507
  1.523   1.601   1.615   1.701   1.722   1.767   1.795   1.832
  1.892   1.928   1.950   1.988   2.002   2.078   2.108   2.132
  2.152   2.220   2.227   2.244   2.275   2.358   2.368   2.382
  2.405   2.426   2.464   2.487   2.494   2.518   2.523   2.563
  2.578   2.585   2.627   2.653   2.686   2.743   2.756   2.767
  2.828   2.874   2.948   3.061   3.108   3.296   3.316   3.346
  3.476   3.609   3.699   4.150   4.380   4.474   4.589   4.630
  4.718   4.851
 
 Beta MOs
 -- Occupied --
-14.335 -10.233 -10.232 -10.230 -10.224 -10.203 -10.197  -0.964
 -0.840  -0.741  -0.684  -0.595  -0.574  -0.542  -0.517  -0.468
 -0.431  -0.413  -0.405  -0.388  -0.347  -0.292  -0.277  -0.261
 -- Virtual --
 -0.042  -0.024  -0.004   0.001   0.021   0.027   0.033   0.048
  0.049   0.071   0.072   0.076   0.092   0.103   0.106   0.109
  0.117   0.129   0.130   0.143   0.154   0.167   0.176   0.185
  0.190   0.193   0.201   0.209   0.218   0.231   0.234   0.242
  0.247   0.261   0.271   0.281   0.290   0.305   0.326   0.331
  0.357   0.373   0.392   0.416   0.460   0.618   0.661   0.692
  0.705   0.712   0.737   0.740   0.750   0.758   0.769   0.786
  0.799   0.801   0.822   0.863   0.903   0.915   0.939   0.972
  0.990   1.009   1.023   1.045   1.066   1.091   1.112   1.135
  1.151   1.197   1.261   1.287   1.306   1.385   1.413   1.451
  1.513   1.529   1.612   1.616   1.708   1.728   1.772   1.798
  1.850   1.896   1.934   1.951   1.998   2.006   2.085   2.116
  2.133   2.161   2.227   2.230   2.256   2.285   2.364   2.370
  2.386   2.409   2.432   2.467   2.491   2.500   2.522   2.530
  2.564   2.586   2.594   2.634   2.659   2.692   2.746   2.760
  2.771   2.829   2.876   2.951   3.064   3.109   3.297   3.317
  3.348   3.478   3.613   3.701   4.151   4.387   4.478   4.606
  4.634   4.721   4.853
 --------------------------------------------------------------
 
          Ground-State Mulliken Net Atomic Charges

     Atom                 Charge (a.u.)    Spin (a.u.)
  --------------------------------------------------------
      1 C                     0.037681      -0.124905
      2 C                    -0.139271       0.551171
      3 C                    -0.130541      -0.211871
      4 C                    -0.020025      -0.052969
      5 C                    -0.062317       0.027992
      6 N                    -0.204648      -0.007070
      7 H                     0.130488       0.006692
      8 H                     0.141102      -0.021906
      9 H                     0.140645       0.014212
     10 H                     0.128788       0.003859
     11 H                     0.136464       0.000016
     12 C                    -0.304304       0.853703
     13 H                     0.145938      -0.038926
  --------------------------------------------------------
  Sum of atomic charges =     0.000000
  Sum of spin   charges =     1.000000

 -----------------------------------------------------------------
                    Cartesian Multipole Moments
 -----------------------------------------------------------------
    Charge (ESU x 10^10)
                 0.0000
    Dipole Moment (Debye)
         X      -2.0346      Y      -1.9571      Z       0.3657
       Tot       2.8467
    Quadrupole Moments (Debye-Ang)
        XX     -39.4458     XY      -3.9666     YY     -43.9037
        XZ       1.8785     YZ       0.0066     ZZ     -42.0653
    Octopole Moments (Debye-Ang^2)
       XXX     -14.9820    XXY     -12.2104    XYY     -14.3582
       YYY     -24.1513    XXZ       3.1248    XYZ       4.2952
       YYZ      -3.3986    XZZ      -4.6827    YZZ      -8.9303
       ZZZ       7.9754
    Hexadecapole Moments (Debye-Ang^3)
      XXXX    -234.6082   XXXY     -11.2912   XXYY     -97.5182
      XYYY     -19.4951   YYYY    -319.1719   XXXZ       5.4220
      XXYZ       6.4657   XYYZ       5.6117   YYYZ       3.2434
      XXZZ     -68.7309   XYZZ      -2.9880   YYZZ     -77.8378
      XZZZ       2.9209   YZZZ      -5.7179   ZZZZ    -171.4770
 -----------------------------------------------------------------
 Calculating analytic gradient of the SCF energy
 Gradient of SCF Energy
            1           2           3           4           5           6
    1   0.0012645   0.0067331  -0.0004552  -0.0023669  -0.0006907   0.0002150
    2  -0.0003727   0.0021371   0.0016602   0.0064419   0.0019770  -0.0003388
    3  -0.0017464  -0.0023856   0.0142747  -0.0026589   0.0002023   0.0006341
            7           8           9          10          11          12
    1  -0.0003702   0.0015055   0.0000948  -0.0011618   0.0004255  -0.0035362
    2   0.0005072   0.0005285   0.0011044   0.0010717   0.0006619  -0.0179126
    3   0.0012162  -0.0024189   0.0062768  -0.0000596  -0.0009846  -0.0116165
           13
    1  -0.0016575
    2   0.0025343
    3  -0.0007335
 Max gradient component =       1.791E-02
 RMS gradient           =       4.694E-03
 Gradient time:  CPU 17.35 s  wall 5.32 s
rPathMan2.  file_steps = 951
 IRC --- Status = 2.  Assess steepest descent step
 IRC --- Previous SD length =   0.150000
 IRC --- Point 1 E =     -286.843874 |G| =   0.000066 G.D1 =   0.000010
 IRC --- Point 2 E =     -286.846134 |G| =   0.029313 G.D1 =  -0.029100
 IRC --- Angle(G1/G2) =    6.93 Deg.  Curvature =  -0.1941
 IRC --- Corrector step required
 IRC --- equal length displacement: B_eq =   0.018119
 IRC --- chosen bisector length  : B_len =   0.015000
 ----------------------------------------------------------------
             Standard Nuclear Orientation (Angstroms)
    I     Atom           X                Y                Z
 ----------------------------------------------------------------
    1      C       1.1505239875     0.1579525040     0.4092529390
    2      C       0.8764322363    -0.9754395124    -0.5833056023
    3      C      -0.5028046023    -1.0194583765    -0.5331674016
    4      C      -1.0823198214     0.2769033244     0.0558558808
    5      C      -0.3623644057     1.4929689528    -0.5027603289
    6      N       0.8990436297     1.4625025298    -0.2921706084
    7      H       2.0982973940     0.1563259654     0.9441683353
    8      H       1.5768749542    -1.6299215823    -1.0940000137
    9      H      -1.1633223731    -1.8295128139    -0.8101027010
   10      H      -2.1622678977     0.3106231939     0.1977922309
   11      H      -0.8345546297     2.2955335133    -1.0692442604
   12      C      -0.1619645067    -0.1100112703     1.1732528396
   13      H      -0.3742217401    -0.6091655177     2.1063146396
 ----------------------------------------------------------------
 Nuclear Repulsion Energy =   280.1927253477 hartrees
 There are       25 alpha and       24 beta electrons

                       Distance Matrix (Angstroms)
             C (  1)   C (  2)   C (  3)   C (  4)   C (  5)   N (  6)
   C (  2)  1.531299
   C (  3)  2.237844  1.380850
   C (  4)  2.263765  2.411141  1.537316
   C (  5)  2.214242  2.762996  2.516533  1.519606
   N (  6)  1.502361  2.455368  2.860662  2.335074  1.279229
   H (  7)  1.088307  2.259873  3.214144  3.304537  3.151995  2.161675
   H (  8)  2.374455  1.086175  2.238809  3.468352  3.723259  3.265804
   H (  9)  3.284925  2.222943  1.081279  2.278911  3.431454  3.919052
   H ( 10)  3.323043  3.390836  2.248830  1.089757  2.264590  3.307343
   H ( 11)  3.270435  3.723288  3.374405  2.324243  1.089944  2.074403
   C ( 12)  1.542118  2.216468  1.963450  1.498443  2.327816  2.397082
   H ( 13)  2.406935  2.988704  2.674274  2.343267  3.350579  3.415515
             H (  7)   H (  8)   H (  9)   H ( 10)   H ( 11)   C ( 12)
   H (  8)  2.759835
   H (  9)  4.202283  2.762085
   H ( 10)  4.328198  4.406317  2.567864
   H ( 11)  4.151103  4.607038  4.146233  2.703345
   C ( 12)  2.287400  3.236375  2.809467  2.264878  3.356757
   H ( 13)  2.837237  3.884680  3.258438  2.772288  4.328205  1.079265

 
 Applying Cartesian multipole field
    Component          Value
    ---------          -----
     (2,0,0)        1.00000E-11
     (0,2,0)        2.00000E-11
     (0,0,2)       -3.00000E-11
 Nucleus-field energy     =     0.0000000027 hartrees
 Requested basis set is 6-31+G(d,p)
 There are 53 shells and 163 basis functions
 A cutoff of  1.0D-14 yielded   1405 shell pairs
 There are     13509 function pairs
 Smallest overlap matrix eigenvalue = 2.25E-05
 Guess MOs from core Hamiltonian diagonalization
 Mixing HOMO and LUMO in initial guess
 Adding  50% of the LUMO to the HOMO
 An unrestricted hybrid HF-DFT SCF calculation will be
 performed using Pulay DIIS extrapolation
 Exchange:     0.2000 Hartree-Fock + 0.0800 Slater + 0.7200 B88
 Correlation:  0.1900 VWN1RPA + 0.8100 LYP
 Using SG-1 standard quadrature grid
 SCF converges when DIIS error is below 1.0E-08
 using 4 threads for integral computing
 -------------------------------------------------------
 OpenMP Integral computing Module                
 Release: version 1.0, May 2013, Q-Chem Inc. Pittsburgh 
 -------------------------------------------------------
 -------------------------------------------------------
 OpenMP BLAS3 based DFT computing Module                
 Release: version 1.0, May 2013, Q-Chem Inc. Pittsburgh 
 -------------------------------------------------------
 ---------------------------------------
  Cycle       Energy         DIIS Error
 ---------------------------------------
    1    -235.9868077702      9.87E-02
    2    -213.8449825070      7.12E-02
    3    -255.3068391183      7.27E-02
    4    -278.5597328929      4.58E-02
    5    -271.8493083076      5.40E-02
    6    -282.9936735162      2.82E-02
    7    -285.4745827922      1.79E-02
    8    -285.7380475834      1.53E-02
    9    -286.7668656796      3.28E-03
   10    -286.8124387305      2.84E-03
   11    -286.8405048069      8.01E-04
   12    -286.8444400504      4.27E-04
   13    -286.8456913620      1.62E-04
   14    -286.8459681123      1.19E-04
   15    -286.8460654886      1.87E-05
   16    -286.8460953320      1.06E-05
   17    -286.8461043519      4.79E-06
   18    -286.8461077300      1.49E-06
   19    -286.8461092020      5.82E-07
   20    -286.8461095463      3.58E-07
   21    -286.8461098322      1.42E-07
   22    -286.8461098865      2.98E-08
   23    -286.8461098876      1.26E-08
   24    -286.8461098876      3.54E-09 Convergence criterion met
 ---------------------------------------
 <S^2> = 0.7820
 SCF time:  CPU 124.68 s  wall 62.65 s
 SCF   energy in the final basis set = -286.84610989
 Total energy in the final basis set = -286.84610989
 
 --------------------------------------------------------------
 
                    Orbital Energies (a.u.)
 --------------------------------------------------------------
 
 Alpha MOs
 -- Occupied --
-14.335 -10.231 -10.231 -10.230 -10.224 -10.213 -10.204  -0.968
 -0.846  -0.747  -0.696  -0.598  -0.586  -0.544  -0.523  -0.475
 -0.435  -0.416  -0.407  -0.390  -0.353  -0.305  -0.287  -0.266
 -0.156
 -- Virtual --
 -0.033  -0.010   0.001   0.020   0.026   0.029   0.048   0.048
  0.068   0.071   0.073   0.091   0.103   0.106   0.109   0.116
  0.124   0.128   0.141   0.153   0.167   0.176   0.184   0.187
  0.190   0.199   0.207   0.214   0.227   0.232   0.239   0.246
  0.258   0.267   0.280   0.289   0.303   0.324   0.329   0.354
  0.369   0.389   0.413   0.458   0.615   0.655   0.689   0.701
  0.706   0.717   0.727   0.742   0.752   0.762   0.780   0.795
  0.798   0.819   0.861   0.900   0.913   0.937   0.969   0.988
  1.008   1.018   1.043   1.064   1.088   1.105   1.132   1.145
  1.193   1.257   1.286   1.301   1.383   1.410   1.442   1.506
  1.523   1.600   1.614   1.701   1.724   1.767   1.794   1.835
  1.892   1.930   1.949   1.990   2.003   2.079   2.109   2.131
  2.153   2.222   2.228   2.246   2.276   2.357   2.369   2.381
  2.406   2.426   2.465   2.487   2.495   2.518   2.523   2.564
  2.578   2.585   2.627   2.654   2.686   2.743   2.758   2.767
  2.828   2.876   2.949   3.063   3.108   3.294   3.314   3.344
  3.476   3.610   3.700   4.151   4.380   4.474   4.590   4.632
  4.719   4.852
 
 Beta MOs
 -- Occupied --
-14.335 -10.233 -10.232 -10.229 -10.224 -10.202 -10.197  -0.964
 -0.841  -0.741  -0.685  -0.595  -0.574  -0.542  -0.517  -0.468
 -0.431  -0.413  -0.405  -0.388  -0.347  -0.293  -0.277  -0.261
 -- Virtual --
 -0.042  -0.024  -0.004   0.002   0.021   0.027   0.033   0.048
  0.049   0.071   0.072   0.076   0.092   0.103   0.106   0.110
  0.117   0.129   0.130   0.143   0.155   0.167   0.176   0.185
  0.190   0.194   0.201   0.209   0.219   0.231   0.235   0.241
  0.246   0.261   0.271   0.281   0.290   0.305   0.327   0.331
  0.358   0.373   0.392   0.417   0.460   0.618   0.662   0.693
  0.705   0.712   0.737   0.740   0.750   0.758   0.769   0.786
  0.799   0.802   0.822   0.863   0.903   0.915   0.939   0.972
  0.990   1.009   1.023   1.045   1.068   1.091   1.112   1.136
  1.151   1.197   1.261   1.289   1.306   1.385   1.413   1.451
  1.513   1.530   1.611   1.616   1.709   1.730   1.773   1.797
  1.852   1.896   1.935   1.951   2.000   2.007   2.086   2.117
  2.133   2.161   2.228   2.231   2.258   2.286   2.364   2.370
  2.385   2.410   2.432   2.468   2.491   2.501   2.522   2.531
  2.565   2.586   2.593   2.634   2.660   2.692   2.746   2.761
  2.771   2.829   2.878   2.952   3.065   3.109   3.296   3.315
  3.346   3.477   3.615   3.702   4.151   4.387   4.479   4.607
  4.636   4.722   4.855
 --------------------------------------------------------------
 
          Ground-State Mulliken Net Atomic Charges

     Atom                 Charge (a.u.)    Spin (a.u.)
  --------------------------------------------------------
      1 C                     0.035299      -0.125029
      2 C                    -0.136194       0.549472
      3 C                    -0.133160      -0.210626
      4 C                    -0.017942      -0.052277
      5 C                    -0.062614       0.027775
      6 N                    -0.204532      -0.007056
      7 H                     0.130615       0.006737
      8 H                     0.141268      -0.021970
      9 H                     0.140438       0.014183
     10 H                     0.128786       0.003959
     11 H                     0.136251       0.000032
     12 C                    -0.304319       0.853813
     13 H                     0.146104      -0.039012
  --------------------------------------------------------
  Sum of atomic charges =     0.000000
  Sum of spin   charges =     1.000000

 -----------------------------------------------------------------
                    Cartesian Multipole Moments
 -----------------------------------------------------------------
    Charge (ESU x 10^10)
                 0.0000
    Dipole Moment (Debye)
         X      -2.0293      Y      -1.9611      Z       0.3649
       Tot       2.8456
    Quadrupole Moments (Debye-Ang)
        XX     -39.4314     XY      -3.9499     YY     -43.8936
        XZ       1.8953     YZ       0.0113     ZZ     -42.0873
    Octopole Moments (Debye-Ang^2)
       XXX     -14.9514    XXY     -12.2206    XYY     -14.3543
       YYY     -24.1859    XXZ       3.1187    XYZ       4.2723
       YYZ      -3.3828    XZZ      -4.6818    YZZ      -8.9382
       ZZZ       7.8865
    Hexadecapole Moments (Debye-Ang^3)
      XXXX    -234.3205   XXXY     -11.3346   XXYY     -97.4846
      XYYY     -19.5498   YYYY    -319.2113   XXXZ       5.5862
      XXYZ       6.4611   XYYZ       5.6682   YYYZ       3.2323
      XXZZ     -68.6483   XYZZ      -2.9860   YYZZ     -77.8124
      XZZZ       3.0558   YZZZ      -5.7525   ZZZZ    -171.4067
 -----------------------------------------------------------------
 Calculating analytic gradient of the SCF energy
 Gradient of SCF Energy
            1           2           3           4           5           6
    1   0.0017735   0.0034481  -0.0000911  -0.0007406   0.0014129  -0.0012176
    2  -0.0006144   0.0046076  -0.0011957   0.0060092   0.0013953  -0.0003965
    3  -0.0007961  -0.0013199   0.0141540   0.0001396   0.0010653   0.0002070
            7           8           9          10          11          12
    1  -0.0004253   0.0026355   0.0009644  -0.0014935   0.0001518  -0.0045138
    2   0.0006046  -0.0006040   0.0023784   0.0010350   0.0011971  -0.0163616
    3   0.0010505  -0.0031654   0.0064741  -0.0003660  -0.0012779  -0.0163474
           13
    1  -0.0019042
    2   0.0019451
    3   0.0001823
 Max gradient component =       1.636E-02
 RMS gradient           =       4.860E-03
 Gradient time:  CPU 17.81 s  wall 6.02 s
rPathMan2.  file_steps = 951
 IRC --- Status = 3.  Assess initial corrector step
 IRC --- bisector search: b =  0.000000 E =     -286.846134 G.B =  -0.001770
 IRC --- bisector search: b =  0.015000 E =     -286.846110 G.B =   0.005037
 IRC --- performed gradient/energy interpolation
 IRC --- bisector search:  estimate b(min) =   3.909435474843076E-003
 ----------------------------------------------------------------
             Standard Nuclear Orientation (Angstroms)
    I     Atom           X                Y                Z
 ----------------------------------------------------------------
    1      C       1.1505642858     0.1576234529     0.4087352599
    2      C       0.8780877883    -0.9769241687    -0.5832879293
    3      C      -0.5028746921    -1.0170812014    -0.5345779902
    4      C      -1.0830595210     0.2771567792     0.0534308222
    5      C      -0.3632891155     1.4932189754    -0.5031688411
    6      N       0.8989430653     1.4624866785    -0.2915676294
    7      H       2.0982914313     0.1563005836     0.9441953845
    8      H       1.5767538611    -1.6294845812    -1.0946957844
    9      H      -1.1635959029    -1.8300059044    -0.8093959756
   10      H      -2.1623253923     0.3106613943     0.1979433656
   11      H      -0.8345546758     2.2954427034    -1.0693940498
   12      C      -0.1612353281    -0.1115920381     1.1754713740
   13      H      -0.3743535790    -0.6085017629     2.1081979426
 ----------------------------------------------------------------
 Nuclear Repulsion Energy =   280.0904124619 hartrees
 There are       25 alpha and       24 beta electrons

                       Distance Matrix (Angstroms)
             C (  1)   C (  2)   C (  3)   C (  4)   C (  5)   N (  6)
   C (  2)  1.531519
   C (  3)  2.236880  1.382405
   C (  4)  2.264863  2.413344  1.535389
   C (  5)  2.215206  2.765690  2.514374  1.518776
   N (  6)  1.502134  2.456880  2.858742  2.335030  1.280215
   H (  7)  1.088534  2.259712  3.213979  3.305913  3.153029  2.161404
   H (  8)  2.373962  1.084208  2.239112  3.468153  3.723567  3.265690
   H (  9)  3.284791  2.224263  1.083016  2.278397  3.431922  3.919531
   H ( 10)  3.323115  3.392980  2.247947  1.089413  2.264185  3.307217
   H ( 11)  3.270449  3.725296  3.371773  2.322922  1.089158  2.074571
   C ( 12)  1.543107  2.218609  1.964917  1.503283  2.331111  2.398730
   H ( 13)  2.408422  2.991394  2.677260  2.347067  3.352102  3.416014
             H (  7)   H (  8)   H (  9)   H ( 10)   H ( 11)   C ( 12)
   H (  8)  2.760092
   H (  9)  4.202428  2.762448
   H ( 10)  4.328230  4.406336  2.568005
   H ( 11)  4.151151  4.606528  4.146709  2.703419
   C ( 12)  2.287076  3.237015  2.810226  2.266764  3.359553
   H ( 13)  2.837921  3.886869  3.259959  2.773225  4.329177  1.078108

 
 Applying Cartesian multipole field
    Component          Value
    ---------          -----
     (2,0,0)        1.00000E-11
     (0,2,0)        2.00000E-11
     (0,0,2)       -3.00000E-11
 Nucleus-field energy     =     0.0000000027 hartrees
 Requested basis set is 6-31+G(d,p)
 There are 53 shells and 163 basis functions
 A cutoff of  1.0D-14 yielded   1405 shell pairs
 There are     13509 function pairs
 Smallest overlap matrix eigenvalue = 2.26E-05
 Guess MOs from core Hamiltonian diagonalization
 Mixing HOMO and LUMO in initial guess
 Adding  50% of the LUMO to the HOMO
 An unrestricted hybrid HF-DFT SCF calculation will be
 performed using Pulay DIIS extrapolation
 Exchange:     0.2000 Hartree-Fock + 0.0800 Slater + 0.7200 B88
 Correlation:  0.1900 VWN1RPA + 0.8100 LYP
 Using SG-1 standard quadrature grid
 SCF converges when DIIS error is below 1.0E-08
 using 4 threads for integral computing
 -------------------------------------------------------
 OpenMP Integral computing Module                
 Release: version 1.0, May 2013, Q-Chem Inc. Pittsburgh 
 -------------------------------------------------------
 -------------------------------------------------------
 OpenMP BLAS3 based DFT computing Module                
 Release: version 1.0, May 2013, Q-Chem Inc. Pittsburgh 
 -------------------------------------------------------
 ---------------------------------------
  Cycle       Energy         DIIS Error
 ---------------------------------------
    1    -236.0920864809      9.86E-02
    2    -213.9648514202      7.10E-02
    3    -255.3989230597      7.26E-02
    4    -278.5049292916      4.59E-02
    5    -271.8446144885      5.40E-02
    6    -282.9837709036      2.82E-02
    7    -285.4684586288      1.79E-02
    8    -285.7313591946      1.53E-02
    9    -286.7714987829      3.15E-03
   10    -286.8180498294      2.57E-03
   11    -286.8409895910      7.56E-04
   12    -286.8446052900      4.12E-04
   13    -286.8457556226      1.40E-04
   14    -286.8460448627      7.24E-05
   15    -286.8460970183      2.60E-05
   16    -286.8461234469      1.07E-05
   17    -286.8461321776      4.77E-06
   18    -286.8461356267      1.41E-06
   19    -286.8461370641      5.60E-07
   20    -286.8461374076      3.54E-07
   21    -286.8461376911      1.43E-07
   22    -286.8461377491      3.03E-08
   23    -286.8461377501      1.22E-08
   24    -286.8461377502      3.55E-09 Convergence criterion met
 ---------------------------------------
 <S^2> = 0.7823
 SCF time:  CPU 124.78 s  wall 69.33 s
 SCF   energy in the final basis set = -286.84613775
 Total energy in the final basis set = -286.84613775
 
 --------------------------------------------------------------
 
                    Orbital Energies (a.u.)
 --------------------------------------------------------------
 
 Alpha MOs
 -- Occupied --
-14.335 -10.231 -10.231 -10.230 -10.224 -10.214 -10.204  -0.967
 -0.846  -0.747  -0.696  -0.599  -0.586  -0.544  -0.523  -0.474
 -0.436  -0.417  -0.407  -0.389  -0.353  -0.305  -0.287  -0.266
 -0.156
 -- Virtual --
 -0.033  -0.010   0.001   0.020   0.026   0.029   0.048   0.048
  0.068   0.071   0.073   0.091   0.103   0.106   0.109   0.115
  0.124   0.128   0.141   0.153   0.167   0.176   0.184   0.187
  0.190   0.199   0.207   0.213   0.227   0.231   0.239   0.246
  0.258   0.268   0.280   0.288   0.303   0.323   0.329   0.354
  0.369   0.390   0.412   0.458   0.615   0.655   0.689   0.700
  0.706   0.716   0.727   0.742   0.753   0.761   0.781   0.795
  0.798   0.819   0.861   0.900   0.913   0.938   0.969   0.988
  1.008   1.018   1.043   1.063   1.088   1.105   1.131   1.145
  1.192   1.257   1.284   1.301   1.383   1.409   1.442   1.506
  1.523   1.601   1.614   1.701   1.723   1.767   1.794   1.833
  1.892   1.929   1.950   1.989   2.003   2.078   2.108   2.132
  2.152   2.221   2.227   2.245   2.275   2.358   2.369   2.382
  2.405   2.426   2.465   2.487   2.494   2.518   2.523   2.564
  2.578   2.585   2.627   2.653   2.686   2.743   2.757   2.767
  2.828   2.875   2.949   3.062   3.108   3.295   3.315   3.345
  3.476   3.609   3.699   4.150   4.380   4.474   4.589   4.631
  4.718   4.851
 
 Beta MOs
 -- Occupied --
-14.335 -10.233 -10.232 -10.230 -10.224 -10.202 -10.197  -0.964
 -0.840  -0.741  -0.685  -0.595  -0.574  -0.542  -0.517  -0.468
 -0.431  -0.413  -0.405  -0.388  -0.347  -0.293  -0.277  -0.261
 -- Virtual --
 -0.042  -0.024  -0.004   0.002   0.021   0.027   0.033   0.048
  0.049   0.071   0.072   0.076   0.092   0.103   0.106   0.109
  0.117   0.129   0.130   0.143   0.154   0.167   0.176   0.185
  0.190   0.193   0.201   0.209   0.218   0.231   0.235   0.242
  0.246   0.261   0.271   0.281   0.290   0.305   0.327   0.331
  0.357   0.373   0.392   0.416   0.460   0.618   0.661   0.692
  0.705   0.712   0.737   0.740   0.750   0.758   0.769   0.786
  0.799   0.801   0.822   0.863   0.903   0.915   0.939   0.972
  0.990   1.009   1.023   1.045   1.067   1.091   1.112   1.135
  1.151   1.197   1.261   1.288   1.306   1.385   1.413   1.451
  1.513   1.529   1.612   1.616   1.708   1.728   1.772   1.798
  1.851   1.896   1.934   1.951   1.998   2.006   2.085   2.116
  2.133   2.161   2.227   2.230   2.256   2.285   2.364   2.370
  2.385   2.409   2.432   2.468   2.491   2.500   2.522   2.530
  2.565   2.586   2.593   2.634   2.659   2.692   2.746   2.760
  2.771   2.829   2.877   2.951   3.064   3.109   3.297   3.316
  3.348   3.478   3.613   3.702   4.151   4.387   4.479   4.606
  4.634   4.721   4.854
 --------------------------------------------------------------
 
          Ground-State Mulliken Net Atomic Charges

     Atom                 Charge (a.u.)    Spin (a.u.)
  --------------------------------------------------------
      1 C                     0.037063      -0.124937
      2 C                    -0.138473       0.550733
      3 C                    -0.131223      -0.211551
      4 C                    -0.019482      -0.052786
      5 C                    -0.062392       0.027936
      6 N                    -0.204619      -0.007066
      7 H                     0.130521       0.006704
      8 H                     0.141147      -0.021923
      9 H                     0.140592       0.014204
     10 H                     0.128786       0.003884
     11 H                     0.136408       0.000020
     12 C                    -0.304309       0.853729
     13 H                     0.145981      -0.038948
  --------------------------------------------------------
  Sum of atomic charges =    -0.000000
  Sum of spin   charges =     1.000000

 -----------------------------------------------------------------
                    Cartesian Multipole Moments
 -----------------------------------------------------------------
    Charge (ESU x 10^10)
                -0.0000
    Dipole Moment (Debye)
         X      -2.0332      Y      -1.9582      Z       0.3655
       Tot       2.8464
    Quadrupole Moments (Debye-Ang)
        XX     -39.4421     XY      -3.9622     YY     -43.9010
        XZ       1.8829     YZ       0.0079     ZZ     -42.0710
    Octopole Moments (Debye-Ang^2)
       XXX     -14.9740    XXY     -12.2131    XYY     -14.3572
       YYY     -24.1604    XXZ       3.1232    XYZ       4.2892
       YYZ      -3.3945    XZZ      -4.6825    YZZ      -8.9324
       ZZZ       7.9522
    Hexadecapole Moments (Debye-Ang^3)
      XXXX    -234.5331   XXXY     -11.3025   XXYY     -97.5093
      XYYY     -19.5094   YYYY    -319.1818   XXXZ       5.4648
      XXYZ       6.4645   XYYZ       5.6264   YYYZ       3.2406
      XXZZ     -68.7093   XYZZ      -2.9875   YYZZ     -77.8310
      XZZZ       2.9561   YZZZ      -5.7269   ZZZZ    -171.4583
 -----------------------------------------------------------------
 Calculating analytic gradient of the SCF energy
 Gradient of SCF Energy
            1           2           3           4           5           6
    1   0.0013972   0.0058760  -0.0003592  -0.0019513  -0.0001435  -0.0001572
    2  -0.0004357   0.0027827   0.0009135   0.0063329   0.0018257  -0.0003539
    3  -0.0014989  -0.0021063   0.0142431  -0.0019373   0.0004271   0.0005228
            7           8           9          10          11          12
    1  -0.0003846   0.0018015   0.0003203  -0.0012477   0.0003541  -0.0037833
    2   0.0005326   0.0002322   0.0014360   0.0010620   0.0008018  -0.0175106
    3   0.0011730  -0.0026155   0.0063271  -0.0001392  -0.0010612  -0.0128408
           13
    1  -0.0017222
    2   0.0023808
    3  -0.0004940
 Max gradient component =       1.751E-02
 RMS gradient           =       4.696E-03
 Gradient time:  CPU 17.45 s  wall 4.57 s
rPathMan2.  file_steps = 951
 IRC --- Status = 4.  Checking bisector search.
 IRC --- Bisector search finished successfully.
 ------------------------------------------------------------------------
 Reaction path following.  The coordinates are cartesian              
 Step   2 E=    -286.846138 |G|=  0.029326 S_lin= 0.1498 S_tot= 0.1498
 ------------------------------------------------------------------------
  IRC -- SD step length =   0.150000000000000     
 ----------------------------------------------------------------
             Standard Nuclear Orientation (Angstroms)
    I     Atom           X                Y                Z
 ----------------------------------------------------------------
    1      C       1.1467823191     0.1588027632     0.4127923989
    2      C       0.8621830983    -0.9844561281    -0.5775868798
    3      C      -0.5019023289    -1.0195537651    -0.5731302558
    4      C      -1.0777778166     0.2600152264     0.0586744783
    5      C      -0.3629007451     1.4882771735    -0.5043248005
    6      N       0.8993685909     1.4634446396    -0.2929826532
    7      H       2.0993323958     0.1548590413     0.9410202733
    8      H       1.5718777042    -1.6301131466    -1.0876162897
    9      H      -1.1644627880    -1.8338928175    -0.8265216794
   10      H      -2.1589481488     0.3077867233     0.1983201064
   11      H      -0.8355130261     2.2932725828    -1.0665215740
   12      C      -0.1509950834    -0.0641955232     1.2102278668
   13      H      -0.3696919462    -0.6149458589     2.1095349575
 ----------------------------------------------------------------
 Nuclear Repulsion Energy =   279.5455143551 hartrees
 There are       25 alpha and       24 beta electrons

                       Distance Matrix (Angstroms)
             C (  1)   C (  2)   C (  3)   C (  4)   C (  5)   N (  6)
   C (  2)  1.539119
   C (  3)  2.253603  1.364544
   C (  4)  2.254842  2.391022  1.538865
   C (  5)  2.210825  2.760545  2.512622  1.528609
   N (  6)  1.503803  2.464670  2.864843  2.341156  1.280080
   H (  7)  1.089216  2.265998  3.230839  3.299033  3.151130  2.162192
   H (  8)  2.373216  1.086586  2.222171  3.450687  3.715906  3.264018
   H (  9)  3.293720  2.211516  1.079973  2.274981  3.432656  3.926385
   H ( 10)  3.316029  3.376264  2.258931  1.091198  2.261206  3.306089
   H ( 11)  3.267082  3.723538  3.365940  2.336428  1.089700  2.072870
   C ( 12)  1.539434  2.251597  2.053342  1.513312  2.322664  2.386753
   H ( 13)  2.403605  2.979040  2.716225  2.339438  3.354975  3.420864
             H (  7)   H (  8)   H (  9)   H ( 10)   H ( 11)   C ( 12)
   H (  8)  2.753126
   H (  9)  4.210902  2.756312
   H ( 10)  4.325268  4.396379  2.574120
   H ( 11)  4.149259  4.603144  4.147204  2.700640
   C ( 12)  2.276935  3.271158  2.882238  2.279080  3.348105
   H ( 13)  2.837976  3.875827  3.276877  2.775899  4.331519  1.076990

 
 Applying Cartesian multipole field
    Component          Value
    ---------          -----
     (2,0,0)        1.00000E-11
     (0,2,0)        2.00000E-11
     (0,0,2)       -3.00000E-11
 Nucleus-field energy     =     0.0000000026 hartrees
 Requested basis set is 6-31+G(d,p)
 There are 53 shells and 163 basis functions
 A cutoff of  1.0D-14 yielded   1405 shell pairs
 There are     13509 function pairs
 Smallest overlap matrix eigenvalue = 2.21E-05
 Guess MOs from core Hamiltonian diagonalization
 Mixing HOMO and LUMO in initial guess
 Adding  50% of the LUMO to the HOMO
 An unrestricted hybrid HF-DFT SCF calculation will be
 performed using Pulay DIIS extrapolation
 Exchange:     0.2000 Hartree-Fock + 0.0800 Slater + 0.7200 B88
 Correlation:  0.1900 VWN1RPA + 0.8100 LYP
 Using SG-1 standard quadrature grid
 SCF converges when DIIS error is below 1.0E-08
 using 4 threads for integral computing
 -------------------------------------------------------
 OpenMP Integral computing Module                
 Release: version 1.0, May 2013, Q-Chem Inc. Pittsburgh 
 -------------------------------------------------------
 -------------------------------------------------------
 OpenMP BLAS3 based DFT computing Module                
 Release: version 1.0, May 2013, Q-Chem Inc. Pittsburgh 
 -------------------------------------------------------
 ---------------------------------------
  Cycle       Energy         DIIS Error
 ---------------------------------------
    1    -236.5985015936      9.82E-02
    2    -213.5952530868      6.98E-02
    3    -256.5610999822      7.35E-02
    4    -278.8900237060      4.47E-02
    5    -271.6341555710      5.33E-02
    6    -283.4367877729      2.67E-02
    7    -285.8147773791      1.50E-02
    8    -286.0233693822      1.43E-02
    9    -286.7972338893      3.31E-03
   10    -286.8007437576      3.60E-03
   11    -286.8480195861      8.99E-04
   12    -286.8509254045      3.25E-04
   13    -286.8515309530      1.98E-04
   14    -286.8517409459      3.70E-05
   15    -286.8517975528      2.01E-05
   16    -286.8518123488      7.24E-06
   17    -286.8518156183      2.70E-06
   18    -286.8518166016      1.03E-06
   19    -286.8518171531      4.68E-07
   20    -286.8518174303      2.50E-07
   21    -286.8518175632      7.30E-08
   22    -286.8518175793      2.16E-08
   23    -286.8518175793      5.44E-09 Convergence criterion met
 ---------------------------------------
 <S^2> = 0.7675
 SCF time:  CPU 119.48 s  wall 51.49 s
 SCF   energy in the final basis set = -286.85181758
 Total energy in the final basis set = -286.85181758
 
 --------------------------------------------------------------
 
                    Orbital Energies (a.u.)
 --------------------------------------------------------------
 
 Alpha MOs
 -- Occupied --
-14.336 -10.232 -10.232 -10.225 -10.222 -10.209 -10.209  -0.965
 -0.842  -0.743  -0.701  -0.596  -0.585  -0.542  -0.523  -0.474
 -0.435  -0.417  -0.402  -0.390  -0.353  -0.304  -0.287  -0.266
 -0.166
 -- Virtual --
 -0.038  -0.009   0.001   0.021   0.026   0.029   0.047   0.048
  0.068   0.071   0.073   0.091   0.103   0.106   0.109   0.116
  0.124   0.129   0.140   0.152   0.168   0.175   0.185   0.188
  0.190   0.199   0.206   0.216   0.226   0.231   0.239   0.247
  0.257   0.267   0.280   0.288   0.304   0.326   0.329   0.351
  0.366   0.392   0.412   0.456   0.614   0.656   0.688   0.702
  0.711   0.717   0.729   0.745   0.752   0.763   0.775   0.792
  0.800   0.823   0.860   0.899   0.908   0.941   0.965   0.991
  1.004   1.020   1.048   1.062   1.087   1.096   1.130   1.132
  1.199   1.262   1.277   1.308   1.384   1.400   1.451   1.497
  1.521   1.589   1.612   1.690   1.731   1.759   1.786   1.834
  1.891   1.937   1.954   1.987   2.010   2.070   2.100   2.123
  2.158   2.214   2.218   2.225   2.281   2.351   2.365   2.383
  2.407   2.430   2.457   2.474   2.494   2.522   2.527   2.555
  2.581   2.599   2.622   2.654   2.691   2.741   2.757   2.765
  2.829   2.871   2.939   3.060   3.104   3.300   3.320   3.359
  3.473   3.587   3.704   4.147   4.375   4.473   4.592   4.622
  4.723   4.849
 
 Beta MOs
 -- Occupied --
-14.336 -10.233 -10.232 -10.226 -10.222 -10.204 -10.196  -0.962
 -0.836  -0.739  -0.689  -0.593  -0.572  -0.540  -0.518  -0.467
 -0.431  -0.414  -0.400  -0.389  -0.348  -0.294  -0.277  -0.261
 -- Virtual --
 -0.043  -0.029  -0.006   0.002   0.021   0.027   0.032   0.047
  0.049   0.071   0.073   0.075   0.091   0.103   0.106   0.109
  0.118   0.129   0.129   0.142   0.154   0.167   0.175   0.185
  0.190   0.195   0.201   0.208   0.221   0.230   0.234   0.240
  0.247   0.261   0.270   0.280   0.290   0.307   0.328   0.332
  0.355   0.372   0.394   0.415   0.458   0.616   0.662   0.694
  0.706   0.715   0.735   0.741   0.748   0.761   0.771   0.786
  0.798   0.803   0.826   0.862   0.903   0.913   0.943   0.969
  0.993   1.006   1.024   1.051   1.065   1.090   1.102   1.131
  1.140   1.203   1.267   1.280   1.314   1.386   1.404   1.459
  1.505   1.528   1.601   1.613   1.699   1.735   1.764   1.790
  1.851   1.895   1.941   1.956   1.996   2.014   2.080   2.108
  2.127   2.167   2.219   2.227   2.233   2.293   2.358   2.368
  2.386   2.410   2.435   2.460   2.477   2.502   2.524   2.535
  2.556   2.586   2.607   2.635   2.658   2.697   2.744   2.759
  2.768   2.831   2.874   2.942   3.063   3.105   3.301   3.320
  3.362   3.475   3.591   3.706   4.148   4.382   4.478   4.612
  4.625   4.727   4.851
 --------------------------------------------------------------
 
          Ground-State Mulliken Net Atomic Charges

     Atom                 Charge (a.u.)    Spin (a.u.)
  --------------------------------------------------------
      1 C                     0.050504      -0.118509
      2 C                    -0.138095       0.345360
      3 C                    -0.131185      -0.112069
      4 C                    -0.022824      -0.068387
      5 C                    -0.066113       0.010693
      6 N                    -0.203155      -0.003868
      7 H                     0.130578       0.004919
      8 H                     0.143074      -0.013428
      9 H                     0.141008       0.010143
     10 H                     0.126338       0.003786
     11 H                     0.137525      -0.000600
     12 C                    -0.310844       0.984330
     13 H                     0.143188      -0.042370
  --------------------------------------------------------
  Sum of atomic charges =     0.000000
  Sum of spin   charges =     1.000000

 -----------------------------------------------------------------
                    Cartesian Multipole Moments
 -----------------------------------------------------------------
    Charge (ESU x 10^10)
                 0.0000
    Dipole Moment (Debye)
         X      -1.8828      Y      -2.0426      Z       0.1677
       Tot       2.7831
    Quadrupole Moments (Debye-Ang)
        XX     -39.2777     XY      -4.1289     YY     -43.7588
        XZ       1.7056     YZ      -0.2469     ZZ     -42.3935
    Octopole Moments (Debye-Ang^2)
       XXX     -14.3915    XXY     -12.5606    XYY     -14.1819
       YYY     -24.6832    XXZ       2.7631    XYZ       4.4872
       YYZ      -3.5067    XZZ      -4.2927    YZZ      -9.2902
       ZZZ       6.6725
    Hexadecapole Moments (Debye-Ang^3)
      XXXX    -232.4105   XXXY     -12.0519   XXYY     -96.5519
      XYYY     -20.3222   YYYY    -317.8415   XXXZ       4.2013
      XXYZ       5.9425   XYYZ       5.1651   YYYZ       0.8059
      XXZZ     -68.6463   XYZZ      -3.4631   YYZZ     -78.9810
      XZZZ       1.2278   YZZZ      -8.3731   ZZZZ    -177.8064
 -----------------------------------------------------------------
 Calculating analytic gradient of the SCF energy
 Gradient of SCF Energy
            1           2           3           4           5           6
    1   0.0011761   0.0074817   0.0025225  -0.0044234  -0.0016122   0.0009435
    2  -0.0007480   0.0021379   0.0019159   0.0089195   0.0037881  -0.0001595
    3  -0.0027332  -0.0046448   0.0189708  -0.0051935  -0.0001171   0.0014919
            7           8           9          10          11          12
    1  -0.0005070   0.0026210   0.0005049  -0.0021188   0.0009028  -0.0044564
    2   0.0009258   0.0009723   0.0022276   0.0021267   0.0012665  -0.0284258
    3   0.0023287  -0.0049182   0.0118068  -0.0002923  -0.0017411  -0.0142642
           13
    1  -0.0030348
    2   0.0050530
    3  -0.0006937
 Max gradient component =       2.843E-02
 RMS gradient           =       6.928E-03
 Gradient time:  CPU 17.40 s  wall 4.51 s
rPathMan2.  file_steps = 951
 IRC --- Status = 2.  Assess steepest descent step
 IRC --- Previous SD length =   0.150000
 IRC --- Point 1 E =     -286.846138 |G| =   0.029326 G.D1 =  -0.029326
 IRC --- Point 2 E =     -286.851818 |G| =   0.043266 G.D1 =  -0.042371
 IRC --- Angle(G1/G2) =   11.67 Deg.  Curvature =  -0.0870
 IRC --- Corrector step required
 IRC --- equal length displacement: B_eq =   0.030503
 IRC --- chosen bisector length  : B_len =   0.015251
 ----------------------------------------------------------------
             Standard Nuclear Orientation (Angstroms)
    I     Atom           X                Y                Z
 ----------------------------------------------------------------
    1      C       1.1475944465     0.1588992723     0.4132710492
    2      C       0.8632724364    -0.9826512564    -0.5761766434
    3      C      -0.5047024282    -1.0200749704    -0.5712561722
    4      C      -1.0763610007     0.2604040762     0.0608166989
    5      C      -0.3616160330     1.4872732436    -0.5036394343
    6      N       0.8982903016     1.4631119548    -0.2936436721
    7      H       2.0992770245     0.1547305373     0.9404716824
    8      H       1.5719114943    -1.6306907466    -1.0866445136
    9      H      -1.1644925298    -1.8339927935    -0.8287893557
   10      H      -2.1586932021     0.3072731852     0.1983998322
   11      H      -0.8358620160     2.2931958965    -1.0663606425
   12      C      -0.1520273496    -0.0618184931     1.2059343207
   13      H      -0.3692389187    -0.6163589953     2.1095027993
 ----------------------------------------------------------------
 Nuclear Repulsion Energy =   279.7076832859 hartrees
 There are       25 alpha and       24 beta electrons

                       Distance Matrix (Angstroms)
             C (  1)   C (  2)   C (  3)   C (  4)   C (  5)   N (  6)
   C (  2)  1.537200
   C (  3)  2.255961  1.368496
   C (  4)  2.253998  2.390214  1.538160
   C (  5)  2.209755  2.757923  2.512338  1.527966
   N (  6)  1.504278  2.462277  2.865602  2.339102  1.277516
   H (  7)  1.087960  2.263088  3.232058  3.296913  3.149146  2.162700
   H (  8)  2.373273  1.087521  2.225040  3.450544  3.714852  3.264082
   H (  9)  3.295463  2.213691  1.078939  2.277205  3.432367  3.925857
   H ( 10)  3.316583  3.375818  2.256083  1.092048  2.261580  3.305029
   H ( 11)  3.267818  3.722702  3.366387  2.336795  1.091364  2.072056
   C ( 12)  1.538196  2.248263  2.049644  1.506491  2.316518  2.382712
   H ( 13)  2.403957  2.977604  2.714370  2.337916  3.354674  3.421395
             H (  7)   H (  8)   H (  9)   H ( 10)   H ( 11)   C ( 12)
   H (  8)  2.752280
   H (  9)  4.211591  2.756035
   H ( 10)  4.324841  4.395959  2.574601
   H ( 11)  4.149151  4.603767  4.147062  2.700628
   C ( 12)  2.277221  3.269441  2.881976  2.275536  3.343209
   H ( 13)  2.838095  3.874570  3.278509  2.776249  4.332361  1.082189

 
 Applying Cartesian multipole field
    Component          Value
    ---------          -----
     (2,0,0)        1.00000E-11
     (0,2,0)        2.00000E-11
     (0,0,2)       -3.00000E-11
 Nucleus-field energy     =     0.0000000026 hartrees
 Requested basis set is 6-31+G(d,p)
 There are 53 shells and 163 basis functions
 A cutoff of  1.0D-14 yielded   1405 shell pairs
 There are     13509 function pairs
 Smallest overlap matrix eigenvalue = 2.21E-05
 Guess MOs from core Hamiltonian diagonalization
 Mixing HOMO and LUMO in initial guess
 Adding  50% of the LUMO to the HOMO
 An unrestricted hybrid HF-DFT SCF calculation will be
 performed using Pulay DIIS extrapolation
 Exchange:     0.2000 Hartree-Fock + 0.0800 Slater + 0.7200 B88
 Correlation:  0.1900 VWN1RPA + 0.8100 LYP
 Using SG-1 standard quadrature grid
 SCF converges when DIIS error is below 1.0E-08
 using 4 threads for integral computing
 -------------------------------------------------------
 OpenMP Integral computing Module                
 Release: version 1.0, May 2013, Q-Chem Inc. Pittsburgh 
 -------------------------------------------------------
 -------------------------------------------------------
 OpenMP BLAS3 based DFT computing Module                
 Release: version 1.0, May 2013, Q-Chem Inc. Pittsburgh 
 -------------------------------------------------------
 ---------------------------------------
  Cycle       Energy         DIIS Error
 ---------------------------------------
    1    -236.1971075323      9.86E-02
    2    -214.0822228941      7.01E-02
    3    -254.3873166051      7.49E-02
    4    -281.5733432566      3.70E-02
    5    -278.9317193610      4.23E-02
    6    -284.4196503481      2.28E-02
    7    -286.1278269682      1.22E-02
    8    -286.6910756638      6.27E-03
    9    -286.8248760508      2.48E-03
   10    -286.8427047543      1.49E-03
   11    -286.8504415772      4.35E-04
   12    -286.8512594483      2.85E-04
   13    -286.8516724021      4.95E-05
   14    -286.8517590171      3.58E-05
   15    -286.8517850213      1.15E-05
   16    -286.8517997675      3.77E-06
   17    -286.8518037874      1.56E-06
   18    -286.8518047848      6.47E-07
   19    -286.8518055052      3.82E-07
   20    -286.8518060271      1.39E-07
   21    -286.8518061754      4.20E-08
   22    -286.8518061797      7.98E-09 Convergence criterion met
 ---------------------------------------
 <S^2> = 0.7682
 SCF time:  CPU 114.33 s  wall 47.86 s
 SCF   energy in the final basis set = -286.85180618
 Total energy in the final basis set = -286.85180618
 
 --------------------------------------------------------------
 
                    Orbital Energies (a.u.)
 --------------------------------------------------------------
 
 Alpha MOs
 -- Occupied --
-14.335 -10.232 -10.232 -10.225 -10.222 -10.209 -10.209  -0.966
 -0.842  -0.743  -0.701  -0.596  -0.584  -0.543  -0.523  -0.475
 -0.435  -0.416  -0.403  -0.391  -0.354  -0.304  -0.287  -0.266
 -0.165
 -- Virtual --
 -0.038  -0.009   0.001   0.021   0.026   0.029   0.048   0.048
  0.068   0.071   0.073   0.091   0.103   0.106   0.109   0.116
  0.124   0.128   0.141   0.153   0.168   0.175   0.184   0.189
  0.190   0.199   0.206   0.216   0.226   0.231   0.239   0.247
  0.258   0.267   0.280   0.288   0.304   0.326   0.329   0.351
  0.367   0.391   0.413   0.457   0.615   0.656   0.688   0.703
  0.711   0.717   0.728   0.744   0.753   0.764   0.775   0.793
  0.800   0.822   0.861   0.899   0.908   0.941   0.965   0.990
  1.004   1.019   1.048   1.063   1.087   1.097   1.131   1.131
  1.199   1.263   1.278   1.308   1.385   1.400   1.451   1.497
  1.522   1.589   1.612   1.694   1.733   1.759   1.786   1.835
  1.892   1.938   1.952   1.988   2.011   2.073   2.101   2.122
  2.159   2.216   2.222   2.227   2.280   2.351   2.365   2.382
  2.408   2.429   2.456   2.474   2.494   2.522   2.527   2.555
  2.582   2.597   2.624   2.654   2.690   2.741   2.757   2.765
  2.830   2.872   2.940   3.061   3.103   3.300   3.317   3.354
  3.471   3.586   3.703   4.148   4.375   4.474   4.593   4.623
  4.724   4.850
 
 Beta MOs
 -- Occupied --
-14.335 -10.232 -10.232 -10.226 -10.222 -10.204 -10.196  -0.963
 -0.836  -0.739  -0.688  -0.593  -0.572  -0.540  -0.518  -0.467
 -0.430  -0.414  -0.400  -0.389  -0.349  -0.294  -0.276  -0.261
 -- Virtual --
 -0.043  -0.029  -0.006   0.002   0.021   0.027   0.032   0.047
  0.049   0.071   0.073   0.075   0.091   0.103   0.106   0.110
  0.118   0.129   0.129   0.142   0.154   0.167   0.175   0.185
  0.190   0.195   0.201   0.208   0.221   0.231   0.235   0.240
  0.247   0.262   0.270   0.280   0.290   0.306   0.328   0.332
  0.355   0.372   0.393   0.416   0.458   0.617   0.663   0.694
  0.706   0.715   0.735   0.741   0.748   0.761   0.771   0.786
  0.798   0.803   0.825   0.863   0.902   0.912   0.942   0.968
  0.993   1.006   1.024   1.051   1.066   1.090   1.103   1.132
  1.139   1.203   1.267   1.281   1.314   1.386   1.403   1.458
  1.505   1.528   1.601   1.613   1.702   1.737   1.764   1.789
  1.852   1.896   1.942   1.955   1.996   2.016   2.082   2.109
  2.127   2.167   2.220   2.228   2.237   2.292   2.358   2.368
  2.385   2.411   2.434   2.459   2.477   2.502   2.523   2.534
  2.557   2.587   2.605   2.636   2.658   2.696   2.743   2.759
  2.768   2.832   2.874   2.942   3.063   3.105   3.301   3.318
  3.357   3.473   3.590   3.705   4.148   4.382   4.478   4.613
  4.625   4.728   4.852
 --------------------------------------------------------------
 
          Ground-State Mulliken Net Atomic Charges

     Atom                 Charge (a.u.)    Spin (a.u.)
  --------------------------------------------------------
      1 C                     0.047334      -0.119319
      2 C                    -0.136448       0.353423
      3 C                    -0.133801      -0.116750
      4 C                    -0.019351      -0.067761
      5 C                    -0.065918       0.010545
      6 N                    -0.202615      -0.003723
      7 H                     0.130655       0.005036
      8 H                     0.142974      -0.013685
      9 H                     0.140996       0.010539
     10 H                     0.126619       0.003929
     11 H                     0.137362      -0.000567
     12 C                    -0.311525       0.980657
     13 H                     0.143716      -0.042324
  --------------------------------------------------------
  Sum of atomic charges =     0.000000
  Sum of spin   charges =     1.000000

 -----------------------------------------------------------------
                    Cartesian Multipole Moments
 -----------------------------------------------------------------
    Charge (ESU x 10^10)
                -0.0000
    Dipole Moment (Debye)
         X      -1.8794      Y      -2.0380      Z       0.1673
       Tot       2.7773
    Quadrupole Moments (Debye-Ang)
        XX     -39.2660     XY      -4.1050     YY     -43.7623
        XZ       1.7281     YZ      -0.2308     ZZ     -42.4096
    Octopole Moments (Debye-Ang^2)
       XXX     -14.3450    XXY     -12.5486    XYY     -14.1748
       YYY     -24.6966    XXZ       2.7630    XYZ       4.4584
       YYZ      -3.5087    XZZ      -4.2952    YZZ      -9.2989
       ZZZ       6.6310
    Hexadecapole Moments (Debye-Ang^3)
      XXXX    -232.3297   XXXY     -12.0041   XXYY     -96.5327
      XYYY     -20.2727   YYYY    -317.7195   XXXZ       4.3301
      XXYZ       5.9456   XYYZ       5.2096   YYYZ       0.9220
      XXZZ     -68.6124   XYZZ      -3.4301   YYZZ     -78.8972
      XZZZ       1.3488   YZZZ      -8.3580   ZZZZ    -177.5657
 -----------------------------------------------------------------
 Calculating analytic gradient of the SCF energy
 Gradient of SCF Energy
            1           2           3           4           5           6
    1   0.0022133   0.0100650  -0.0020603  -0.0015329   0.0015898  -0.0022082
    2  -0.0009607   0.0039326   0.0008265   0.0088164   0.0021103  -0.0005011
    3  -0.0017443  -0.0037362   0.0189744  -0.0028604   0.0015494   0.0011196
            7           8           9          10          11          12
    1  -0.0010574   0.0029164   0.0010611  -0.0026721   0.0004584  -0.0051556
    2   0.0008053   0.0004323   0.0026686   0.0018591   0.0020502  -0.0251450
    3   0.0017476  -0.0050986   0.0115855  -0.0005581  -0.0022423  -0.0211237
           13
    1  -0.0036175
    2   0.0031055
    3   0.0023871
 Max gradient component =       2.514E-02
 RMS gradient           =       7.061E-03
 Gradient time:  CPU 17.70 s  wall 6.67 s
rPathMan2.  file_steps = 951
 IRC --- Status = 3.  Assess initial corrector step
 IRC --- bisector search: b =  0.000000 E =     -286.851818 G.B =  -0.004399
 IRC --- bisector search: b =  0.015251 E =     -286.851806 G.B =   0.005896
 IRC --- performed gradient/energy interpolation
 IRC --- bisector search:  estimate b(min) =   6.518234232040569E-003
 ----------------------------------------------------------------
             Standard Nuclear Orientation (Angstroms)
    I     Atom           X                Y                Z
 ----------------------------------------------------------------
    1      C       1.1471294096     0.1588440097     0.4129969665
    2      C       0.8626486643    -0.9836847542    -0.5769841669
    3      C      -0.5030990474    -1.0197765201    -0.5723293019
    4      C      -1.0771722917     0.2601814147     0.0595900298
    5      C      -0.3623516793     1.4878481096    -0.5040318858
    6      N       0.8989077469     1.4633024553    -0.2932651623
    7      H       2.0993087310     0.1548041207     0.9407858142
    8      H       1.5718921456    -1.6303600038    -1.0872009679
    9      H      -1.1644754992    -1.8339355457    -0.8274908487
   10      H      -2.1588391886     0.3075672452     0.1983541800
   11      H      -0.8356621789     2.2932398083    -1.0664527944
   12      C      -0.1514362578    -0.0631796178     1.2083928726
   13      H      -0.3694983294    -0.6155498112     2.1095212136
 ----------------------------------------------------------------
 Nuclear Repulsion Energy =   279.6147314288 hartrees
 There are       25 alpha and       24 beta electrons

                       Distance Matrix (Angstroms)
             C (  1)   C (  2)   C (  3)   C (  4)   C (  5)   N (  6)
   C (  2)  1.538299
   C (  3)  2.254610  1.366232
   C (  4)  2.254481  2.390677  1.538562
   C (  5)  2.210368  2.759424  2.512500  1.528334
   N (  6)  1.504005  2.463647  2.865167  2.340278  1.278984
   H (  7)  1.088679  2.264754  3.231359  3.298127  3.150282  2.162409
   H (  8)  2.373240  1.086985  2.223397  3.450626  3.715455  3.264045
   H (  9)  3.294465  2.212445  1.079528  2.275931  3.432532  3.926159
   H ( 10)  3.316266  3.376073  2.257713  1.091560  2.261366  3.305636
   H ( 11)  3.267396  3.723181  3.366130  2.336584  1.090411  2.072522
   C ( 12)  1.538903  2.250171  2.051759  1.510396  2.320037  2.385026
   H ( 13)  2.403755  2.978426  2.715432  2.338787  3.354846  3.421091
             H (  7)   H (  8)   H (  9)   H ( 10)   H ( 11)   C ( 12)
   H (  8)  2.752764
   H (  9)  4.211196  2.756193
   H ( 10)  4.325086  4.396200  2.574325
   H ( 11)  4.149213  4.603410  4.147143  2.700635
   C ( 12)  2.277056  3.270423  2.882126  2.277564  3.346013
   H ( 13)  2.838027  3.875290  3.277574  2.776048  4.331879  1.079211

 
 Applying Cartesian multipole field
    Component          Value
    ---------          -----
     (2,0,0)        1.00000E-11
     (0,2,0)        2.00000E-11
     (0,0,2)       -3.00000E-11
 Nucleus-field energy     =     0.0000000026 hartrees
 Requested basis set is 6-31+G(d,p)
 There are 53 shells and 163 basis functions
 A cutoff of  1.0D-14 yielded   1405 shell pairs
 There are     13509 function pairs
 Smallest overlap matrix eigenvalue = 2.21E-05
 Guess MOs from core Hamiltonian diagonalization
 Mixing HOMO and LUMO in initial guess
 Adding  50% of the LUMO to the HOMO
 An unrestricted hybrid HF-DFT SCF calculation will be
 performed using Pulay DIIS extrapolation
[...]
 -0.866  -0.757  -0.667  -0.618  -0.581  -0.545  -0.528  -0.473
 -0.441  -0.421  -0.398  -0.371  -0.346  -0.315  -0.274  -0.268
 -0.193
 -- Virtual --
 -0.019   0.001   0.017   0.021   0.026   0.046   0.048   0.063
  0.068   0.075   0.085   0.097   0.102   0.106   0.113   0.117
  0.120   0.133   0.153   0.165   0.167   0.173   0.181   0.186
  0.187   0.197   0.207   0.214   0.226   0.238   0.249   0.253
  0.261   0.271   0.280   0.294   0.299   0.314   0.326   0.335
  0.360   0.388   0.440   0.453   0.614   0.650   0.668   0.698
  0.718   0.725   0.732   0.746   0.749   0.759   0.785   0.792
  0.805   0.813   0.849   0.880   0.898   0.912   0.935   0.980
  0.986   0.999   1.032   1.047   1.087   1.128   1.146   1.152
  1.202   1.278   1.319   1.359   1.413   1.438   1.471   1.499
  1.569   1.587   1.638   1.669   1.749   1.760   1.810   1.841
  1.890   1.923   1.949   1.969   2.003   2.024   2.083   2.155
  2.181   2.189   2.260   2.297   2.332   2.348   2.378   2.402
  2.415   2.447   2.479   2.482   2.489   2.515   2.534   2.546
  2.550   2.603   2.641   2.666   2.699   2.737   2.757   2.803
  2.817   2.882   2.967   3.045   3.106   3.271   3.324   3.361
  3.473   3.621   3.658   4.157   4.365   4.485   4.603   4.661
  4.665   4.883
 
 Beta MOs
 -- Occupied --
-14.331 -10.231 -10.230 -10.225 -10.220 -10.217 -10.198  -0.970
 -0.862  -0.747  -0.657  -0.612  -0.577  -0.542  -0.517  -0.470
 -0.436  -0.416  -0.394  -0.368  -0.334  -0.306  -0.269  -0.266
 -- Virtual --
 -0.073  -0.012   0.002   0.018   0.023   0.026   0.046   0.049
  0.064   0.068   0.080   0.087   0.099   0.102   0.106   0.116
  0.117   0.123   0.135   0.155   0.167   0.168   0.175   0.182
  0.187   0.189   0.200   0.211   0.215   0.234   0.239   0.251
  0.255   0.264   0.271   0.284   0.299   0.301   0.319   0.329
  0.337   0.362   0.390   0.449   0.456   0.617   0.664   0.674
  0.701   0.725   0.733   0.734   0.753   0.753   0.772   0.794
  0.798   0.811   0.818   0.851   0.882   0.900   0.914   0.938
  0.982   0.989   1.003   1.034   1.049   1.090   1.130   1.152
  1.163   1.203   1.283   1.324   1.362   1.417   1.446   1.480
  1.506   1.575   1.591   1.640   1.672   1.752   1.773   1.819
  1.850   1.901   1.932   1.955   1.979   2.009   2.028   2.092
  2.161   2.185   2.201   2.264   2.299   2.334   2.351   2.382
  2.408   2.420   2.452   2.482   2.487   2.500   2.520   2.540
  2.554   2.560   2.608   2.648   2.668   2.702   2.740   2.763
  2.807   2.820   2.884   2.969   3.049   3.108   3.272   3.327
  3.365   3.478   3.624   3.662   4.159   4.373   4.498   4.605
  4.666   4.670   4.888
 --------------------------------------------------------------
 
          Ground-State Mulliken Net Atomic Charges

     Atom                 Charge (a.u.)    Spin (a.u.)
  --------------------------------------------------------
      1 C                    -0.074444      -0.124335
      2 C                    -0.075713       1.020723
      3 C                    -0.133348      -0.149922
      4 C                    -0.098676       0.110387
      5 C                    -0.091917       0.042061
      6 N                    -0.209790       0.029970
      7 H                     0.135209       0.018753
      8 H                     0.130607      -0.024300
      9 H                     0.140387       0.004649
     10 H                     0.137902       0.001302
     11 H                     0.132411       0.004652
     12 C                    -0.125777       0.066434
     13 H                     0.133149      -0.000374
  --------------------------------------------------------
  Sum of atomic charges =     0.000000
  Sum of spin   charges =     1.000000

 -----------------------------------------------------------------
                    Cartesian Multipole Moments
 -----------------------------------------------------------------
    Charge (ESU x 10^10)
                 0.0000
    Dipole Moment (Debye)
         X      -2.1800      Y      -1.5349      Z       0.6354
       Tot       2.7408
    Quadrupole Moments (Debye-Ang)
        XX     -40.4903     XY      -3.3531     YY     -44.3454
        XZ       1.2156     YZ       0.3233     ZZ     -40.2212
    Octopole Moments (Debye-Ang^2)
       XXX     -18.8976    XXY      -9.7961    XYY     -16.6004
       YYY     -17.5150    XXZ       3.2765    XYZ       4.4624
       YYZ      -2.5920    XZZ      -4.1047    YZZ      -6.4952
       ZZZ       7.0473
    Hexadecapole Moments (Debye-Ang^3)
      XXXX    -246.3489   XXXY      -9.2503   XXYY    -104.1344
      XYYY     -13.4249   YYYY    -324.4417   XXXZ       9.8156
      XXYZ       8.7949   XYYZ       7.4139   YYYZ       9.5218
      XXZZ     -65.8265   XYZZ      -4.4822   YYZZ     -73.9274
      XZZZ       4.2947   YZZZ       9.8341   ZZZZ    -141.9845
 -----------------------------------------------------------------
 Calculating analytic gradient of the SCF energy
 Gradient of SCF Energy
            1           2           3           4           5           6
    1   0.0000811   0.0000773   0.0000637  -0.0001282   0.0007999  -0.0010244
    2  -0.0001957   0.0001098   0.0000485   0.0003442  -0.0001518   0.0002864
    3  -0.0000140  -0.0000346  -0.0001667  -0.0001854   0.0003969  -0.0002511
            7           8           9          10          11          12
    1  -0.0000537   0.0002194  -0.0000713  -0.0000319  -0.0001903   0.0002028
    2   0.0000763  -0.0005876   0.0000219  -0.0000314   0.0002378   0.0000290
    3  -0.0001510   0.0004244  -0.0001969   0.0000791   0.0001545  -0.0000528
           13
    1   0.0000555
    2  -0.0001872
    3  -0.0000024
 Max gradient component =       1.024E-03
 RMS gradient           =       2.837E-04
 Gradient time:  CPU 17.37 s  wall 4.70 s
rPathMan2.  file_steps = 952
 IRC --- Status = 3.  Assess initial corrector step
 IRC --- bisector search: b =  0.000000 E =     -286.860269 G.B =  -0.001225
 IRC --- bisector search: b =  0.002196 E =     -286.860269 G.B =   0.001494
 IRC --- performed gradient/energy interpolation
 IRC --- bisector search:  estimate b(min) =   9.910020932473744E-004
 ----------------------------------------------------------------
             Standard Nuclear Orientation (Angstroms)
    I     Atom           X                Y                Z
 ----------------------------------------------------------------
    1      C       1.1556988108     0.1288881213     0.4227628017
    2      C       0.9521014117    -0.9996149837    -0.5803224940
    3      C      -0.4653224004    -1.1042281306    -0.2570456427
    4      C      -1.1043842623     0.3514360676     0.0161690868
    5      C      -0.3166763326     1.4859963799    -0.5299603020
    6      N       0.9433274290     1.4181424629    -0.2858303424
    7      H       2.0557264358     0.1400302536     1.0378269056
    8      H       1.5476795689    -1.3218283999    -1.4285425702
    9      H      -1.1587686734    -1.9117947742    -0.4646751658
   10      H      -2.1852401127     0.3686074961     0.1121792368
   11      H      -0.7400906746     2.2953515040    -1.1218423783
   12      C      -0.2366444915    -0.3059900291     1.0292321376
   13      H      -0.4900544798    -0.5656950502     2.0519346807
 ----------------------------------------------------------------
 Nuclear Repulsion Energy =   281.6146383321 hartrees
 There are       25 alpha and       24 beta electrons

                       Distance Matrix (Angstroms)
             C (  1)   C (  2)   C (  3)   C (  4)   C (  5)   N (  6)
   C (  2)  1.523532
   C (  3)  2.147190  1.457581
   C (  4)  2.307124  2.531852  1.613073
   C (  5)  2.217501  2.791164  2.608801  1.485250
   N (  6)  1.486399  2.435642  2.889200  2.328560  1.285229
   H (  7)  1.090173  2.266095  3.095248  3.327879  3.146089  2.150133
   H (  8)  2.384441  1.085363  2.339216  3.452600  3.488145  3.029599
   H (  9)  3.210715  2.302438  1.084501  2.314386  3.501195  3.941989
   H ( 10)  3.363897  3.492063  2.294273  1.085248  2.269897  3.323834
   H ( 11)  3.267015  3.743469  3.518595  2.281795  1.088421  2.074201
   C ( 12)  1.579729  2.117758  1.531009  1.487104  2.376700  2.468675
   H ( 13)  2.417675  3.032635  2.371080  2.315788  3.302375  3.384574
             H (  7)   H (  8)   H (  9)   H ( 10)   H ( 11)   C ( 12)
   H (  8)  2.911721
   H (  9)  4.098839  2.932910
   H ( 10)  4.346823  4.377909  2.566445
   H ( 11)  4.138378  4.290915  4.278696  2.706217
   C ( 12)  2.335374  3.202561  2.379219  2.256788  3.412852
   H ( 13)  2.829746  4.103391  2.931295  2.740297  4.280300  1.085165

 
 Applying Cartesian multipole field
    Component          Value
    ---------          -----
     (2,0,0)        1.00000E-11
     (0,2,0)        2.00000E-11
     (0,0,2)       -3.00000E-11
 Nucleus-field energy     =     0.0000000031 hartrees
 Requested basis set is 6-31+G(d,p)
 There are 53 shells and 163 basis functions
 A cutoff of  1.0D-14 yielded   1405 shell pairs
 There are     13517 function pairs
 Smallest overlap matrix eigenvalue = 1.88E-05
 Guess MOs from core Hamiltonian diagonalization
 Mixing HOMO and LUMO in initial guess
 Adding  50% of the LUMO to the HOMO
 An unrestricted hybrid HF-DFT SCF calculation will be
 performed using Pulay DIIS extrapolation
 Exchange:     0.2000 Hartree-Fock + 0.0800 Slater + 0.7200 B88
 Correlation:  0.1900 VWN1RPA + 0.8100 LYP
 Using SG-1 standard quadrature grid
 SCF converges when DIIS error is below 1.0E-08
 using 4 threads for integral computing
 -------------------------------------------------------
 OpenMP Integral computing Module                
 Release: version 1.0, May 2013, Q-Chem Inc. Pittsburgh 
 -------------------------------------------------------
 -------------------------------------------------------
 OpenMP BLAS3 based DFT computing Module                
 Release: version 1.0, May 2013, Q-Chem Inc. Pittsburgh 
 -------------------------------------------------------
 ---------------------------------------
  Cycle       Energy         DIIS Error
 ---------------------------------------
    1    -236.4883085287      9.82E-02
    2    -213.9015199860      7.09E-02
    3    -264.9903306932      6.57E-02
    4    -268.7702252901      6.25E-02
    5    -273.7036043210      5.25E-02
    6    -283.6056979716      2.59E-02
    7    -285.7613077561      1.68E-02
    8    -286.2036940651      1.17E-02
    9    -286.7487959701      5.60E-03
   10    -286.8395209445      2.39E-03
   11    -286.8567727323      9.76E-04
   12    -286.8598918297      2.47E-04
   13    -286.8602345682      4.39E-05
   14    -286.8602640433      2.02E-05
   15    -286.8602680705      1.10E-05
   16    -286.8602694645      3.45E-06
   17    -286.8602697019      7.15E-07
   18    -286.8602697366      3.23E-07
   19    -286.8602697471      1.72E-07
   20    -286.8602697541      6.27E-08
   21    -286.8602697605      2.43E-08
   22    -286.8602697618      1.08E-08
   23    -286.8602697621      3.10E-09 Convergence criterion met
 ---------------------------------------
 <S^2> = 0.7557
 SCF time:  CPU 120.43 s  wall 49.14 s
 SCF   energy in the final basis set = -286.86026976
 Total energy in the final basis set = -286.86026976
 
 --------------------------------------------------------------
 
                    Orbital Energies (a.u.)
 --------------------------------------------------------------
 
 Alpha MOs
 -- Occupied --
-14.332 -10.230 -10.230 -10.224 -10.222 -10.219 -10.211  -0.974
 -0.866  -0.757  -0.667  -0.618  -0.581  -0.545  -0.528  -0.473
 -0.441  -0.421  -0.398  -0.371  -0.346  -0.315  -0.274  -0.268
 -0.193
 -- Virtual --
 -0.019   0.001   0.017   0.021   0.026   0.046   0.048   0.063
  0.068   0.075   0.085   0.097   0.102   0.106   0.113   0.117
  0.120   0.133   0.153   0.165   0.167   0.173   0.181   0.186
  0.187   0.197   0.207   0.214   0.226   0.238   0.249   0.253
  0.261   0.271   0.280   0.294   0.299   0.314   0.326   0.335
  0.360   0.387   0.440   0.453   0.614   0.650   0.668   0.698
  0.718   0.724   0.732   0.745   0.748   0.759   0.785   0.792
  0.805   0.813   0.849   0.880   0.898   0.912   0.935   0.980
  0.986   0.999   1.032   1.047   1.087   1.128   1.146   1.152
  1.202   1.278   1.319   1.359   1.413   1.438   1.471   1.499
  1.569   1.587   1.638   1.669   1.749   1.760   1.810   1.841
  1.890   1.923   1.949   1.969   2.003   2.024   2.083   2.155
  2.181   2.189   2.260   2.297   2.332   2.348   2.378   2.402
  2.415   2.447   2.479   2.482   2.489   2.515   2.533   2.546
  2.550   2.603   2.641   2.666   2.699   2.737   2.757   2.803
  2.817   2.881   2.967   3.045   3.106   3.271   3.324   3.361
  3.473   3.621   3.658   4.157   4.365   4.485   4.603   4.661
  4.665   4.883
 
 Beta MOs
 -- Occupied --
-14.331 -10.231 -10.230 -10.225 -10.220 -10.217 -10.198  -0.970
 -0.862  -0.747  -0.657  -0.612  -0.577  -0.542  -0.517  -0.470
 -0.436  -0.416  -0.394  -0.368  -0.334  -0.306  -0.269  -0.266
 -- Virtual --
 -0.073  -0.012   0.002   0.018   0.023   0.026   0.046   0.049
  0.064   0.068   0.080   0.087   0.099   0.102   0.106   0.116
  0.117   0.123   0.135   0.155   0.167   0.168   0.175   0.182
  0.187   0.189   0.200   0.211   0.215   0.234   0.239   0.251
  0.255   0.264   0.272   0.284   0.299   0.301   0.319   0.329
  0.337   0.362   0.390   0.449   0.455   0.617   0.664   0.674
  0.701   0.725   0.733   0.734   0.753   0.753   0.772   0.794
  0.798   0.811   0.818   0.851   0.882   0.900   0.914   0.938
  0.982   0.989   1.003   1.034   1.049   1.090   1.130   1.151
  1.163   1.204   1.283   1.324   1.362   1.416   1.446   1.480
  1.506   1.575   1.591   1.640   1.672   1.752   1.773   1.819
  1.851   1.901   1.932   1.955   1.979   2.009   2.028   2.091
  2.161   2.185   2.201   2.264   2.299   2.334   2.351   2.382
  2.408   2.420   2.452   2.482   2.487   2.500   2.520   2.540
  2.554   2.560   2.608   2.648   2.668   2.702   2.740   2.763
  2.807   2.820   2.884   2.969   3.049   3.107   3.272   3.327
  3.365   3.478   3.624   3.662   4.159   4.373   4.498   4.605
  4.666   4.670   4.888
 --------------------------------------------------------------
 
          Ground-State Mulliken Net Atomic Charges

     Atom                 Charge (a.u.)    Spin (a.u.)
  --------------------------------------------------------
      1 C                    -0.074337      -0.124309
      2 C                    -0.075678       1.020709
      3 C                    -0.133408      -0.149896
      4 C                    -0.098535       0.110279
      5 C                    -0.092213       0.042217
      6 N                    -0.209806       0.029897
      7 H                     0.135202       0.018762
      8 H                     0.130619      -0.024292
      9 H                     0.140394       0.004642
     10 H                     0.137909       0.001311
     11 H                     0.132477       0.004618
     12 C                    -0.125765       0.066435
     13 H                     0.133141      -0.000374
  --------------------------------------------------------
  Sum of atomic charges =    -0.000000
  Sum of spin   charges =     1.000000

 -----------------------------------------------------------------
                    Cartesian Multipole Moments
 -----------------------------------------------------------------
    Charge (ESU x 10^10)
                 0.0000
    Dipole Moment (Debye)
         X      -2.1815      Y      -1.5351      Z       0.6348
       Tot       2.7420
    Quadrupole Moments (Debye-Ang)
        XX     -40.4923     XY      -3.3560     YY     -44.3447
        XZ       1.2163     YZ       0.3214     ZZ     -40.2215
    Octopole Moments (Debye-Ang^2)
       XXX     -18.9031    XXY      -9.7985    XYY     -16.6060
       YYY     -17.5146    XXZ       3.2752    XYZ       4.4648
       YYZ      -2.5979    XZZ      -4.1076    YZZ      -6.4952
       ZZZ       7.0481
    Hexadecapole Moments (Debye-Ang^3)
      XXXX    -246.3904   XXXY      -9.2670   XXYY    -104.1417
      XYYY     -13.4454   YYYY    -324.4348   XXXZ       9.8178
      XXYZ       8.7946   XYYZ       7.4186   YYYZ       9.5028
      XXZZ     -65.8322   XYZZ      -4.4883   YYZZ     -73.9237
      XZZZ       4.2973   YZZZ       9.8304   ZZZZ    -141.9847
 -----------------------------------------------------------------
 Calculating analytic gradient of the SCF energy
 Gradient of SCF Energy
            1           2           3           4           5           6
    1   0.0000083   0.0000710   0.0000165  -0.0000241  -0.0002155  -0.0000591
    2  -0.0001158   0.0000901   0.0000796   0.0001596   0.0001360   0.0001538
    3  -0.0000841  -0.0000350  -0.0001498  -0.0000706   0.0000465  -0.0000146
            7           8           9          10          11          12
    1  -0.0000059   0.0002328  -0.0000447  -0.0000455  -0.0001092   0.0001030
    2   0.0000944  -0.0005903   0.0000471  -0.0000054   0.0001072   0.0000195
    3  -0.0001302   0.0004135  -0.0001903   0.0000690   0.0002582  -0.0000723
           13
    1   0.0000723
    2  -0.0001757
    3  -0.0000403
 Max gradient component =       5.903E-04
 RMS gradient           =       1.585E-04
 Gradient time:  CPU 17.48 s  wall 4.61 s
rPathMan2.  file_steps = 952
 IRC --- Status = 4.  Checking bisector search.
 IRC --- Bisector search finished successfully.
 ------------------------------------------------------------------------
 Reaction path following.  The coordinates are cartesian              
 Step  37 E=    -286.860270 |G|=  0.000990 S_lin= 1.3202 S_tot= 1.9652
 ------------------------------------------------------------------------
  IRC -- convergence criterion reached.
 ----------------------------------------------------------------
             Standard Nuclear Orientation (Angstroms)
    I     Atom           X                Y                Z
 ----------------------------------------------------------------
    1      C       1.1539367683     0.1570357881     0.4046694211
    2      C       0.8941989954    -0.9692349787    -0.5897704539
    3      C      -0.5040175243    -1.0156314701    -0.4941168848
    4      C      -1.0885210295     0.2942758132     0.0493381493
    5      C      -0.3639745787     1.4982520023    -0.5020977489
    6      N       0.8996541443     1.4615896558    -0.2906230978
    7      H       2.0972965999     0.1577065598     0.9474539008
    8      H       1.5809855740    -1.6286134427    -1.1003544089
    9      H      -1.1629887050    -1.8263835181    -0.7933047980
   10      H      -2.1653977568     0.3135143494     0.1975884463
   11      H      -0.8334022982     2.2973513379    -1.0718682761
   12      C      -0.1717451210    -0.1580714850     1.1411728921
   13      H      -0.3786728435    -0.6024897013     2.1037988077
 ----------------------------------------------------------------
 Nuclear Repulsion Energy =   280.5548231697 hartrees
 There are       25 alpha and       24 beta electrons
 Here is where we should summarize the reaction path
Archival summary:
1\1\c8-89\JobtypUnspecified\ProcedureUnspecified\6-31+G**\166(2)\hpark21\TueMar122:47:102022TueMar122:47:102022\0\\#,JobtypUnspecified,ProcedureUnspecified,6-31+G**,\\0,2\N\C,1,1.28173\H,2,1.08792,1,122.196\C,1,1.49998,2,105.574,3,-174.707,0\H,4,1.08837,1,112.183,2,-159.487,0\C,2,1.50951,1,112.962,3,176.76,0\H,6,1.0872,2,120.739,1,162.584,0\C,6,1.49573,2,102.338,1,24.7721,0\H,8,1.08027,6,131.108,2,145.294,0\C,4,1.52475,1,108.133,2,68.3337,0\H,10,1.08035,4,130.6,1,107.5,0\C,10,1.40225,4,98.6158,1,-80.4886,0\H,12,1.08677,10,127.627,4,-161.462,0\\\@

 Total job time:  14717.90s(wall), 29405.42s(cpu) 
 Tue Mar  1 22:47:10 2022

        *************************************************************
        *                                                           *
        *  Thank you very much for using Q-Chem.  Have a nice day.  *
        *                                                           *
        *************************************************************


