13   
Frame   0 IRC: Energy =  -286.8602700000 ; +0.0000 kcal/mol
C        1.1589794086    0.1304803584    0.4226177283
C        0.9553820095   -0.9980227466   -0.5804675674
C       -0.4620418026   -1.1026358935   -0.2571907161
C       -1.1011036645    0.3530283047    0.0160240134
C       -0.3133957348    1.4875886170   -0.5301053754
N        0.9466080268    1.4197347000   -0.2859754158
H        2.0590070336    0.1416224907    1.0376818322
H        1.5509601667   -1.3202361628   -1.4286876436
H       -1.1554880756   -1.9102025371   -0.4648202392
H       -2.1819595149    0.3701997332    0.1120341634
H       -0.7368100768    2.2969437411   -1.1219874517
C       -0.2333638937   -0.3043977920    1.0290870642
H       -0.4867738820   -0.5641028131    2.0517896073
13   
Frame   1 IRC: Energy =  -286.8602670000 ; +0.0019 kcal/mol
C        1.1590383744    0.1301135122    0.4225926482
C        0.9555360064   -0.9978697428   -0.5804733559
C       -0.4619739411   -1.1025641570   -0.2573222209
C       -1.1011580579    0.3534594572    0.0157685673
C       -0.3133322287    1.4876340462   -0.5299793508
N        0.9461324054    1.4200097131   -0.2861464701
H        2.0589422947    0.1417228717    1.0375071889
H        1.5511302402   -1.3208298949   -1.4282403578
H       -1.1556050188   -1.9102300281   -0.4649825053
H       -2.1820249759    0.3701818980    0.1121195184
H       -0.7368867774    2.2969869689   -1.1217424683
C       -0.2330696161   -0.3043425107    1.0290392463
H       -0.4867287054   -0.5642721339    2.0518595600
13   
Frame   2 IRC: Energy =  -286.8602430000 ; +0.0169 kcal/mol
C        1.1590148453    0.1317046845    0.4211703948
C        0.9550847766   -0.9977233945   -0.5811126001
C       -0.4623517889   -1.1015809497   -0.2590221000
C       -1.1015376918    0.3534541273    0.0163652545
C       -0.3144842788    1.4890412293   -0.5291787056
N        0.9456892490    1.4209832274   -0.2863225817
H        2.0594197861    0.1429032237    1.0357483840
H        1.5546710925   -1.3294728620   -1.4227736707
H       -1.1556961825   -1.9089436510   -0.4669628915
H       -2.1823118034    0.3703661386    0.1130589450
H       -0.7390266080    2.2993509883   -1.1194411120
C       -0.2332033785   -0.3042498312    1.0280684321
H       -0.4852680176   -0.5658329305    2.0504022513
13   
Frame   3 IRC: Energy =  -286.8602370000 ; +0.0207 kcal/mol
C        1.1590846984    0.1311315876    0.4208784408
C        0.9553613955   -0.9974260178   -0.5811964333
C       -0.4622138876   -1.1014363391   -0.2594494652
C       -1.1016343500    0.3540677967    0.0160820468
C       -0.3148252761    1.4892768371   -0.5290393866
N        0.9452221729    1.4214674613   -0.2864823522
H        2.0593959596    0.1431540378    1.0353873602
H        1.5551253974   -1.3309939774   -1.4216048517
H       -1.1559094482   -1.9089090000   -0.4673434995
H       -2.1824083026    0.3703610543    0.1132567265
H       -0.7392676415    2.2995451483   -1.1188689273
C       -0.2328283364   -0.3040101741    1.0279147136
H       -0.4851023813   -0.5662284149    2.0504656278
13   
Frame   4 IRC: Energy =  -286.8602250000 ; +0.0282 kcal/mol
C        1.1589973829    0.1323969460    0.4203525544
C        0.9549523889   -0.9975480986   -0.5814908442
C       -0.4625187475   -1.1009613859   -0.2600254479
C       -1.1018064830    0.3538157388    0.0164953533
C       -0.3151658584    1.4899671324   -0.5285998713
N        0.9451014420    1.4218007099   -0.2865310969
H        2.0596538624    0.1436246168    1.0345530122
H        1.5568740484   -1.3350219123   -1.4191947654
H       -1.1558229012   -1.9081903166   -0.4682573855
H       -2.1825452143    0.3704574022    0.1136843897
H       -0.7403513417    2.3007654577   -1.1179319006
C       -0.2330089352   -0.3042415359    1.0274094714
H       -0.4843596433   -0.5668647546    2.0495365308
13   
Frame   5 IRC: Energy =  -286.8602140000 ; +0.0351 kcal/mol
C        1.1590757002    0.1319836941    0.4197156805
C        0.9553119032   -0.9973102497   -0.5816360183
C       -0.4623202755   -1.1007510350   -0.2608076787
C       -1.1020675602    0.3545080353    0.0163507777
C       -0.3157891490    1.4904867730   -0.5283346232
N        0.9445712778    1.4225461880   -0.2866215997
H        2.0597428111    0.1440114547    1.0339169042
H        1.5578435271   -1.3379208021   -1.4171181921
H       -1.1561269952   -1.9079997144   -0.4689660644
H       -2.1826859361    0.3704824753    0.1140508165
H       -0.7409187070    2.3012868079   -1.1170043317
C       -0.2326651584   -0.3037824416    1.0270531918
H       -0.4839714380   -0.5675411854    2.0494011374
13   
Frame   6 IRC: Energy =  -286.8602020000 ; +0.0427 kcal/mol
C        1.1589580755    0.1328783767    0.4195430021
C        0.9552401635   -0.9978273783   -0.5815067382
C       -0.4623609085   -1.1003513819   -0.2612477326
C       -1.1021556462    0.3544957182    0.0165528128
C       -0.3163559916    1.4913222291   -0.5277665030
N        0.9443171069    1.4227422230   -0.2864894505
H        2.0600056164    0.1442570913    1.0330622566
H        1.5592207973   -1.3412168725   -1.4153089667
H       -1.1558838998   -1.9071449800   -0.4695885834
H       -2.1829967268    0.3706391494    0.1144683374
H       -0.7419165994    2.3023712366   -1.1165013122
C       -0.2328443302   -0.3042647814    1.0264367211
H       -0.4832276571   -0.5679006301    2.0483461566
13   
Frame   7 IRC: Energy =  -286.8601810000 ; +0.0558 kcal/mol
C        1.1592254337    0.1321197322    0.4186439176
C        0.9568865273   -1.0004077831   -0.5807225072
C       -0.4622832068   -1.0991526686   -0.2630792353
C       -1.1029950839    0.3553504545    0.0164850961
C       -0.3172695581    1.4925890040   -0.5271742171
N        0.9433199792    1.4241457001   -0.2856572930
H        2.0603659991    0.1443386973    1.0322115513
H        1.5612349750   -1.3446473056   -1.4148105814
H       -1.1558173126   -1.9068483917   -0.4701051531
H       -2.1840381632    0.3708320818    0.1150637539
H       -0.7429201911    2.3032066743   -1.1163290265
C       -0.2328263577   -0.3028443328    1.0264668762
H       -0.4828830408   -0.5686818623    2.0490068185
13   
Frame   8 IRC: Energy =  -286.8601520000 ; +0.0740 kcal/mol
C        1.1600490161    0.1306974035    0.4183838880
C        0.9579975119   -1.0014640006   -0.5801910700
C       -0.4621341433   -1.0987933582   -0.2643394596
C       -1.1027793045    0.3568199038    0.0157278628
C       -0.3176387544    1.4929085022   -0.5268226862
N        0.9419754618    1.4252774669   -0.2854591509
H        2.0600873700    0.1443535741    1.0316980414
H        1.5620305079   -1.3459221451   -1.4148708285
H       -1.1560026359   -1.9070578217   -0.4702740101
H       -2.1850744163    0.3708331232    0.1154073249
H       -0.7431213994    2.3032276499   -1.1161680595
C       -0.2325026745   -0.3017337721    1.0271253678
H       -0.4828865393   -0.5691465258    2.0497827800
13   
Frame   9 IRC: Energy =  -286.8599520000 ; +0.1995 kcal/mol
C        1.1595191168    0.1374769924    0.4115485655
C        0.9533543573   -0.9927404763   -0.5873191878
C       -0.4643184880   -1.0944689124   -0.2712028101
C       -1.1040289876    0.3572283356    0.0170656263
C       -0.3223009867    1.4982572058   -0.5234989609
N        0.9393542237    1.4299212536   -0.2890681949
H        2.0619675725    0.1514393366    1.0226221568
H        1.5770745030   -1.3899012149   -1.3802588433
H       -1.1573097663   -1.9014785504   -0.4811915350
H       -2.1843585824    0.3711540269    0.1197598772
H       -0.7527862797    2.3141365049   -1.1017279242
C       -0.2305628033   -0.3035217650    1.0213774362
H       -0.4756038793   -0.5775027367    2.0418937942
13   
Frame  10 IRC: Energy =  -286.8599260000 ; +0.2159 kcal/mol
C        1.1597076240    0.1365031656    0.4104074699
C        0.9533655066   -0.9914816065   -0.5881962488
C       -0.4636169003   -1.0945931116   -0.2719068205
C       -1.1042986318    0.3576740253    0.0167677157
C       -0.3227777456    1.4986269128   -0.5233413827
N        0.9389039518    1.4301477965   -0.2892558522
H        2.0619792639    0.1521591564    1.0221057179
H        1.5770726158   -1.3923950479   -1.3765458564
H       -1.1575442808   -1.9009638035   -0.4818524865
H       -2.1841659590    0.3712072492    0.1200668720
H       -0.7534225430    2.3148223983   -1.1006493388
C       -0.2299546299   -0.3035104026    1.0205896784
H       -0.4752482715   -0.5781967321    2.0418105319
13   
Frame  11 IRC: Energy =  -286.8595490000 ; +0.4524 kcal/mol
C        1.1599074504    0.1425434563    0.4029057267
C        0.9518608370   -0.9860417352   -0.5963601582
C       -0.4661455025   -1.0874858279   -0.2827578804
C       -1.1064634981    0.3599696403    0.0170617998
C       -0.3293520542    1.5069933417   -0.5177304222
N        0.9332418349    1.4398462719   -0.2883765398
H        2.0650390472    0.1551224116    1.0098782645
H        1.5948729308   -1.4427021876   -1.3393599041
H       -1.1570984031   -1.8962499727   -0.4928340852
H       -2.1863512367    0.3715029941    0.1262564680
H       -0.7643911497    2.3258215965   -1.0885863395
C       -0.2278418057   -0.3029550809    1.0152899498
H       -0.4672784505   -0.5863649082    2.0346131206
13   
Frame  12 IRC: Energy =  -286.8595240000 ; +0.4681 kcal/mol
C        1.1595138439    0.1432033753    0.4026144755
C        0.9525110302   -0.9863247101   -0.5973601448
C       -0.4666382613   -1.0869177667   -0.2829805583
C       -1.1069774436    0.3597183078    0.0174345704
C       -0.3294917296    1.5074868944   -0.5174860094
N        0.9330845056    1.4402820318   -0.2882945129
H        2.0654076176    0.1552217196    1.0093613943
H        1.5954910499   -1.4449514554   -1.3372870447
H       -1.1570501599   -1.8960522497   -0.4934165367
H       -2.1861707742    0.3715318591    0.1264998211
H       -0.7649496480    2.3263767326   -1.0880411196
C       -0.2277700491   -0.3027542648    1.0144695931
H       -0.4669599816   -0.5868204740    2.0344860720
13   
Frame  13 IRC: Energy =  -286.8591150000 ; +0.7248 kcal/mol
C        1.1603562139    0.1470546614    0.3953159768
C        0.9482645749   -0.9734342485   -0.6105828029
C       -0.4683128652   -1.0810420651   -0.2926239857
C       -1.1078181760    0.3605350184    0.0164024486
C       -0.3346619174    1.5134903558   -0.5128251631
N        0.9283601479    1.4490340460   -0.2861799751
H        2.0678354086    0.1559242563    0.9986156121
H        1.6072100522   -1.4872267344   -1.2987194261
H       -1.1560714917   -1.8929146803   -0.5018574019
H       -2.1871355114    0.3707350799    0.1312787506
H       -0.7730683492    2.3342332182   -1.0781979721
C       -0.2245636971   -0.3038273404    1.0103382128
H       -0.4603943895   -0.5925615672    2.0290357261
13   
Frame  14 IRC: Energy =  -286.8590790000 ; +0.7474 kcal/mol
C        1.1601067140    0.1475479894    0.3950896056
C        0.9483729161   -0.9732934604   -0.6124606958
C       -0.4687581058   -1.0810202815   -0.2935704179
C       -1.1080483914    0.3600336891    0.0167952799
C       -0.3349413350    1.5139727410   -0.5125058867
N        0.9282580979    1.4499443207   -0.2861362615
H        2.0682604895    0.1559974464    0.9979118087
H        1.6076517472   -1.4899958504   -1.2953353934
H       -1.1556556901   -1.8922819621   -0.5023743378
H       -2.1870870973    0.3707327583    0.1315879329
H       -0.7736817184    2.3349162256   -1.0775358944
C       -0.2245626086   -0.3035747019    1.0098738374
H       -0.4599150183   -0.5929789143    2.0286604230
13   
Frame  15 IRC: Energy =  -286.8589130000 ; +0.8515 kcal/mol
C        1.1605693842    0.1490677746    0.3919435420
C        0.9467863905   -0.9672303286   -0.6179046051
C       -0.4693623345   -1.0781082392   -0.2967629730
C       -1.1083026370    0.3605407665    0.0159449851
C       -0.3369008010    1.5162168683   -0.5107441811
N        0.9263303324    1.4529641796   -0.2849964323
H        2.0690293649    0.1560112220    0.9936499643
H        1.6117835953   -1.5062165343   -1.2798911802
H       -1.1555743113   -1.8916352442   -0.5056965909
H       -2.1873226538    0.3702473447    0.1333349056
H       -0.7766907567    2.3376971212   -1.0737396051
C       -0.2229023810   -0.3044891447    1.0081300162
H       -0.4574431919   -0.5950657858    2.0267321545
13   
Frame  16 IRC: Energy =  -286.8588720000 ; +0.8773 kcal/mol
C        1.1605144817    0.1491569620    0.3914293270
C        0.9464875748   -0.9667967385   -0.6200818979
C       -0.4693191178   -1.0783891668   -0.2984006345
C       -1.1084455179    0.3599038273    0.0163870161
C       -0.3369018803    1.5165984105   -0.5102840740
N        0.9259132722    1.4541376189   -0.2848953126
H        2.0694716968    0.1561241742    0.9928684803
H        1.6120893528   -1.5092962253   -1.2757060421
H       -1.1550961585   -1.8908347220   -0.5061786399
H       -2.1874118260    0.3702512258    0.1336998901
H       -0.7774455062    2.3385960907   -1.0730886621
C       -0.2229502941   -0.3039368079    1.0078939791
H       -0.4569060774   -0.5955146488    2.0263565705
13   
Frame  17 IRC: Energy =  -286.8587540000 ; +0.9513 kcal/mol
C        1.1606778717    0.1508096532    0.3893876855
C        0.9456697025   -0.9620640734   -0.6243294996
C       -0.4704315694   -1.0757749760   -0.2999156456
C       -1.1086155123    0.3603982657    0.0155070335
C       -0.3386597696    1.5183094024   -0.5091249592
N        0.9248275309    1.4561107999   -0.2840303538
H        2.0700061917    0.1559582584    0.9896791824
H        1.6149919922   -1.5210581151   -1.2644240365
H       -1.1550670358   -1.8906285757   -0.5086974118
H       -2.1873493321    0.3697664045    0.1348546576
H       -0.7794612337    2.3403253824   -1.0701814171
C       -0.2214927706   -0.3052336985    1.0063844433
H       -0.4550960656   -0.5969187278    2.0248903212
13   
Frame  18 IRC: Energy =  -286.8587080000 ; +0.9802 kcal/mol
C        1.1609536276    0.1504346058    0.3882605527
C        0.9450686851   -0.9611627328   -0.6265275233
C       -0.4697587540   -1.0760787462   -0.3020467260
C       -1.1087189083    0.3596811488    0.0159067920
C       -0.3384798437    1.5186926316   -0.5086170575
N        0.9242238770    1.4572995677   -0.2836656422
H        2.0703216767    0.1561239638    0.9887927784
H        1.6151150359   -1.5244201925   -1.2594560933
H       -1.1546949167   -1.8898258940   -0.5092004959
H       -2.1876790244    0.3697790704    0.1352652826
H       -0.7804139824    2.3414441541   -1.0695572065
C       -0.2213689247   -0.3045438829    1.0061860842
H       -0.4545685481   -0.5974236938    2.0246592548
13   
Frame  19 IRC: Energy =  -286.8586270000 ; +1.0310 kcal/mol
C        1.1605241361    0.1526475755    0.3877875483
C        0.9450727279   -0.9578341117   -0.6297544430
C       -0.4718379956   -1.0736781764   -0.3018789777
C       -1.1088898702    0.3605144040    0.0149523257
C       -0.3397776592    1.5198279702   -0.5076905131
N        0.9232649804    1.4585738328   -0.2834843603
H        2.0708794116    0.1557726678    0.9864827371
H        1.6174951785   -1.5328518010   -1.2522030972
H       -1.1546814263   -1.8900402949   -0.5111686740
H       -2.1870146898    0.3692610913    0.1359488947
H       -0.7815303522    2.3422176390   -1.0672317161
C       -0.2203254299   -0.3060996941    1.0049262483
H       -0.4531790114   -0.5983111025    2.0233140274
13   
Frame  20 IRC: Energy =  -286.8585500000 ; +1.0793 kcal/mol
C        1.1611827881    0.1520901952    0.3853433992
C        0.9436094036   -0.9553339199   -0.6333661081
C       -0.4704531177   -1.0734823116   -0.3052270425
C       -1.1088543467    0.3593901330    0.0153557266
C       -0.3403831319    1.5208526957   -0.5070138984
N        0.9228256953    1.4605162970   -0.2824802413
H        2.0712437057    0.1560030707    0.9846309949
H        1.6179893573   -1.5396718024   -1.2429187481
H       -1.1542376952   -1.8889055541   -0.5123166455
H       -2.1877582239    0.3692124695    0.1366632144
H       -0.7832773347    2.3441134066   -1.0658293463
C       -0.2197060360   -0.3055670353    1.0042961544
H       -0.4521810640   -0.5992176445    2.0228625407
13   
Frame  21 IRC: Energy =  -286.8584850000 ; +1.1201 kcal/mol
C        1.1607166552    0.1540320578    0.3851727287
C        0.9438951661   -0.9527551589   -0.6367333818
C       -0.4720996817   -1.0721073236   -0.3052022251
C       -1.1090139469    0.3599980020    0.0147092915
C       -0.3415590402    1.5217296540   -0.5062069180
N        0.9219309748    1.4617608058   -0.2824124310
H        2.0718779430    0.1556365921    0.9827503801
H        1.6196824502   -1.5467078089   -1.2365621601
H       -1.1541310182   -1.8888378476   -0.5139691636
H       -2.1870551127    0.3688413701    0.1371455982
H       -0.7841595833    2.3448228056   -1.0638508183
C       -0.2190796194   -0.3064469292    1.0034950572
H       -0.4510051869   -0.5999662192    2.0216640422
13   
Frame  22 IRC: Energy =  -286.8584220000 ; +1.1596 kcal/mol
C        1.1617007780    0.1540336755    0.3822803058
C        0.9432597808   -0.9507080186   -0.6394970569
C       -0.4698213839   -1.0731572134   -0.3064092127
C       -1.1095678236    0.3588972472    0.0150777283
C       -0.3418024191    1.5218247685   -0.5060856910
N        0.9215628353    1.4637289732   -0.2812869776
H        2.0717462110    0.1554687168    0.9813790627
H        1.6190669475   -1.5515655735   -1.2288200066
H       -1.1539085095   -1.8871040253   -0.5151868650
H       -2.1886843633    0.3691409573    0.1377476206
H       -0.7850854823    2.3462512275   -1.0624919417
C       -0.2180110125   -0.3061246467    1.0026096545
H       -0.4504555584   -0.6006860886    2.0206833796
13   
Frame  23 IRC: Energy =  -286.8583150000 ; +1.2268 kcal/mol
C        1.1611874545    0.1544507124    0.3825345695
C        0.9413574569   -0.9459135262   -0.6453624215
C       -0.4750700328   -1.0677329317   -0.3119843503
C       -1.1082544579    0.3584280556    0.0131964131
C       -0.3422082981    1.5235734899   -0.5042611493
N        0.9208206812    1.4644833578   -0.2810346201
H        2.0735798314    0.1577264418    0.9782820857
H        1.6213871504   -1.5624583648   -1.2162338371
H       -1.1536856338   -1.8885025638   -0.5167896880
H       -2.1857462234    0.3680874286    0.1377569501
H       -0.7883864604    2.3471450849   -1.0587938190
C       -0.2170690571   -0.3080041181    1.0019786616
H       -0.4479124110   -0.6012830662    2.0207112052
13   
Frame  24 IRC: Energy =  -286.8582760000 ; +1.2513 kcal/mol
C        1.1605581990    0.1550191651    0.3831620329
C        0.9415425180   -0.9447964995   -0.6462646135
C       -0.4770349947   -1.0651897834   -0.3119132341
C       -1.1079134910    0.3586742457    0.0125597668
C       -0.3421169724    1.5239476321   -0.5036926293
N        0.9202750432    1.4641847399   -0.2812363083
H        2.0740917433    0.1580959203    0.9776474815
H        1.6223592351   -1.5647489085   -1.2146528905
H       -1.1540447955   -1.8897000198   -0.5173145717
H       -2.1845268442    0.3677082942    0.1376599270
H       -0.7889533213    2.3470218591   -1.0579834321
C       -0.2167983329   -0.3087396360    1.0008988584
H       -0.4474379867   -0.6014770093    2.0211296129
13   
Frame  25 IRC: Energy =  -286.8580080000 ; +1.4194 kcal/mol
C        1.1614848333    0.1603659118    0.3759243812
C        0.9387633095   -0.9278719441   -0.6662387500
C       -0.4752150600   -1.0607896000   -0.3203443556
C       -1.1099817038    0.3588837846    0.0167978087
C       -0.3471382186    1.5279127925   -0.5012328175
N        0.9159183553    1.4734421277   -0.2779992418
H        2.0751686163    0.1549774983    0.9692727800
H        1.6251922602   -1.5960206908   -1.1657650965
H       -1.1527825001   -1.8806902276   -0.5298702762
H       -2.1870386472    0.3690968989    0.1517527326
H       -0.7921760468    2.3469010922   -1.0637856888
C       -0.2119454322   -0.3106875475    0.9976528051
H       -0.4402497660   -0.6155200961    2.0138357190
13   
Frame  26 IRC: Energy =  -286.8579800000 ; +1.4370 kcal/mol
C        1.1615224598    0.1617291986    0.3755647114
C        0.9391713373   -0.9259843931   -0.6682906066
C       -0.4755172450   -1.0603476932   -0.3189379434
C       -1.1105287248    0.3595730699    0.0168119946
C       -0.3478765991    1.5279543508   -0.5009197854
N        0.9151319747    1.4741619916   -0.2777620382
H        2.0752933789    0.1542703639    0.9686037018
H        1.6261070920   -1.5993166573   -1.1623942445
H       -1.1530661813   -1.8802972577   -0.5316220003
H       -2.1871914049    0.3691654497    0.1531206591
H       -0.7919041799    2.3463351270   -1.0639732117
C       -0.2115407150   -0.3102328529    0.9972953388
H       -0.4396011927   -0.6170106972    2.0125034244
13   
Frame  27 IRC: Energy =  -286.8579520000 ; +1.4546 kcal/mol
C        1.1617526473    0.1625952679    0.3755392237
C        0.9407311268   -0.9251288589   -0.6691201387
C       -0.4770193921   -1.0601924539   -0.3173871163
C       -1.1111985939    0.3604950074    0.0163979923
C       -0.3482501303    1.5279266700   -0.5007422022
N        0.9146420389    1.4740985237   -0.2776645582
H        2.0751404772    0.1538710132    0.9682544348
H        1.6265046067   -1.6004944626   -1.1616592871
H       -1.1532303130   -1.8804007363   -0.5324275185
H       -2.1867511963    0.3690560247    0.1534866334
H       -0.7916410791    2.3458608598   -1.0638281154
C       -0.2113213328   -0.3101721155    0.9973623633
H       -0.4393588594   -0.6175147394    2.0117882891
13   
Frame  28 IRC: Energy =  -286.8576960000 ; +1.6152 kcal/mol
C        1.1629513784    0.1606693207    0.3778011866
C        0.9388586626   -0.9221135403   -0.6703706811
C       -0.4769383402   -1.0531221554   -0.3291924223
C       -1.1075192627    0.3573981895    0.0260051439
C       -0.3501365067    1.5252279373   -0.4988684938
N        0.9138386701    1.4715638212   -0.2807760918
H        2.0769443816    0.1615077505    0.9708943373
H        1.6231034436   -1.6134023165   -1.1397885451
H       -1.1609402333   -1.8569457233   -0.5756802642
H       -2.1829787313    0.3601632316    0.1706533389
H       -0.8000976186    2.3316502750   -1.0752744048
C       -0.2070748081   -0.3143918713    1.0016018886
H       -0.4300110355   -0.6082049191    2.0229950078
13   
Frame  29 IRC: Energy =  -286.8576340000 ; +1.6541 kcal/mol
C        1.1621102751    0.1607335726    0.3787850405
C        0.9363907395   -0.9235479468   -0.6710302934
C       -0.4750665420   -1.0537441023   -0.3320385038
C       -1.1064157635    0.3566257654    0.0269744569
C       -0.3504636379    1.5256340151   -0.4992630734
N        0.9142541066    1.4717738767   -0.2812354888
H        2.0777280044    0.1622713017    0.9715241198
H        1.6224748301   -1.6136467461   -1.1378184069
H       -1.1608843247   -1.8543974816   -0.5782384456
H       -2.1836985477    0.3597017199    0.1719717348
H       -0.8006025159    2.3304875302   -1.0759714624
C       -0.2063720865   -0.3144720773    1.0022369741
H       -0.4294545374   -0.6074194278    2.0241033480
13   
Frame  30 IRC: Energy =  -286.8570260000 ; +2.0356 kcal/mol
C        1.1643343612    0.1600116483    0.3809457505
C        0.9406883886   -0.9244654252   -0.6627100602
C       -0.4764912893   -1.0490762821   -0.3302268645
C       -1.1071220307    0.3574806655    0.0369164658
C       -0.3540394769    1.5214819597   -0.4964768864
N        0.9113815376    1.4659456600   -0.2861606064
H        2.0803051023    0.1667221901    0.9704672776
H        1.6183072270   -1.6253649239   -1.1293327930
H       -1.1632299801   -1.8339836915   -0.6293873073
H       -2.1826637454    0.3511208909    0.1813619493
H       -0.8064455859    2.3186416942   -1.0828880626
C       -0.2056594597   -0.3144253625    1.0093834455
H       -0.4193650488   -0.5940890235    2.0381076916
13   
Frame  31 IRC: Energy =  -286.8567850000 ; +2.1869 kcal/mol
C        1.1636630542    0.1593896380    0.3824939623
C        0.9395817314   -0.9265914569   -0.6620091357
C       -0.4733013548   -1.0518749448   -0.3337564100
C       -1.1066416234    0.3570011491    0.0404160079
C       -0.3548464579    1.5209445805   -0.4962073257
N        0.9113528808    1.4642814978   -0.2870523158
H        2.0816613287    0.1680471186    0.9705112093
H        1.6160410443   -1.6269864303   -1.1265776156
H       -1.1631194784   -1.8280996868   -0.6407758290
H       -2.1841976008    0.3495662174    0.1834393523
H       -0.8080272895    2.3164896212   -1.0847870951
C       -0.2050571880   -0.3113499803    1.0134942080
H       -0.4171090466   -0.5908173235    2.0408109872
13   
Frame  32 IRC: Energy =  -286.8555760000 ; +2.9455 kcal/mol
C        1.1647732830    0.1586690968    0.3882994713
C        0.9369149521   -0.9334052384   -0.6375873420
C       -0.4831859282   -1.0405885193   -0.3369439424
C       -1.1052995204    0.3556889128    0.0416157775
C       -0.3560417314    1.5180598375   -0.4996504755
N        0.9101235314    1.4610079981   -0.2922073970
H        2.0896760781    0.1683156993    0.9648048944
H        1.6060158528   -1.6307140949   -1.1170751091
H       -1.1584465237   -1.8144712449   -0.6907848039
H       -2.1795845976    0.3385043660    0.1899748769
H       -0.8167032149    2.3090594508   -1.0882818942
C       -0.2060687699   -0.3101739353    1.0207667204
H       -0.4021734113   -0.5799523286    2.0570692237
13   
Frame  33 IRC: Energy =  -286.8534780000 ; +4.2620 kcal/mol
C        1.1642146548    0.1590697213    0.3930771201
C        0.9312818392   -0.9439906828   -0.6172992262
C       -0.4932658001   -1.0293403468   -0.3673001509
C       -1.1005960913    0.3450945568    0.0421593125
C       -0.3574761517    1.5133463903   -0.5032227123
N        0.9084387552    1.4600904926   -0.2949756430
H        2.0949619673    0.1667421550    0.9591573615
H        1.5979282185   -1.6314418617   -1.1092355811
H       -1.1577877510   -1.8140337231   -0.7255626160
H       -2.1739927218    0.3303922087    0.1929926890
H       -0.8218415966    2.3035489118   -1.0883714872
C       -0.1996101561   -0.2814579612    1.0438739747
H       -0.3922551664   -0.5780198610    2.0747069589
13   
Frame  34 IRC: Energy =  -286.8497690000 ; +6.5895 kcal/mol
C        1.1627913577    0.1591109809    0.3969557900
C        0.9229425817   -0.9537457883   -0.6017515762
C       -0.4998347784   -1.0199959022   -0.4067060361
C       -1.0952353974    0.3301286262    0.0432944410
C       -0.3585180188    1.5079407492   -0.5060541519
N        0.9064789510    1.4598536626   -0.2962967474
H        2.0979838055    0.1649197255    0.9542489015
H        1.5920731299   -1.6322583690   -1.1030849076
H       -1.1591438362   -1.8185844056   -0.7510280235
H       -2.1688293885    0.3246439291    0.1943167225
H       -0.8249169985    2.2994462904   -1.0872457478
C       -0.1902464482   -0.2410377920    1.0730827294
H       -0.3855449598   -0.5804217066    2.0902686062
13   
Frame  35 IRC: Energy =  -286.8457790000 ; +9.0932 kcal/mol
C        1.1604783221    0.1590944008    0.4004006583
C        0.9112598745   -0.9627700274   -0.5917736523
C       -0.5019061119   -1.0160183310   -0.4485583178
C       -1.0901715835    0.3139790692    0.0444987096
C       -0.3591600738    1.5027279478   -0.5081712266
N        0.9050083109    1.4601829200   -0.2968265749
H        2.0993955322    0.1634121925    0.9505395906
H        1.5876260567   -1.6331106678   -1.0977032176
H       -1.1602506422   -1.8233925935   -0.7690178586
H       -2.1650560537    0.3209201069    0.1947937364
H       -0.8265452705    2.2966135195   -1.0856214936
C       -0.1797877678   -0.1967940829    1.1069310371
H       -0.3808905930   -0.5848444541    2.1005086093
13   
Frame  36 IRC: Energy =  -286.8438740000 ; +10.2887 kcal/mol (Transition State)
C        1.1571796306    0.1596237533    0.4042405122
C        0.8968876634   -0.9713467881   -0.5847053621
C       -0.5014105595   -1.0160442531   -0.4894378855
C       -1.0850018848    0.2970580744    0.0472447537
C       -0.3591596264    1.4976450589   -0.5098474128
N        0.9043441787    1.4609285838   -0.2976370453
H        2.1003030531    0.1621663502    0.9474301277
H        1.5833181759   -1.6338547170   -1.0917045081
H       -1.1609620359   -1.8276961746   -0.7848838466
H       -2.1619258316    0.3179750493    0.1949236298
H       -0.8276380367    2.2943137091   -1.0837878509
C       -0.1690989273   -0.1506601729    1.1417169524
H       -0.3768357994   -0.5901084733    2.1064479356
13   
Frame  37 IRC: Energy =  -286.8461380000 ; +8.8680 kcal/mol
C        1.1537522365    0.1603574626    0.4084052569
C        0.8808624363   -0.9790980636   -0.5778624634
C       -0.5001606606   -1.0178295070   -0.5297199798
C       -1.0795706858    0.2799383709    0.0512303687
C       -0.3584550528    1.4924806303   -0.5112759867
N        0.9036324210    1.4617771421   -0.2988092146
H        2.1011794579    0.1610127632    0.9443971114
H        1.5792573785   -1.6348997715   -1.0854804222
H       -1.1614206587   -1.8316102766   -0.8006813979
H       -2.1588879766    0.3151093469    0.1949608236
H       -0.8287218034    2.2921508845   -1.0819263113
C       -0.1587030957   -0.1037568700    1.1757930966
H       -0.3727639966   -0.5956321120    2.1109691187
13   
Frame  38 IRC: Energy =  -286.8518320000 ; +5.2949 kcal/mol
C        1.1502724145    0.1617710923    0.4127143652
C        0.8655098183   -0.9859311889   -0.5711828107
C       -0.5002692422   -1.0209015630   -0.5672171624
C       -1.0737185791    0.2629563322    0.0573140295
C       -0.3575459400    1.4869456678   -0.5125548525
N        0.9035571315    1.4625425705   -0.3008381243
H        2.1021076368    0.1598567161    0.9411354977
H        1.5745609910   -1.6359582997   -1.0773918267
H       -1.1621366607   -1.8359144463   -0.8183479355
H       -2.1554362081    0.3119685531    0.1951144482
H       -0.8298447240    2.2896259506   -1.0796828081
C       -0.1489843163   -0.0548536584    1.2084703554
H       -0.3680723218   -0.6021077262    2.1124668242
13   