13   
Frame   0 IRC: Energy =  -286.8602700000 ; +0.0000 kcal/mol
C       -0.0743370000   -0.1243090000    0.0000000000
C       -0.0756780000    1.0207090000   -0.0000000000
C       -0.1334080000   -0.1498960000   -0.0000000000
C       -0.0985350000    0.1102790000    0.0000000000
C       -0.0922130000    0.0422170000   -0.0000000000
N       -0.2098060000    0.0298970000   -0.0000000000
H        0.1352020000    0.0187620000    0.0000000000
H        0.1306190000   -0.0242920000   -0.0000000000
H        0.1403940000    0.0046420000   -0.0000000000
H        0.1379090000    0.0013110000    0.0000000000
H        0.1324770000    0.0046180000   -0.0000000000
C       -0.1257650000    0.0664350000    0.0000000000
H        0.1331410000   -0.0003740000    0.0000000000
13   
Frame   1 IRC: Energy =  -286.8602670000 ; +0.0019 kcal/mol
C       -0.0743680000   -0.1243780000    0.0000000000
C       -0.0758300000    1.0206170000   -0.0000000000
C       -0.1332370000   -0.1499200000   -0.0000000000
C       -0.0988130000    0.1103750000    0.0000000000
C       -0.0918530000    0.0420540000   -0.0000000000
N       -0.2099590000    0.0300750000   -0.0000000000
H        0.1352110000    0.0187610000    0.0000000000
H        0.1306210000   -0.0243300000   -0.0000000000
H        0.1403930000    0.0046480000   -0.0000000000
H        0.1379120000    0.0012950000    0.0000000000
H        0.1324210000    0.0046590000   -0.0000000000
C       -0.1256850000    0.0665200000    0.0000000000
H        0.1331880000   -0.0003750000    0.0000000000
13   
Frame   2 IRC: Energy =  -286.8602430000 ; +0.0169 kcal/mol
C       -0.0744450000   -0.1245130000    0.0000000000
C       -0.0760120000    1.0207030000   -0.0000000000
C       -0.1336540000   -0.1496760000   -0.0000000000
C       -0.0992610000    0.1094200000    0.0000000000
C       -0.0912820000    0.0417940000   -0.0000000000
N       -0.2095770000    0.0300640000   -0.0000000000
H        0.1350840000    0.0186290000    0.0000000000
H        0.1307560000   -0.0246030000   -0.0000000000
H        0.1403450000    0.0046010000   -0.0000000000
H        0.1378660000    0.0013700000    0.0000000000
H        0.1324680000    0.0046530000   -0.0000000000
C       -0.1255060000    0.0678800000    0.0000000000
H        0.1332190000   -0.0003220000    0.0000000000
13   
Frame   3 IRC: Energy =  -286.8602370000 ; +0.0207 kcal/mol
C       -0.0742190000   -0.1246270000    0.0000000000
C       -0.0763360000    1.0203810000   -0.0000000000
C       -0.1334340000   -0.1496870000   -0.0000000000
C       -0.0996420000    0.1094900000    0.0000000000
C       -0.0909010000    0.0416470000   -0.0000000000
N       -0.2098760000    0.0303430000   -0.0000000000
H        0.1350870000    0.0186520000    0.0000000000
H        0.1307750000   -0.0246820000   -0.0000000000
H        0.1403490000    0.0046000000   -0.0000000000
H        0.1378740000    0.0013480000    0.0000000000
H        0.1324400000    0.0046970000   -0.0000000000
C       -0.1254360000    0.0681580000    0.0000000000
H        0.1333160000   -0.0003200000    0.0000000000
13   
Frame   4 IRC: Energy =  -286.8602250000 ; +0.0282 kcal/mol
C       -0.0746440000   -0.1246370000    0.0000000000
C       -0.0761740000    1.0207270000   -0.0000000000
C       -0.1338010000   -0.1495390000   -0.0000000000
C       -0.0997460000    0.1089340000    0.0000000000
C       -0.0907000000    0.0415050000   -0.0000000000
N       -0.2094660000    0.0301960000   -0.0000000000
H        0.1350190000    0.0185480000    0.0000000000
H        0.1308460000   -0.0247940000   -0.0000000000
H        0.1403130000    0.0045740000   -0.0000000000
H        0.1378440000    0.0014020000    0.0000000000
H        0.1324600000    0.0046790000   -0.0000000000
C       -0.1252140000    0.0686930000    0.0000000000
H        0.1332640000   -0.0002890000    0.0000000000
13   
Frame   5 IRC: Energy =  -286.8602140000 ; +0.0351 kcal/mol
C       -0.0743210000   -0.1247380000    0.0000000000
C       -0.0766000000    1.0201650000   -0.0000000000
C       -0.1336470000   -0.1495340000   -0.0000000000
C       -0.1002660000    0.1090020000    0.0000000000
C       -0.0901980000    0.0412860000   -0.0000000000
N       -0.2097510000    0.0305490000   -0.0000000000
H        0.1350150000    0.0185720000    0.0000000000
H        0.1308820000   -0.0248930000   -0.0000000000
H        0.1403190000    0.0045660000   -0.0000000000
H        0.1378460000    0.0013810000    0.0000000000
H        0.1324460000    0.0047270000   -0.0000000000
C       -0.1251160000    0.0691950000    0.0000000000
H        0.1333910000   -0.0002780000    0.0000000000
13   
Frame   6 IRC: Energy =  -286.8602020000 ; +0.0427 kcal/mol
C       -0.0750860000   -0.1246160000    0.0000000000
C       -0.0761230000    1.0202640000   -0.0000000000
C       -0.1341080000   -0.1493970000   -0.0000000000
C       -0.1003980000    0.1086920000    0.0000000000
C       -0.0900720000    0.0410860000   -0.0000000000
N       -0.2094430000    0.0305420000   -0.0000000000
H        0.1349820000    0.0184730000    0.0000000000
H        0.1309320000   -0.0248960000   -0.0000000000
H        0.1402730000    0.0045440000   -0.0000000000
H        0.1378420000    0.0014230000    0.0000000000
H        0.1325060000    0.0047340000   -0.0000000000
C       -0.1246010000    0.0694010000    0.0000000000
H        0.1332950000   -0.0002510000    0.0000000000
13   
Frame   7 IRC: Energy =  -286.8601810000 ; +0.0558 kcal/mol
C       -0.0739560000   -0.1239230000    0.0000000000
C       -0.0770380000    1.0189700000   -0.0000000000
C       -0.1338440000   -0.1490990000   -0.0000000000
C       -0.1006800000    0.1084030000    0.0000000000
C       -0.0893050000    0.0404000000   -0.0000000000
N       -0.2095830000    0.0310150000   -0.0000000000
H        0.1350460000    0.0184480000    0.0000000000
H        0.1309890000   -0.0245190000   -0.0000000000
H        0.1402510000    0.0045560000   -0.0000000000
H        0.1378810000    0.0014070000    0.0000000000
H        0.1326010000    0.0048600000   -0.0000000000
C       -0.1259480000    0.0697630000    0.0000000000
H        0.1335860000   -0.0002800000    0.0000000000
13   
Frame   8 IRC: Energy =  -286.8601520000 ; +0.0740 kcal/mol
C       -0.0732930000   -0.1236140000    0.0000000000
C       -0.0773000000    1.0178890000   -0.0000000000
C       -0.1338580000   -0.1491510000   -0.0000000000
C       -0.1003840000    0.1085570000    0.0000000000
C       -0.0887670000    0.0397920000   -0.0000000000
N       -0.2101310000    0.0316960000   -0.0000000000
H        0.1350910000    0.0183980000    0.0000000000
H        0.1310250000   -0.0243520000   -0.0000000000
H        0.1402610000    0.0045700000   -0.0000000000
H        0.1380150000    0.0013720000    0.0000000000
H        0.1325800000    0.0050030000   -0.0000000000
C       -0.1270260000    0.0701520000    0.0000000000
H        0.1337870000   -0.0003130000    0.0000000000
13   
Frame   9 IRC: Energy =  -286.8599520000 ; +0.1995 kcal/mol
C       -0.0759280000   -0.1263420000    0.0000000000
C       -0.0777190000    1.0211050000   -0.0000000000
C       -0.1360660000   -0.1477080000   -0.0000000000
C       -0.1031360000    0.1029350000    0.0000000000
C       -0.0854240000    0.0391040000   -0.0000000000
N       -0.2091280000    0.0313520000   -0.0000000000
H        0.1342920000    0.0177900000    0.0000000000
H        0.1320140000   -0.0273870000   -0.0000000000
H        0.1400630000    0.0043170000   -0.0000000000
H        0.1376510000    0.0016950000    0.0000000000
H        0.1323600000    0.0048860000   -0.0000000000
C       -0.1228890000    0.0782100000    0.0000000000
H        0.1339100000    0.0000420000    0.0000000000
13   
Frame  10 IRC: Energy =  -286.8599260000 ; +0.2159 kcal/mol
C       -0.0756560000   -0.1266740000    0.0000000000
C       -0.0780860000    1.0203600000   -0.0000000000
C       -0.1357340000   -0.1477090000   -0.0000000000
C       -0.1041100000    0.1032540000    0.0000000000
C       -0.0848050000    0.0389900000   -0.0000000000
N       -0.2095810000    0.0317380000   -0.0000000000
H        0.1342550000    0.0178760000    0.0000000000
H        0.1319640000   -0.0276900000   -0.0000000000
H        0.1400420000    0.0043090000   -0.0000000000
H        0.1376110000    0.0016580000    0.0000000000
H        0.1323390000    0.0049330000   -0.0000000000
C       -0.1222850000    0.0788620000    0.0000000000
H        0.1340460000    0.0000910000    0.0000000000
13   
Frame  11 IRC: Energy =  -286.8595490000 ; +0.4524 kcal/mol
C       -0.0801710000   -0.1276960000    0.0000000000
C       -0.0765660000    1.0227190000   -0.0000000000
C       -0.1413520000   -0.1449480000   -0.0000000000
C       -0.1038420000    0.0954910000    0.0000000000
C       -0.0810700000    0.0361880000   -0.0000000000
N       -0.2083410000    0.0320340000   -0.0000000000
H        0.1336080000    0.0168480000    0.0000000000
H        0.1336560000   -0.0305650000   -0.0000000000
H        0.1397730000    0.0040250000   -0.0000000000
H        0.1375750000    0.0019680000    0.0000000000
H        0.1323180000    0.0050650000   -0.0000000000
C       -0.1200920000    0.0883980000    0.0000000000
H        0.1345040000    0.0004740000    0.0000000000
13   
Frame  12 IRC: Energy =  -286.8595240000 ; +0.4681 kcal/mol
C       -0.0805810000   -0.1276770000    0.0000000000
C       -0.0771620000    1.0237050000   -0.0000000000
C       -0.1412970000   -0.1445860000   -0.0000000000
C       -0.1043180000    0.0947940000    0.0000000000
C       -0.0806180000    0.0360140000   -0.0000000000
N       -0.2080520000    0.0318220000   -0.0000000000
H        0.1335990000    0.0167870000    0.0000000000
H        0.1336290000   -0.0307290000   -0.0000000000
H        0.1397310000    0.0040000000   -0.0000000000
H        0.1375260000    0.0019720000    0.0000000000
H        0.1322980000    0.0050480000   -0.0000000000
C       -0.1193560000    0.0883440000    0.0000000000
H        0.1345990000    0.0005050000    0.0000000000
13   
Frame  13 IRC: Energy =  -286.8591150000 ; +0.7248 kcal/mol
C       -0.0864530000   -0.1297360000    0.0000000000
C       -0.0731980000    1.0275630000   -0.0000000000
C       -0.1481580000   -0.1413800000   -0.0000000000
C       -0.1015280000    0.0863250000    0.0000000000
C       -0.0784730000    0.0335210000   -0.0000000000
N       -0.2073840000    0.0315740000   -0.0000000000
H        0.1329150000    0.0157960000    0.0000000000
H        0.1354850000   -0.0346740000   -0.0000000000
H        0.1395460000    0.0037060000   -0.0000000000
H        0.1376030000    0.0021980000    0.0000000000
H        0.1321870000    0.0050520000   -0.0000000000
C       -0.1173950000    0.0989740000    0.0000000000
H        0.1348520000    0.0010810000    0.0000000000
13   
Frame  14 IRC: Energy =  -286.8590790000 ; +0.7474 kcal/mol
C       -0.0869530000   -0.1297820000    0.0000000000
C       -0.0731740000    1.0282440000   -0.0000000000
C       -0.1490190000   -0.1410750000   -0.0000000000
C       -0.1011130000    0.0855920000    0.0000000000
C       -0.0782890000    0.0332600000   -0.0000000000
N       -0.2071250000    0.0314040000   -0.0000000000
H        0.1328890000    0.0156860000    0.0000000000
H        0.1354460000   -0.0349740000   -0.0000000000
H        0.1394470000    0.0036600000   -0.0000000000
H        0.1375770000    0.0022040000    0.0000000000
H        0.1321720000    0.0050290000   -0.0000000000
C       -0.1167550000    0.0996200000    0.0000000000
H        0.1348960000    0.0011320000    0.0000000000
13   
Frame  15 IRC: Energy =  -286.8589130000 ; +0.8515 kcal/mol
C       -0.0899350000   -0.1304830000    0.0000000000
C       -0.0713760000    1.0302830000   -0.0000000000
C       -0.1513890000   -0.1393160000   -0.0000000000
C       -0.1000510000    0.0817230000    0.0000000000
C       -0.0774950000    0.0320970000   -0.0000000000
N       -0.2068780000    0.0311750000   -0.0000000000
H        0.1326550000    0.0152670000    0.0000000000
H        0.1362720000   -0.0365390000   -0.0000000000
H        0.1394750000    0.0035420000   -0.0000000000
H        0.1376520000    0.0022810000    0.0000000000
H        0.1321490000    0.0050160000   -0.0000000000
C       -0.1160360000    0.1035390000    0.0000000000
H        0.1349570000    0.0014150000    0.0000000000
13   
Frame  16 IRC: Energy =  -286.8588720000 ; +0.8773 kcal/mol
C       -0.0902600000   -0.1305590000    0.0000000000
C       -0.0710930000    1.0301060000   -0.0000000000
C       -0.1526200000   -0.1391110000   -0.0000000000
C       -0.0992990000    0.0812420000    0.0000000000
C       -0.0772020000    0.0316890000   -0.0000000000
N       -0.2066650000    0.0311560000   -0.0000000000
H        0.1326320000    0.0151700000    0.0000000000
H        0.1362240000   -0.0368560000   -0.0000000000
H        0.1393800000    0.0035010000   -0.0000000000
H        0.1376320000    0.0022790000    0.0000000000
H        0.1320940000    0.0050300000   -0.0000000000
C       -0.1158370000    0.1048720000    0.0000000000
H        0.1350140000    0.0014810000    0.0000000000
13   
Frame  17 IRC: Energy =  -286.8587540000 ; +0.9513 kcal/mol
C       -0.0930690000   -0.1309760000    0.0000000000
C       -0.0698250000    1.0329110000   -0.0000000000
C       -0.1540430000   -0.1374000000   -0.0000000000
C       -0.0986140000    0.0777100000    0.0000000000
C       -0.0768150000    0.0308160000   -0.0000000000
N       -0.2063780000    0.0307320000   -0.0000000000
H        0.1324760000    0.0147970000    0.0000000000
H        0.1368440000   -0.0380210000   -0.0000000000
H        0.1394120000    0.0033940000   -0.0000000000
H        0.1377040000    0.0023390000    0.0000000000
H        0.1321240000    0.0049640000   -0.0000000000
C       -0.1148100000    0.1070210000    0.0000000000
H        0.1349950000    0.0017150000    0.0000000000
13   
Frame  18 IRC: Energy =  -286.8587080000 ; +0.9802 kcal/mol
C       -0.0932130000   -0.1310600000    0.0000000000
C       -0.0693610000    1.0318500000   -0.0000000000
C       -0.1552990000   -0.1371950000   -0.0000000000
C       -0.0978130000    0.0773840000    0.0000000000
C       -0.0764320000    0.0303340000   -0.0000000000
N       -0.2062730000    0.0308570000   -0.0000000000
H        0.1324540000    0.0147300000    0.0000000000
H        0.1367930000   -0.0383240000   -0.0000000000
H        0.1393630000    0.0033650000   -0.0000000000
H        0.1377040000    0.0023360000    0.0000000000
H        0.1320720000    0.0050100000   -0.0000000000
C       -0.1150870000    0.1089120000    0.0000000000
H        0.1350920000    0.0018020000    0.0000000000
13   
Frame  19 IRC: Energy =  -286.8586270000 ; +1.0310 kcal/mol
C       -0.0961000000   -0.1313220000    0.0000000000
C       -0.0687340000    1.0360180000   -0.0000000000
C       -0.1559240000   -0.1356280000   -0.0000000000
C       -0.0976330000    0.0741700000    0.0000000000
C       -0.0760180000    0.0295610000   -0.0000000000
N       -0.2057970000    0.0302500000   -0.0000000000
H        0.1323630000    0.0143590000    0.0000000000
H        0.1372840000   -0.0392000000   -0.0000000000
H        0.1393500000    0.0032610000   -0.0000000000
H        0.1377290000    0.0023730000    0.0000000000
H        0.1320300000    0.0049230000   -0.0000000000
C       -0.1135140000    0.1092650000    0.0000000000
H        0.1349630000    0.0019720000    0.0000000000
13   
Frame  20 IRC: Energy =  -286.8585500000 ; +1.0793 kcal/mol
C       -0.0967440000   -0.1314220000    0.0000000000
C       -0.0675640000    1.0342330000   -0.0000000000
C       -0.1578970000   -0.1349680000   -0.0000000000
C       -0.0961820000    0.0731070000    0.0000000000
C       -0.0759250000    0.0288680000   -0.0000000000
N       -0.2057980000    0.0304160000   -0.0000000000
H        0.1323140000    0.0142350000    0.0000000000
H        0.1373740000   -0.0397580000   -0.0000000000
H        0.1393730000    0.0032100000   -0.0000000000
H        0.1377990000    0.0023900000    0.0000000000
H        0.1320860000    0.0049470000   -0.0000000000
C       -0.1139550000    0.1125780000    0.0000000000
H        0.1351190000    0.0021650000    0.0000000000
13   
Frame  21 IRC: Energy =  -286.8584850000 ; +1.1201 kcal/mol
C       -0.0990360000   -0.1315900000    0.0000000000
C       -0.0670210000    1.0376250000   -0.0000000000
C       -0.1586810000   -0.1337530000   -0.0000000000
C       -0.0958450000    0.0706320000    0.0000000000
C       -0.0755810000    0.0281000000   -0.0000000000
N       -0.2053540000    0.0299170000   -0.0000000000
H        0.1322720000    0.0139070000    0.0000000000
H        0.1376900000   -0.0404590000   -0.0000000000
H        0.1393180000    0.0031010000   -0.0000000000
H        0.1378020000    0.0023980000    0.0000000000
H        0.1320400000    0.0048650000   -0.0000000000
C       -0.1125850000    0.1129410000    0.0000000000
H        0.1349830000    0.0023160000    0.0000000000
13   
Frame  22 IRC: Energy =  -286.8584220000 ; +1.1596 kcal/mol
C       -0.1002180000   -0.1317180000    0.0000000000
C       -0.0655740000    1.0359530000   -0.0000000000
C       -0.1602440000   -0.1334460000   -0.0000000000
C       -0.0948400000    0.0707050000    0.0000000000
C       -0.0755960000    0.0272330000   -0.0000000000
N       -0.2051710000    0.0303310000   -0.0000000000
H        0.1322670000    0.0138550000    0.0000000000
H        0.1375460000   -0.0407950000   -0.0000000000
H        0.1392740000    0.0030470000   -0.0000000000
H        0.1379790000    0.0023980000    0.0000000000
H        0.1319990000    0.0048840000   -0.0000000000
C       -0.1124740000    0.1150420000    0.0000000000
H        0.1350510000    0.0025110000    0.0000000000
13   
Frame  23 IRC: Energy =  -286.8583150000 ; +1.2268 kcal/mol
C       -0.1010930000   -0.1315020000    0.0000000000
C       -0.0663700000    1.0403280000   -0.0000000000
C       -0.1606820000   -0.1299080000   -0.0000000000
C       -0.0928840000    0.0634560000    0.0000000000
C       -0.0747770000    0.0264500000   -0.0000000000
N       -0.2049860000    0.0287590000   -0.0000000000
H        0.1321000000    0.0132420000    0.0000000000
H        0.1379840000   -0.0418860000   -0.0000000000
H        0.1394130000    0.0029510000   -0.0000000000
H        0.1377340000    0.0024910000    0.0000000000
H        0.1320310000    0.0048020000   -0.0000000000
C       -0.1135380000    0.1181250000    0.0000000000
H        0.1350680000    0.0026930000    0.0000000000
13   
Frame  24 IRC: Energy =  -286.8582760000 ; +1.2513 kcal/mol
C       -0.1019640000   -0.1315160000    0.0000000000
C       -0.0674690000    1.0430270000   -0.0000000000
C       -0.1596350000   -0.1288230000   -0.0000000000
C       -0.0936130000    0.0614790000    0.0000000000
C       -0.0742670000    0.0262060000   -0.0000000000
N       -0.2048140000    0.0282820000   -0.0000000000
H        0.1320790000    0.0130870000    0.0000000000
H        0.1381640000   -0.0421490000   -0.0000000000
H        0.1395250000    0.0029420000   -0.0000000000
H        0.1376840000    0.0025080000    0.0000000000
H        0.1319820000    0.0047890000   -0.0000000000
C       -0.1128480000    0.1174110000    0.0000000000
H        0.1351750000    0.0027570000    0.0000000000
13   
Frame  25 IRC: Energy =  -286.8580080000 ; +1.4194 kcal/mol
C       -0.1125250000   -0.1303520000    0.0000000000
C       -0.0605350000    1.0426770000   -0.0000000000
C       -0.1680030000   -0.1224760000   -0.0000000000
C       -0.0896380000    0.0530600000    0.0000000000
C       -0.0727420000    0.0216120000   -0.0000000000
N       -0.2024370000    0.0281130000   -0.0000000000
H        0.1321620000    0.0117250000    0.0000000000
H        0.1381860000   -0.0440390000   -0.0000000000
H        0.1395140000    0.0023600000   -0.0000000000
H        0.1383680000    0.0024680000    0.0000000000
H        0.1320050000    0.0046570000   -0.0000000000
C       -0.1094390000    0.1263420000    0.0000000000
H        0.1350830000    0.0038530000    0.0000000000
13   
Frame  26 IRC: Energy =  -286.8579800000 ; +1.4370 kcal/mol
C       -0.1136540000   -0.1304200000    0.0000000000
C       -0.0601870000    1.0442410000   -0.0000000000
C       -0.1680810000   -0.1219830000   -0.0000000000
C       -0.0899060000    0.0524280000    0.0000000000
C       -0.0726650000    0.0209740000   -0.0000000000
N       -0.2021530000    0.0280670000   -0.0000000000
H        0.1321950000    0.0115750000    0.0000000000
H        0.1383030000   -0.0442170000   -0.0000000000
H        0.1395080000    0.0022910000   -0.0000000000
H        0.1385050000    0.0024490000    0.0000000000
H        0.1319350000    0.0046190000   -0.0000000000
C       -0.1087960000    0.1260330000    0.0000000000
H        0.1349970000    0.0039430000    0.0000000000
13   
Frame  27 IRC: Energy =  -286.8579520000 ; +1.4546 kcal/mol
C       -0.1139220000   -0.1304570000    0.0000000000
C       -0.0602310000    1.0464150000   -0.0000000000
C       -0.1676580000   -0.1214640000   -0.0000000000
C       -0.0905280000    0.0517850000    0.0000000000
C       -0.0723320000    0.0206240000   -0.0000000000
N       -0.2019880000    0.0279490000   -0.0000000000
H        0.1321710000    0.0114720000    0.0000000000
H        0.1382730000   -0.0443070000   -0.0000000000
H        0.1393970000    0.0022460000   -0.0000000000
H        0.1385010000    0.0024210000    0.0000000000
H        0.1318970000    0.0045940000   -0.0000000000
C       -0.1084360000    0.1247790000    0.0000000000
H        0.1348560000    0.0039420000    0.0000000000
13   
Frame  28 IRC: Energy =  -286.8576960000 ; +1.6152 kcal/mol
C       -0.1089140000   -0.1275480000    0.0000000000
C       -0.0593790000    1.0384690000   -0.0000000000
C       -0.1702980000   -0.1173680000   -0.0000000000
C       -0.0788650000    0.0445040000    0.0000000000
C       -0.0730510000    0.0218970000   -0.0000000000
N       -0.2036280000    0.0266350000   -0.0000000000
H        0.1320900000    0.0106560000    0.0000000000
H        0.1382170000   -0.0444540000   -0.0000000000
H        0.1393500000    0.0020320000   -0.0000000000
H        0.1388110000    0.0022530000    0.0000000000
H        0.1318860000    0.0046010000   -0.0000000000
C       -0.1210700000    0.1339370000    0.0000000000
H        0.1348500000    0.0043850000    0.0000000000
13   
Frame  29 IRC: Energy =  -286.8576340000 ; +1.6541 kcal/mol
C       -0.1086790000   -0.1272090000    0.0000000000
C       -0.0592020000    1.0353540000   -0.0000000000
C       -0.1717280000   -0.1179800000   -0.0000000000
C       -0.0770540000    0.0447110000    0.0000000000
C       -0.0733330000    0.0222240000   -0.0000000000
N       -0.2039210000    0.0265240000   -0.0000000000
H        0.1321790000    0.0106160000    0.0000000000
H        0.1382040000   -0.0443600000   -0.0000000000
H        0.1393710000    0.0020230000   -0.0000000000
H        0.1388510000    0.0022580000    0.0000000000
H        0.1319010000    0.0045380000   -0.0000000000
C       -0.1215690000    0.1368610000    0.0000000000
H        0.1349790000    0.0044390000    0.0000000000
13   
Frame  30 IRC: Energy =  -286.8570260000 ; +2.0356 kcal/mol
C       -0.1039630000   -0.1254570000    0.0000000000
C       -0.0587040000    1.0313470000   -0.0000000000
C       -0.1703870000   -0.1164030000   -0.0000000000
C       -0.0680560000    0.0418930000    0.0000000000
C       -0.0744820000    0.0239910000   -0.0000000000
N       -0.2051440000    0.0263080000   -0.0000000000
H        0.1319610000    0.0102070000    0.0000000000
H        0.1385720000   -0.0444920000   -0.0000000000
H        0.1388870000    0.0019460000   -0.0000000000
H        0.1392790000    0.0019900000    0.0000000000
H        0.1317270000    0.0046500000   -0.0000000000
C       -0.1342740000    0.1394330000    0.0000000000
H        0.1345830000    0.0045870000    0.0000000000
13   
Frame  31 IRC: Energy =  -286.8567850000 ; +2.1869 kcal/mol
C       -0.1006750000   -0.1253020000    0.0000000000
C       -0.0582750000    1.0248910000   -0.0000000000
C       -0.1724100000   -0.1181820000   -0.0000000000
C       -0.0640650000    0.0428840000    0.0000000000
C       -0.0751190000    0.0251530000   -0.0000000000
N       -0.2059160000    0.0263300000   -0.0000000000
H        0.1320630000    0.0102310000    0.0000000000
H        0.1384400000   -0.0442620000   -0.0000000000
H        0.1387780000    0.0019160000   -0.0000000000
H        0.1393300000    0.0019070000    0.0000000000
H        0.1317550000    0.0046070000   -0.0000000000
C       -0.1384110000    0.1453500000    0.0000000000
H        0.1345050000    0.0044760000    0.0000000000
13   
Frame  32 IRC: Energy =  -286.8555760000 ; +2.9455 kcal/mol
C       -0.0977170000   -0.1216030000    0.0000000000
C       -0.0625200000    1.0162080000   -0.0000000000
C       -0.1667520000   -0.1139290000   -0.0000000000
C       -0.0560200000    0.0355260000    0.0000000000
C       -0.0747060000    0.0281890000   -0.0000000000
N       -0.2061420000    0.0253330000   -0.0000000000
H        0.1316870000    0.0098650000    0.0000000000
H        0.1382700000   -0.0440620000   -0.0000000000
H        0.1382510000    0.0021510000   -0.0000000000
H        0.1393470000    0.0019830000    0.0000000000
H        0.1320290000    0.0047880000   -0.0000000000
C       -0.1508100000    0.1516140000    0.0000000000
H        0.1350820000    0.0039350000    0.0000000000
13   
Frame  33 IRC: Energy =  -286.8534780000 ; +4.2620 kcal/mol
C       -0.0730380000   -0.1182770000    0.0000000000
C       -0.0775860000    0.9859990000   -0.0000000000
C       -0.1652250000   -0.1163710000   -0.0000000000
C       -0.0401270000    0.0207660000    0.0000000000
C       -0.0740660000    0.0352650000   -0.0000000000
N       -0.2069850000    0.0205880000   -0.0000000000
H        0.1312650000    0.0096610000    0.0000000000
H        0.1376660000   -0.0425810000   -0.0000000000
H        0.1385270000    0.0027310000   -0.0000000000
H        0.1381650000    0.0022540000    0.0000000000
H        0.1324150000    0.0046320000   -0.0000000000
C       -0.1791710000    0.1945080000    0.0000000000
H        0.1381600000    0.0008250000    0.0000000000
13   
Frame  34 IRC: Energy =  -286.8497690000 ; +6.5895 kcal/mol
C       -0.0411220000   -0.1168790000    0.0000000000
C       -0.0982460000    0.9380750000   -0.0000000000
C       -0.1619160000   -0.1351430000   -0.0000000000
C       -0.0264070000    0.0041140000    0.0000000000
C       -0.0719480000    0.0426200000   -0.0000000000
N       -0.2080360000    0.0139430000   -0.0000000000
H        0.1308460000    0.0095170000    0.0000000000
H        0.1373900000   -0.0400530000   -0.0000000000
H        0.1394510000    0.0043790000   -0.0000000000
H        0.1364220000    0.0026440000    0.0000000000
H        0.1328850000    0.0040830000   -0.0000000000
C       -0.2117380000    0.2778040000    0.0000000000
H        0.1424190000   -0.0051050000    0.0000000000
13   
Frame  35 IRC: Energy =  -286.8457790000 ; +9.0932 kcal/mol
C       -0.0093510000   -0.1191200000    0.0000000000
C       -0.1184170000    0.8631720000   -0.0000000000
C       -0.1531450000   -0.1804060000   -0.0000000000
C       -0.0193290000   -0.0130140000    0.0000000000
C       -0.0680650000    0.0465940000   -0.0000000000
N       -0.2084110000    0.0056510000   -0.0000000000
H        0.1304850000    0.0091890000    0.0000000000
H        0.1376680000   -0.0361910000   -0.0000000000
H        0.1402510000    0.0079200000   -0.0000000000
H        0.1341990000    0.0031330000    0.0000000000
H        0.1336420000    0.0029360000   -0.0000000000
C       -0.2454600000    0.4250810000    0.0000000000
H        0.1459320000   -0.0149460000    0.0000000000
13   
Frame  36 IRC: Energy =  -286.8438740000 ; +10.2887 kcal/mol (Transition State)
C        0.0170890000   -0.1241380000    0.0000000000
C       -0.1333270000    0.7389690000   -0.0000000000
C       -0.1395420000   -0.2305170000   -0.0000000000
C       -0.0180920000   -0.0322180000    0.0000000000
C       -0.0639440000    0.0421830000   -0.0000000000
N       -0.2070110000   -0.0028840000   -0.0000000000
H        0.1303690000    0.0083200000    0.0000000000
H        0.1388470000   -0.0302020000   -0.0000000000
H        0.1405410000    0.0126590000   -0.0000000000
H        0.1315710000    0.0036260000    0.0000000000
H        0.1348900000    0.0013500000   -0.0000000000
C       -0.2787070000    0.6409140000    0.0000000000
H        0.1473140000   -0.0280640000    0.0000000000
13   
Frame  37 IRC: Energy =  -286.8461380000 ; +8.8680 kcal/mol
C        0.0370630000   -0.1249370000    0.0000000000
C       -0.1384730000    0.5507330000   -0.0000000000
C       -0.1312230000   -0.2115510000   -0.0000000000
C       -0.0194820000   -0.0527860000    0.0000000000
C       -0.0623920000    0.0279360000   -0.0000000000
N       -0.2046190000   -0.0070660000   -0.0000000000
H        0.1305210000    0.0067040000    0.0000000000
H        0.1411470000   -0.0219230000   -0.0000000000
H        0.1405920000    0.0142040000   -0.0000000000
H        0.1287860000    0.0038840000    0.0000000000
H        0.1364080000    0.0000200000   -0.0000000000
C       -0.3043090000    0.8537290000    0.0000000000
H        0.1459810000   -0.0389480000    0.0000000000
13   
Frame  38 IRC: Energy =  -286.8518320000 ; +5.2949 kcal/mol
C        0.0491490000   -0.1188530000    0.0000000000
C       -0.1373880000    0.3487920000   -0.0000000000
C       -0.1323060000   -0.1140620000   -0.0000000000
C       -0.0213430000   -0.0681180000    0.0000000000
C       -0.0660260000    0.0106310000   -0.0000000000
N       -0.2029250000   -0.0038090000   -0.0000000000
H        0.1306120000    0.0049690000    0.0000000000
H        0.1430320000   -0.0135370000   -0.0000000000
H        0.1410040000    0.0103110000   -0.0000000000
H        0.1264570000    0.0038460000    0.0000000000
H        0.1374560000   -0.0005860000   -0.0000000000
C       -0.3111400000    0.9827670000    0.0000000000
H        0.1434190000   -0.0423510000    0.0000000000
13   