
Running Job 1 of 1 irc_product.in
qchem irc_product.in_69763.0 ./irc_product.d/ 1
/home/leeping/opt/qchem/5.0.2-openmp/exe/qcprog.exe_s irc_product.in_69763.0 ./irc_product.d/
Check license passed

                  Welcome to Q-Chem
     A Quantum Leap Into The Future Of Chemistry


 Q-Chem 5.0, Q-Chem, Inc., Pleasanton, CA (2017)

 Yihan Shao,  Zhengting Gan,  E. Epifanovsky,  A. T. B. Gilbert,  M. Wormit,  
 J. Kussmann,  A. W. Lange,  A. Behn,  Jia Deng,  Xintian Feng,  D. Ghosh,  
 M. Goldey,  P. R. Horn,  L. D. Jacobson,  I. Kaliman,  T. Kus,  A. Landau,  
 Jie Liu,  E. I. Proynov,  R. M. Richard,  R. P. Steele,  E. J. Sundstrom,  
 H. L. Woodcock III,  P. M. Zimmerman,  D. Zuev,  B. Albrecht,  E. Alguire,  
 S. A. Baeppler,  D. Barton,  Z. Benda,  Y. A. Bernard,  E. J. Berquist,  
 K. B. Bravaya,  H. Burton,  D. Casanova,  Chun-Min Chang,  Yunqing Chen,  
 A. Chien,  K. D. Closser,  M. P. Coons,  S. Dasgupta,  A. L. Dempwolff,  
 M. Diedenhofen,  Hainam Do,  R. G. Edgar,  Po-Tung Fang,  S. Fatehi,  
 Qingguo Feng,  J. Fosso-Tande,  Qinghui Ge,  A. Ghysels,  G. Gidofalvi,  
 J. Gomes,  J. Gonthier,  A. Gunina,  M. W. D. Hanson-Heine,  
 P. H. P. Harbach,  A. W. Hauser,  J. E. Herr,  E. G. Hohenstein,  
 Z. C. Holden,  Kerwin Hui,  T.-C. Jagau,  Hyunjun Ji,  B. Kaduk,  
 K. Khistyaev,  Jaehoon Kim,  P. Klunzinger,  K. Koh,  D. Kosenkov,  
 L. Koulias,  T. Kowalczyk,  C. M. Krauter,  A. Kunitsa,  Ka Un Lao,  
 A. Laurent,  K. V. Lawler,  Joonho Lee,  D. Lefrancois,  S. Lehtola,  
 D. S. Levine,  Yi-Pei Li,  You-Sheng Lin,  Fenglai Liu,  E. Livshits,  
 A. Luenser,  P. Manohar,  E. Mansoor,  S. F. Manzer,  Shan-Ping Mao,  
 Yuezhi Mao,  N. Mardirossian,  A. V. Marenich,  T. Markovich,  
 L. A. Martinez-Martinez,  S. A. Maurer,  N. J. Mayhall,  S. C. McKenzie,  
 J.-M. Mewes,  A. F. Morrison,  J. W. Mullinax,  K. Nanda,  
 T. S. Nguyen-Beck,  R. Olivares-Amaya,  J. A. Parkhill,  T. M. Perrine,  
 F. Plasser,  S. Prager,  A. Prociuk,  E. Ramos,  D. R. Rehn,  F. Rob,  
 M. Schneider,  N. Sergueev,  S. M. Sharada,  S. Sharma,  D. W. Small,  
 T. Stauch,  T. Stein,  Yu-Chuan Su,  A. J. W. Thom,  A. Tkatchenko,  
 T. Tsuchimochi,  L. Vogt,  O. Vydrov,  M. A. Watson,  J. Wenzel,  
 M. de Wergifosse,  T. A. Wesolowski,  A. White,  J. Witte,  A. Yamada,  
 Jun Yang,  K. Yao,  S. Yeganeh,  S. R. Yost,  Zhi-Qiang You,  A. Zech,  
 Igor Ying Zhang,  Xing Zhang,  Yan Zhao,  Ying Zhu,  B. R. Brooks,  
 G. K. L. Chan,  C. J. Cramer,  M. S. Gordon,  W. J. Hehre,  A. Klamt,  
 M. W. Schmidt,  C. D. Sherrill,  D. G. Truhlar,  A. Aspuru-Guzik,  R. Baer,  
 A. T. Bell,  N. A. Besley,  Jeng-Da Chai,  R. A. DiStasio Jr.,  A. Dreuw,  
 B. D. Dunietz,  T. R. Furlani,  Chao-Ping Hsu,  Yousung Jung,  Jing Kong,  
 D. S. Lambrecht,  WanZhen Liang,  C. Ochsenfeld,  V. A. Rassolov,  
 L. V. Slipchenko,  J. E. Subotnik,  T. Van Voorhis,  J. M. Herbert,  
 A. I. Krylov,  P. M. W. Gill,  M. Head-Gordon

 Contributors to earlier versions of Q-Chem not listed above: 
 R. D. Adamson,  B. Austin,  J. Baker,  G. J. O. Beran,  K. Brandhorst,  
 S. T. Brown,  E. F. C. Byrd,  A. K. Chakraborty,  C.-L. Cheng,  
 Siu Hung Chien,  D. M. Chipman,  D. L. Crittenden,  H. Dachsel,  
 R. J. Doerksen,  A. D. Dutoi,  L. Fusti-Molnar,  W. A. Goddard III,  
 A. Golubeva-Zadorozhnaya,  S. R. Gwaltney,  G. Hawkins,  A. Heyden,  
 S. Hirata,  G. Kedziora,  F. J. Keil,  C. Kelley,  Jihan Kim,  R. A. King,  
 R. Z. Khaliullin,  P. P. Korambath,  W. Kurlancheek,  A. M. Lee,  M. S. Lee,  
 S. V. Levchenko,  Ching Yeh Lin,  D. Liotard,  R. C. Lochan,  I. Lotan,  
 P. E. Maslen,  N. Nair,  D. P. O'Neill,  D. Neuhauser,  E. Neuscamman,  
 C. M. Oana,  R. Olson,  B. Peters,  R. Peverati,  P. A. Pieniazek,  
 Y. M. Rhee,  J. Ritchie,  M. A. Rohrdanz,  E. Rosta,  N. J. Russ,  
 H. F. Schaefer III,  N. E. Schultz,  N. Shenvi,  A. C. Simmonett,  A. Sodt,  
 D. Stuck,  K. S. Thanthiriwatte,  V. Vanovschi,  Tao Wang,  A. Warshel,  
 C. F. Williams,  Q. Wu,  X. Xu,  W. Zhang

 Please cite Q-Chem as follows:
 Y. Shao et al., Mol. Phys. 113, 184-215 (2015)
 DOI: 10.1080/00268976.2014.952696

 Q-Chem 5.0.2 for Intel X86 EM64T Linux

 Parts of Q-Chem use Armadillo 5.200.1 (Boston Tea Smuggler).
 http://arma.sourceforge.net/

 Q-Chem begins on Tue Mar  1 22:56:00 2022  

Host: 
0

     Scratch files written to ./irc_product.d//
 Dec517 15110_ 26548  26544 5633   
Processing $rem in /home/leeping/opt/qchem/5.0.2-openmp/config/preferences.
 MEM_STATIC 2000
 MEM_TOTAL  8000
 SYMMETRY   OFF
 SYM_IGNORE TRUE 

Checking the input file for inconsistencies... 	...done.

--------------------------------------------------------------
User input:
--------------------------------------------------------------
$molecule
0 2
C        1.1460113781    0.1724902262    0.4345259844
C        0.8038347721   -1.0327776003   -0.4564551188
C       -0.5279478551   -1.0092895015   -0.6459723416
C       -1.0631183828    0.2191852587    0.1190320712
C       -0.3825188890    1.4446309703   -0.5245189690
N        0.8848204453    1.4382170763   -0.3628816863
H        2.1326030269    0.1813594371    0.8936805701
H        1.5247260376   -1.7330428731   -0.8618255674
H       -1.1378730901   -1.6926216701   -1.2261384860
H       -2.1389706337    0.2721304685    0.2844528312
H       -0.8971172888    2.2284210206   -1.0761632120
C       -0.1016683683    0.1140012979    1.3080214241
H       -0.2427811521   -0.6027041105    2.1142425001
$end

$rem
method                b3lyp
basis                 6-31+g(d,p)
unrestricted          true
symmetry              off
sym_ignore            true
incdft                false
incfock               0
scf_convergence       6
thresh                14
jobtype               sp
scf_guess             read
scf_algorithm         diis
max_scf_cycles        100
stability_analysis    true
max_cis_cycles        100
cis_n_roots           4
$end

--------------------------------------------------------------
 ----------------------------------------------------------------
             Standard Nuclear Orientation (Angstroms)
    I     Atom           X                Y                Z
 ----------------------------------------------------------------
    1      C       1.1460113781     0.1724902262     0.4345259844
    2      C       0.8038347721    -1.0327776003    -0.4564551188
    3      C      -0.5279478551    -1.0092895015    -0.6459723416
    4      C      -1.0631183828     0.2191852587     0.1190320712
    5      C      -0.3825188890     1.4446309703    -0.5245189690
    6      N       0.8848204453     1.4382170763    -0.3628816863
    7      H       2.1326030269     0.1813594371     0.8936805701
    8      H       1.5247260376    -1.7330428731    -0.8618255674
    9      H      -1.1378730901    -1.6926216701    -1.2261384860
   10      H      -2.1389706337     0.2721304685     0.2844528312
   11      H      -0.8971172888     2.2284210206    -1.0761632120
   12      C      -0.1016683683     0.1140012979     1.3080214241
   13      H      -0.2427811521    -0.6027041105     2.1142425001
 ----------------------------------------------------------------
 Nuclear Repulsion Energy =   279.0205105151 hartrees
 There are       25 alpha and       24 beta electrons
 Requested basis set is 6-31+G(d,p)
 There are 53 shells and 163 basis functions

 Total QAlloc Memory Limit   8000 MB
 Mega-Array Size      1956 MB
 MEM_STATIC part      2000 MB

                       Distance Matrix (Angstroms)
             C (  1)   C (  2)   C (  3)   C (  4)   C (  5)   N (  6)
   C (  2)  1.537401
   C (  3)  2.316510  1.345405
   C (  4)  2.232033  2.320369  1.542981
   C (  5)  2.207830  2.747657  2.461225  1.542430
   N (  6)  1.518599  2.474092  2.840131  2.347924  1.277622
   H (  7)  1.088239  2.250027  3.296469  3.288487  3.151664  2.171544
   H (  8)  2.335596  1.083689  2.187209  3.386771  3.721420  3.273425
   H (  9)  3.384166  2.190442  1.084225  2.338820  3.302300  3.826049
   H ( 10)  3.289917  3.303306  2.259009  1.089782  2.261485  3.304862
   H ( 11)  3.268548  3.729972  3.286962  2.343731  1.087865  2.075691
   C ( 12)  1.524178  2.290942  2.293815  1.532692  2.282029  2.349175
   H ( 13)  2.313248  2.808710  2.804535  2.308532  3.342779  3.401910
             H (  7)   H (  8)   H (  9)   H ( 10)   H ( 11)   C ( 12)
   H (  8)  2.667630
   H (  9)  4.324518  2.687711
   H ( 10)  4.315755  4.330975  2.672889
   H ( 11)  4.153306  4.648060  3.931289  2.687108
   C ( 12)  2.273364  3.281001  3.280179  2.285454  3.284486
   H ( 13)  2.783339  3.641254  3.625914  2.776509  4.315335  1.087921

 
 A cutoff of  1.0D-14 yielded   1410 shell pairs
 There are     13528 function pairs
 Smallest overlap matrix eigenvalue = 2.22E-05

 Scale SEOQF with 1.000000e-01/1.000000e-01/1.000000e-01

 Standard Electronic Orientation quadrupole field applied
 Nucleus-field energy     =     0.0000000023 hartrees
 Guess MOs from SCF MO coefficient file
 Reading MOs from coefficient file
 Reading MOs from coefficient file
 An unrestricted hybrid HF-DFT SCF calculation will be
 performed using Pulay DIIS extrapolation
 Exchange:     0.2000 Hartree-Fock + 0.0800 Slater + 0.7200 B88
 Correlation:  0.1900 VWN1RPA + 0.8100 LYP
 Using SG-1 standard quadrature grid
 SCF converges when DIIS error is below 1.0E-06
Using Q-Chem read-in guess as SCF_GUESS READ specified.

 -------------------------------------------------------
 OpenMP BLAS3 based DFT computing Module                
 -------------------------------------------------------
 ---------------------------------------
  Cycle       Energy         DIIS Error
 ---------------------------------------
    1    -286.8734851601      1.52E-09
    2    -286.8734851602      1.89E-09 Convergence criterion met
 ---------------------------------------
 <S^2> = 0.7538
 SCF time:  CPU 6.75 s  wall 16.39 s
 SCF   energy in the final basis set = -286.87348516
 Total energy in the final basis set = -286.87348516
 
 Direct TDDFT/TDA calculation will be performed
 Exchange:     0.2000 Hartree-Fock + 0.0800 Slater + 0.7200 B88
 Correlation:  0.1900 VWN1RPA + 0.8100 LYP
 Using SG-1 standard quadrature grid
 CIS energy converged when residual is below 10e- 6
 ---------------------------------------------------
 Iter    Rts Conv    Rts Left    Ttl Dev     Max Dev
 ---------------------------------------------------
   1         0           4      0.002880    0.001039
   2         0           4      0.001048    0.000335
   3         0           4      0.000948    0.000397
   4         0           4      0.001227    0.000619
   5         0           4      0.000679    0.000451
   6         0           4      0.000236    0.000139
   7         0           4      0.000067    0.000035
   8         1           3      0.000025    0.000014
   9         1           3      0.000010    0.000007
  10         3           1      0.000004    0.000002
  11         4           0      0.000002    0.000001    Roots Converged
 ---------------------------------------------------
 
 ---------------------------------------------------
         TDDFT/TDA Excitation Energies              
 ---------------------------------------------------

 Excited state   1: excitation energy (eV) =    3.1037
 Total energy for state  1:                  -286.75942648 au
    <S**2>     :  1.1528
    Trans. Mom.: -0.0952 X   0.0402 Y  -0.0537 Z
    Strength   :     0.0010316657
    S(  1) --> V(  1) amplitude =  0.9402 alpha
    D( 23) --> V(  1) amplitude = -0.1776 beta
    D( 24) --> V(  1) amplitude =  0.1564 beta

 Excited state   2: excitation energy (eV) =    4.1413
 Total energy for state  2:                  -286.72129576 au
    <S**2>     :  1.6976
    Trans. Mom.: -0.0060 X   0.0178 Y   0.0616 Z
    Strength   :     0.0004205598
    D( 22) --> V(  1) amplitude =  0.2039 alpha
    D( 24) --> V(  1) amplitude = -0.2946 alpha
    S(  1) --> V(  1) amplitude = -0.1775 alpha
    S(  1) --> V(  2) amplitude =  0.5184 alpha
    S(  1) --> V(  3) amplitude =  0.2432 alpha
    D( 22) --> V(  1) amplitude = -0.1867 beta
    D( 23) --> S(  1) amplitude =  0.2217 beta
    D( 23) --> V(  3) amplitude =  0.2018 beta
    D( 24) --> S(  1) amplitude =  0.4162 beta
    D( 24) --> V(  1) amplitude =  0.3366 beta

 Excited state   3: excitation energy (eV) =    4.2604
 Total energy for state  3:                  -286.71691982 au
    <S**2>     :  1.6987
    Trans. Mom.:  0.0217 X   0.1033 Y   0.0943 Z
    Strength   :     0.0020918167
    D( 22) --> V(  1) amplitude = -0.1561 alpha
    D( 24) --> V(  1) amplitude = -0.3386 alpha
    S(  1) --> V(  2) amplitude = -0.4403 alpha
    S(  1) --> V(  3) amplitude = -0.1995 alpha
    D( 22) --> V(  1) amplitude =  0.1667 beta
    D( 23) --> S(  1) amplitude =  0.2219 beta
    D( 23) --> V(  1) amplitude =  0.2872 beta
    D( 24) --> S(  1) amplitude =  0.5586 beta
    D( 24) --> V(  3) amplitude =  0.2234 beta

 Excited state   4: excitation energy (eV) =    4.3759
 Total energy for state  4:                  -286.71267344 au
    <S**2>     :  2.2306
    Trans. Mom.:  0.0289 X   0.0570 Y   0.1990 Z
    Strength   :     0.0046822231
    D( 22) --> V(  1) amplitude = -0.2035 alpha
    D( 22) --> V(  2) amplitude =  0.1572 alpha
    D( 23) --> V(  1) amplitude = -0.5358 alpha
    S(  1) --> V(  1) amplitude = -0.2086 alpha
    D( 22) --> S(  1) amplitude =  0.1584 beta
    D( 22) --> V(  1) amplitude =  0.2700 beta
    D( 22) --> V(  3) amplitude =  0.1681 beta
    D( 23) --> S(  1) amplitude = -0.3777 beta
    D( 23) --> V(  1) amplitude = -0.4064 beta
    D( 24) --> S(  1) amplitude =  0.2353 beta
    D( 24) --> V(  1) amplitude =  0.2034 beta
 
 ---------------------------------------------------

 Stability analysis will be performed
 ---------------------------------------------------
 Iter    Rts Conv    Rts Left    Ttl Dev     Max Dev
 ---------------------------------------------------
   1         0           8      0.004526    0.000693
   2         0           8      0.002832    0.000786
   3         0           8      0.000943    0.000258
   4         0           8      0.000441    0.000113
   5         1           7      0.000184    0.000050
   6         1           7      0.000052    0.000016
   7         4           4      0.000016    0.000005
   8         5           3      0.000005    0.000001
   9         8           0      0.000002    0.000000    Roots Converged
 UKS-> UKS   stable,    smallest eigenvalue:      0.0844520
 UKS->CUKS   stable,    smallest eigenvalue:      0.1184794
 ---------------------------------------------------
  SETman timing summary (seconds)
  CPU time               206.84s
  System time              0.00s
  Wall time              272.38s
 
 --------------------------------------------------------------
 
                    Orbital Energies (a.u.)
 --------------------------------------------------------------
 
 Alpha MOs
 -- Occupied --
-14.337 -10.235 -10.231 -10.221 -10.216 -10.213 -10.209  -0.965
 -0.833  -0.737  -0.715  -0.589  -0.583  -0.539  -0.520  -0.481
 -0.429  -0.420  -0.391  -0.383  -0.358  -0.305  -0.283  -0.271
 -0.206
 -- Virtual --
 -0.041   0.002   0.002   0.020   0.026   0.032   0.048   0.049
  0.065   0.071   0.075   0.094   0.104   0.106   0.108   0.120
  0.121   0.131   0.138   0.150   0.169   0.171   0.185   0.190
  0.193   0.199   0.204   0.219   0.230   0.234   0.239   0.247
  0.257   0.268   0.279   0.287   0.303   0.324   0.337   0.342
  0.353   0.392   0.420   0.455   0.616   0.668   0.681   0.702
  0.707   0.717   0.727   0.737   0.746   0.765   0.777   0.789
  0.805   0.832   0.859   0.892   0.898   0.951   0.959   0.995
  1.011   1.026   1.053   1.070   1.082   1.107   1.122   1.144
  1.210   1.288   1.310   1.328   1.359   1.407   1.431   1.481
  1.500   1.576   1.623   1.685   1.743   1.754   1.810   1.828
  1.891   1.898   1.972   1.988   2.032   2.048   2.092   2.112
  2.122   2.172   2.215   2.265   2.290   2.325   2.354   2.395
  2.403   2.449   2.453   2.477   2.496   2.513   2.516   2.559
  2.590   2.606   2.625   2.636   2.686   2.742   2.776   2.791
  2.817   2.866   2.917   3.043   3.109   3.285   3.329   3.389
  3.446   3.540   3.716   4.141   4.374   4.473   4.554   4.613
  4.763   4.826
 
 Beta MOs
 -- Occupied --
-14.336 -10.235 -10.231 -10.221 -10.212 -10.208 -10.202  -0.961
 -0.827  -0.735  -0.700  -0.587  -0.571  -0.536  -0.517  -0.472
 -0.425  -0.416  -0.389  -0.380  -0.352  -0.298  -0.273  -0.268
 -- Virtual --
 -0.064  -0.036   0.003   0.003   0.021   0.029   0.032   0.048
  0.050   0.068   0.073   0.076   0.094   0.105   0.107   0.109
  0.120   0.127   0.132   0.140   0.152   0.170   0.171   0.185
  0.191   0.197   0.200   0.207   0.223   0.233   0.238   0.241
  0.250   0.261   0.270   0.280   0.292   0.308   0.327   0.340
  0.344   0.362   0.393   0.422   0.457   0.619   0.681   0.687
  0.710   0.714   0.725   0.733   0.740   0.750   0.770   0.791
  0.795   0.807   0.835   0.861   0.899   0.904   0.953   0.967
  0.999   1.013   1.029   1.057   1.077   1.084   1.109   1.127
  1.147   1.213   1.292   1.313   1.333   1.363   1.409   1.435
  1.486   1.510   1.584   1.630   1.692   1.747   1.760   1.818
  1.839   1.895   1.910   1.976   1.992   2.046   2.057   2.096
  2.122   2.132   2.174   2.221   2.271   2.304   2.328   2.359
  2.397   2.407   2.452   2.455   2.479   2.498   2.518   2.520
  2.565   2.601   2.611   2.635   2.637   2.689   2.745   2.779
  2.796   2.821   2.870   2.919   3.045   3.111   3.286   3.329
  3.397   3.449   3.541   3.718   4.142   4.385   4.477   4.569
  4.621   4.766   4.827
 --------------------------------------------------------------
 
          Ground-State Mulliken Net Atomic Charges

     Atom                 Charge (a.u.)    Spin (a.u.)
  --------------------------------------------------------
      1 C                     0.025682      -0.090158
      2 C                    -0.147325       0.049352
      3 C                    -0.127522       0.091946
      4 C                     0.007713      -0.060926
      5 C                    -0.091749      -0.030751
      6 N                    -0.203082       0.024430
      7 H                     0.129400       0.003583
      8 H                     0.138966       0.000550
      9 H                     0.138695       0.000231
     10 H                     0.124663       0.003514
     11 H                     0.137288      -0.000138
     12 C                    -0.271644       1.034160
     13 H                     0.138915      -0.025794
  --------------------------------------------------------
  Sum of atomic charges =    -0.000000
  Sum of spin   charges =     1.000000

 -----------------------------------------------------------------
                    Cartesian Multipole Moments
 -----------------------------------------------------------------
    Charge (ESU x 10^10)
                -0.0000
    Dipole Moment (Debye)
         X      -1.6815      Y      -1.9835      Z       0.0118
       Tot       2.6003
    Quadrupole Moments (Debye-Ang)
        XX     -39.2662     XY      -4.5411     YY     -44.0173
        XZ       2.3887     YZ       0.1744     ZZ     -42.2180
    Octopole Moments (Debye-Ang^2)
       XXX     -12.7395    XXY     -12.3322    XYY     -12.3642
       YYY     -25.0682    XXZ       1.8941    XYZ       3.7209
       YYZ      -4.2789    XZZ      -5.3323    YZZ     -10.6321
       ZZZ       2.6133
    Hexadecapole Moments (Debye-Ang^3)
      XXXX    -227.6622   XXXY     -11.6664   XXYY     -93.9648
      XYYY     -22.5498   YYYY    -314.3408   XXXZ       0.8965
      XXYZ       5.3862   XYYZ       5.4795   YYYZ      -0.0754
      XXZZ     -69.6244   XYZZ      -2.0634   YYZZ     -78.9829
      XZZZ      -1.0048   YZZZ      -9.0833   ZZZZ    -188.9795
 -----------------------------------------------------------------
Archival summary:
1\1\c8-89\SP\ProcedureUnspecified\6-31+G**\166(2)\hpark21\TueMar123:00:592022TueMar123:00:592022\0\\#,ProcedureUnspecified,6-31+G**,\\0,2\N\C,1,1.27762\H,2,1.08786,1,122.48\C,1,1.5186,2,103.959,3,-179.26,0\H,4,1.08824,1,111.758,2,-163.278,0\C,4,1.52418,1,101.076,2,-34.4191,0\H,6,1.08792,4,123.791,1,-172.741,0\C,6,1.53269,4,93.8008,1,53.3025,0\H,8,1.08978,6,120.322,4,-176.601,0\C,4,1.5374,1,108.109,2,66.6803,0\H,10,1.08369,4,125.122,1,110.933,0\C,10,1.3454,4,106.754,1,-67.4943,0\H,12,1.08423,10,128.405,4,179.411,0\\\@

 Total job time:  298.29s(wall), 213.84s(cpu) 
 Tue Mar  1 23:00:59 2022

        *************************************************************
        *                                                           *
        *  Thank you very much for using Q-Chem.  Have a nice day.  *
        *                                                           *
        *************************************************************


