
Running Job 1 of 1 qcts1.in
qchem qcts1.in_41996.0 ./qcts1.d/ 1
/home/leeping/opt/qchem/5.0.2-openmp/exe/qcprog.exe_s qcts1.in_41996.0 ./qcts1.d/
Check license passed

                  Welcome to Q-Chem
     A Quantum Leap Into The Future Of Chemistry


 Q-Chem 5.0, Q-Chem, Inc., Pleasanton, CA (2017)

 Yihan Shao,  Zhengting Gan,  E. Epifanovsky,  A. T. B. Gilbert,  M. Wormit,  
 J. Kussmann,  A. W. Lange,  A. Behn,  Jia Deng,  Xintian Feng,  D. Ghosh,  
 M. Goldey,  P. R. Horn,  L. D. Jacobson,  I. Kaliman,  T. Kus,  A. Landau,  
 Jie Liu,  E. I. Proynov,  R. M. Richard,  R. P. Steele,  E. J. Sundstrom,  
 H. L. Woodcock III,  P. M. Zimmerman,  D. Zuev,  B. Albrecht,  E. Alguire,  
 S. A. Baeppler,  D. Barton,  Z. Benda,  Y. A. Bernard,  E. J. Berquist,  
 K. B. Bravaya,  H. Burton,  D. Casanova,  Chun-Min Chang,  Yunqing Chen,  
 A. Chien,  K. D. Closser,  M. P. Coons,  S. Dasgupta,  A. L. Dempwolff,  
 M. Diedenhofen,  Hainam Do,  R. G. Edgar,  Po-Tung Fang,  S. Fatehi,  
 Qingguo Feng,  J. Fosso-Tande,  Qinghui Ge,  A. Ghysels,  G. Gidofalvi,  
 J. Gomes,  J. Gonthier,  A. Gunina,  M. W. D. Hanson-Heine,  
 P. H. P. Harbach,  A. W. Hauser,  J. E. Herr,  E. G. Hohenstein,  
 Z. C. Holden,  Kerwin Hui,  T.-C. Jagau,  Hyunjun Ji,  B. Kaduk,  
 K. Khistyaev,  Jaehoon Kim,  P. Klunzinger,  K. Koh,  D. Kosenkov,  
 L. Koulias,  T. Kowalczyk,  C. M. Krauter,  A. Kunitsa,  Ka Un Lao,  
 A. Laurent,  K. V. Lawler,  Joonho Lee,  D. Lefrancois,  S. Lehtola,  
 D. S. Levine,  Yi-Pei Li,  You-Sheng Lin,  Fenglai Liu,  E. Livshits,  
 A. Luenser,  P. Manohar,  E. Mansoor,  S. F. Manzer,  Shan-Ping Mao,  
 Yuezhi Mao,  N. Mardirossian,  A. V. Marenich,  T. Markovich,  
 L. A. Martinez-Martinez,  S. A. Maurer,  N. J. Mayhall,  S. C. McKenzie,  
 J.-M. Mewes,  A. F. Morrison,  J. W. Mullinax,  K. Nanda,  
 T. S. Nguyen-Beck,  R. Olivares-Amaya,  J. A. Parkhill,  T. M. Perrine,  
 F. Plasser,  S. Prager,  A. Prociuk,  E. Ramos,  D. R. Rehn,  F. Rob,  
 M. Schneider,  N. Sergueev,  S. M. Sharada,  S. Sharma,  D. W. Small,  
 T. Stauch,  T. Stein,  Yu-Chuan Su,  A. J. W. Thom,  A. Tkatchenko,  
 T. Tsuchimochi,  L. Vogt,  O. Vydrov,  M. A. Watson,  J. Wenzel,  
 M. de Wergifosse,  T. A. Wesolowski,  A. White,  J. Witte,  A. Yamada,  
 Jun Yang,  K. Yao,  S. Yeganeh,  S. R. Yost,  Zhi-Qiang You,  A. Zech,  
 Igor Ying Zhang,  Xing Zhang,  Yan Zhao,  Ying Zhu,  B. R. Brooks,  
 G. K. L. Chan,  C. J. Cramer,  M. S. Gordon,  W. J. Hehre,  A. Klamt,  
 M. W. Schmidt,  C. D. Sherrill,  D. G. Truhlar,  A. Aspuru-Guzik,  R. Baer,  
 A. T. Bell,  N. A. Besley,  Jeng-Da Chai,  R. A. DiStasio Jr.,  A. Dreuw,  
 B. D. Dunietz,  T. R. Furlani,  Chao-Ping Hsu,  Yousung Jung,  Jing Kong,  
 D. S. Lambrecht,  WanZhen Liang,  C. Ochsenfeld,  V. A. Rassolov,  
 L. V. Slipchenko,  J. E. Subotnik,  T. Van Voorhis,  J. M. Herbert,  
 A. I. Krylov,  P. M. W. Gill,  M. Head-Gordon

 Contributors to earlier versions of Q-Chem not listed above: 
 R. D. Adamson,  B. Austin,  J. Baker,  G. J. O. Beran,  K. Brandhorst,  
 S. T. Brown,  E. F. C. Byrd,  A. K. Chakraborty,  C.-L. Cheng,  
 Siu Hung Chien,  D. M. Chipman,  D. L. Crittenden,  H. Dachsel,  
 R. J. Doerksen,  A. D. Dutoi,  L. Fusti-Molnar,  W. A. Goddard III,  
 A. Golubeva-Zadorozhnaya,  S. R. Gwaltney,  G. Hawkins,  A. Heyden,  
 S. Hirata,  G. Kedziora,  F. J. Keil,  C. Kelley,  Jihan Kim,  R. A. King,  
 R. Z. Khaliullin,  P. P. Korambath,  W. Kurlancheek,  A. M. Lee,  M. S. Lee,  
 S. V. Levchenko,  Ching Yeh Lin,  D. Liotard,  R. C. Lochan,  I. Lotan,  
 P. E. Maslen,  N. Nair,  D. P. O'Neill,  D. Neuhauser,  E. Neuscamman,  
 C. M. Oana,  R. Olson,  B. Peters,  R. Peverati,  P. A. Pieniazek,  
 Y. M. Rhee,  J. Ritchie,  M. A. Rohrdanz,  E. Rosta,  N. J. Russ,  
 H. F. Schaefer III,  N. E. Schultz,  N. Shenvi,  A. C. Simmonett,  A. Sodt,  
 D. Stuck,  K. S. Thanthiriwatte,  V. Vanovschi,  Tao Wang,  A. Warshel,  
 C. F. Williams,  Q. Wu,  X. Xu,  W. Zhang

 Please cite Q-Chem as follows:
 Y. Shao et al., Mol. Phys. 113, 184-215 (2015)
 DOI: 10.1080/00268976.2014.952696

 Q-Chem 5.0.2 for Intel X86 EM64T Linux

 Parts of Q-Chem use Armadillo 5.200.1 (Boston Tea Smuggler).
 http://arma.sourceforge.net/

 Q-Chem begins on Tue Mar  1 17:26:31 2022  

Host: 
0

     Scratch files written to ./qcts1.d//
 Dec517 15110_ 26548  26544 5633   
Processing $rem in /home/leeping/opt/qchem/5.0.2-openmp/config/preferences.
 MEM_STATIC 2000
 MEM_TOTAL  8000
 SYMMETRY   OFF
 SYM_IGNORE TRUE 

Checking the input file for inconsistencies... 	...done.

--------------------------------------------------------------
User input:
--------------------------------------------------------------
$molecule
0 2
C        1.3236819210    0.2417502468    0.1870109424
C        0.8968014870   -0.9569624109   -0.5111648071
C       -0.4829110703   -0.9836692483   -0.5218132920
C       -1.0697564635    0.2903088563    0.0371545080
C       -0.3834153954    1.5147167270   -0.4650887790
N        0.8903593883    1.5006483408   -0.3283440732
H        2.3610947572    0.2876659382    0.5516128745
H        1.5565147083   -1.8007840732   -0.6850016178
H       -1.0953970259   -1.8370103331   -0.8015077910
H       -2.1696283982    0.3469946855    0.0791026760
H       -0.9013856611    2.3968962641   -0.8340090100
C       -0.3044450242   -0.1470860876    1.2828278108
H       -0.6641609981   -0.8741679949    2.0111065075
$end

$rem
method                b3lyp
basis                 6-31g(d)
unrestricted          true
symmetry              off
sym_ignore            true
incdft                false
incfock               0
scf_convergence       8
thresh                14
jobtype               ts
scf_guess             read
scf_algorithm         diis
max_scf_cycles        100
geom_opt_max_cycles   500
geom_opt_dmax         100
geom_opt_tol_gradient 10
geom_opt_hessian      read
$end

--------------------------------------------------------------
 ----------------------------------------------------------------
             Standard Nuclear Orientation (Angstroms)
    I     Atom           X                Y                Z
 ----------------------------------------------------------------
    1      C       1.3236819210     0.2417502468     0.1870109424
    2      C       0.8968014870    -0.9569624109    -0.5111648071
    3      C      -0.4829110703    -0.9836692483    -0.5218132920
    4      C      -1.0697564635     0.2903088563     0.0371545080
    5      C      -0.3834153954     1.5147167270    -0.4650887790
    6      N       0.8903593883     1.5006483408    -0.3283440732
    7      H       2.3610947572     0.2876659382     0.5516128745
    8      H       1.5565147083    -1.8007840732    -0.6850016178
    9      H      -1.0953970259    -1.8370103331    -0.8015077910
   10      H      -2.1696283982     0.3469946855     0.0791026760
   11      H      -0.9013856611     2.3968962641    -0.8340090100
   12      C      -0.3044450242    -0.1470860876     1.2828278108
   13      H      -0.6641609981    -0.8741679949     2.0111065075
 ----------------------------------------------------------------
 Nuclear Repulsion Energy =   276.3593580918 hartrees
 There are       25 alpha and       24 beta electrons
 Requested basis set is 6-31G(d)
 There are 40 shells and 117 basis functions

 Total QAlloc Memory Limit   8000 MB
 Mega-Array Size      1956 MB
 MEM_STATIC part      2000 MB
 A cutoff of  1.0D-14 yielded    811 shell pairs
 There are      7083 function pairs
 
 -------------------------------------------------------
 OpenMP Integral Computing Module                       
 Release: version 1.0, May 2013, Q-Chem Inc. Pittsburgh 
 -------------------------------------------------------
 Integral Job Info:
 Integral job number is                      11
 Integral operator is                         1
 short-range coefficients                     0
 long-range coefficients              100000000
 Omega coefficients                           0
 if combine SR and LR in K                    0
 Integral screening is                        0
 Integral computing path is                   2
 max size of driver memory is            800000
 size of driver memory is                593474
 size of scratch memory is              2361544
 max col of scratch BK array               1296
 max len of scratch array in speh3          155
 max len of scratch index in speh4           18
 max int batch size is                      520
 min int batch size is                       52
 fixed nKL is                                52
 max L of basis functions is                  2
 order of int derivative is                   0
 number of shells is                         40
 number of basis is                         117
 number of cartesian basis is               117
 number of contracted shell pairs           811
 number of primitive shell pairs           3564
 maxK2 (contraction) of shell pair           36
 max number of K2 of shell pair               1
 max number of CS2 of shell pair             84
 max number of PS2 of shell pair            378
 mem total for path MDJ                  535308
 -------------------------------------------------------
 Smallest overlap matrix eigenvalue = 1.23E-03

 Scale SEOQF with 1.000000e-01/1.000000e-01/1.000000e-01

 Standard Electronic Orientation quadrupole field applied
 Nucleus-field energy     =     0.0000000033 hartrees
 Guess MOs from SCF MO coefficient file
 Reading MOs from coefficient file
 Reading MOs from coefficient file
 An unrestricted hybrid HF-DFT SCF calculation will be
 performed using Pulay DIIS extrapolation
 Exchange:     0.2000 Hartree-Fock + 0.0800 Slater + 0.7200 B88
 Correlation:  0.1900 VWN1RPA + 0.8100 LYP
 Using SG-1 standard quadrature grid
 SCF converges when DIIS error is below 1.0E-08
Using Q-Chem read-in guess as SCF_GUESS READ specified.

 using 4 threads for integral computing
 -------------------------------------------------------
 OpenMP Integral computing Module                
 Release: version 1.0, May 2013, Q-Chem Inc. Pittsburgh 
 -------------------------------------------------------
 -------------------------------------------------------
 OpenMP BLAS3 based DFT computing Module                
 Release: version 1.0, May 2013, Q-Chem Inc. Pittsburgh 
 -------------------------------------------------------
 ---------------------------------------
  Cycle       Energy         DIIS Error
 ---------------------------------------
    1    -286.7815374530      6.82E-10
    2    -286.7815374530      9.03E-10 Convergence criterion met
 ---------------------------------------
 <S^2> = 0.7899
 SCF time:  CPU 5.89 s  wall 7.20 s
 SCF   energy in the final basis set = -286.78153745
 Total energy in the final basis set = -286.78153745
 
 --------------------------------------------------------------
 
                    Orbital Energies (a.u.)
 --------------------------------------------------------------
 
 Alpha MOs
 -- Occupied --
-14.328 -10.242 -10.226 -10.217 -10.216 -10.208 -10.187  -0.953
 -0.832  -0.753  -0.661  -0.608  -0.588  -0.534  -0.493  -0.459
 -0.440  -0.418  -0.393  -0.378  -0.332  -0.291  -0.268  -0.255
 -0.139
 -- Virtual --
 -0.039   0.006   0.062   0.090   0.139   0.152   0.157   0.166
  0.175   0.201   0.244   0.250   0.284   0.329   0.382   0.390
  0.485   0.496   0.522   0.552   0.571   0.596   0.603   0.606
  0.619   0.645   0.666   0.681   0.689   0.708   0.757   0.814
  0.824   0.833   0.844   0.849   0.866   0.870   0.901   0.927
  0.961   1.050   1.083   1.112   1.149   1.179   1.248   1.292
  1.366   1.416   1.456   1.513   1.553   1.608   1.617   1.651
  1.761   1.792   1.826   1.852   1.953   1.980   2.025   2.044
  2.095   2.141   2.174   2.209   2.228   2.295   2.305   2.333
  2.387   2.435   2.455   2.497   2.554   2.606   2.618   2.666
  2.691   2.806   2.841   2.932   3.041   3.936   4.185   4.232
  4.259   4.415   4.467   4.596
 
 Beta MOs
 -- Occupied --
-14.327 -10.243 -10.226 -10.218 -10.217 -10.194 -10.180  -0.951
 -0.826  -0.748  -0.652  -0.606  -0.572  -0.531  -0.488  -0.456
 -0.437  -0.415  -0.391  -0.377  -0.320  -0.278  -0.263  -0.243
 -- Virtual --
 -0.032  -0.007   0.015   0.076   0.092   0.140   0.152   0.159
  0.171   0.179   0.205   0.246   0.255   0.286   0.330   0.384
  0.393   0.497   0.505   0.525   0.559   0.574   0.603   0.607
  0.618   0.630   0.646   0.671   0.687   0.699   0.716   0.762
  0.815   0.824   0.834   0.848   0.854   0.869   0.873   0.904
  0.930   0.963   1.058   1.091   1.122   1.154   1.182   1.253
  1.297   1.377   1.420   1.461   1.520   1.561   1.609   1.633
  1.651   1.767   1.812   1.840   1.858   1.970   1.988   2.028
  2.048   2.104   2.156   2.180   2.222   2.231   2.305   2.314
  2.341   2.401   2.445   2.462   2.500   2.562   2.609   2.621
  2.671   2.697   2.808   2.842   2.933   3.042   3.936   4.185
  4.254   4.276   4.415   4.468   4.596
 --------------------------------------------------------------
 
          Ground-State Mulliken Net Atomic Charges

     Atom                 Charge (a.u.)    Spin (a.u.)
  --------------------------------------------------------
      1 C                    -0.058057      -0.119551
      2 C                    -0.074796       0.450014
      3 C                    -0.107178      -0.194097
      4 C                    -0.236443      -0.023621
      5 C                     0.120372      -0.020842
      6 N                    -0.330362       0.016413
      7 H                     0.144504       0.004582
      8 H                     0.142292      -0.024571
      9 H                     0.152268       0.012760
     10 H                     0.142155       0.010256
     11 H                     0.153017       0.001627
     12 C                    -0.200496       0.927844
     13 H                     0.152723      -0.040813
  --------------------------------------------------------
  Sum of atomic charges =    -0.000000
  Sum of spin   charges =     1.000000

 -----------------------------------------------------------------
                    Cartesian Multipole Moments
 -----------------------------------------------------------------
    Charge (ESU x 10^10)
                 0.0000
    Dipole Moment (Debye)
         X      -1.6647      Y      -1.7510      Z      -0.0804
       Tot       2.4174
    Quadrupole Moments (Debye-Ang)
        XX     -37.4982     XY      -3.2548     YY     -40.9898
        XZ       1.3944     YZ      -0.3789     ZZ     -42.8351
    Octopole Moments (Debye-Ang^2)
       XXX     -10.8459    XXY     -10.8053    XYY     -13.0895
       YYY     -25.9910    XXZ       2.5985    XYZ       3.3984
       YYZ      -1.2265    XZZ      -6.2393    YZZ      -9.3416
       ZZZ       4.8575
    Hexadecapole Moments (Debye-Ang^3)
      XXXX    -238.0119   XXXY      -8.8601   XXYY     -94.3273
      XYYY     -21.8420   YYYY    -299.5093   XXXZ      12.4920
      XXYZ       5.3908   XYYZ       7.6335   YYYZ       8.6436
      XXZZ     -69.9046   XYZZ       0.1754   YYZZ     -74.2523
      XZZZ       7.6510   YZZZ       0.2164   ZZZZ    -154.7547
 -----------------------------------------------------------------
 Calculating analytic gradient of the SCF energy
 Gradient of SCF Energy
            1           2           3           4           5           6
    1   0.0102337   0.0041713  -0.0049019   0.0089496  -0.0069445   0.0033283
    2  -0.0007034   0.0148366   0.0021340   0.0042240  -0.0009613  -0.0040613
    3  -0.0350632   0.0220893   0.0106287  -0.0027868  -0.0042671   0.0094027
            7           8           9          10          11          12
    1   0.0106847   0.0020957   0.0008018  -0.0065753   0.0003188  -0.0122242
    2   0.0021983  -0.0011136  -0.0016141   0.0026871   0.0012529  -0.0194610
    3  -0.0060469   0.0026953  -0.0006583  -0.0021861   0.0044586   0.0026657
           13
    1  -0.0099378
    2   0.0005819
    3  -0.0009318
 Max gradient component =       3.506E-02
 RMS gradient           =       9.302E-03
 Gradient time:  CPU 8.19 s  wall 9.60 s
 Geometry Optimization Parameters
   NAtoms,    NIC,     NZ,  NCons,   NDum,   NFix, NCnnct, MaxDiis
       13     128       0       0       0       0       0       0

 Cartesian Hessian read from HESS file


** GEOMETRY OPTIMIZATION IN DELOCALIZED INTERNAL COORDINATES **
   Searching for a Transition State

   Optimization Cycle:   1

                       Coordinates (Angstroms)
     ATOM                X               Y               Z
      1  C         1.3236819210    0.2417502468    0.1870109424
      2  C         0.8968014870   -0.9569624109   -0.5111648071
      3  C        -0.4829110703   -0.9836692483   -0.5218132920
      4  C        -1.0697564635    0.2903088563    0.0371545080
      5  C        -0.3834153954    1.5147167270   -0.4650887790
      6  N         0.8903593883    1.5006483408   -0.3283440732
      7  H         2.3610947572    0.2876659382    0.5516128745
      8  H         1.5565147083   -1.8007840732   -0.6850016178
      9  H        -1.0953970259   -1.8370103331   -0.8015077910
     10  H        -2.1696283982    0.3469946855    0.0791026760
     11  H        -0.9013856611    2.3968962641   -0.8340090100
     12  C        -0.3044450242   -0.1470860876    1.2828278108
     13  H        -0.6641609981   -0.8741679949    2.0111065075
   Point Group: c1    Number of degrees of freedom:    33


   Energy is   -286.781537453


 Attempting to Generate Delocalized Internal Coordinates

 Transforming Cartesian Hessian to Internal Coordinates
 Hessian Transformation does not Include Derivative of B-matrix

 33 Hessian modes will be used to form the next step
  Hessian Eigenvalues:
    -0.115124   -0.013985    0.000821    0.006202    0.009913    0.014636
     0.017404    0.023073    0.029870    0.031558    0.035783    0.040013
     0.040874    0.043743    0.058330    0.082063    0.098564    0.116754
     0.131946    0.136906    0.159521    0.209785    0.242002    0.253980
     0.315337    0.326081    0.336275    0.343128    0.357465    0.360226
     0.361781    0.367876    0.570765
**WARNING** Hessian does not have the Desired Local Structure

 Transition State Search - Taking P-RFO Step
 Searching for Lamda that Maximizes Along the Lowest mode
 Value Taken    Lamda =   0.00796329
 Searching for Lamda that Minimizes Along All other modes
 Value Taken    Lamda =  -0.02660205
 Calculated Step too Large.  Step scaled by  0.072790
 Step Taken.  Stepsize is  0.100000

                             Maximum     Tolerance    Cnvgd?
         Gradient           0.028152      0.000010      NO
         Displacement       0.043442      0.001200      NO
         Energy change     *********      0.000001      NO


 New Cartesian Coordinates Obtained by Inverse Iteration

 Displacement from previous Coordinates is:  0.079219
 ----------------------------------------------------------------
             Standard Nuclear Orientation (Angstroms)
    I     Atom           X                Y                Z
 ----------------------------------------------------------------
    1      C       1.3169965686     0.2394374340     0.1941039446
    2      C       0.9006564466    -0.9562780953    -0.5180199884
    3      C      -0.4834226913    -0.9820445870    -0.5136042996
    4      C      -1.0714436899     0.2947837388     0.0365687432
    5      C      -0.3835834895     1.5168353225    -0.4685814758
    6      N       0.8893137288     1.5007311499    -0.3279683617
    7      H       2.3497151232     0.2865414976     0.5689684518
    8      H       1.5589688140    -1.8001233931    -0.6934811658
    9      H      -1.0994860819    -1.8355817489    -0.7846926520
   10      H      -2.1702130898     0.3502680263     0.0827486318
   11      H      -0.8997867168     2.3977644836    -0.8430697460
   12      C      -0.2973323805    -0.1538543432     1.2690471091
   13      H      -0.6530303164    -0.8791785744     1.9998667578
 ----------------------------------------------------------------
 Nuclear Repulsion Energy =   276.6600262883 hartrees
 There are       25 alpha and       24 beta electrons
 Applying Cartesian multipole field
    Component          Value
    ---------          -----
     (2,0,0)        1.00000E-11
     (0,2,0)        2.00000E-11
     (0,0,2)       -3.00000E-11
 Nucleus-field energy     =     0.0000000033 hartrees
 Requested basis set is 6-31G(d)
 There are 40 shells and 117 basis functions
 A cutoff of  1.0D-14 yielded    811 shell pairs
 There are      7083 function pairs
 Smallest overlap matrix eigenvalue = 1.23E-03
 Guess MOs from SCF MO coefficient file
 Reading MOs from coefficient file
 Reading MOs from coefficient file
 An unrestricted hybrid HF-DFT SCF calculation will be
 performed using Pulay DIIS extrapolation
 Exchange:     0.2000 Hartree-Fock + 0.0800 Slater + 0.7200 B88
 Correlation:  0.1900 VWN1RPA + 0.8100 LYP
 Using SG-1 standard quadrature grid
 SCF converges when DIIS error is below 1.0E-08
 Geometry optimization detected.  Setting ReadMinima to 0
 Setting SaveMinima to 0
Using Q-Chem read-in guess as SCF_GUESS READ specified.

 using 4 threads for integral computing
 -------------------------------------------------------
 OpenMP Integral computing Module                
 Release: version 1.0, May 2013, Q-Chem Inc. Pittsburgh 
 -------------------------------------------------------
 -------------------------------------------------------
 OpenMP BLAS3 based DFT computing Module                
 Release: version 1.0, May 2013, Q-Chem Inc. Pittsburgh 
 -------------------------------------------------------
 ---------------------------------------
  Cycle       Energy         DIIS Error
 ---------------------------------------
    1    -286.7846500066      6.03E-04
    2    -286.7828078588      2.39E-04
    3    -286.7826287551      3.87E-04
    4    -286.7829611663      6.30E-05
    5    -286.7829724009      2.13E-05
    6    -286.7829767855      1.38E-05
    7    -286.7829799284      8.07E-06
    8    -286.7829816411      3.21E-06
    9    -286.7829819684      1.81E-06
   10    -286.7829820552      6.87E-07
   11    -286.7829820732      4.77E-07
   12    -286.7829820795      2.00E-07
   13    -286.7829820814      5.47E-08
   14    -286.7829820815      2.54E-08
   15    -286.7829820816      8.15E-09 Convergence criterion met
 ---------------------------------------
 <S^2> = 0.7891
 SCF time:  CPU 39.73 s  wall 41.39 s
 SCF   energy in the final basis set = -286.78298208
 Total energy in the final basis set = -286.78298208
 
 --------------------------------------------------------------
 
                    Orbital Energies (a.u.)
 --------------------------------------------------------------
 
 Alpha MOs
 -- Occupied --
-14.327 -10.241 -10.225 -10.217 -10.217 -10.209 -10.185  -0.953
 -0.834  -0.753  -0.660  -0.608  -0.588  -0.534  -0.494  -0.459
 -0.440  -0.417  -0.394  -0.378  -0.331  -0.291  -0.269  -0.256
 -0.137
 -- Virtual --
 -0.035   0.007   0.064   0.090   0.139   0.152   0.157   0.166
  0.175   0.201   0.243   0.251   0.284   0.327   0.381   0.388
  0.485   0.496   0.521   0.552   0.570   0.596   0.603   0.606
  0.619   0.645   0.666   0.680   0.690   0.708   0.757   0.813
  0.825   0.832   0.846   0.850   0.865   0.871   0.901   0.927
  0.960   1.051   1.089   1.120   1.149   1.178   1.251   1.294
  1.367   1.417   1.454   1.511   1.556   1.610   1.617   1.651
  1.764   1.794   1.826   1.852   1.953   1.984   2.024   2.040
  2.096   2.145   2.177   2.211   2.228   2.298   2.315   2.331
  2.393   2.434   2.456   2.497   2.558   2.607   2.616   2.664
  2.692   2.804   2.841   2.931   3.036   3.936   4.184   4.235
  4.258   4.419   4.471   4.597
 
 Beta MOs
 -- Occupied --
-14.327 -10.242 -10.226 -10.219 -10.218 -10.196 -10.178  -0.951
 -0.827  -0.748  -0.651  -0.606  -0.573  -0.532  -0.488  -0.456
 -0.437  -0.415  -0.391  -0.377  -0.320  -0.278  -0.263  -0.245
 -- Virtual --
 -0.029  -0.008   0.016   0.079   0.092   0.141   0.152   0.159
  0.171   0.179   0.204   0.245   0.255   0.287   0.329   0.384
  0.392   0.497   0.505   0.525   0.558   0.574   0.603   0.607
  0.618   0.631   0.645   0.672   0.687   0.699   0.715   0.761
  0.815   0.825   0.833   0.849   0.855   0.869   0.874   0.903
  0.930   0.962   1.060   1.095   1.129   1.155   1.181   1.256
  1.298   1.377   1.421   1.461   1.518   1.564   1.613   1.630
  1.651   1.770   1.813   1.839   1.859   1.969   1.991   2.027
  2.044   2.105   2.160   2.182   2.221   2.233   2.305   2.322
  2.343   2.406   2.444   2.464   2.500   2.565   2.611   2.619
  2.669   2.697   2.806   2.843   2.932   3.037   3.937   4.183
  4.258   4.273   4.419   4.472   4.597
 --------------------------------------------------------------
 
          Ground-State Mulliken Net Atomic Charges

     Atom                 Charge (a.u.)    Spin (a.u.)
  --------------------------------------------------------
      1 C                    -0.061367      -0.114585
      2 C                    -0.072647       0.490933
      3 C                    -0.112497      -0.200659
      4 C                    -0.231175      -0.022030
      5 C                     0.119503      -0.016084
      6 N                    -0.330455       0.015643
      7 H                     0.144220       0.004815
      8 H                     0.141620      -0.026689
      9 H                     0.152500       0.012846
     10 H                     0.142469       0.010288
     11 H                     0.152645       0.001548
     12 C                    -0.199271       0.883418
     13 H                     0.154455      -0.039442
  --------------------------------------------------------
  Sum of atomic charges =     0.000000
  Sum of spin   charges =     1.000000

 -----------------------------------------------------------------
                    Cartesian Multipole Moments
 -----------------------------------------------------------------
    Charge (ESU x 10^10)
                 0.0000
    Dipole Moment (Debye)
         X      -1.7113      Y      -1.7467      Z      -0.0034
       Tot       2.4453
    Quadrupole Moments (Debye-Ang)
        XX     -37.5768     XY      -3.2398     YY     -40.9868
        XZ       1.4379     YZ      -0.3776     ZZ     -42.7446
    Octopole Moments (Debye-Ang^2)
       XXX     -11.1180    XXY     -10.7988    XYY     -13.1473
       YYY     -25.9856    XXZ       2.7465    XYZ       3.4178
       YYZ      -1.1262    XZZ      -6.2505    YZZ      -9.2523
       ZZZ       5.2844
    Hexadecapole Moments (Debye-Ang^3)
      XXXX    -237.7809   XXXY      -8.6506   XXYY     -94.3074
      XYYY     -21.4997   YYYY    -299.7732   XXXZ      12.3328
      XXYZ       5.5051   XYYZ       7.5111   YYYZ       8.8084
      XXZZ     -69.6054   XYZZ       0.2031   YYZZ     -73.9298
      XZZZ       7.5103   YZZZ       0.6036   ZZZZ    -153.1076
 -----------------------------------------------------------------
 Calculating analytic gradient of the SCF energy
 Gradient of SCF Energy
            1           2           3           4           5           6
    1   0.0110437   0.0032440  -0.0045085   0.0092138  -0.0067410   0.0026310
    2  -0.0003775   0.0132001   0.0021838   0.0028008  -0.0009815  -0.0038854
    3  -0.0350049   0.0225493   0.0076175  -0.0023794  -0.0046423   0.0093518
            7           8           9          10          11          12
    1   0.0100604   0.0020012   0.0008164  -0.0061379   0.0002887  -0.0124101
    2   0.0021425  -0.0010043  -0.0014714   0.0027266   0.0013099  -0.0165182
    3  -0.0059266   0.0024843  -0.0008546  -0.0021132   0.0045035   0.0060279
           13
    1  -0.0095017
    2  -0.0001252
    3  -0.0016134
 Max gradient component =       3.500E-02
 RMS gradient           =       9.034E-03
 Gradient time:  CPU 7.56 s  wall 5.57 s
 Geometry Optimization Parameters
   NAtoms,    NIC,     NZ,  NCons,   NDum,   NFix, NCnnct, MaxDiis
       13     128       0       0       0       0       0       0

 Cartesian Hessian Update
 Hessian Updated using Powell/Murtagh-Sargent Update
  Mixing factors:     0.852502 Powell
                      0.147498 Murtagh-Sargent


** GEOMETRY OPTIMIZATION IN DELOCALIZED INTERNAL COORDINATES **
   Searching for a Transition State

   Optimization Cycle:   2

                       Coordinates (Angstroms)
     ATOM                X               Y               Z
      1  C         1.3169965686    0.2394374340    0.1941039446
      2  C         0.9006564466   -0.9562780953   -0.5180199884
      3  C        -0.4834226913   -0.9820445870   -0.5136042996
      4  C        -1.0714436899    0.2947837388    0.0365687432
      5  C        -0.3835834895    1.5168353225   -0.4685814758
      6  N         0.8893137288    1.5007311499   -0.3279683617
      7  H         2.3497151232    0.2865414976    0.5689684518
      8  H         1.5589688140   -1.8001233931   -0.6934811658
      9  H        -1.0994860819   -1.8355817489   -0.7846926520
     10  H        -2.1702130898    0.3502680263    0.0827486318
     11  H        -0.8997867168    2.3977644836   -0.8430697460
     12  C        -0.2973323805   -0.1538543432    1.2690471091
     13  H        -0.6530303164   -0.8791785744    1.9998667578
   Point Group: c1    Number of degrees of freedom:    33


   Energy is   -286.782982082

 Hessian Updated using Powell/Murtagh-Sargent Update
  Mixing factors:     0.801023 Powell
                      0.198977 Murtagh-Sargent

 33 Hessian modes will be used to form the next step
  Hessian Eigenvalues:
    -0.115534   -0.015770    0.000774    0.006202    0.009915    0.014649
     0.017374    0.023003    0.029881    0.031536    0.035751    0.039976
     0.040861    0.043748    0.058312    0.082023    0.098562    0.116730
     0.131951    0.136854    0.159310    0.209724    0.241824    0.253407
     0.315339    0.326077    0.336273    0.342555    0.357454    0.360223
     0.361781    0.367807    0.570735
**WARNING** Hessian does not have the Desired Local Structure

 Transition State Search - Taking P-RFO Step
 Searching for Lamda that Maximizes Along the Lowest mode
 Value Taken    Lamda =   0.00678509
 Searching for Lamda that Minimizes Along All other modes
 Value Taken    Lamda =  -0.02962377
 Calculated Step too Large.  Step scaled by  0.071251
 Step Taken.  Stepsize is  0.100000

                             Maximum     Tolerance    Cnvgd?
         Gradient           0.027455      0.000010      NO
         Displacement       0.043630      0.001200      NO
         Energy change     -0.001445      0.000001      NO


 New Cartesian Coordinates Obtained by Inverse Iteration

 Displacement from previous Coordinates is:  0.081096
 ----------------------------------------------------------------
             Standard Nuclear Orientation (Angstroms)
    I     Atom           X                Y                Z
 ----------------------------------------------------------------
    1      C       1.3100104072     0.2371547253     0.2015526307
    2      C       0.9042488892    -0.9559013518    -0.5249540080
    3      C      -0.4840125347    -0.9803811706    -0.5054658244
    4      C      -1.0730639742     0.2991061292     0.0357955768
    5      C      -0.3837972410     1.5189604753    -0.4722469645
    6      N       0.8882445240     1.5007939734    -0.3277563876
    7      H       2.3379634324     0.2855553864     0.5871189772
    8      H       1.5611890758    -1.7998511425    -0.7017404681
    9      H      -1.1037168135    -1.8340252215    -0.7678868519
   10      H      -2.1707898002     0.3533597474     0.0864746267
   11      H      -0.8982233844     2.3988231421    -0.8518798148
   12      C      -0.2899863956    -0.1599652648     1.2548946924
   13      H      -0.6407139600    -0.8843285172     1.9879797646
 ----------------------------------------------------------------
 Nuclear Repulsion Energy =   276.9689494802 hartrees
 There are       25 alpha and       24 beta electrons
 Applying Cartesian multipole field
    Component          Value
    ---------          -----
     (2,0,0)        1.00000E-11
     (0,2,0)        2.00000E-11
     (0,0,2)       -3.00000E-11
 Nucleus-field energy     =     0.0000000033 hartrees
 Requested basis set is 6-31G(d)
 There are 40 shells and 117 basis functions
 A cutoff of  1.0D-14 yielded    811 shell pairs
 There are      7083 function pairs
 Smallest overlap matrix eigenvalue = 1.23E-03
 Guess MOs from SCF MO coefficient file
 Reading MOs from coefficient file
 Reading MOs from coefficient file
 An unrestricted hybrid HF-DFT SCF calculation will be
 performed using Pulay DIIS extrapolation
 Exchange:     0.2000 Hartree-Fock + 0.0800 Slater + 0.7200 B88
 Correlation:  0.1900 VWN1RPA + 0.8100 LYP
 Using SG-1 standard quadrature grid
 SCF converges when DIIS error is below 1.0E-08
 Geometry optimization detected.  Setting ReadMinima to 0
 Setting SaveMinima to 0
Using Q-Chem read-in guess as SCF_GUESS READ specified.

 using 4 threads for integral computing
 -------------------------------------------------------
 OpenMP Integral computing Module                
 Release: version 1.0, May 2013, Q-Chem Inc. Pittsburgh 
 -------------------------------------------------------
 -------------------------------------------------------
 OpenMP BLAS3 based DFT computing Module                
 Release: version 1.0, May 2013, Q-Chem Inc. Pittsburgh 
 -------------------------------------------------------
 ---------------------------------------
  Cycle       Energy         DIIS Error
 ---------------------------------------
    1    -286.7864542428      6.20E-04
    2    -286.7845090807      2.59E-04
    3    -286.7842922881      4.20E-04
    4    -286.7846829560      6.14E-05
    5    -286.7846933808      2.32E-05
    6    -286.7846972832      1.32E-05
    7    -286.7846999949      8.10E-06
    8    -286.7847013601      3.08E-06
    9    -286.7847015978      1.52E-06
   10    -286.7847016536      5.67E-07
   11    -286.7847016681      3.91E-07
   12    -286.7847016730      1.78E-07
   13    -286.7847016747      4.71E-08
   14    -286.7847016749      2.24E-08
   15    -286.7847016749      7.24E-09 Convergence criterion met
 ---------------------------------------
 <S^2> = 0.7878
 SCF time:  CPU 40.16 s  wall 30.64 s
 SCF   energy in the final basis set = -286.78470167
 Total energy in the final basis set = -286.78470167
 
 --------------------------------------------------------------
 
                    Orbital Energies (a.u.)
 --------------------------------------------------------------
 
 Alpha MOs
 -- Occupied --
-14.326 -10.240 -10.225 -10.218 -10.217 -10.211 -10.184  -0.953
 -0.835  -0.753  -0.660  -0.608  -0.588  -0.534  -0.495  -0.459
 -0.440  -0.416  -0.395  -0.378  -0.331  -0.291  -0.271  -0.256
 -0.136
 -- Virtual --
 -0.031   0.008   0.066   0.090   0.139   0.153   0.157   0.166
  0.175   0.200   0.242   0.251   0.285   0.326   0.379   0.387
  0.484   0.496   0.522   0.552   0.570   0.595   0.602   0.606
  0.618   0.645   0.667   0.679   0.691   0.709   0.757   0.812
  0.826   0.831   0.847   0.850   0.865   0.871   0.901   0.927
  0.959   1.051   1.094   1.127   1.150   1.176   1.254   1.297
  1.368   1.418   1.453   1.509   1.559   1.609   1.619   1.650
  1.767   1.797   1.825   1.851   1.953   1.987   2.022   2.035
  2.098   2.148   2.178   2.212   2.229   2.298   2.320   2.337
  2.399   2.433   2.458   2.497   2.561   2.606   2.615   2.662
  2.693   2.802   2.841   2.931   3.030   3.937   4.182   4.237
  4.256   4.423   4.475   4.598
 
 Beta MOs
 -- Occupied --
-14.326 -10.242 -10.225 -10.220 -10.218 -10.198 -10.176  -0.951
 -0.829  -0.747  -0.651  -0.605  -0.573  -0.532  -0.489  -0.455
 -0.436  -0.414  -0.392  -0.376  -0.319  -0.277  -0.264  -0.247
 -- Virtual --
 -0.026  -0.008   0.018   0.081   0.092   0.141   0.152   0.159
  0.171   0.179   0.203   0.244   0.256   0.288   0.328   0.383
  0.391   0.497   0.504   0.525   0.558   0.573   0.603   0.607
  0.617   0.633   0.645   0.672   0.687   0.699   0.715   0.761
  0.814   0.826   0.832   0.850   0.857   0.868   0.875   0.903
  0.929   0.961   1.061   1.100   1.136   1.157   1.179   1.258
  1.301   1.379   1.423   1.460   1.516   1.567   1.616   1.629
  1.651   1.773   1.813   1.839   1.860   1.969   1.995   2.024
  2.040   2.107   2.164   2.184   2.220   2.236   2.304   2.324
  2.353   2.412   2.443   2.465   2.500   2.568   2.612   2.617
  2.668   2.698   2.804   2.843   2.932   3.032   3.937   4.182
  4.261   4.270   4.423   4.476   4.598
 --------------------------------------------------------------
 
          Ground-State Mulliken Net Atomic Charges

     Atom                 Charge (a.u.)    Spin (a.u.)
  --------------------------------------------------------
      1 C                    -0.064859      -0.109203
      2 C                    -0.070810       0.531083
      3 C                    -0.117978      -0.203339
      4 C                    -0.226018      -0.020121
      5 C                     0.118547      -0.011977
      6 N                    -0.330589       0.015363
      7 H                     0.144009       0.005023
      8 H                     0.140939      -0.028747
      9 H                     0.152561       0.012784
     10 H                     0.142826       0.010174
     11 H                     0.152298       0.001519
     12 C                    -0.197160       0.835260
     13 H                     0.156234      -0.037819
  --------------------------------------------------------
  Sum of atomic charges =     0.000000
  Sum of spin   charges =     1.000000

 -----------------------------------------------------------------
                    Cartesian Multipole Moments
 -----------------------------------------------------------------
    Charge (ESU x 10^10)
                 0.0000
    Dipole Moment (Debye)
         X      -1.7556      Y      -1.7433      Z       0.0779
       Tot       2.4753
    Quadrupole Moments (Debye-Ang)
        XX     -37.6540     XY      -3.2319     YY     -40.9882
        XZ       1.4812     YZ      -0.3863     ZZ     -42.6576
    Octopole Moments (Debye-Ang^2)
       XXX     -11.3911    XXY     -10.7907    XYY     -13.1985
       YYY     -25.9803    XXZ       2.9044    XYZ       3.4378
       YYZ      -1.0161    XZZ      -6.2563    YZZ      -9.1722
       ZZZ       5.7164
    Hexadecapole Moments (Debye-Ang^3)
      XXXX    -237.4915   XXXY      -8.4384   XXYY     -94.2922
      XYYY     -21.1755   YYYY    -300.0697   XXXZ      12.1416
      XXYZ       5.6128   XYYZ       7.3854   YYYZ       8.9390
      XXZZ     -69.2905   XYZZ       0.2264   YYZZ     -73.6222
      XZZZ       7.3538   YZZZ       0.9486   ZZZZ    -151.5195
 -----------------------------------------------------------------
 Calculating analytic gradient of the SCF energy
 Gradient of SCF Energy
            1           2           3           4           5           6
    1   0.0120983   0.0021742  -0.0040046   0.0096223  -0.0065950   0.0018750
    2   0.0000946   0.0114613   0.0024574   0.0013401  -0.0009969  -0.0037620
    3  -0.0351414   0.0229038   0.0046828  -0.0019854  -0.0050894   0.0093559
            7           8           9          10          11          12
    1   0.0095649   0.0019114   0.0008101  -0.0057530   0.0002530  -0.0128373
    2   0.0021131  -0.0009095  -0.0013478   0.0027731   0.0013854  -0.0138148
    3  -0.0057632   0.0022974  -0.0010346  -0.0020460   0.0045469   0.0094947
           13
    1  -0.0091193
    2  -0.0007939
    3  -0.0022216
 Max gradient component =       3.514E-02
 RMS gradient           =       8.922E-03
 Gradient time:  CPU 8.00 s  wall 2.40 s
 Geometry Optimization Parameters
   NAtoms,    NIC,     NZ,  NCons,   NDum,   NFix, NCnnct, MaxDiis
       13     128       0       0       0       0       0       0

 Cartesian Hessian Update
 Hessian Updated using Powell/Murtagh-Sargent Update
  Mixing factors:     0.856561 Powell
                      0.143439 Murtagh-Sargent


** GEOMETRY OPTIMIZATION IN DELOCALIZED INTERNAL COORDINATES **
   Searching for a Transition State

   Optimization Cycle:   3

                       Coordinates (Angstroms)
     ATOM                X               Y               Z
      1  C         1.3100104072    0.2371547253    0.2015526307
      2  C         0.9042488892   -0.9559013518   -0.5249540080
      3  C        -0.4840125347   -0.9803811706   -0.5054658244
      4  C        -1.0730639742    0.2991061292    0.0357955768
      5  C        -0.3837972410    1.5189604753   -0.4722469645
      6  N         0.8882445240    1.5007939734   -0.3277563876
      7  H         2.3379634324    0.2855553864    0.5871189772
      8  H         1.5611890758   -1.7998511425   -0.7017404681
      9  H        -1.1037168135   -1.8340252215   -0.7678868519
     10  H        -2.1707898002    0.3533597474    0.0864746267
     11  H        -0.8982233844    2.3988231421   -0.8518798148
     12  C        -0.2899863956   -0.1599652648    1.2548946924
     13  H        -0.6407139600   -0.8843285172    1.9879797646
   Point Group: c1    Number of degrees of freedom:    33


   Energy is   -286.784701675

 Hessian Updated using Powell/Murtagh-Sargent Update
  Mixing factors:     0.816764 Powell
                      0.183236 Murtagh-Sargent

 33 Hessian modes will be used to form the next step
  Hessian Eigenvalues:
    -0.115820   -0.017525    0.000764    0.006198    0.009917    0.014665
     0.017372    0.023011    0.029888    0.031545    0.035742    0.039989
     0.040861    0.043760    0.058334    0.082030    0.098558    0.116727
     0.131904    0.136772    0.159301    0.209724    0.241824    0.253330
     0.315317    0.326064    0.336041    0.342103    0.357451    0.360216
     0.361779    0.367721    0.570669
**WARNING** Hessian does not have the Desired Local Structure

 Transition State Search - Taking P-RFO Step
 Searching for Lamda that Maximizes Along the Lowest mode
 Value Taken    Lamda =   0.00582237
 Searching for Lamda that Minimizes Along All other modes
 Value Taken    Lamda =  -0.03232676
 Calculated Step too Large.  Step scaled by  0.069919
 Step Taken.  Stepsize is  0.100000

                             Maximum     Tolerance    Cnvgd?
         Gradient           0.026967      0.000010      NO
         Displacement       0.043270      0.001200      NO
         Energy change     -0.001720      0.000001      NO


 New Cartesian Coordinates Obtained by Inverse Iteration

 Displacement from previous Coordinates is:  0.081962
 ----------------------------------------------------------------
             Standard Nuclear Orientation (Angstroms)
    I     Atom           X                Y                Z
 ----------------------------------------------------------------
    1      C       1.3026276807     0.2348085615     0.2091768870
    2      C       0.9076930048    -0.9556959620    -0.5316423109
    3      C      -0.4847811035    -0.9789702795    -0.4973941126
    4      C      -1.0746886521     0.3033361984     0.0347941471
    5      C      -0.3840082010     1.5211489514    -0.4759004487
    6      N       0.8872208373     1.5009571991    -0.3275210113
    7      H       2.3258428547     0.2844056448     0.6052731129
    8      H       1.5634850830    -1.7996653736    -0.7095477686
    9      H      -1.1079424616    -1.8327640676    -0.7510846391
   10      H      -2.1713947471     0.3564251254     0.0902130620
   11      H      -0.8966506386     2.4001544465    -0.8601266484
   12      C      -0.2823281161    -0.1655093675     1.2402496996
   13      H      -0.6277233154    -0.8893301661     1.9753959801
 ----------------------------------------------------------------
 Nuclear Repulsion Energy =   277.2876623137 hartrees
 There are       25 alpha and       24 beta electrons
 Applying Cartesian multipole field
    Component          Value
    ---------          -----
     (2,0,0)        1.00000E-11
     (0,2,0)        2.00000E-11
     (0,0,2)       -3.00000E-11
 Nucleus-field energy     =     0.0000000033 hartrees
 Requested basis set is 6-31G(d)
 There are 40 shells and 117 basis functions
 A cutoff of  1.0D-14 yielded    811 shell pairs
 There are      7083 function pairs
 Smallest overlap matrix eigenvalue = 1.23E-03
 Guess MOs from SCF MO coefficient file
 Reading MOs from coefficient file
 Reading MOs from coefficient file
 An unrestricted hybrid HF-DFT SCF calculation will be
 performed using Pulay DIIS extrapolation
 Exchange:     0.2000 Hartree-Fock + 0.0800 Slater + 0.7200 B88
 Correlation:  0.1900 VWN1RPA + 0.8100 LYP
 Using SG-1 standard quadrature grid
 SCF converges when DIIS error is below 1.0E-08
 Geometry optimization detected.  Setting ReadMinima to 0
 Setting SaveMinima to 0
Using Q-Chem read-in guess as SCF_GUESS READ specified.

 using 4 threads for integral computing
 -------------------------------------------------------
 OpenMP Integral computing Module                
 Release: version 1.0, May 2013, Q-Chem Inc. Pittsburgh 
 -------------------------------------------------------
 -------------------------------------------------------
 OpenMP BLAS3 based DFT computing Module                
 Release: version 1.0, May 2013, Q-Chem Inc. Pittsburgh 
 -------------------------------------------------------
 ---------------------------------------
  Cycle       Energy         DIIS Error
 ---------------------------------------
    1    -286.7885343547      6.41E-04
    2    -286.7864403527      2.78E-04
    3    -286.7861959338      4.47E-04
    4    -286.7866345842      6.05E-05
    5    -286.7866446305      2.46E-05
    6    -286.7866483228      1.30E-05
    7    -286.7866508312      8.20E-06
    8    -286.7866520346      3.04E-06
    9    -286.7866522261      1.32E-06
   10    -286.7866522659      5.02E-07
   11    -286.7866522779      3.16E-07
   12    -286.7866522818      1.53E-07
   13    -286.7866522833      4.22E-08
   14    -286.7866522834      1.90E-08
   15    -286.7866522834      6.67E-09 Convergence criterion met
 ---------------------------------------
 <S^2> = 0.7859
 SCF time:  CPU 39.64 s  wall 27.29 s
 SCF   energy in the final basis set = -286.78665228
 Total energy in the final basis set = -286.78665228
 
 --------------------------------------------------------------
 
                    Orbital Energies (a.u.)
 --------------------------------------------------------------
 
 Alpha MOs
 -- Occupied --
-14.326 -10.240 -10.225 -10.218 -10.218 -10.212 -10.183  -0.953
 -0.837  -0.753  -0.659  -0.608  -0.587  -0.535  -0.496  -0.459
 -0.439  -0.415  -0.396  -0.377  -0.331  -0.291  -0.272  -0.257
 -0.134
 -- Virtual --
 -0.027   0.009   0.069   0.090   0.140   0.153   0.157   0.166
  0.175   0.200   0.241   0.252   0.285   0.325   0.378   0.386
  0.484   0.495   0.522   0.552   0.569   0.595   0.602   0.606
  0.617   0.644   0.667   0.677   0.691   0.709   0.757   0.811
  0.827   0.831   0.847   0.851   0.865   0.872   0.901   0.927
  0.959   1.052   1.100   1.134   1.151   1.173   1.257   1.300
  1.371   1.419   1.451   1.508   1.562   1.606   1.623   1.650
  1.771   1.799   1.826   1.851   1.953   1.991   2.019   2.030
  2.100   2.150   2.178   2.213   2.229   2.297   2.320   2.351
  2.405   2.432   2.460   2.497   2.563   2.605   2.615   2.660
  2.693   2.800   2.841   2.930   3.025   3.937   4.180   4.240
  4.256   4.426   4.479   4.599
 
 Beta MOs
 -- Occupied --
-14.325 -10.241 -10.225 -10.220 -10.218 -10.200 -10.175  -0.951
 -0.830  -0.746  -0.651  -0.605  -0.574  -0.532  -0.489  -0.455
 -0.436  -0.413  -0.392  -0.376  -0.319  -0.277  -0.264  -0.249
 -- Virtual --
 -0.023  -0.008   0.019   0.084   0.092   0.142   0.153   0.158
  0.170   0.180   0.203   0.243   0.256   0.288   0.327   0.382
  0.390   0.497   0.504   0.524   0.557   0.572   0.603   0.607
  0.617   0.634   0.645   0.672   0.687   0.700   0.714   0.761
  0.813   0.827   0.831   0.850   0.858   0.867   0.875   0.903
  0.929   0.961   1.062   1.105   1.141   1.160   1.177   1.261
  1.304   1.381   1.424   1.459   1.514   1.570   1.616   1.630
  1.650   1.776   1.813   1.839   1.862   1.968   1.998   2.021
  2.036   2.109   2.166   2.184   2.219   2.239   2.303   2.324
  2.367   2.417   2.443   2.467   2.501   2.570   2.611   2.616
  2.666   2.699   2.803   2.843   2.931   3.026   3.938   4.180
  4.264   4.267   4.427   4.481   4.599
 --------------------------------------------------------------
 
          Ground-State Mulliken Net Atomic Charges

     Atom                 Charge (a.u.)    Spin (a.u.)
  --------------------------------------------------------
      1 C                    -0.068388      -0.103645
      2 C                    -0.069273       0.570546
      3 C                    -0.123528      -0.202614
      4 C                    -0.221057      -0.017916
      5 C                     0.117559      -0.008577
      6 N                    -0.330814       0.015515
      7 H                     0.143835       0.005225
      8 H                     0.140252      -0.030754
      9 H                     0.152500       0.012583
     10 H                     0.143221       0.009948
     11 H                     0.151963       0.001544
     12 C                    -0.194289       0.784134
     13 H                     0.158019      -0.035989
  --------------------------------------------------------
  Sum of atomic charges =    -0.000000
  Sum of spin   charges =     1.000000

 -----------------------------------------------------------------
                    Cartesian Multipole Moments
 -----------------------------------------------------------------
    Charge (ESU x 10^10)
                -0.0000
    Dipole Moment (Debye)
         X      -1.7980      Y      -1.7405      Z       0.1619
       Tot       2.5077
    Quadrupole Moments (Debye-Ang)
        XX     -37.7309     XY      -3.2307     YY     -40.9926
        XZ       1.5231     YZ      -0.4017     ZZ     -42.5744
    Octopole Moments (Debye-Ang^2)
       XXX     -11.6657    XXY     -10.7839    XYY     -13.2473
       YYY     -25.9770    XXZ       3.0655    XYZ       3.4561
       YYZ      -0.9001    XZZ      -6.2560    YZZ      -9.0973
       ZZZ       6.1454
    Hexadecapole Moments (Debye-Ang^3)
      XXXX    -237.1602   XXXY      -8.2324   XXYY     -94.2885
      XYYY     -20.8660   YYYY    -300.4203   XXXZ      11.9128
      XXYZ       5.7102   XYYZ       7.2574   YYYZ       9.0421
      XXZZ     -68.9604   XYZZ       0.2475   YYZZ     -73.3287
      XZZZ       7.1849   YZZZ       1.2630   ZZZZ    -149.9473
 -----------------------------------------------------------------
 Calculating analytic gradient of the SCF energy
 Gradient of SCF Energy
            1           2           3           4           5           6
    1   0.0132278   0.0011490  -0.0035585   0.0100937  -0.0065157   0.0011575
    2   0.0005578   0.0098327   0.0027243  -0.0000922  -0.0010109  -0.0036688
    3  -0.0354948   0.0233640   0.0017454  -0.0015494  -0.0055498   0.0094223
            7           8           9          10          11          12
    1   0.0091230   0.0018306   0.0008062  -0.0054067   0.0002203  -0.0133170
    2   0.0020849  -0.0008210  -0.0012366   0.0028244   0.0014574  -0.0112022
    3  -0.0056255   0.0021234  -0.0012147  -0.0019948   0.0045945   0.0129965
           13
    1  -0.0088103
    2  -0.0014499
    3  -0.0028173
 Max gradient component =       3.549E-02
 RMS gradient           =       8.972E-03
 Gradient time:  CPU 8.05 s  wall 4.13 s
 Geometry Optimization Parameters
   NAtoms,    NIC,     NZ,  NCons,   NDum,   NFix, NCnnct, MaxDiis
       13     128       0       0       0       0       0       0

 Cartesian Hessian Update
 Hessian Updated using Powell/Murtagh-Sargent Update
  Mixing factors:     0.900807 Powell
                      0.099193 Murtagh-Sargent


** GEOMETRY OPTIMIZATION IN DELOCALIZED INTERNAL COORDINATES **
   Searching for a Transition State

   Optimization Cycle:   4

                       Coordinates (Angstroms)
     ATOM                X               Y               Z
      1  C         1.3026276807    0.2348085615    0.2091768870
      2  C         0.9076930048   -0.9556959620   -0.5316423109
      3  C        -0.4847811035   -0.9789702795   -0.4973941126
      4  C        -1.0746886521    0.3033361984    0.0347941471
      5  C        -0.3840082010    1.5211489514   -0.4759004487
      6  N         0.8872208373    1.5009571991   -0.3275210113
      7  H         2.3258428547    0.2844056448    0.6052731129
      8  H         1.5634850830   -1.7996653736   -0.7095477686
      9  H        -1.1079424616   -1.8327640676   -0.7510846391
     10  H        -2.1713947471    0.3564251254    0.0902130620
     11  H        -0.8966506386    2.4001544465   -0.8601266484
     12  C        -0.2823281161   -0.1655093675    1.2402496996
     13  H        -0.6277233154   -0.8893301661    1.9753959801
   Point Group: c1    Number of degrees of freedom:    33


   Energy is   -286.786652283

 Hessian Updated using Powell/Murtagh-Sargent Update
  Mixing factors:     0.894469 Powell
                      0.105531 Murtagh-Sargent

 33 Hessian modes will be used to form the next step
  Hessian Eigenvalues:
    -0.116141   -0.018586    0.000767    0.006197    0.009918    0.014677
     0.017365    0.023017    0.029896    0.031550    0.035736    0.040005
     0.040861    0.043770    0.058360    0.082035    0.098556    0.116726
     0.131857    0.136751    0.159301    0.209724    0.241825    0.253276
     0.315314    0.326053    0.335824    0.341738    0.357450    0.360211
     0.361778    0.367653    0.570636
**WARNING** Hessian does not have the Desired Local Structure

 Transition State Search - Taking P-RFO Step
 Searching for Lamda that Maximizes Along the Lowest mode
 Value Taken    Lamda =   0.00497197
 Searching for Lamda that Minimizes Along All other modes
 Value Taken    Lamda =  -0.03475487
 Calculated Step too Large.  Step scaled by  0.070036
 Step Taken.  Stepsize is  0.100000

                             Maximum     Tolerance    Cnvgd?
         Gradient           0.026645      0.000010      NO
         Displacement       0.042967      0.001200      NO
         Energy change     -0.001951      0.000001      NO


 New Cartesian Coordinates Obtained by Inverse Iteration

 Displacement from previous Coordinates is:  0.082589
 ----------------------------------------------------------------
             Standard Nuclear Orientation (Angstroms)
    I     Atom           X                Y                Z
 ----------------------------------------------------------------
    1      C       1.2948992230     0.2323867664     0.2169604890
    2      C       0.9110090012    -0.9555905780    -0.5382198641
    3      C      -0.4856858486    -0.9777585426    -0.4894743626
    4      C      -1.0763137138     0.3074567191     0.0336160587
    5      C      -0.3841897719     1.5233566319    -0.4795322233
    6      N       0.8862506834     1.5011828131    -0.3272772445
    7      H       2.3133438882     0.2830859627     0.6234892313
    8      H       1.5658417418    -1.7995079925    -0.7170966937
    9      H      -1.1121386635    -1.8317255785    -0.7343752444
   10      H      -2.1720032977     0.3594263184     0.0939735032
   11      H      -0.8950390550     2.4016546617    -0.8679642754
   12      C      -0.2744661138    -0.1705980913     1.2252958514
   13      H      -0.6141558483    -0.8940681798     1.9624907235
 ----------------------------------------------------------------
 Nuclear Repulsion Energy =   277.6128672094 hartrees
 There are       25 alpha and       24 beta electrons
 Applying Cartesian multipole field
    Component          Value
    ---------          -----
     (2,0,0)        1.00000E-11
     (0,2,0)        2.00000E-11
     (0,0,2)       -3.00000E-11
 Nucleus-field energy     =     0.0000000034 hartrees
 Requested basis set is 6-31G(d)
 There are 40 shells and 117 basis functions
 A cutoff of  1.0D-14 yielded    811 shell pairs
 There are      7083 function pairs
 Smallest overlap matrix eigenvalue = 1.23E-03
 Guess MOs from SCF MO coefficient file
 Reading MOs from coefficient file
 Reading MOs from coefficient file
 An unrestricted hybrid HF-DFT SCF calculation will be
 performed using Pulay DIIS extrapolation
 Exchange:     0.2000 Hartree-Fock + 0.0800 Slater + 0.7200 B88
 Correlation:  0.1900 VWN1RPA + 0.8100 LYP
 Using SG-1 standard quadrature grid
 SCF converges when DIIS error is below 1.0E-08
 Geometry optimization detected.  Setting ReadMinima to 0
 Setting SaveMinima to 0
Using Q-Chem read-in guess as SCF_GUESS READ specified.

 using 4 threads for integral computing
 -------------------------------------------------------
 OpenMP Integral computing Module                
 Release: version 1.0, May 2013, Q-Chem Inc. Pittsburgh 
 -------------------------------------------------------
 -------------------------------------------------------
 OpenMP BLAS3 based DFT computing Module                
 Release: version 1.0, May 2013, Q-Chem Inc. Pittsburgh 
 -------------------------------------------------------
 ---------------------------------------
  Cycle       Energy         DIIS Error
 ---------------------------------------
    1    -286.7908721811      6.60E-04
    2    -286.7886080348      2.93E-04
    3    -286.7883432190      4.67E-04
    4    -286.7888198459      5.92E-05
    5    -286.7888294649      2.56E-05
    6    -286.7888329853      1.27E-05
    7    -286.7888353521      8.23E-06
    8    -286.7888364526      3.00E-06
    9    -286.7888366213      1.17E-06
   10    -286.7888366528      4.67E-07
   11    -286.7888366629      2.49E-07
   12    -286.7888366661      1.30E-07
   13    -286.7888366674      3.94E-08
   14    -286.7888366675      1.55E-08
   15    -286.7888366675      6.27E-09 Convergence criterion met
 ---------------------------------------
 <S^2> = 0.7836
 SCF time:  CPU 39.64 s  wall 24.03 s
 SCF   energy in the final basis set = -286.78883667
 Total energy in the final basis set = -286.78883667
 
 --------------------------------------------------------------
 
                    Orbital Energies (a.u.)
 --------------------------------------------------------------
 
 Alpha MOs
 -- Occupied --
-14.325 -10.239 -10.224 -10.219 -10.218 -10.214 -10.182  -0.954
 -0.838  -0.753  -0.659  -0.608  -0.587  -0.535  -0.497  -0.458
 -0.439  -0.414  -0.397  -0.377  -0.331  -0.291  -0.274  -0.257
 -0.133
 -- Virtual --
 -0.024   0.010   0.072   0.090   0.140   0.153   0.157   0.166
  0.175   0.199   0.240   0.252   0.286   0.324   0.377   0.384
  0.484   0.495   0.522   0.552   0.568   0.595   0.601   0.606
  0.617   0.644   0.667   0.676   0.692   0.710   0.757   0.810
  0.827   0.830   0.847   0.852   0.865   0.872   0.901   0.927
  0.958   1.053   1.105   1.139   1.153   1.170   1.259   1.303
  1.374   1.421   1.448   1.507   1.566   1.603   1.628   1.649
  1.775   1.802   1.827   1.850   1.954   1.994   2.015   2.026
  2.102   2.151   2.177   2.214   2.231   2.294   2.320   2.365
  2.411   2.431   2.463   2.498   2.565   2.602   2.615   2.659
  2.694   2.797   2.841   2.930   3.019   3.938   4.178   4.241
  4.256   4.430   4.483   4.600
 
 Beta MOs
 -- Occupied --
-14.325 -10.240 -10.224 -10.221 -10.218 -10.202 -10.173  -0.951
 -0.832  -0.746  -0.650  -0.605  -0.574  -0.533  -0.490  -0.455
 -0.436  -0.412  -0.393  -0.375  -0.318  -0.277  -0.265  -0.251
 -- Virtual --
 -0.021  -0.008   0.021   0.087   0.092   0.143   0.153   0.158
  0.170   0.180   0.202   0.242   0.256   0.289   0.326   0.381
  0.389   0.496   0.503   0.524   0.557   0.571   0.602   0.608
  0.616   0.635   0.645   0.672   0.686   0.700   0.714   0.761
  0.812   0.828   0.831   0.850   0.859   0.867   0.876   0.903
  0.929   0.960   1.063   1.110   1.144   1.165   1.175   1.263
  1.307   1.385   1.426   1.457   1.513   1.574   1.614   1.633
  1.650   1.780   1.814   1.840   1.863   1.967   2.000   2.017
  2.032   2.112   2.166   2.184   2.219   2.243   2.301   2.324
  2.380   2.423   2.442   2.470   2.501   2.572   2.610   2.617
  2.665   2.700   2.801   2.843   2.931   3.020   3.939   4.178
  4.262   4.269   4.431   4.486   4.601
 --------------------------------------------------------------
 
          Ground-State Mulliken Net Atomic Charges

     Atom                 Charge (a.u.)    Spin (a.u.)
  --------------------------------------------------------
      1 C                    -0.071936      -0.098042
      2 C                    -0.068033       0.608827
      3 C                    -0.129043      -0.198792
      4 C                    -0.216363      -0.015471
      5 C                     0.116543      -0.005851
      6 N                    -0.331107       0.015980
      7 H                     0.143693       0.005415
      8 H                     0.139580      -0.032682
      9 H                     0.152338       0.012241
     10 H                     0.143645       0.009624
     11 H                     0.151638       0.001623
     12 C                    -0.190726       0.731134
     13 H                     0.159771      -0.034007
  --------------------------------------------------------
  Sum of atomic charges =    -0.000000
  Sum of spin   charges =     1.000000

 -----------------------------------------------------------------
                    Cartesian Multipole Moments
 -----------------------------------------------------------------
    Charge (ESU x 10^10)
                -0.0000
    Dipole Moment (Debye)
         X      -1.8381      Y      -1.7384      Z       0.2472
       Tot       2.5420
    Quadrupole Moments (Debye-Ang)
        XX     -37.8077     XY      -3.2357     YY     -40.9987
        XZ       1.5637     YZ      -0.4220     ZZ     -42.4943
    Octopole Moments (Debye-Ang^2)
       XXX     -11.9406    XXY     -10.7790    XYY     -13.2915
       YYY     -25.9749    XXZ       3.2283    XYZ       3.4736
       YYZ      -0.7804    XZZ      -6.2483    YZZ      -9.0264
       ZZZ       6.5706
    Hexadecapole Moments (Debye-Ang^3)
      XXXX    -236.7958   XXXY      -8.0343   XXYY     -94.2911
      XYYY     -20.5705   YYYY    -300.8018   XXXZ      11.6564
      XXYZ       5.7990   XYYZ       7.1285   YYYZ       9.1210
      XXZZ     -68.6221   XYZZ       0.2654   YYZZ     -73.0486
      XZZZ       7.0123   YZZZ       1.5503   ZZZZ    -148.4164
 -----------------------------------------------------------------
 Calculating analytic gradient of the SCF energy
 Gradient of SCF Energy
            1           2           3           4           5           6
    1   0.0143781   0.0001916  -0.0031708   0.0105936  -0.0064777   0.0004693
    2   0.0009992   0.0082804   0.0029898  -0.0014820  -0.0010260  -0.0035945
    3  -0.0359595   0.0238546  -0.0011243  -0.0010877  -0.0060173   0.0095183
            7           8           9          10          11          12
    1   0.0087124   0.0017560   0.0008019  -0.0050868   0.0001906  -0.0138071
    2   0.0020583  -0.0007349  -0.0011351   0.0028772   0.0015251  -0.0086569
    3  -0.0055028   0.0019563  -0.0013915  -0.0019550   0.0046410   0.0164824
           13
    1  -0.0085512
    2  -0.0021006
    3  -0.0034146
 Max gradient component =       3.596E-02
 RMS gradient           =       9.153E-03
 Gradient time:  CPU 8.01 s  wall 3.56 s
 Geometry Optimization Parameters
   NAtoms,    NIC,     NZ,  NCons,   NDum,   NFix, NCnnct, MaxDiis
       13     128       0       0       0       0       0       0

 Cartesian Hessian Update
 Hessian Updated using Powell/Murtagh-Sargent Update
  Mixing factors:     0.988840 Powell
                      0.011160 Murtagh-Sargent


** GEOMETRY OPTIMIZATION IN DELOCALIZED INTERNAL COORDINATES **
   Searching for a Transition State

   Optimization Cycle:   5

                       Coordinates (Angstroms)
     ATOM                X               Y               Z
      1  C         1.2948992230    0.2323867664    0.2169604890
      2  C         0.9110090012   -0.9555905780   -0.5382198641
      3  C        -0.4856858486   -0.9777585426   -0.4894743626
      4  C        -1.0763137138    0.3074567191    0.0336160587
      5  C        -0.3841897719    1.5233566319   -0.4795322233
      6  N         0.8862506834    1.5011828131   -0.3272772445
      7  H         2.3133438882    0.2830859627    0.6234892313
      8  H         1.5658417418   -1.7995079925   -0.7170966937
      9  H        -1.1121386635   -1.8317255785   -0.7343752444
     10  H        -2.1720032977    0.3594263184    0.0939735032
     11  H        -0.8950390550    2.4016546617   -0.8679642754
     12  C        -0.2744661138   -0.1705980913    1.2252958514
     13  H        -0.6141558483   -0.8940681798    1.9624907235
   Point Group: c1    Number of degrees of freedom:    33


   Energy is   -286.788836668

 Hessian Updated using Powell/Murtagh-Sargent Update
  Mixing factors:     0.988657 Powell
                      0.011343 Murtagh-Sargent

 33 Hessian modes will be used to form the next step
  Hessian Eigenvalues:
    -0.116445   -0.018769    0.000767    0.006197    0.009919    0.014682
     0.017358    0.023021    0.029910    0.031548    0.035733    0.040022
     0.040861    0.043776    0.058381    0.082036    0.098555    0.116726
     0.131865    0.136753    0.159309    0.209727    0.241826    0.253250
     0.315321    0.326046    0.335739    0.341619    0.357451    0.360209
     0.361778    0.367633    0.570632
**WARNING** Hessian does not have the Desired Local Structure

 Transition State Search - Taking P-RFO Step
 Searching for Lamda that Maximizes Along the Lowest mode
 Value Taken    Lamda =   0.00421658
 Searching for Lamda that Minimizes Along All other modes
 Value Taken    Lamda =  -0.03667092
 Calculated Step too Large.  Step scaled by  0.071401
 Step Taken.  Stepsize is  0.100000

                             Maximum     Tolerance    Cnvgd?
         Gradient           0.026416      0.000010      NO
         Displacement       0.042774      0.001200      NO
         Energy change     -0.002184      0.000001      NO


 New Cartesian Coordinates Obtained by Inverse Iteration

 Displacement from previous Coordinates is:  0.083015
 ----------------------------------------------------------------
             Standard Nuclear Orientation (Angstroms)
    I     Atom           X                Y                Z
 ----------------------------------------------------------------
    1      C       1.2868603580     0.2298838513     0.2248919122
    2      C       0.9141973979    -0.9555096744    -0.5447925160
    3      C      -0.4866949355    -0.9767177019    -0.4817737317
    4      C      -1.0779404773     0.3114595395     0.0323049059
    5      C      -0.3843128007     1.5255470460    -0.4831375876
    6      N       0.8853529635     1.5014410564    -0.3270350196
    7      H       2.3004570249     0.2815905706     0.6418242799
    8      H       1.5682299233    -1.7993188147    -0.7245355848
    9      H      -1.1162854446    -1.8308637976    -0.7178429529
   10      H      -2.1726018818     0.3623303102     0.0977742416
   11      H      -0.8933580847     2.4032350007    -0.8755253701
   12      C      -0.2664775350    -0.1753219306     1.2101702012
   13      H      -0.6000742827    -0.8984545448     1.9495631710
 ----------------------------------------------------------------
 Nuclear Repulsion Energy =   277.9421531647 hartrees
 There are       25 alpha and       24 beta electrons
 Applying Cartesian multipole field
    Component          Value
    ---------          -----
     (2,0,0)        1.00000E-11
     (0,2,0)        2.00000E-11
     (0,0,2)       -3.00000E-11
 Nucleus-field energy     =     0.0000000034 hartrees
 Requested basis set is 6-31G(d)
 There are 40 shells and 117 basis functions
 A cutoff of  1.0D-14 yielded    811 shell pairs
 There are      7083 function pairs
 Smallest overlap matrix eigenvalue = 1.24E-03
 Guess MOs from SCF MO coefficient file
 Reading MOs from coefficient file
 Reading MOs from coefficient file
 An unrestricted hybrid HF-DFT SCF calculation will be
 performed using Pulay DIIS extrapolation
 Exchange:     0.2000 Hartree-Fock + 0.0800 Slater + 0.7200 B88
 Correlation:  0.1900 VWN1RPA + 0.8100 LYP
 Using SG-1 standard quadrature grid
 SCF converges when DIIS error is below 1.0E-08
 Geometry optimization detected.  Setting ReadMinima to 0
 Setting SaveMinima to 0
Using Q-Chem read-in guess as SCF_GUESS READ specified.

 using 4 threads for integral computing
 -------------------------------------------------------
 OpenMP Integral computing Module                
 Release: version 1.0, May 2013, Q-Chem Inc. Pittsburgh 
 -------------------------------------------------------
 -------------------------------------------------------
 OpenMP BLAS3 based DFT computing Module                
 Release: version 1.0, May 2013, Q-Chem Inc. Pittsburgh 
 -------------------------------------------------------
 ---------------------------------------
  Cycle       Energy         DIIS Error
 ---------------------------------------
    1    -286.7934481631      6.77E-04
    2    -286.7910073382      3.05E-04
    3    -286.7907297570      4.82E-04
    4    -286.7912326587      5.77E-05
    5    -286.7912417978      2.60E-05
    6    -286.7912451249      1.25E-05
    7    -286.7912473587      8.15E-06
    8    -286.7912483816      2.96E-06
    9    -286.7912485406      1.05E-06
   10    -286.7912485686      4.46E-07
   11    -286.7912485775      1.88E-07
   12    -286.7912485804      1.16E-07
   13    -286.7912485813      3.86E-08
   14    -286.7912485814      1.27E-08
   15    -286.7912485814      6.21E-09 Convergence criterion met
 ---------------------------------------
 <S^2> = 0.7810
 SCF time:  CPU 39.57 s  wall 24.43 s
 SCF   energy in the final basis set = -286.79124858
 Total energy in the final basis set = -286.79124858
 
 --------------------------------------------------------------
 
                    Orbital Energies (a.u.)
 --------------------------------------------------------------
 
 Alpha MOs
 -- Occupied --
-14.324 -10.238 -10.224 -10.219 -10.218 -10.215 -10.181  -0.954
 -0.840  -0.752  -0.659  -0.608  -0.587  -0.535  -0.497  -0.458
 -0.439  -0.413  -0.399  -0.376  -0.331  -0.291  -0.276  -0.257
 -0.133
 -- Virtual --
 -0.020   0.012   0.075   0.090   0.141   0.153   0.156   0.166
  0.175   0.199   0.239   0.252   0.287   0.322   0.376   0.383
  0.485   0.494   0.522   0.552   0.567   0.594   0.600   0.606
  0.616   0.644   0.668   0.674   0.693   0.711   0.757   0.808
  0.827   0.830   0.847   0.852   0.866   0.872   0.902   0.926
  0.957   1.053   1.111   1.141   1.158   1.166   1.261   1.306
  1.379   1.423   1.446   1.507   1.570   1.601   1.632   1.648
  1.779   1.803   1.828   1.850   1.954   1.996   2.010   2.023
  2.105   2.149   2.176   2.215   2.233   2.292   2.320   2.378
  2.418   2.430   2.466   2.498   2.567   2.599   2.616   2.658
  2.695   2.795   2.840   2.930   3.013   3.938   4.175   4.241
  4.257   4.433   4.488   4.601
 
 Beta MOs
 -- Occupied --
-14.324 -10.239 -10.224 -10.221 -10.218 -10.204 -10.172  -0.952
 -0.833  -0.745  -0.650  -0.605  -0.575  -0.533  -0.490  -0.455
 -0.435  -0.411  -0.394  -0.374  -0.318  -0.276  -0.266  -0.252
 -- Virtual --
 -0.019  -0.008   0.024   0.090   0.092   0.143   0.153   0.158
  0.170   0.180   0.201   0.241   0.256   0.291   0.325   0.380
  0.388   0.496   0.503   0.525   0.557   0.570   0.602   0.608
  0.615   0.637   0.645   0.672   0.685   0.700   0.715   0.761
  0.810   0.828   0.831   0.850   0.859   0.867   0.876   0.904
  0.928   0.959   1.064   1.115   1.146   1.169   1.173   1.265
  1.310   1.389   1.428   1.455   1.512   1.578   1.611   1.637
  1.649   1.783   1.813   1.841   1.865   1.967   2.002   2.012
  2.029   2.115   2.164   2.184   2.218   2.247   2.298   2.325
  2.391   2.430   2.441   2.473   2.501   2.573   2.607   2.618
  2.664   2.701   2.799   2.843   2.931   3.014   3.939   4.176
  4.258   4.273   4.435   4.490   4.602
 --------------------------------------------------------------
 
          Ground-State Mulliken Net Atomic Charges

     Atom                 Charge (a.u.)    Spin (a.u.)
  --------------------------------------------------------
      1 C                    -0.075487      -0.092473
      2 C                    -0.067070       0.645374
      3 C                    -0.134427      -0.192233
      4 C                    -0.211994      -0.012848
      5 C                     0.115494      -0.003713
      6 N                    -0.331446       0.016636
      7 H                     0.143576       0.005591
      8 H                     0.138944      -0.034499
      9 H                     0.152097       0.011768
     10 H                     0.144087       0.009219
     11 H                     0.151319       0.001748
     12 C                    -0.186537       0.677356
     13 H                     0.161445      -0.031926
  --------------------------------------------------------
  Sum of atomic charges =     0.000000
  Sum of spin   charges =     1.000000

 -----------------------------------------------------------------
                    Cartesian Multipole Moments
 -----------------------------------------------------------------
    Charge (ESU x 10^10)
                -0.0000
    Dipole Moment (Debye)
         X      -1.8754      Y      -1.7369      Z       0.3325
       Tot       2.5777
    Quadrupole Moments (Debye-Ang)
        XX     -37.8845     XY      -3.2467     YY     -41.0053
        XZ       1.6029     YZ      -0.4454     ZZ     -42.4168
    Octopole Moments (Debye-Ang^2)
       XXX     -12.2149    XXY     -10.7771    XYY     -13.3295
       YYY     -25.9739    XXZ       3.3911    XYZ       3.4908
       YYZ      -0.6587    XZZ      -6.2321    YZZ      -8.9584
       ZZZ       6.9903
    Hexadecapole Moments (Debye-Ang^3)
      XXXX    -236.4057   XXXY      -7.8468   XXYY     -94.2953
      XYYY     -20.2891   YYYY    -301.1955   XXXZ      11.3802
      XXYZ       5.8810   XYYZ       6.9998   YYYZ       9.1784
      XXZZ     -68.2808   XYZZ       0.2787   YYZZ     -72.7815
      XZZZ       6.8416   YZZZ       1.8146   ZZZZ    -146.9470
 -----------------------------------------------------------------
 Calculating analytic gradient of the SCF energy
 Gradient of SCF Energy
            1           2           3           4           5           6
    1   0.0154742  -0.0006651  -0.0028466   0.0110853  -0.0064575  -0.0001885
    2   0.0014022   0.0067823   0.0032554  -0.0028070  -0.0010451  -0.0035276
    3  -0.0364253   0.0243008  -0.0038432  -0.0006150  -0.0064835   0.0096117
            7           8           9          10          11          12
    1   0.0083185   0.0016851   0.0007942  -0.0047846   0.0001631  -0.0142555
    2   0.0020348  -0.0006487  -0.0010417   0.0029275   0.0015885  -0.0061659
    3  -0.0053818   0.0017908  -0.0015589  -0.0019223   0.0046823   0.0198627
           13
    1  -0.0083226
    2  -0.0027548
    3  -0.0040184
 Max gradient component =       3.643E-02
 RMS gradient           =       9.420E-03
 Gradient time:  CPU 7.93 s  wall 4.92 s
 Geometry Optimization Parameters
   NAtoms,    NIC,     NZ,  NCons,   NDum,   NFix, NCnnct, MaxDiis
       13     128       0       0       0       0       0       0

 Cartesian Hessian Update
 Hessian Updated using Powell/Murtagh-Sargent Update
  Mixing factors:     0.942389 Powell
                      0.057611 Murtagh-Sargent


** GEOMETRY OPTIMIZATION IN DELOCALIZED INTERNAL COORDINATES **
   Searching for a Transition State

   Optimization Cycle:   6

                       Coordinates (Angstroms)
     ATOM                X               Y               Z
      1  C         1.2868603580    0.2298838513    0.2248919122
      2  C         0.9141973979   -0.9555096744   -0.5447925160
      3  C        -0.4866949355   -0.9767177019   -0.4817737317
      4  C        -1.0779404773    0.3114595395    0.0323049059
      5  C        -0.3843128007    1.5255470460   -0.4831375876
      6  N         0.8853529635    1.5014410564   -0.3270350196
      7  H         2.3004570249    0.2815905706    0.6418242799
      8  H         1.5682299233   -1.7993188147   -0.7245355848
      9  H        -1.1162854446   -1.8308637976   -0.7178429529
     10  H        -2.1726018818    0.3623303102    0.0977742416
     11  H        -0.8933580847    2.4032350007   -0.8755253701
     12  C        -0.2664775350   -0.1753219306    1.2101702012
     13  H        -0.6000742827   -0.8984545448    1.9495631710
   Point Group: c1    Number of degrees of freedom:    33


   Energy is   -286.791248581

 Hessian Updated using Powell/Murtagh-Sargent Update
  Mixing factors:     0.951958 Powell
                      0.048042 Murtagh-Sargent

 33 Hessian modes will be used to form the next step
  Hessian Eigenvalues:
    -0.116645   -0.017895    0.000767    0.006199    0.009919    0.014680
     0.017367    0.023026    0.029931    0.031541    0.035731    0.040043
     0.040861    0.043774    0.058384    0.082032    0.098556    0.116728
     0.132046    0.136754    0.159328    0.209739    0.241830    0.253260
     0.315327    0.326046    0.335820    0.341825    0.357453    0.360211
     0.361779    0.367673    0.570652
**WARNING** Hessian does not have the Desired Local Structure

 Transition State Search - Taking P-RFO Step
 Searching for Lamda that Maximizes Along the Lowest mode
 Value Taken    Lamda =   0.00354392
 Searching for Lamda that Minimizes Along All other modes
 Value Taken    Lamda =  -0.03785937
 Calculated Step too Large.  Step scaled by  0.073944
 Step Taken.  Stepsize is  0.100000

                             Maximum     Tolerance    Cnvgd?
         Gradient           0.026207      0.000010      NO
         Displacement       0.042729      0.001200      NO
         Energy change     -0.002412      0.000001      NO


 New Cartesian Coordinates Obtained by Inverse Iteration

 Displacement from previous Coordinates is:  0.083254
 ----------------------------------------------------------------
             Standard Nuclear Orientation (Angstroms)
    I     Atom           X                Y                Z
 ----------------------------------------------------------------
    1      C       1.2785392447     0.2272980601     0.2329692083
    2      C       0.9172364668    -0.9553672445    -0.5514447406
    3      C      -0.4877827660    -0.9758334990    -0.4743498150
    4      C      -1.0795786235     0.3153382163     0.0308993594
    5      C      -0.3843454972     1.5276850263    -0.4867073161
    6      N       0.8845552484     1.5017019270    -0.3267984428
    7      H       2.2871756734     0.2799057557     0.6603259969
    8      H       1.5706027951    -1.7990258226    -0.7319896472
    9      H      -1.1203533112    -1.8301542189    -0.7015827713
   10      H      -2.1731888270     0.3651054751     0.1016345216
   11      H      -0.8915703035     2.4048075312    -0.8829346189
   12      C      -0.2584271931    -0.1797522821     1.1949888242
   13      H      -0.5855106818    -0.9024080140     1.9368753907
 ----------------------------------------------------------------
 Nuclear Repulsion Energy =   278.2738326578 hartrees
 There are       25 alpha and       24 beta electrons
 Applying Cartesian multipole field
    Component          Value
    ---------          -----
     (2,0,0)        1.00000E-11
     (0,2,0)        2.00000E-11
     (0,0,2)       -3.00000E-11
 Nucleus-field energy     =     0.0000000034 hartrees
 Requested basis set is 6-31G(d)
 There are 40 shells and 117 basis functions
 A cutoff of  1.0D-14 yielded    811 shell pairs
 There are      7083 function pairs
 Smallest overlap matrix eigenvalue = 1.24E-03
 Guess MOs from SCF MO coefficient file
 Reading MOs from coefficient file
 Reading MOs from coefficient file
 An unrestricted hybrid HF-DFT SCF calculation will be
 performed using Pulay DIIS extrapolation
 Exchange:     0.2000 Hartree-Fock + 0.0800 Slater + 0.7200 B88
 Correlation:  0.1900 VWN1RPA + 0.8100 LYP
[...]

 Transition State Search - Taking P-RFO Step
 Searching for Lamda that Maximizes Along the Lowest mode
 Value Taken    Lamda =   0.00000000
 Searching for Lamda that Minimizes Along All other modes
 Value Taken    Lamda =   0.00000000
 Step Taken.  Stepsize is  0.001610

                             Maximum     Tolerance    Cnvgd?
         Gradient           0.000016      0.000010      NO
         Displacement       0.000732      0.001200     YES
         Energy change      0.000000      0.000001     YES


 New Cartesian Coordinates Obtained by Inverse Iteration

 Displacement from previous Coordinates is:  0.000932
 ----------------------------------------------------------------
             Standard Nuclear Orientation (Angstroms)
    I     Atom           X                Y                Z
 ----------------------------------------------------------------
    1      C       1.1519393712     0.1575589660     0.4096546565
    2      C       0.8932461612    -0.9744926528    -0.5772143052
    3      C      -0.5038962819    -1.0158898259    -0.4845049864
    4      C      -1.0888692322     0.2958265697     0.0500971271
    5      C      -0.3591797694     1.4948604870    -0.5058267151
    6      N       0.9031194744     1.4587618637    -0.2961867868
    7      H       2.0945588588     0.1616069189     0.9560764059
    8      H       1.5770335939    -1.6099373511    -1.1225553809
    9      H      -1.1647746255    -1.8264107622    -0.7834626945
   10      H      -2.1665736053     0.3174135797     0.1963239787
   11      H      -0.8278259317     2.2907778411    -1.0824328366
   12      C      -0.1738789022    -0.1469041903     1.1472746208
   13      H      -0.3775468863    -0.6238705331     2.0946428655
 ----------------------------------------------------------------
 Nuclear Repulsion Energy =   280.6560501949 hartrees
 There are       25 alpha and       24 beta electrons
 Applying Cartesian multipole field
    Component          Value
    ---------          -----
     (2,0,0)        1.00000E-11
     (0,2,0)        2.00000E-11
     (0,0,2)       -3.00000E-11
 Nucleus-field energy     =     0.0000000028 hartrees
 Requested basis set is 6-31G(d)
 There are 40 shells and 117 basis functions
 A cutoff of  1.0D-14 yielded    813 shell pairs
 There are      7085 function pairs
 Smallest overlap matrix eigenvalue = 1.15E-03
 Guess MOs from SCF MO coefficient file
 Reading MOs from coefficient file
 Reading MOs from coefficient file
 An unrestricted hybrid HF-DFT SCF calculation will be
 performed using Pulay DIIS extrapolation
 Exchange:     0.2000 Hartree-Fock + 0.0800 Slater + 0.7200 B88
 Correlation:  0.1900 VWN1RPA + 0.8100 LYP
 Using SG-1 standard quadrature grid
 SCF converges when DIIS error is below 1.0E-08
 Geometry optimization detected.  Setting ReadMinima to 0
 Setting SaveMinima to 0
Using Q-Chem read-in guess as SCF_GUESS READ specified.

 using 4 threads for integral computing
 -------------------------------------------------------
 OpenMP Integral computing Module                
 Release: version 1.0, May 2013, Q-Chem Inc. Pittsburgh 
 -------------------------------------------------------
 -------------------------------------------------------
 OpenMP BLAS3 based DFT computing Module                
 Release: version 1.0, May 2013, Q-Chem Inc. Pittsburgh 
 -------------------------------------------------------
 ---------------------------------------
  Cycle       Energy         DIIS Error
 ---------------------------------------
    1    -286.8208317621      3.06E-06
    2    -286.8208495922      6.42E-07
    3    -286.8208495918      1.04E-06
    4    -286.8208495938      1.84E-07
    5    -286.8208495939      1.14E-07
    6    -286.8208495939      2.20E-08
    7    -286.8208495939      6.25E-09 Convergence criterion met
 ---------------------------------------
 <S^2> = 0.7842
 SCF time:  CPU 18.56 s  wall 20.52 s
 SCF   energy in the final basis set = -286.82084959
 Total energy in the final basis set = -286.82084959
 
 --------------------------------------------------------------
 
                    Orbital Energies (a.u.)
 --------------------------------------------------------------
 
 Alpha MOs
 -- Occupied --
-14.318 -10.221 -10.220 -10.217 -10.214 -10.209 -10.186  -0.956
 -0.837  -0.739  -0.679  -0.591  -0.576  -0.536  -0.515  -0.463
 -0.425  -0.408  -0.397  -0.376  -0.340  -0.295  -0.273  -0.252
 -0.140
 -- Virtual --
 -0.001   0.016   0.095   0.140   0.146   0.154   0.158   0.165
  0.177   0.205   0.218   0.261   0.301   0.310   0.362   0.371
  0.486   0.496   0.517   0.544   0.576   0.585   0.603   0.615
  0.622   0.636   0.665   0.682   0.712   0.754   0.768   0.791
  0.812   0.828   0.848   0.856   0.857   0.879   0.896   0.926
  0.961   1.005   1.103   1.127   1.136   1.252   1.264   1.319
  1.391   1.450   1.499   1.520   1.576   1.636   1.669   1.757
  1.768   1.803   1.832   1.896   1.931   1.975   2.015   2.063
  2.071   2.157   2.182   2.226   2.252   2.303   2.333   2.409
  2.424   2.459   2.516   2.538   2.590   2.628   2.634   2.658
  2.724   2.797   2.849   2.918   2.951   3.936   4.161   4.264
  4.308   4.444   4.515   4.665
 
 Beta MOs
 -- Occupied --
-14.318 -10.224 -10.220 -10.216 -10.214 -10.200 -10.176  -0.952
 -0.832  -0.731  -0.668  -0.586  -0.567  -0.534  -0.507  -0.458
 -0.421  -0.403  -0.395  -0.374  -0.335  -0.279  -0.263  -0.248
 -- Virtual --
 -0.023   0.008   0.030   0.098   0.148   0.149   0.157   0.160
  0.167   0.180   0.210   0.224   0.265   0.305   0.314   0.365
  0.376   0.491   0.507   0.523   0.547   0.581   0.598   0.610
  0.619   0.640   0.648   0.675   0.686   0.719   0.758   0.772
  0.792   0.814   0.829   0.851   0.857   0.863   0.881   0.900
  0.930   0.964   1.013   1.109   1.131   1.147   1.255   1.268
  1.327   1.393   1.453   1.512   1.523   1.584   1.641   1.678
  1.765   1.776   1.810   1.836   1.916   1.939   1.977   2.029
  2.071   2.080   2.162   2.191   2.237   2.263   2.309   2.351
  2.418   2.432   2.471   2.519   2.546   2.593   2.631   2.643
  2.665   2.731   2.802   2.853   2.919   2.952   3.937   4.164
  4.274   4.325   4.447   4.519   4.668
 --------------------------------------------------------------
 
          Ground-State Mulliken Net Atomic Charges

     Atom                 Charge (a.u.)    Spin (a.u.)
  --------------------------------------------------------
      1 C                    -0.095186      -0.069588
      2 C                    -0.077508       0.683185
      3 C                    -0.131323      -0.229281
      4 C                    -0.198804       0.005168
      5 C                     0.099520       0.045113
      6 N                    -0.338586      -0.005219
      7 H                     0.139877       0.008237
      8 H                     0.141176      -0.028573
      9 H                     0.148805       0.014365
     10 H                     0.142567       0.003584
     11 H                     0.144827       0.001466
     12 C                    -0.133890       0.602770
     13 H                     0.158526      -0.031227
  --------------------------------------------------------
  Sum of atomic charges =    -0.000000
  Sum of spin   charges =     1.000000

 -----------------------------------------------------------------
                    Cartesian Multipole Moments
 -----------------------------------------------------------------
    Charge (ESU x 10^10)
                -0.0000
    Dipole Moment (Debye)
         X      -1.9652      Y      -1.7612      Z       0.5472
       Tot       2.6950
    Quadrupole Moments (Debye-Ang)
        XX     -38.7579     XY      -3.3616     YY     -42.3743
        XZ       1.5492     YZ       0.3106     ZZ     -39.8656
    Octopole Moments (Debye-Ang^2)
       XXX     -14.2050    XXY     -11.0025    XYY     -12.8956
       YYY     -22.4632    XXZ       2.6665    XYZ       3.7463
       YYZ      -2.7085    XZZ      -4.2866    YZZ      -8.1638
       ZZZ       7.7952
    Hexadecapole Moments (Debye-Ang^3)
      XXXX    -226.6309   XXXY      -8.4381   XXYY     -92.3496
      XYYY     -15.3464   YYYY    -298.4565   XXXZ       4.3208
      XXYZ       6.4411   XYYZ       4.8603   YYYZ       5.7320
      XXZZ     -63.7441   XYZZ      -2.2532   YYZZ     -70.3172
      XZZZ       1.2901   YZZZ      -0.3806   ZZZZ    -145.7714
 -----------------------------------------------------------------
 Calculating analytic gradient of the SCF energy
 Gradient of SCF Energy
            1           2           3           4           5           6
    1   0.0000003   0.0000073   0.0000065  -0.0000019  -0.0000162  -0.0000136
    2   0.0000086   0.0000105  -0.0000016  -0.0000096  -0.0000006   0.0000094
    3  -0.0000043  -0.0000089  -0.0000019   0.0000057   0.0000081   0.0000036
            7           8           9          10          11          12
    1   0.0000022   0.0000100   0.0000132  -0.0000020  -0.0000248   0.0000056
    2   0.0000141   0.0000194  -0.0000067  -0.0000203  -0.0000021  -0.0000075
    3  -0.0000076  -0.0000139  -0.0000041   0.0000102   0.0000144   0.0000002
           13
    1   0.0000135
    2  -0.0000136
    3  -0.0000015
 Max gradient component =       2.478E-05
 RMS gradient           =       1.025E-05
 Gradient time:  CPU 7.62 s  wall 2.28 s
 Geometry Optimization Parameters
   NAtoms,    NIC,     NZ,  NCons,   NDum,   NFix, NCnnct, MaxDiis
       13     128       0       0       0       0       0       0

 Cartesian Hessian Update
 Hessian Updated using Powell/Murtagh-Sargent Update
**WARNING** Small Scalar Product
 Hessian Update Skipped this cycle


** GEOMETRY OPTIMIZATION IN DELOCALIZED INTERNAL COORDINATES **
   Searching for a Transition State

   Optimization Cycle:  53

                       Coordinates (Angstroms)
     ATOM                X               Y               Z
      1  C         1.1519393712    0.1575589660    0.4096546565
      2  C         0.8932461612   -0.9744926528   -0.5772143052
      3  C        -0.5038962819   -1.0158898259   -0.4845049864
      4  C        -1.0888692322    0.2958265697    0.0500971271
      5  C        -0.3591797694    1.4948604870   -0.5058267151
      6  N         0.9031194744    1.4587618637   -0.2961867868
      7  H         2.0945588588    0.1616069189    0.9560764059
      8  H         1.5770335939   -1.6099373511   -1.1225553809
      9  H        -1.1647746255   -1.8264107622   -0.7834626945
     10  H        -2.1665736053    0.3174135797    0.1963239787
     11  H        -0.8278259317    2.2907778411   -1.0824328366
     12  C        -0.1738789022   -0.1469041903    1.1472746208
     13  H        -0.3775468863   -0.6238705331    2.0946428655
   Point Group: c1    Number of degrees of freedom:    33


   Energy is   -286.820849594

 Hessian Updated using Powell/Murtagh-Sargent Update
**WARNING** Small Scalar Product
 Hessian Update Skipped this cycle

 33 Hessian modes will be used to form the next step
  Hessian Eigenvalues:
    -0.066823    0.000447    0.001912    0.010377    0.012683    0.023004
     0.023888    0.030245    0.032894    0.036601    0.040053    0.041697
     0.043752    0.059292    0.073022    0.096504    0.110186    0.117091
     0.137178    0.138601    0.160775    0.214431    0.243117    0.258991
     0.316227    0.326064    0.336908    0.345435    0.357826    0.360517
     0.361921    0.368491    0.573680

 Transition State Search - Taking P-RFO Step
 Searching for Lamda that Maximizes Along the Lowest mode
 Value Taken    Lamda =   0.00000000
 Searching for Lamda that Minimizes Along All other modes
 Value Taken    Lamda =   0.00000000
 Step Taken.  Stepsize is  0.000338

                             Maximum     Tolerance    Cnvgd?
         Gradient           0.000001      0.000010     YES
         Displacement       0.000165      0.001200     YES
         Energy change     -0.000000      0.000001     YES


                       Distance Matrix (Angstroms)
             C (  1)   C (  2)   C (  3)   C (  4)   C (  5)   N (  6)
   C (  2)  1.523934
   C (  3)  2.217723  1.400827
   C (  4)  2.273680  2.436393  1.532512
   C (  5)  2.215844  2.769724  2.515008  1.509695
   N (  6)  1.501084  2.449449  2.852903  2.332456  1.280098
   H (  7)  1.089552  2.254962  3.195895  3.312556  3.152072  2.161088
   H (  8)  2.377481  1.081088  2.256163  3.480530  3.710667  3.248686
   H (  9)  3.275184  2.236907  1.087695  2.281332  3.428835  3.912286
   H ( 10)  3.329203  3.410261  2.237347  1.087794  2.268495  3.311836
   H ( 11)  3.270538  3.725497  3.375870  2.308809  1.088847  2.075236
   C ( 12)  1.547441  2.190324  1.877965  1.495666  2.337193  2.412814
   H ( 13)  2.406064  2.979374  2.611828  2.352018  3.354370  3.419580
             H (  7)   H (  8)   H (  9)   H ( 10)   H ( 11)   C ( 12)
   H (  8)  2.779732
   H (  9)  4.195410  2.771165
   H ( 10)  4.331137  4.412337  2.561165
   H ( 11)  4.150810  4.582634  4.141758  2.705851
   C ( 12)  2.297291  3.218430  2.744151  2.256265  3.367720
   H ( 13)  2.832775  3.891411  3.217036  2.773129  4.334944  1.080039

 
 Final energy is   -286.820849593915     


 ******************************
 **  OPTIMIZATION CONVERGED  **
 ******************************

                       Coordinates (Angstroms)
     ATOM                X               Y               Z
      1  C         1.1519393712    0.1575589660    0.4096546565
      2  C         0.8932461612   -0.9744926528   -0.5772143052
      3  C        -0.5038962819   -1.0158898259   -0.4845049864
      4  C        -1.0888692322    0.2958265697    0.0500971271
      5  C        -0.3591797694    1.4948604870   -0.5058267151
      6  N         0.9031194744    1.4587618637   -0.2961867868
      7  H         2.0945588588    0.1616069189    0.9560764059
      8  H         1.5770335939   -1.6099373511   -1.1225553809
      9  H        -1.1647746255   -1.8264107622   -0.7834626945
     10  H        -2.1665736053    0.3174135797    0.1963239787
     11  H        -0.8278259317    2.2907778411   -1.0824328366
     12  C        -0.1738789022   -0.1469041903    1.1472746208
     13  H        -0.3775468863   -0.6238705331    2.0946428655

Z-matrix Print:
$molecule
0 2
N 
C  1 1.280098
H  2 1.088847 1 122.124405
C  1 1.501084 2 105.361469 3 -174.681660 0
H  4 1.089552 1 112.086541 2 -159.246258 0
C  2 1.509695 1 113.198174 3 176.527046 0
H  6 1.087794 2 120.836610 1 162.717404 0
C  6 1.495666 2 102.095298 1 25.039152 0
H  8 1.080039 6 131.210019 2 148.446613 0
C  4 1.523934 1 108.136878 2 68.559641 0
H  10 1.081088 4 130.990023 1 103.954123 0
C  10 1.400827 4 98.534314 1 -80.520254 0
H  12 1.087695 10 127.577085 4 -161.714678 0
$end

 
 --------------------------------------------------------------
 
                    Orbital Energies (a.u.)
 --------------------------------------------------------------
 
 Alpha MOs
 -- Occupied --
-14.318 -10.221 -10.220 -10.217 -10.214 -10.209 -10.186  -0.956
 -0.837  -0.739  -0.679  -0.591  -0.576  -0.536  -0.515  -0.463
 -0.425  -0.408  -0.397  -0.376  -0.340  -0.295  -0.273  -0.252
 -0.140
 -- Virtual --
 -0.001   0.016   0.095   0.140   0.146   0.154   0.158   0.165
  0.177   0.205   0.218   0.261   0.301   0.310   0.362   0.371
  0.486   0.496   0.517   0.544   0.576   0.585   0.603   0.615
  0.622   0.636   0.665   0.682   0.712   0.754   0.768   0.791
  0.812   0.828   0.848   0.856   0.857   0.879   0.896   0.926
  0.961   1.005   1.103   1.127   1.136   1.252   1.264   1.319
  1.391   1.450   1.499   1.520   1.576   1.636   1.669   1.757
  1.768   1.803   1.832   1.896   1.931   1.975   2.015   2.063
  2.071   2.157   2.182   2.226   2.252   2.303   2.333   2.409
  2.424   2.459   2.516   2.538   2.590   2.628   2.634   2.658
  2.724   2.797   2.849   2.918   2.951   3.936   4.161   4.264
  4.308   4.444   4.515   4.665
 
 Beta MOs
 -- Occupied --
-14.318 -10.224 -10.220 -10.216 -10.214 -10.200 -10.176  -0.952
 -0.832  -0.731  -0.668  -0.586  -0.567  -0.534  -0.507  -0.458
 -0.421  -0.403  -0.395  -0.374  -0.335  -0.279  -0.263  -0.248
 -- Virtual --
 -0.023   0.008   0.030   0.098   0.148   0.149   0.157   0.160
  0.167   0.180   0.210   0.224   0.265   0.305   0.314   0.365
  0.376   0.491   0.507   0.523   0.547   0.581   0.598   0.610
  0.619   0.640   0.648   0.675   0.686   0.719   0.758   0.772
  0.792   0.814   0.829   0.851   0.857   0.863   0.881   0.900
  0.930   0.964   1.013   1.109   1.131   1.147   1.255   1.268
  1.327   1.393   1.453   1.512   1.523   1.584   1.641   1.678
  1.765   1.776   1.810   1.836   1.916   1.939   1.977   2.029
  2.071   2.080   2.162   2.191   2.237   2.263   2.309   2.351
  2.418   2.432   2.471   2.519   2.546   2.593   2.631   2.643
  2.665   2.731   2.802   2.853   2.919   2.952   3.937   4.164
  4.274   4.325   4.447   4.519   4.668
 --------------------------------------------------------------
 
          Ground-State Mulliken Net Atomic Charges

     Atom                 Charge (a.u.)    Spin (a.u.)
  --------------------------------------------------------
      1 C                    -0.095186      -0.069588
      2 C                    -0.077508       0.683185
      3 C                    -0.131323      -0.229281
      4 C                    -0.198804       0.005168
      5 C                     0.099520       0.045113
      6 N                    -0.338586      -0.005219
      7 H                     0.139877       0.008237
      8 H                     0.141176      -0.028573
      9 H                     0.148805       0.014365
     10 H                     0.142567       0.003584
     11 H                     0.144827       0.001466
     12 C                    -0.133890       0.602770
     13 H                     0.158526      -0.031227
  --------------------------------------------------------
  Sum of atomic charges =    -0.000000
  Sum of spin   charges =     1.000000

 -----------------------------------------------------------------
                    Cartesian Multipole Moments
 -----------------------------------------------------------------
    Charge (ESU x 10^10)
                -0.0000
    Dipole Moment (Debye)
         X      -1.9652      Y      -1.7612      Z       0.5472
       Tot       2.6950
    Quadrupole Moments (Debye-Ang)
        XX     -38.7579     XY      -3.3616     YY     -42.3743
        XZ       1.5492     YZ       0.3106     ZZ     -39.8656
    Octopole Moments (Debye-Ang^2)
       XXX     -14.2050    XXY     -11.0025    XYY     -12.8956
       YYY     -22.4632    XXZ       2.6665    XYZ       3.7463
       YYZ      -2.7085    XZZ      -4.2866    YZZ      -8.1638
       ZZZ       7.7952
    Hexadecapole Moments (Debye-Ang^3)
      XXXX    -226.6309   XXXY      -8.4381   XXYY     -92.3496
      XYYY     -15.3464   YYYY    -298.4565   XXXZ       4.3208
      XXYZ       6.4411   XYYZ       4.8603   YYYZ       5.7320
      XXZZ     -63.7441   XYZZ      -2.2532   YYZZ     -70.3172
      XZZZ       1.2901   YZZZ      -0.3806   ZZZZ    -145.7714
 -----------------------------------------------------------------
Archival summary:
1\1\c8-89\TS\ProcedureUnspecified\6-31G*\166(2)\hpark21\TueMar117:55:482022TueMar117:55:482022\0\\#,TS,ProcedureUnspecified,6-31G*,\\0,2\N\C,1,1.2801\H,2,1.08885,1,122.124\C,1,1.50108,2,105.361,3,-174.682,0\H,4,1.08955,1,112.087,2,-159.246,0\C,2,1.5097,1,113.198,3,176.527,0\H,6,1.08779,2,120.837,1,162.717,0\C,6,1.49567,2,102.095,1,25.0392,0\H,8,1.08004,6,131.21,2,148.447,0\C,4,1.52393,1,108.137,2,68.5596,0\H,10,1.08109,4,130.99,1,103.954,0\C,10,1.40083,4,98.5343,1,-80.5203,0\H,12,1.08769,10,127.577,4,-161.715,0\\\@

 Total job time:  1757.17s(wall), 2277.81s(cpu) 
 Tue Mar  1 17:55:49 2022

        *************************************************************
        *                                                           *
        *  Thank you very much for using Q-Chem.  Have a nice day.  *
        *                                                           *
        *************************************************************


