
Running Job 1 of 1 qcts1.in
qchem qcts1.in_44073.0 ./qcts1.d/ 1
/home/leeping/opt/qchem/5.0.2-openmp/exe/qcprog.exe_s qcts1.in_44073.0 ./qcts1.d/
Check license passed

                  Welcome to Q-Chem
     A Quantum Leap Into The Future Of Chemistry


 Q-Chem 5.0, Q-Chem, Inc., Pleasanton, CA (2017)

 Yihan Shao,  Zhengting Gan,  E. Epifanovsky,  A. T. B. Gilbert,  M. Wormit,  
 J. Kussmann,  A. W. Lange,  A. Behn,  Jia Deng,  Xintian Feng,  D. Ghosh,  
 M. Goldey,  P. R. Horn,  L. D. Jacobson,  I. Kaliman,  T. Kus,  A. Landau,  
 Jie Liu,  E. I. Proynov,  R. M. Richard,  R. P. Steele,  E. J. Sundstrom,  
 H. L. Woodcock III,  P. M. Zimmerman,  D. Zuev,  B. Albrecht,  E. Alguire,  
 S. A. Baeppler,  D. Barton,  Z. Benda,  Y. A. Bernard,  E. J. Berquist,  
 K. B. Bravaya,  H. Burton,  D. Casanova,  Chun-Min Chang,  Yunqing Chen,  
 A. Chien,  K. D. Closser,  M. P. Coons,  S. Dasgupta,  A. L. Dempwolff,  
 M. Diedenhofen,  Hainam Do,  R. G. Edgar,  Po-Tung Fang,  S. Fatehi,  
 Qingguo Feng,  J. Fosso-Tande,  Qinghui Ge,  A. Ghysels,  G. Gidofalvi,  
 J. Gomes,  J. Gonthier,  A. Gunina,  M. W. D. Hanson-Heine,  
 P. H. P. Harbach,  A. W. Hauser,  J. E. Herr,  E. G. Hohenstein,  
 Z. C. Holden,  Kerwin Hui,  T.-C. Jagau,  Hyunjun Ji,  B. Kaduk,  
 K. Khistyaev,  Jaehoon Kim,  P. Klunzinger,  K. Koh,  D. Kosenkov,  
 L. Koulias,  T. Kowalczyk,  C. M. Krauter,  A. Kunitsa,  Ka Un Lao,  
 A. Laurent,  K. V. Lawler,  Joonho Lee,  D. Lefrancois,  S. Lehtola,  
 D. S. Levine,  Yi-Pei Li,  You-Sheng Lin,  Fenglai Liu,  E. Livshits,  
 A. Luenser,  P. Manohar,  E. Mansoor,  S. F. Manzer,  Shan-Ping Mao,  
 Yuezhi Mao,  N. Mardirossian,  A. V. Marenich,  T. Markovich,  
 L. A. Martinez-Martinez,  S. A. Maurer,  N. J. Mayhall,  S. C. McKenzie,  
 J.-M. Mewes,  A. F. Morrison,  J. W. Mullinax,  K. Nanda,  
 T. S. Nguyen-Beck,  R. Olivares-Amaya,  J. A. Parkhill,  T. M. Perrine,  
 F. Plasser,  S. Prager,  A. Prociuk,  E. Ramos,  D. R. Rehn,  F. Rob,  
 M. Schneider,  N. Sergueev,  S. M. Sharada,  S. Sharma,  D. W. Small,  
 T. Stauch,  T. Stein,  Yu-Chuan Su,  A. J. W. Thom,  A. Tkatchenko,  
 T. Tsuchimochi,  L. Vogt,  O. Vydrov,  M. A. Watson,  J. Wenzel,  
 M. de Wergifosse,  T. A. Wesolowski,  A. White,  J. Witte,  A. Yamada,  
 Jun Yang,  K. Yao,  S. Yeganeh,  S. R. Yost,  Zhi-Qiang You,  A. Zech,  
 Igor Ying Zhang,  Xing Zhang,  Yan Zhao,  Ying Zhu,  B. R. Brooks,  
 G. K. L. Chan,  C. J. Cramer,  M. S. Gordon,  W. J. Hehre,  A. Klamt,  
 M. W. Schmidt,  C. D. Sherrill,  D. G. Truhlar,  A. Aspuru-Guzik,  R. Baer,  
 A. T. Bell,  N. A. Besley,  Jeng-Da Chai,  R. A. DiStasio Jr.,  A. Dreuw,  
 B. D. Dunietz,  T. R. Furlani,  Chao-Ping Hsu,  Yousung Jung,  Jing Kong,  
 D. S. Lambrecht,  WanZhen Liang,  C. Ochsenfeld,  V. A. Rassolov,  
 L. V. Slipchenko,  J. E. Subotnik,  T. Van Voorhis,  J. M. Herbert,  
 A. I. Krylov,  P. M. W. Gill,  M. Head-Gordon

 Contributors to earlier versions of Q-Chem not listed above: 
 R. D. Adamson,  B. Austin,  J. Baker,  G. J. O. Beran,  K. Brandhorst,  
 S. T. Brown,  E. F. C. Byrd,  A. K. Chakraborty,  C.-L. Cheng,  
 Siu Hung Chien,  D. M. Chipman,  D. L. Crittenden,  H. Dachsel,  
 R. J. Doerksen,  A. D. Dutoi,  L. Fusti-Molnar,  W. A. Goddard III,  
 A. Golubeva-Zadorozhnaya,  S. R. Gwaltney,  G. Hawkins,  A. Heyden,  
 S. Hirata,  G. Kedziora,  F. J. Keil,  C. Kelley,  Jihan Kim,  R. A. King,  
 R. Z. Khaliullin,  P. P. Korambath,  W. Kurlancheek,  A. M. Lee,  M. S. Lee,  
 S. V. Levchenko,  Ching Yeh Lin,  D. Liotard,  R. C. Lochan,  I. Lotan,  
 P. E. Maslen,  N. Nair,  D. P. O'Neill,  D. Neuhauser,  E. Neuscamman,  
 C. M. Oana,  R. Olson,  B. Peters,  R. Peverati,  P. A. Pieniazek,  
 Y. M. Rhee,  J. Ritchie,  M. A. Rohrdanz,  E. Rosta,  N. J. Russ,  
 H. F. Schaefer III,  N. E. Schultz,  N. Shenvi,  A. C. Simmonett,  A. Sodt,  
 D. Stuck,  K. S. Thanthiriwatte,  V. Vanovschi,  Tao Wang,  A. Warshel,  
 C. F. Williams,  Q. Wu,  X. Xu,  W. Zhang

 Please cite Q-Chem as follows:
 Y. Shao et al., Mol. Phys. 113, 184-215 (2015)
 DOI: 10.1080/00268976.2014.952696

 Q-Chem 5.0.2 for Intel X86 EM64T Linux

 Parts of Q-Chem use Armadillo 5.200.1 (Boston Tea Smuggler).
 http://arma.sourceforge.net/

 Q-Chem begins on Tue Mar  1 17:56:38 2022  

Host: 
0

     Scratch files written to ./qcts1.d//
 Dec517 15110_ 26548  26544 5633   
Processing $rem in /home/leeping/opt/qchem/5.0.2-openmp/config/preferences.
 MEM_STATIC 2000
 MEM_TOTAL  8000
 SYMMETRY   OFF
 SYM_IGNORE TRUE 

Checking the input file for inconsistencies... 	...done.

--------------------------------------------------------------
User input:
--------------------------------------------------------------
$molecule
0 2
C        1.1519393712    0.1575589660    0.4096546565
C        0.8932461612   -0.9744926528   -0.5772143052
C       -0.5038962819   -1.0158898259   -0.4845049864
C       -1.0888692322    0.2958265697    0.0500971271
C       -0.3591797694    1.4948604870   -0.5058267151
N        0.9031194744    1.4587618637   -0.2961867868
H        2.0945588588    0.1616069189    0.9560764059
H        1.5770335939   -1.6099373511   -1.1225553809
H       -1.1647746255   -1.8264107622   -0.7834626945
H       -2.1665736053    0.3174135797    0.1963239787
H       -0.8278259317    2.2907778411   -1.0824328366
C       -0.1738789022   -0.1469041903    1.1472746208
H       -0.3775468863   -0.6238705331    2.0946428655
$end

$rem
method                b3lyp
basis                 6-31g(d)
unrestricted          true
symmetry              off
sym_ignore            true
incdft                false
incfock               0
scf_convergence       8
thresh                14
jobtype               sp
scf_guess             read
scf_algorithm         diis
max_scf_cycles        100
$end

--------------------------------------------------------------
 ----------------------------------------------------------------
             Standard Nuclear Orientation (Angstroms)
    I     Atom           X                Y                Z
 ----------------------------------------------------------------
    1      C       1.1519393712     0.1575589660     0.4096546565
    2      C       0.8932461612    -0.9744926528    -0.5772143052
    3      C      -0.5038962819    -1.0158898259    -0.4845049864
    4      C      -1.0888692322     0.2958265697     0.0500971271
    5      C      -0.3591797694     1.4948604870    -0.5058267151
    6      N       0.9031194744     1.4587618637    -0.2961867868
    7      H       2.0945588588     0.1616069189     0.9560764059
    8      H       1.5770335939    -1.6099373511    -1.1225553809
    9      H      -1.1647746255    -1.8264107622    -0.7834626945
   10      H      -2.1665736053     0.3174135797     0.1963239787
   11      H      -0.8278259317     2.2907778411    -1.0824328366
   12      C      -0.1738789022    -0.1469041903     1.1472746208
   13      H      -0.3775468863    -0.6238705331     2.0946428655
 ----------------------------------------------------------------
 Nuclear Repulsion Energy =   280.6560501930 hartrees
 There are       25 alpha and       24 beta electrons
 Requested basis set is 6-31G(d)
 There are 40 shells and 117 basis functions

 Total QAlloc Memory Limit   8000 MB
 Mega-Array Size      1956 MB
 MEM_STATIC part      2000 MB

                       Distance Matrix (Angstroms)
             C (  1)   C (  2)   C (  3)   C (  4)   C (  5)   N (  6)
   C (  2)  1.523934
   C (  3)  2.217723  1.400827
   C (  4)  2.273680  2.436393  1.532512
   C (  5)  2.215844  2.769724  2.515008  1.509695
   N (  6)  1.501084  2.449449  2.852903  2.332456  1.280098
   H (  7)  1.089552  2.254962  3.195895  3.312556  3.152072  2.161088
   H (  8)  2.377481  1.081088  2.256163  3.480530  3.710667  3.248686
   H (  9)  3.275184  2.236907  1.087695  2.281332  3.428835  3.912286
   H ( 10)  3.329203  3.410261  2.237347  1.087794  2.268495  3.311836
   H ( 11)  3.270538  3.725497  3.375870  2.308809  1.088847  2.075236
   C ( 12)  1.547441  2.190324  1.877965  1.495666  2.337193  2.412814
   H ( 13)  2.406064  2.979374  2.611828  2.352018  3.354370  3.419580
             H (  7)   H (  8)   H (  9)   H ( 10)   H ( 11)   C ( 12)
   H (  8)  2.779732
   H (  9)  4.195410  2.771165
   H ( 10)  4.331137  4.412337  2.561165
   H ( 11)  4.150810  4.582634  4.141758  2.705851
   C ( 12)  2.297291  3.218430  2.744151  2.256265  3.367720
   H ( 13)  2.832775  3.891411  3.217036  2.773129  4.334944  1.080039

 
 A cutoff of  1.0D-14 yielded    813 shell pairs
 There are      7085 function pairs
 
 -------------------------------------------------------
 OpenMP Integral Computing Module                       
 Release: version 1.0, May 2013, Q-Chem Inc. Pittsburgh 
 -------------------------------------------------------
 Integral Job Info:
 Integral job number is                      11
 Integral operator is                         1
 short-range coefficients                     0
 long-range coefficients              100000000
 Omega coefficients                           0
 if combine SR and LR in K                    0
 Integral screening is                        0
 Integral computing path is                   2
 max size of driver memory is            800000
 size of driver memory is                593474
 size of scratch memory is              2361544
 max col of scratch BK array               1296
 max len of scratch array in speh3          155
 max len of scratch index in speh4           18
 max int batch size is                      520
 min int batch size is                       52
 fixed nKL is                                52
 max L of basis functions is                  2
 order of int derivative is                   0
 number of shells is                         40
 number of basis is                         117
 number of cartesian basis is               117
 number of contracted shell pairs           813
 number of primitive shell pairs           3597
 maxK2 (contraction) of shell pair           36
 max number of K2 of shell pair               1
 max number of CS2 of shell pair             84
 max number of PS2 of shell pair            402
 mem total for path MDJ                  535308
 -------------------------------------------------------
 Smallest overlap matrix eigenvalue = 1.15E-03

 Scale SEOQF with 1.000000e-01/1.000000e-01/1.000000e-01

 Standard Electronic Orientation quadrupole field applied
 Nucleus-field energy     =     0.0000000028 hartrees
 Guess MOs from SCF MO coefficient file
 Reading MOs from coefficient file
 Reading MOs from coefficient file
 An unrestricted hybrid HF-DFT SCF calculation will be
 performed using Pulay DIIS extrapolation
 Exchange:     0.2000 Hartree-Fock + 0.0800 Slater + 0.7200 B88
 Correlation:  0.1900 VWN1RPA + 0.8100 LYP
 Using SG-1 standard quadrature grid
 SCF converges when DIIS error is below 1.0E-08
Using Q-Chem read-in guess as SCF_GUESS READ specified.

 using 4 threads for integral computing
 -------------------------------------------------------
 OpenMP Integral computing Module                
 Release: version 1.0, May 2013, Q-Chem Inc. Pittsburgh 
 -------------------------------------------------------
 -------------------------------------------------------
 OpenMP BLAS3 based DFT computing Module                
 Release: version 1.0, May 2013, Q-Chem Inc. Pittsburgh 
 -------------------------------------------------------
 ---------------------------------------
  Cycle       Energy         DIIS Error
 ---------------------------------------
    1    -286.8208495939      3.77E-09
    2    -286.8208495939      5.44E-09 Convergence criterion met
 ---------------------------------------
 <S^2> = 0.7842
 SCF time:  CPU 5.35 s  wall 3.50 s
 SCF   energy in the final basis set = -286.82084959
 Total energy in the final basis set = -286.82084959
 
 --------------------------------------------------------------
 
                    Orbital Energies (a.u.)
 --------------------------------------------------------------
 
 Alpha MOs
 -- Occupied --
-14.318 -10.221 -10.220 -10.217 -10.214 -10.209 -10.186  -0.956
 -0.837  -0.739  -0.679  -0.591  -0.576  -0.536  -0.515  -0.463
 -0.425  -0.408  -0.397  -0.376  -0.340  -0.295  -0.273  -0.252
 -0.140
 -- Virtual --
 -0.001   0.016   0.095   0.140   0.146   0.154   0.158   0.165
  0.177   0.205   0.218   0.261   0.301   0.310   0.362   0.371
  0.486   0.496   0.517   0.544   0.576   0.585   0.603   0.615
  0.622   0.636   0.665   0.682   0.712   0.754   0.768   0.791
  0.812   0.828   0.848   0.856   0.857   0.879   0.896   0.926
  0.961   1.005   1.103   1.127   1.136   1.252   1.264   1.319
  1.391   1.450   1.499   1.520   1.576   1.636   1.669   1.757
  1.768   1.803   1.832   1.896   1.931   1.975   2.015   2.063
  2.071   2.157   2.182   2.226   2.252   2.303   2.333   2.409
  2.424   2.459   2.516   2.538   2.590   2.628   2.634   2.658
  2.724   2.797   2.849   2.918   2.951   3.936   4.161   4.264
  4.308   4.444   4.515   4.665
 
 Beta MOs
 -- Occupied --
-14.318 -10.224 -10.220 -10.216 -10.214 -10.200 -10.176  -0.952
 -0.832  -0.731  -0.668  -0.586  -0.567  -0.534  -0.507  -0.458
 -0.421  -0.403  -0.395  -0.374  -0.335  -0.279  -0.263  -0.248
 -- Virtual --
 -0.023   0.008   0.030   0.098   0.148   0.149   0.157   0.160
  0.167   0.180   0.210   0.224   0.265   0.305   0.314   0.365
  0.376   0.491   0.507   0.523   0.547   0.581   0.598   0.610
  0.619   0.640   0.648   0.675   0.686   0.719   0.758   0.772
  0.792   0.814   0.829   0.851   0.857   0.863   0.881   0.900
  0.930   0.964   1.013   1.109   1.131   1.147   1.255   1.268
  1.327   1.393   1.453   1.512   1.523   1.584   1.641   1.678
  1.765   1.776   1.810   1.836   1.916   1.939   1.977   2.029
  2.071   2.080   2.162   2.191   2.237   2.263   2.309   2.351
  2.418   2.432   2.471   2.519   2.546   2.593   2.631   2.643
  2.665   2.731   2.802   2.853   2.919   2.952   3.937   4.164
  4.274   4.325   4.447   4.519   4.668
 --------------------------------------------------------------
 
          Ground-State Mulliken Net Atomic Charges

     Atom                 Charge (a.u.)    Spin (a.u.)
  --------------------------------------------------------
      1 C                    -0.095186      -0.069588
      2 C                    -0.077508       0.683185
      3 C                    -0.131323      -0.229281
      4 C                    -0.198804       0.005169
      5 C                     0.099520       0.045114
      6 N                    -0.338586      -0.005219
      7 H                     0.139877       0.008237
      8 H                     0.141176      -0.028573
      9 H                     0.148805       0.014365
     10 H                     0.142567       0.003584
     11 H                     0.144827       0.001466
     12 C                    -0.133891       0.602769
     13 H                     0.158526      -0.031227
  --------------------------------------------------------
  Sum of atomic charges =     0.000000
  Sum of spin   charges =     1.000000

 -----------------------------------------------------------------
                    Cartesian Multipole Moments
 -----------------------------------------------------------------
    Charge (ESU x 10^10)
                 0.0000
    Dipole Moment (Debye)
         X      -1.9652      Y      -1.7612      Z       0.5472
       Tot       2.6950
    Quadrupole Moments (Debye-Ang)
        XX     -38.7579     XY      -3.3616     YY     -42.3743
        XZ       1.5492     YZ       0.3106     ZZ     -39.8656
    Octopole Moments (Debye-Ang^2)
       XXX     -14.2050    XXY     -11.0025    XYY     -12.8956
       YYY     -22.4632    XXZ       2.6665    XYZ       3.7463
       YYZ      -2.7085    XZZ      -4.2866    YZZ      -8.1638
       ZZZ       7.7952
    Hexadecapole Moments (Debye-Ang^3)
      XXXX    -226.6309   XXXY      -8.4381   XXYY     -92.3496
      XYYY     -15.3464   YYYY    -298.4565   XXXZ       4.3208
      XXYZ       6.4411   XYYZ       4.8603   YYYZ       5.7320
      XXZZ     -63.7441   XYZZ      -2.2532   YYZZ     -70.3172
      XZZZ       1.2901   YZZZ      -0.3806   ZZZZ    -145.7714
 -----------------------------------------------------------------
Archival summary:
1\1\c8-89\SP\ProcedureUnspecified\6-31G*\166(2)\hpark21\TueMar117:56:522022TueMar117:56:522022\0\\#,ProcedureUnspecified,6-31G*,\\0,2\N\C,1,1.2801\H,2,1.08885,1,122.124\C,1,1.50108,2,105.361,3,-174.682,0\H,4,1.08955,1,112.087,2,-159.246,0\C,2,1.5097,1,113.198,3,176.527,0\H,6,1.08779,2,120.837,1,162.717,0\C,6,1.49567,2,102.095,1,25.0392,0\H,8,1.08004,6,131.21,2,148.447,0\C,4,1.52393,1,108.137,2,68.5596,0\H,10,1.08109,4,130.99,1,103.954,0\C,10,1.40083,4,98.5343,1,-80.5203,0\H,12,1.08769,10,127.577,4,-161.715,0\\\@

 Total job time:  13.23s(wall), 7.22s(cpu) 
 Tue Mar  1 17:56:52 2022

        *************************************************************
        *                                                           *
        *  Thank you very much for using Q-Chem.  Have a nice day.  *
        *                                                           *
        *************************************************************


