
Running Job 1 of 1 qcts2.in
qchem qcts2.in_44679.0 ./qcts2.d/ 1
/home/leeping/opt/qchem/5.0.2-openmp/exe/qcprog.exe_s qcts2.in_44679.0 ./qcts2.d/
Check license passed

                  Welcome to Q-Chem
     A Quantum Leap Into The Future Of Chemistry


 Q-Chem 5.0, Q-Chem, Inc., Pleasanton, CA (2017)

 Yihan Shao,  Zhengting Gan,  E. Epifanovsky,  A. T. B. Gilbert,  M. Wormit,  
 J. Kussmann,  A. W. Lange,  A. Behn,  Jia Deng,  Xintian Feng,  D. Ghosh,  
 M. Goldey,  P. R. Horn,  L. D. Jacobson,  I. Kaliman,  T. Kus,  A. Landau,  
 Jie Liu,  E. I. Proynov,  R. M. Richard,  R. P. Steele,  E. J. Sundstrom,  
 H. L. Woodcock III,  P. M. Zimmerman,  D. Zuev,  B. Albrecht,  E. Alguire,  
 S. A. Baeppler,  D. Barton,  Z. Benda,  Y. A. Bernard,  E. J. Berquist,  
 K. B. Bravaya,  H. Burton,  D. Casanova,  Chun-Min Chang,  Yunqing Chen,  
 A. Chien,  K. D. Closser,  M. P. Coons,  S. Dasgupta,  A. L. Dempwolff,  
 M. Diedenhofen,  Hainam Do,  R. G. Edgar,  Po-Tung Fang,  S. Fatehi,  
 Qingguo Feng,  J. Fosso-Tande,  Qinghui Ge,  A. Ghysels,  G. Gidofalvi,  
 J. Gomes,  J. Gonthier,  A. Gunina,  M. W. D. Hanson-Heine,  
 P. H. P. Harbach,  A. W. Hauser,  J. E. Herr,  E. G. Hohenstein,  
 Z. C. Holden,  Kerwin Hui,  T.-C. Jagau,  Hyunjun Ji,  B. Kaduk,  
 K. Khistyaev,  Jaehoon Kim,  P. Klunzinger,  K. Koh,  D. Kosenkov,  
 L. Koulias,  T. Kowalczyk,  C. M. Krauter,  A. Kunitsa,  Ka Un Lao,  
 A. Laurent,  K. V. Lawler,  Joonho Lee,  D. Lefrancois,  S. Lehtola,  
 D. S. Levine,  Yi-Pei Li,  You-Sheng Lin,  Fenglai Liu,  E. Livshits,  
 A. Luenser,  P. Manohar,  E. Mansoor,  S. F. Manzer,  Shan-Ping Mao,  
 Yuezhi Mao,  N. Mardirossian,  A. V. Marenich,  T. Markovich,  
 L. A. Martinez-Martinez,  S. A. Maurer,  N. J. Mayhall,  S. C. McKenzie,  
 J.-M. Mewes,  A. F. Morrison,  J. W. Mullinax,  K. Nanda,  
 T. S. Nguyen-Beck,  R. Olivares-Amaya,  J. A. Parkhill,  T. M. Perrine,  
 F. Plasser,  S. Prager,  A. Prociuk,  E. Ramos,  D. R. Rehn,  F. Rob,  
 M. Schneider,  N. Sergueev,  S. M. Sharada,  S. Sharma,  D. W. Small,  
 T. Stauch,  T. Stein,  Yu-Chuan Su,  A. J. W. Thom,  A. Tkatchenko,  
 T. Tsuchimochi,  L. Vogt,  O. Vydrov,  M. A. Watson,  J. Wenzel,  
 M. de Wergifosse,  T. A. Wesolowski,  A. White,  J. Witte,  A. Yamada,  
 Jun Yang,  K. Yao,  S. Yeganeh,  S. R. Yost,  Zhi-Qiang You,  A. Zech,  
 Igor Ying Zhang,  Xing Zhang,  Yan Zhao,  Ying Zhu,  B. R. Brooks,  
 G. K. L. Chan,  C. J. Cramer,  M. S. Gordon,  W. J. Hehre,  A. Klamt,  
 M. W. Schmidt,  C. D. Sherrill,  D. G. Truhlar,  A. Aspuru-Guzik,  R. Baer,  
 A. T. Bell,  N. A. Besley,  Jeng-Da Chai,  R. A. DiStasio Jr.,  A. Dreuw,  
 B. D. Dunietz,  T. R. Furlani,  Chao-Ping Hsu,  Yousung Jung,  Jing Kong,  
 D. S. Lambrecht,  WanZhen Liang,  C. Ochsenfeld,  V. A. Rassolov,  
 L. V. Slipchenko,  J. E. Subotnik,  T. Van Voorhis,  J. M. Herbert,  
 A. I. Krylov,  P. M. W. Gill,  M. Head-Gordon

 Contributors to earlier versions of Q-Chem not listed above: 
 R. D. Adamson,  B. Austin,  J. Baker,  G. J. O. Beran,  K. Brandhorst,  
 S. T. Brown,  E. F. C. Byrd,  A. K. Chakraborty,  C.-L. Cheng,  
 Siu Hung Chien,  D. M. Chipman,  D. L. Crittenden,  H. Dachsel,  
 R. J. Doerksen,  A. D. Dutoi,  L. Fusti-Molnar,  W. A. Goddard III,  
 A. Golubeva-Zadorozhnaya,  S. R. Gwaltney,  G. Hawkins,  A. Heyden,  
 S. Hirata,  G. Kedziora,  F. J. Keil,  C. Kelley,  Jihan Kim,  R. A. King,  
 R. Z. Khaliullin,  P. P. Korambath,  W. Kurlancheek,  A. M. Lee,  M. S. Lee,  
 S. V. Levchenko,  Ching Yeh Lin,  D. Liotard,  R. C. Lochan,  I. Lotan,  
 P. E. Maslen,  N. Nair,  D. P. O'Neill,  D. Neuhauser,  E. Neuscamman,  
 C. M. Oana,  R. Olson,  B. Peters,  R. Peverati,  P. A. Pieniazek,  
 Y. M. Rhee,  J. Ritchie,  M. A. Rohrdanz,  E. Rosta,  N. J. Russ,  
 H. F. Schaefer III,  N. E. Schultz,  N. Shenvi,  A. C. Simmonett,  A. Sodt,  
 D. Stuck,  K. S. Thanthiriwatte,  V. Vanovschi,  Tao Wang,  A. Warshel,  
 C. F. Williams,  Q. Wu,  X. Xu,  W. Zhang

 Please cite Q-Chem as follows:
 Y. Shao et al., Mol. Phys. 113, 184-215 (2015)
 DOI: 10.1080/00268976.2014.952696

 Q-Chem 5.0.2 for Intel X86 EM64T Linux

 Parts of Q-Chem use Armadillo 5.200.1 (Boston Tea Smuggler).
 http://arma.sourceforge.net/

 Q-Chem begins on Tue Mar  1 18:02:45 2022  

Host: 
0

     Scratch files written to ./qcts2.d//
 Dec517 15110_ 26548  26544 5633   
Processing $rem in /home/leeping/opt/qchem/5.0.2-openmp/config/preferences.
 MEM_STATIC 2000
 MEM_TOTAL  8000
 SYMMETRY   OFF
 SYM_IGNORE TRUE 

Checking the input file for inconsistencies... 	...done.

--------------------------------------------------------------
User input:
--------------------------------------------------------------
$molecule
0 2
C        1.1519393712    0.1575589660    0.4096546565
C        0.8932461612   -0.9744926528   -0.5772143052
C       -0.5038962819   -1.0158898259   -0.4845049864
C       -1.0888692322    0.2958265697    0.0500971271
C       -0.3591797694    1.4948604870   -0.5058267151
N        0.9031194744    1.4587618637   -0.2961867868
H        2.0945588588    0.1616069189    0.9560764059
H        1.5770335939   -1.6099373511   -1.1225553809
H       -1.1647746255   -1.8264107622   -0.7834626945
H       -2.1665736053    0.3174135797    0.1963239787
H       -0.8278259317    2.2907778411   -1.0824328366
C       -0.1738789022   -0.1469041903    1.1472746208
H       -0.3775468863   -0.6238705331    2.0946428655
$end

$rem
method                b3lyp
basis                 6-31+g(d,p)
unrestricted          true
symmetry              off
sym_ignore            true
incdft                false
incfock               0
scf_convergence       6
thresh                14
jobtype               sp
scf_guess             read
scf_algorithm         diis
max_scf_cycles        100
stability_analysis    true
max_cis_cycles        100
cis_n_roots           4
$end

--------------------------------------------------------------
 ----------------------------------------------------------------
             Standard Nuclear Orientation (Angstroms)
    I     Atom           X                Y                Z
 ----------------------------------------------------------------
    1      C       1.1519393712     0.1575589660     0.4096546565
    2      C       0.8932461612    -0.9744926528    -0.5772143052
    3      C      -0.5038962819    -1.0158898259    -0.4845049864
    4      C      -1.0888692322     0.2958265697     0.0500971271
    5      C      -0.3591797694     1.4948604870    -0.5058267151
    6      N       0.9031194744     1.4587618637    -0.2961867868
    7      H       2.0945588588     0.1616069189     0.9560764059
    8      H       1.5770335939    -1.6099373511    -1.1225553809
    9      H      -1.1647746255    -1.8264107622    -0.7834626945
   10      H      -2.1665736053     0.3174135797     0.1963239787
   11      H      -0.8278259317     2.2907778411    -1.0824328366
   12      C      -0.1738789022    -0.1469041903     1.1472746208
   13      H      -0.3775468863    -0.6238705331     2.0946428655
 ----------------------------------------------------------------
 Nuclear Repulsion Energy =   280.6560501930 hartrees
 There are       25 alpha and       24 beta electrons
 Requested basis set is 6-31+G(d,p)
 There are 53 shells and 163 basis functions

 Total QAlloc Memory Limit   8000 MB
 Mega-Array Size      1956 MB
 MEM_STATIC part      2000 MB

                       Distance Matrix (Angstroms)
             C (  1)   C (  2)   C (  3)   C (  4)   C (  5)   N (  6)
   C (  2)  1.523934
   C (  3)  2.217723  1.400827
   C (  4)  2.273680  2.436393  1.532512
   C (  5)  2.215844  2.769724  2.515008  1.509695
   N (  6)  1.501084  2.449449  2.852903  2.332456  1.280098
   H (  7)  1.089552  2.254962  3.195895  3.312556  3.152072  2.161088
   H (  8)  2.377481  1.081088  2.256163  3.480530  3.710667  3.248686
   H (  9)  3.275184  2.236907  1.087695  2.281332  3.428835  3.912286
   H ( 10)  3.329203  3.410261  2.237347  1.087794  2.268495  3.311836
   H ( 11)  3.270538  3.725497  3.375870  2.308809  1.088847  2.075236
   C ( 12)  1.547441  2.190324  1.877965  1.495666  2.337193  2.412814
   H ( 13)  2.406064  2.979374  2.611828  2.352018  3.354370  3.419580
             H (  7)   H (  8)   H (  9)   H ( 10)   H ( 11)   C ( 12)
   H (  8)  2.779732
   H (  9)  4.195410  2.771165
   H ( 10)  4.331137  4.412337  2.561165
   H ( 11)  4.150810  4.582634  4.141758  2.705851
   C ( 12)  2.297291  3.218430  2.744151  2.256265  3.367720
   H ( 13)  2.832775  3.891411  3.217036  2.773129  4.334944  1.080039

 
 A cutoff of  1.0D-14 yielded   1404 shell pairs
 There are     13506 function pairs
 Smallest overlap matrix eigenvalue = 2.29E-05

 Scale SEOQF with 1.000000e-01/1.000000e-01/1.000000e-01

 Standard Electronic Orientation quadrupole field applied
 Nucleus-field energy     =     0.0000000028 hartrees
 Guess MOs from SCF MO coefficient file
 Reading MOs from coefficient file
 Reading MOs from coefficient file
 An unrestricted hybrid HF-DFT SCF calculation will be
 performed using Pulay DIIS extrapolation
 Exchange:     0.2000 Hartree-Fock + 0.0800 Slater + 0.7200 B88
 Correlation:  0.1900 VWN1RPA + 0.8100 LYP
 Using SG-1 standard quadrature grid
 SCF converges when DIIS error is below 1.0E-06
Using Q-Chem read-in guess as SCF_GUESS READ specified.

 -------------------------------------------------------
 OpenMP BLAS3 based DFT computing Module                
 -------------------------------------------------------
 ---------------------------------------
  Cycle       Energy         DIIS Error
 ---------------------------------------
    1    -286.8438350603      2.82E-09
    2    -286.8438350603      3.82E-09 Convergence criterion met
 ---------------------------------------
 <S^2> = 0.7812
 SCF time:  CPU 6.67 s  wall 14.30 s
 SCF   energy in the final basis set = -286.84383506
 Total energy in the final basis set = -286.84383506
 
 Direct TDDFT/TDA calculation will be performed
 Exchange:     0.2000 Hartree-Fock + 0.0800 Slater + 0.7200 B88
 Correlation:  0.1900 VWN1RPA + 0.8100 LYP
 Using SG-1 standard quadrature grid
 CIS energy converged when residual is below 10e- 6
 ---------------------------------------------------
 Iter    Rts Conv    Rts Left    Ttl Dev     Max Dev
 ---------------------------------------------------
   1         0           4      0.002690    0.001313
   2         0           4      0.000717    0.000270
   3         0           4      0.000323    0.000148
   4         0           4      0.000140    0.000052
   5         0           4      0.000057    0.000027
   6         1           3      0.000027    0.000019
   7         2           2      0.000017    0.000014
   8         3           1      0.000006    0.000005
   9         3           1      0.000003    0.000001
  10         4           0      0.000002    0.000001    Roots Converged
 ---------------------------------------------------
 
 ---------------------------------------------------
         TDDFT/TDA Excitation Energies              
 ---------------------------------------------------

 Excited state   1: excitation energy (eV) =    2.2535
 Total energy for state  1:                  -286.76101970 au
    <S**2>     :  0.7804
    Trans. Mom.:  0.1541 X   0.0902 Y  -0.3632 Z
    Strength   :     0.0090421966
    S(  1) --> V(  1) amplitude =  0.9576 alpha
    S(  1) --> V(  2) amplitude = -0.1939 alpha

 Excited state   2: excitation energy (eV) =    2.7136
 Total energy for state  2:                  -286.74411311 au
    <S**2>     :  0.7845
    Trans. Mom.: -0.1308 X   0.4100 Y   0.1497 Z
    Strength   :     0.0138041084
    S(  1) --> V(  1) amplitude =  0.2256 alpha
    S(  1) --> V(  2) amplitude =  0.9425 alpha

 Excited state   3: excitation energy (eV) =    3.2574
 Total energy for state  3:                  -286.72412767 au
    <S**2>     :  0.7883
    Trans. Mom.: -0.0795 X  -0.0719 Y  -0.2456 Z
    Strength   :     0.0057285942
    S(  1) --> V(  3) amplitude =  0.9821 alpha

 Excited state   4: excitation energy (eV) =    3.8832
 Total energy for state  4:                  -286.70112865 au
    <S**2>     :  0.7883
    Trans. Mom.: -0.0565 X  -0.0341 Y   0.0917 Z
    Strength   :     0.0012151501
    S(  1) --> V(  4) amplitude =  0.9598 alpha
    S(  1) --> V(  5) amplitude =  0.2231 alpha
 
 ---------------------------------------------------

 Stability analysis will be performed
 ---------------------------------------------------
 Iter    Rts Conv    Rts Left    Ttl Dev     Max Dev
 ---------------------------------------------------
   1         0           8      0.002808    0.000599
   2         0           8      0.001036    0.000365
   3         0           8      0.000720    0.000256
   4         2           6      0.001371    0.000983
   5         3           5      0.000851    0.000508
   6         3           5      0.000458    0.000326
   7         4           4      0.000189    0.000139
   8         5           3      0.000056    0.000041
   9         5           3      0.000017    0.000011
  10         7           1      0.000007    0.000004
  11         7           1      0.000003    0.000001
  12         8           0      0.000002    0.000001    Roots Converged
 UKS-> UKS   stable,    smallest eigenvalue:      0.0730728
 UKS->CUKS   stable,    smallest eigenvalue:      0.0822160
 ---------------------------------------------------
  SETman timing summary (seconds)
  CPU time               198.27s
  System time              0.00s
  Wall time              275.63s
 
 --------------------------------------------------------------
 
                    Orbital Energies (a.u.)
 --------------------------------------------------------------
 
 Alpha MOs
 -- Occupied --
-14.334 -10.233 -10.231 -10.229 -10.226 -10.223 -10.199  -0.969
 -0.851  -0.750  -0.690  -0.601  -0.587  -0.546  -0.524  -0.475
 -0.435  -0.419  -0.409  -0.386  -0.352  -0.307  -0.286  -0.266
 -0.153
 -- Virtual --
 -0.025  -0.009   0.000   0.020   0.026   0.031   0.048   0.048
  0.068   0.071   0.074   0.091   0.103   0.106   0.109   0.114
  0.123   0.129   0.143   0.154   0.167   0.177   0.183   0.185
  0.190   0.198   0.208   0.212   0.228   0.233   0.241   0.246
  0.258   0.268   0.280   0.289   0.302   0.319   0.328   0.354
  0.373   0.386   0.413   0.460   0.617   0.655   0.690   0.698
  0.700   0.716   0.726   0.740   0.753   0.758   0.784   0.794
  0.797   0.817   0.862   0.898   0.912   0.933   0.971   0.987
  1.010   1.015   1.038   1.057   1.087   1.117   1.135   1.161
  1.188   1.251   1.295   1.302   1.387   1.420   1.438   1.512
  1.527   1.602   1.615   1.715   1.717   1.773   1.798   1.835
  1.888   1.921   1.944   1.992   1.997   2.076   2.108   2.139
  2.150   2.221   2.231   2.264   2.279   2.359   2.370   2.379
  2.407   2.424   2.469   2.491   2.499   2.520   2.524   2.554
  2.578   2.592   2.627   2.650   2.685   2.745   2.760   2.769
  2.825   2.876   2.952   3.058   3.111   3.296   3.313   3.337
  3.475   3.620   3.689   4.153   4.387   4.476   4.577   4.637
  4.713   4.851
 
 Beta MOs
 -- Occupied --
-14.334 -10.236 -10.232 -10.228 -10.225 -10.214 -10.190  -0.966
 -0.845  -0.743  -0.680  -0.597  -0.578  -0.543  -0.516  -0.469
 -0.431  -0.414  -0.407  -0.384  -0.346  -0.292  -0.276  -0.262
 -- Virtual --
 -0.044  -0.020  -0.001   0.002   0.020   0.027   0.035   0.048
  0.049   0.070   0.072   0.078   0.093   0.103   0.105   0.110
  0.116   0.128   0.130   0.144   0.155   0.167   0.177   0.184
  0.190   0.191   0.201   0.210   0.217   0.232   0.236   0.243
  0.247   0.261   0.272   0.281   0.291   0.304   0.323   0.330
  0.357   0.376   0.388   0.419   0.462   0.619   0.662   0.691
  0.703   0.708   0.735   0.741   0.748   0.753   0.768   0.789
  0.797   0.802   0.820   0.864   0.903   0.914   0.935   0.973
  0.989   1.010   1.020   1.041   1.061   1.090   1.121   1.142
  1.167   1.193   1.255   1.300   1.306   1.390   1.423   1.448
  1.518   1.533   1.610   1.618   1.719   1.724   1.780   1.802
  1.853   1.892   1.929   1.946   1.999   2.002   2.080   2.119
  2.138   2.160   2.228   2.235   2.272   2.286   2.362   2.374
  2.382   2.412   2.431   2.473   2.497   2.502   2.525   2.533
  2.557   2.588   2.598   2.631   2.656   2.691   2.749   2.764
  2.773   2.827   2.877   2.955   3.061   3.112   3.298   3.314
  3.339   3.477   3.624   3.692   4.153   4.393   4.482   4.590
  4.643   4.716   4.854
 --------------------------------------------------------------
 
          Ground-State Mulliken Net Atomic Charges

     Atom                 Charge (a.u.)    Spin (a.u.)
  --------------------------------------------------------
      1 C                     0.022826      -0.124763
      2 C                    -0.140488       0.736061
      3 C                    -0.134066      -0.234308
      4 C                    -0.023812      -0.028079
      5 C                    -0.063514       0.042013
      6 N                    -0.207616      -0.002224
      7 H                     0.130557       0.009020
      8 H                     0.138369      -0.028008
      9 H                     0.140271       0.013303
     10 H                     0.131619       0.004035
     11 H                     0.134711       0.001297
     12 C                    -0.277770       0.640760
     13 H                     0.148914      -0.029107
  --------------------------------------------------------
  Sum of atomic charges =     0.000000
  Sum of spin   charges =     1.000000

 -----------------------------------------------------------------
                    Cartesian Multipole Moments
 -----------------------------------------------------------------
    Charge (ESU x 10^10)
                 0.0000
    Dipole Moment (Debye)
         X      -2.1833      Y      -1.8617      Z       0.5977
       Tot       2.9309
    Quadrupole Moments (Debye-Ang)
        XX     -39.7421     XY      -3.7690     YY     -44.1251
        XZ       1.9909     YZ       0.2672     ZZ     -41.5561
    Octopole Moments (Debye-Ang^2)
       XXX     -15.8114    XXY     -11.7846    XYY     -14.5798
       YYY     -23.5399    XXZ       3.3444    XYZ       4.1931
       YYZ      -3.2817    XZZ      -4.9700    YZZ      -8.7623
       ZZZ       8.7456
    Hexadecapole Moments (Debye-Ang^3)
      XXXX    -237.3130   XXXY     -10.5977   XXYY     -98.8851
      XYYY     -18.3289   YYYY    -320.9130   XXXZ       6.6477
      XXYZ       7.2331   XYYZ       6.0262   YYYZ       5.9847
      XXZZ     -68.6968   XYZZ      -2.8076   YYZZ     -76.1633
      XZZZ       4.3056   YZZZ      -2.3078   ZZZZ    -163.9878
 -----------------------------------------------------------------
Archival summary:
1\1\c8-89\SP\ProcedureUnspecified\6-31+G**\166(2)\hpark21\TueMar118:07:402022TueMar118:07:402022\0\\#,ProcedureUnspecified,6-31+G**,\\0,2\N\C,1,1.2801\H,2,1.08885,1,122.124\C,1,1.50108,2,105.361,3,-174.682,0\H,4,1.08955,1,112.087,2,-159.246,0\C,2,1.5097,1,113.198,3,176.527,0\H,6,1.08779,2,120.837,1,162.717,0\C,6,1.49567,2,102.095,1,25.0392,0\H,8,1.08004,6,131.21,2,148.447,0\C,4,1.52393,1,108.137,2,68.5596,0\H,10,1.08109,4,130.99,1,103.954,0\C,10,1.40083,4,98.5343,1,-80.5203,0\H,12,1.08769,10,127.577,4,-161.715,0\\\@

 Total job time:  295.19s(wall), 205.18s(cpu) 
 Tue Mar  1 18:07:40 2022

        *************************************************************
        *                                                           *
        *  Thank you very much for using Q-Chem.  Have a nice day.  *
        *                                                           *
        *************************************************************


