13
image # 1 Energy = -286.85497
C 1.67251   0.33110   -0.32218  
C 1.07916   -0.88280  -0.30526  
C -0.35195  -1.05368  -0.00410  
C -1.13899  0.36705   0.11568   
C -0.29419  1.53254   -0.20591  
N 0.98870   1.54777   -0.32122  
H 2.74429   0.42179   -0.47838  
H 1.65806   -1.77601  -0.52709  
H -0.85610  -1.90474  -0.46569  
H -2.17280  0.44266   -0.22711  
H -0.82206  2.46527   -0.41947  
C -0.88497  -0.52510  1.24987   
H -1.62166  -0.96586  1.91087   
13
image # 2 Energy = -286.85386
C 1.65910   0.32194   -0.28489  
C 1.06930   -0.88408  -0.31939  
C -0.37203  -1.04540  -0.02644  
C -1.13376  0.36151   0.11190   
C -0.30687  1.53434   -0.22760  
N 0.98015   1.54394   -0.31887  
H 2.73200   0.41645   -0.39947  
H 1.64909   -1.78360  -0.54627  
H -0.87785  -1.90005  -0.51041  
H -2.18200  0.43400   -0.20081  
H -0.83228  2.45950   -0.45774  
C -0.84163  -0.51074  1.23877   
H -1.55435  -0.94789  1.94177   
13
image # 3 Energy = -286.85325
C 1.63319   0.31332   -0.26195  
C 1.05689   -0.88560  -0.33042  
C -0.37258  -1.06068  -0.07281  
C -1.13463  0.36367   0.11327   
C -0.32870  1.53396   -0.24568  
N 0.98876   1.54272   -0.31414  
H 2.73762   0.41272   -0.32151  
H 1.63618   -1.78365  -0.56026  
H -0.89794  -1.87988  -0.53800  
H -2.19230  0.42687   -0.17366  
H -0.84092  2.45346   -0.49963  
C -0.81633  -0.50570  1.22668   
H -1.48967  -0.93194  1.97869   
13
image # 4 Energy = -286.85189
C 1.63552   0.31887   -0.22958  
C 1.04072   -0.89873  -0.34834  
C -0.38630  -1.05476  -0.09832  
C -1.13849  0.36761   0.10798   
C -0.32120  1.53233   -0.26542  
N 0.96442   1.53881   -0.31042  
H 2.72220   0.40527   -0.23571  
H 1.62717   -1.78454  -0.57704  
H -0.92373  -1.86982  -0.57647  
H -2.20045  0.42042   -0.14343  
H -0.85089  2.44701   -0.54768  
C -0.78468  -0.50950  1.21730   
H -1.41240  -0.91376  2.00832   
13
image # 5 Energy = -286.84953
C 1.62237   0.31736   -0.19903  
C 1.03684   -0.90518  -0.36206  
C -0.40350  -1.05478  -0.12609  
C -1.13824  0.36762   0.10594   
C -0.33194  1.53208   -0.28229  
N 0.96070   1.53454   -0.30838  
H 2.70567   0.39811   -0.16198  
H 1.61829   -1.78502  -0.59163  
H -0.94296  -1.86027  -0.60815  
H -2.20376  0.41392   -0.11792  
H -0.85790  2.44017   -0.58554  
C -0.75439  -0.50033  1.21145   
H -1.34530  -0.89918  2.02657   
13
image # 6 Energy = -286.84670
C 1.60791   0.30217   -0.17406  
C 1.01887   -0.89073  -0.37270  
C -0.40563  -1.04913  -0.15149  
C -1.13868  0.37190   0.10585   
C -0.33254  1.53036   -0.29753  
N 0.94535   1.53387   -0.30555  
H 2.69256   0.39180   -0.07793  
H 1.61547   -1.79201  -0.60715  
H -0.97120  -1.85208  -0.64058  
H -2.21061  0.40938   -0.08916  
H -0.86360  2.43119   -0.63314  
C -0.72852  -0.50128  1.19521   
H -1.26867  -0.88679  2.04864   
13
image # 7 Energy = -286.84331
C 1.59854   0.30576   -0.13612  
C 1.00606   -0.90642  -0.39465  
C -0.41990  -1.04185  -0.18177  
C -1.13543  0.37184   0.10154   
C -0.34949  1.53507   -0.31569  
N 0.94379   1.52956   -0.30386  
H 2.66722   0.38279   0.00898   
H 1.60623   -1.78937  -0.61935  
H -0.99656  -1.84495  -0.67114  
H -2.21728  0.40536   -0.06104  
H -0.86709  2.41935   -0.67748  
C -0.69149  -0.49201  1.18562   
H -1.18938  -0.87821  2.06465   
13
image # 8 Energy = -286.83863
C 1.57223   0.30090   -0.10733  
C 1.01097   -0.90794  -0.41131  
C -0.44800  -1.04471  -0.21278  
C -1.13889  0.37278   0.09934   
C -0.34313  1.53247   -0.33126  
N 0.93076   1.52411   -0.30145  
H 2.64443   0.37353   0.09222   
H 1.59609   -1.78603  -0.62932  
H -1.01468  -1.83140  -0.69189  
H -2.21798  0.40109   -0.03478  
H -0.87322  2.41477   -0.72056  
C -0.65522  -0.48135  1.17384   
H -1.11254  -0.87343  2.07447   
13
image # 9 Energy = -286.83410
C 1.55578   0.29580   -0.08075  
C 0.98725   -0.90405  -0.42351  
C -0.45091  -1.03475  -0.24366  
C -1.13835  0.36680   0.09708   
C -0.35723  1.53496   -0.35128  
N 0.93299   1.52010   -0.29909  
H 2.61093   0.36336   0.17410   
H 1.59264   -1.79057  -0.63630  
H -1.03800  -1.82694  -0.70798  
H -2.21782  0.39826   -0.01069  
H -0.87493  2.40988   -0.75737  
C -0.62043  -0.46562  1.16371   
H -1.03478  -0.87539  2.07485   
13
image # 10 Energy = -286.82714
C 1.53722   0.28626   -0.05150  
C 0.98042   -0.90976  -0.44239  
C -0.46091  -1.01580  -0.27298  
C -1.12097  0.36898   0.08887   
C -0.36424  1.53620   -0.37043  
N 0.91584   1.52303   -0.30584  
H 2.57204   0.34927   0.25925   
H 1.58024   -1.78710  -0.63750  
H -1.06131  -1.82620  -0.71956  
H -2.22499  0.39353   0.01109   
H -0.87199  2.40154   -0.79086  
C -0.58374  -0.44159  1.16370   
H -0.95356  -0.89102  2.06749   
13
image # 11 Energy = -286.82002
C 1.51464   0.28599   -0.02377  
C 0.96491   -0.90463  -0.45432  
C -0.47319  -1.00397  -0.30095  
C -1.13646  0.36547   0.08262   
C -0.36670  1.53859   -0.39356  
N 0.91217   1.51161   -0.31123  
H 2.53086   0.33567   0.33772   
H 1.57351   -1.79263  -0.64408  
H -1.07297  -1.81378  -0.73038  
H -2.20708  0.38597   0.03239   
H -0.87514  2.39644   -0.82148  
C -0.54036  -0.41749  1.16243   
H -0.88080  -0.90374  2.06438   
13
image # 12 Energy = -286.80960
C 1.48510   0.27486   0.01314   
C 0.95369   -0.90862  -0.46324  
C -0.47494  -0.99218  -0.33871  
C -1.11464  0.35112   0.08430   
C -0.37220  1.52321   -0.41232  
N 0.90748   1.49989   -0.31551  
H 2.50053   0.32716   0.38133   
H 1.56915   -1.79327  -0.66553  
H -1.07002  -1.80395  -0.75681  
H -2.20136  0.37325   0.04650   
H -0.88490  2.39469   -0.83698  
C -0.49831  -0.37341  1.19337   
H -0.85452  -0.89218  2.07088   
13
image # 13 Energy = -286.80025
C 1.47603   0.27236   0.04111   
C 0.95238   -0.92082  -0.46428  
C -0.47926  -0.97088  -0.34924  
C -1.08718  0.32880   0.09925   
C -0.37626  1.50332   -0.43081  
N 0.89536   1.47522   -0.31759  
H 2.48784   0.32375   0.39840   
H 1.56970   -1.78316  -0.70870  
H -1.05747  -1.77973  -0.82319  
H -2.20165  0.36187   0.06618   
H -0.89400  2.37390   -0.86397  
C -0.46646  -0.35063  1.23584   
H -0.87217  -0.85476  2.11785   
13
image # 14 Energy = -286.78337
C 1.42144   0.25017   0.09804   
C 0.93766   -0.92166  -0.47724  
C -0.47186  -0.97995  -0.43154  
C -1.08673  0.30240   0.06427   
C -0.37354  1.51528   -0.43239  
N 0.89539   1.48410   -0.31941  
H 2.46730   0.31927   0.38670   
H 1.58130   -1.80238  -0.69585  
H -1.06312  -1.82905  -0.79950  
H -2.18301  0.35485   0.04808   
H -0.89586  2.39214   -0.81162  
C -0.42277  -0.24085  1.30262   
H -0.85509  -0.86606  2.06937   
13
image # 15 Energy = -286.76936
C 1.36993   0.25180   0.16154   
C 0.91217   -0.96828  -0.48794  
C -0.46630  -1.00450  -0.49340  
C -1.07085  0.28102   0.04209   
C -0.37597  1.51897   -0.42322  
N 0.90356   1.50785   -0.33032  
H 2.45397   0.31267   0.38799   
H 1.58012   -1.80301  -0.68454  
H -1.06439  -1.86392  -0.79438  
H -2.17831  0.34627   0.04063   
H -0.89640  2.40646   -0.77196  
C -0.38565  -0.13800  1.33890   
H -0.82453  -0.86804  2.01650   
13
image # 16 Energy = -286.77965
C 1.33301   0.24946   0.21353   
C 0.88777   -0.99601  -0.49095  
C -0.46482  -1.01862  -0.54798  
C -1.06458  0.26192   0.03856   
C -0.37904  1.52201   -0.42760  
N 0.90521   1.51416   -0.33360  
H 2.41962   0.30163   0.41493   
H 1.57493   -1.80113  -0.68350  
H -1.06608  -1.88091  -0.79989  
H -2.16327  0.33434   0.04355   
H -0.89866  2.41162   -0.75433  
C -0.33777  -0.05388  1.34803   
H -0.78233  -0.86225  1.98063   
13
image # 17 Energy = -286.79405
C 1.28196   0.22951   0.27082   
C 0.87406   -0.99796  -0.47397  
C -0.47042  -1.02754  -0.57342  
C -1.05433  0.25171   0.04534   
C -0.38018  1.51518   -0.43719  
N 0.90198   1.50340   -0.32756  
H 2.37775   0.29476   0.44982   
H 1.57662   -1.80090  -0.70595  
H -1.06825  -1.88577  -0.84944  
H -2.15306  0.32634   0.06313   
H -0.90629  2.40740   -0.76576  
C -0.27375  -0.01100  1.33853   
H -0.73559  -0.81995  1.96664   
13
image # 18 Energy = -286.80607
C 1.25690   0.21619   0.31471   
C 0.86663   -1.00826  -0.46544  
C -0.47166  -1.02151  -0.57790  
C -1.05549  0.24546   0.05923   
C -0.37591  1.50499   -0.44653  
N 0.88867   1.49304   -0.33339  
H 2.34637   0.28663   0.50064   
H 1.57120   -1.78715  -0.73620  
H -1.07250  -1.86526  -0.92374  
H -2.15093  0.31997   0.09316   
H -0.90837  2.38109   -0.80738  
C -0.23576  0.00598   1.33275   
H -0.68336  -0.78427  1.99069   
13
image # 19 Energy = -286.81904
C 1.22384   0.20696   0.35143   
C 0.85014   -1.01483  -0.46264  
C -0.47833  -1.02735  -0.60330  
C -1.05344  0.24169   0.06692   
C -0.38293  1.49013   -0.45583  
N 0.88902   1.48315   -0.33547  
H 2.31386   0.27588   0.56009   
H 1.56724   -1.77746  -0.75980  
H -1.07306  -1.83774  -0.97766  
H -2.14522  0.31052   0.12033   
H -0.91064  2.36154   -0.84545  
C -0.19962  0.03226   1.33649   
H -0.62020  -0.75633  2.00483   
13
image # 20 Energy = -286.82966
C 1.20577   0.19452   0.37345   
C 0.85632   -1.01297  -0.45442  
C -0.49175  -1.01729  -0.60557  
C -1.05802  0.23513   0.09148   
C -0.38313  1.47629   -0.47245  
N 0.88026   1.46807   -0.33940  
H 2.28272   0.26145   0.63346   
H 1.56104   -1.76198  -0.79178  
H -1.08108  -1.79793  -1.06179  
H -2.14941  0.30172   0.15571   
H -0.91139  2.32747   -0.90541  
C -0.17623  0.04261   1.32885   
H -0.54992  -0.72715  2.04703   
13
image # 21 Energy = -286.83893
C 1.18006   0.18715   0.39877   
C 0.85188   -1.01455  -0.45471  
C -0.50313  -1.01527  -0.62100  
C -1.05865  0.22765   0.09935   
C -0.38393  1.46571   -0.48356  
N 0.87820   1.46126   -0.34344  
H 2.24475   0.24420   0.70434   
H 1.55494   -1.75075  -0.81163  
H -1.08795  -1.76697  -1.11712  
H -2.14985  0.28983   0.18633   
H -0.91219  2.30350   -0.94775  
C -0.15001  0.06125   1.32398   
H -0.47474  -0.70140  2.06481   
13
image # 22 Energy = -286.84569
C 1.17224   0.18804   0.42411   
C 0.83538   -1.01842  -0.46147  
C -0.50439  -1.01782  -0.62587  
C -1.06866  0.21859   0.10353   
C -0.38530  1.46088   -0.49560  
N 0.87852   1.45705   -0.35409  
H 2.20695   0.22476   0.77733   
H 1.54940   -1.73810  -0.83296  
H -1.09257  -1.72293  -1.17809  
H -2.15707  0.27842   0.22075   
H -0.91050  2.27140   -0.99565  
C -0.13165  0.06683   1.32287   
H -0.39886  -0.67507  2.09344   
13
image # 23 Energy = -286.84946
C 1.14810   0.18317   0.42770   
C 0.82065   -1.01807  -0.45798  
C -0.50521  -1.01222  -0.63649  
C -1.06624  0.21352   0.11119   
C -0.38720  1.45309   -0.50372  
N 0.87966   1.45284   -0.35237  
H 2.17672   0.20767   0.84620   
H 1.54653   -1.73010  -0.84838  
H -1.10309  -1.69724  -1.22510  
H -2.15391  0.26507   0.24959   
H -0.90933  2.24691   -1.03072  
C -0.12329  0.08758   1.30848   
H -0.32693  -0.65593  2.10971   
13
image # 24 Energy = -286.85166
C 1.14015   0.17616   0.44535   
C 0.81177   -1.02470  -0.45603  
C -0.51577  -1.00580  -0.65827  
C -1.06488  0.20864   0.11717   
C -0.38913  1.44374   -0.51271  
N 0.87608   1.44733   -0.34713  
H 2.12517   0.18970   0.90960   
H 1.54069   -1.71820  -0.86077  
H -1.11384  -1.67354  -1.26882  
H -2.14229  0.24955   0.27768   
H -0.90924  2.22479   -1.06478  
C -0.11065  0.10651   1.31168   
H -0.24807  -0.62417  2.10704   
