13   
From optimize.out: Frame 1 / 2, Energy=    -286.7239725374
C        0.0102320000    0.0030650000   -0.0000000000
C       -0.2257530000    1.0570220000    0.0000000000
C       -0.1333010000   -0.1638350000    0.0000000000
C       -0.1169390000    0.0693740000    0.0000000000
C        0.0086430000   -0.0592000000   -0.0000000000
N       -0.3882380000   -0.0015950000   -0.0000000000
H        0.1799730000    0.0020940000   -0.0000000000
H        0.1533180000    0.0056790000    0.0000000000
H        0.1393780000    0.0832620000    0.0000000000
H        0.1227790000   -0.0025150000    0.0000000000
H        0.1286360000    0.0046660000   -0.0000000000
C       -0.0524560000    0.0001820000   -0.0000000000
H        0.1737280000    0.0018010000   -0.0000000000
