13   
From optimize.out: Frame 33 / 34, Energy=    -286.8584556587
C        1.5748599053    0.4457949738   -0.0860317622
C        0.8229557593   -0.8160969868    0.1166120050
C       -0.5200598419   -0.9688885888   -0.5830004170
C       -1.1192044585    0.3159568790   -0.0355108530
C       -0.3703706087    1.5798969100   -0.2390095761
N        0.9608892206    1.6152682476   -0.2557641101
H        2.6628065437    0.4376265632   -0.0979064375
H        1.4076710846   -1.7255910359    0.2501101110
H       -0.9239840208   -1.7415043410   -1.2229397507
H       -2.2059505343    0.3777711622   -0.0368483990
H       -0.9048727448    2.5181695490   -0.3803360835
C       -0.5012349421   -0.7476811506    0.8586617756
H       -0.8835053624   -1.2907221814    1.7119634976
13   
From optimize.out: Frame 32 / 34, Energy=    -286.8584483777
C        1.5747419563    0.4454702648   -0.0859330066
C        0.8232621701   -0.8159315344    0.1175957047
C       -0.5196091306   -0.9688745226   -0.5830647001
C       -1.1192234071    0.3157042667   -0.0362845039
C       -0.3711051138    1.5803346470   -0.2383214617
N        0.9601213926    1.6145492994   -0.2558116239
H        2.6627577356    0.4360652011   -0.0986310344
H        1.4077888387   -1.7252138838    0.2513712516
H       -0.9241023703   -1.7393092838   -1.2257289650
H       -2.2058009918    0.3764910104   -0.0363742579
H       -0.9050518417    2.5192196184   -0.3813243288
C       -0.5014269764   -0.7483605910    0.8587500785
H       -0.8823522615   -1.2901444917    1.7137568475
13   
From optimize.out: Frame 31 / 34, Energy=    -286.8584370224
C        1.5743722838    0.4450449711   -0.0854414810
C        0.8229913303   -0.8158524620    0.1176686890
C       -0.5186067159   -0.9688846984   -0.5829634730
C       -1.1191721805    0.3154465700   -0.0377221453
C       -0.3719669334    1.5806938942   -0.2368901481
N        0.9592671710    1.6138265537   -0.2553656927
H        2.6626075433    0.4343703564   -0.0993166245
H        1.4077644429   -1.7243863152    0.2516005543
H       -0.9241471889   -1.7376193332   -1.2276435583
H       -2.2057746410    0.3745927125   -0.0365042430
H       -0.9045313934    2.5201654664   -0.3821969832
C       -0.5018000745   -0.7484447458    0.8589169904
H       -0.8810036437   -1.2889529697    1.7158581155
13   
From optimize.out: Frame 30 / 34, Energy=    -286.8584214792
C        1.5737200373    0.4446302978   -0.0847149945
C        0.8221601700   -0.8158902280    0.1165559973
C       -0.5176972044   -0.9691584379   -0.5824201896
C       -1.1192249500    0.3152136868   -0.0389500788
C       -0.3726152220    1.5806568876   -0.2353007156
N        0.9586826984    1.6133757660   -0.2546742370
H        2.6621947087    0.4329028296   -0.0998474780
H        1.4076073178   -1.7233310189    0.2507112225
H       -0.9233145612   -1.7358925253   -1.2286290751
H       -2.2060782782    0.3723282453   -0.0372970089
H       -0.9031771580    2.5205423379   -0.3829094108
C       -0.5025922101   -0.7479979187    0.8593796818
H       -0.8796653484   -1.2873799222    1.7180962868
13   
From optimize.out: Frame 29 / 34, Energy=    -286.8583943354
C        1.5726967612    0.4444633434   -0.0832261582
C        0.8201827221   -0.8154950626    0.1141380362
C       -0.5177126804   -0.9692345003   -0.5819761954
C       -1.1197129312    0.3149464700   -0.0396491179
C       -0.3725886266    1.5802902751   -0.2333479427
N        0.9589236215    1.6138106221   -0.2528271625
H        2.6612314731    0.4314311195   -0.1009573436
H        1.4064509609   -1.7218730809    0.2488979607
H       -0.9204914542   -1.7357281968   -1.2288278682
H       -2.2072292681    0.3694747537   -0.0386295898
H       -0.9003033121    2.5202404100   -0.3835942700
C       -0.5042167843   -0.7475449330    0.8591910264
H       -0.8772304819   -1.2847812202    1.7208086250
13   
From optimize.out: Frame 28 / 34, Energy=    -286.8583509999
C        1.5718389920    0.4445492988   -0.0817187749
C        0.8180211836   -0.8144307972    0.1122237706
C       -0.5193180816   -0.9692479048   -0.5817293427
C       -1.1209838029    0.3147047801   -0.0382294275
C       -0.3716488128    1.5793252800   -0.2324343556
N        0.9599952605    1.6147479793   -0.2516520736
H        2.6600264519    0.4301926035   -0.1029163112
H        1.4043044814   -1.7204012144    0.2483914818
H       -0.9150153037   -1.7347177727   -1.2311274486
H       -2.2092151190    0.3670569043   -0.0387850798
H       -0.8969226402    2.5189825002   -0.3847268615
C       -0.5068879814   -0.7481830698    0.8587556200
H       -0.8741946279   -1.2825785873    1.7239488031
13   
From optimize.out: Frame 27 / 34, Energy=    -286.8582735639
C        1.5715320229    0.4450880932   -0.0801142220
C        0.8157133507   -0.8121143788    0.1127403831
C       -0.5225840232   -0.9686745628   -0.5825637627
C       -1.1231270215    0.3146202295   -0.0340957403
C       -0.3696126994    1.5780127488   -0.2330961082
N        0.9620383138    1.6161230472   -0.2517827759
H        2.6589277749    0.4291105678   -0.1064517314
H        1.4003324355   -1.7187836586    0.2515741468
H       -0.9072273402   -1.7336157023   -1.2381451745
H       -2.2121498549    0.3657659060   -0.0359561836
H       -0.8935828811    2.5169468515   -0.3866209238
C       -0.5104759199   -0.7510366941    0.8569768656
H       -0.8697841575   -1.2814424473    1.7275352268
13   
From optimize.out: Frame 26 / 34, Energy=    -286.8581878949
C        1.5722198350    0.4456391532   -0.0798444710
C        0.8152990069   -0.8101138922    0.1157663740
C       -0.5245034793   -0.9686965147   -0.5833494152
C       -1.1248872337    0.3147910411   -0.0290922705
C       -0.3678830334    1.5766546852   -0.2354062550
N        0.9635180294    1.6164723351   -0.2547138890
H        2.6589358800    0.4288286347   -0.1092869645
H        1.3977361219   -1.7174707199    0.2573479289
H       -0.9026268451   -1.7297096544   -1.2479092465
H       -2.2142044098    0.3657038145   -0.0311496501
H       -0.8923917308    2.5151170725   -0.3885772386
C       -0.5136366778   -0.7545946547    0.8561148713
H       -0.8675754631   -1.2826213005    1.7301002262
13   
From optimize.out: Frame 25 / 34, Energy=    -286.8580173302
C        1.5739100145    0.4466078639   -0.0802366988
C        0.8154121268   -0.8079443794    0.1229405457
C       -0.5239164173   -0.9691882519   -0.5845633851
C       -1.1269703003    0.3157734556   -0.0219466182
C       -0.3662930560    1.5751781588   -0.2397346479
N        0.9649754797    1.6154978492   -0.2611228912
H        2.6604849549    0.4289910431   -0.1127621055
H        1.3951524124   -1.7157408052    0.2684904050
H       -0.9008021429   -1.7239947027   -1.2661245708
H       -2.2162988355    0.3668895548   -0.0219154170
H       -0.8930001800    2.5132550871   -0.3910638729
C       -0.5170145151   -0.7596586828    0.8551851628
H       -0.8656395414   -1.2856661906    1.7328540940
13   
From optimize.out: Frame 24 / 34, Energy=    -286.8577421206
C        1.5762371296    0.4482027206   -0.0815889627
C        0.8169501442   -0.8063212139    0.1291142139
C       -0.5187607172   -0.9717320646   -0.5842472261
C       -1.1272706438    0.3161333551   -0.0163171446
C       -0.3654529695    1.5742612254   -0.2446356448
N        0.9663683516    1.6140085481   -0.2692111955
H        2.6630173294    0.4308867313   -0.1131529742
H        1.3966502278   -1.7129406984    0.2785600669
H       -0.9094351101   -1.7157331876   -1.2806949870
H       -2.2160201768    0.3658918295   -0.0140441349
H       -0.8939572298    2.5114776428   -0.3924501465
C       -0.5204187175   -0.7639227227    0.8557027925
H       -0.8679076179   -1.2902121655    1.7329653430
13   
From optimize.out: Frame 23 / 34, Energy=    -286.8553170874
C        1.5734719590    0.4475028718   -0.0945095916
C        0.8171652022   -0.8070660005    0.1479575074
C       -0.5078913856   -0.9944104317   -0.5564982051
C       -1.1159304498    0.3125575149    0.0050972301
C       -0.3696200323    1.5632885285   -0.2757663079
N        0.9613574491    1.5994315498   -0.3276815479
H        2.6616085061    0.4381498369   -0.0929884388
H        1.4040370876   -1.7097937264    0.3156835294
H       -0.9292463388   -1.6148175728   -1.3309017377
H       -2.2037290543    0.3645099207    0.0063756639
H       -0.9021267984    2.5036540722   -0.4012986925
C       -0.5169025766   -0.7714878582    0.8738941945
H       -0.8721935682   -1.3315187053    1.7306363965
13   
From optimize.out: Frame 22 / 34, Energy=    -286.8528959086
C        1.5748592717    0.4458529562   -0.1027265846
C        0.8235836208   -0.8087155230    0.1531341356
C       -0.4993840191   -1.0057978044   -0.5421326785
C       -1.1095442919    0.3085853352    0.0147710758
C       -0.3723647130    1.5576616788   -0.2897063623
N        0.9590573251    1.5939635845   -0.3557009160
H        2.6628473551    0.4433367933   -0.0815262016
H        1.4151564039   -1.7071005424    0.3288797682
H       -0.9474719166   -1.5640096085   -1.3500467909
H       -2.1979617626    0.3599720960    0.0131384670
H       -0.9053759656    2.4989868131   -0.4043010820
C       -0.5198013933   -0.7727391524    0.8872894330
H       -0.8835999145   -1.3499966265    1.7289277362
13   
From optimize.out: Frame 21 / 34, Energy=    -286.8499023062
C        1.5709881695    0.4363317424   -0.1110973789
C        0.8248711639   -0.8192848441    0.1494783602
C       -0.5053497235   -1.0180916958   -0.5214476945
C       -1.1130428318    0.3106504797    0.0269564188
C       -0.3819297145    1.5516162024   -0.3001894510
N        0.9507822741    1.5813990281   -0.3777404037
H        2.6587837975    0.4405837618   -0.0733458355
H        1.4162404077   -1.7166561389    0.3323843502
H       -0.9114777673   -1.5167970106   -1.3912683983
H       -2.2015669511    0.3698886028    0.0178240111
H       -0.9110201757    2.4958501905   -0.4084419769
C       -0.5161121157   -0.7599167670    0.9143670487
H       -0.8811665331   -1.3555735514    1.7425209498
13   
From optimize.out: Frame 20 / 34, Energy=    -286.8462926905
C        1.5756900689    0.4494008608   -0.1186276086
C        0.8369240904   -0.8096353121    0.1308769397
C       -0.4938440950   -1.0355688338   -0.5099925811
C       -1.0937012991    0.2995301757    0.0263252709
C       -0.3714039630    1.5466395986   -0.3133478288
N        0.9593636698    1.5901883852   -0.3957052269
H        2.6611250164    0.4628977753   -0.0456059127
H        1.4361039046   -1.6969844901    0.3313344827
H       -0.9893518005   -1.4928195940   -1.3518343388
H       -2.1826864617    0.3483298506    0.0107051236
H       -0.8989310006    2.4932401119   -0.4051466913
C       -0.5253701579   -0.7689949963    0.9187346330
H       -0.9139179723   -1.3862235318    1.7222837382
13   
From optimize.out: Frame 19 / 34, Energy=    -286.8428711912
C        1.5641467910    0.4392019178   -0.1218058803
C        0.8302783001   -0.8204361436    0.1316106623
C       -0.5031557156   -1.0448678573   -0.4840177156
C       -1.0920089657    0.3006076345    0.0304379412
C       -0.3795582236    1.5437960779   -0.3250664340
N        0.9515171636    1.5838285503   -0.4148888975
H        2.6477162936    0.4557947105   -0.0321935737
H        1.4283950811   -1.7076472655    0.3318867470
H       -0.9581271878   -1.4473134725   -1.3714395183
H       -2.1806137592    0.3521770923    0.0063849083
H       -0.9039136750    2.4931436269   -0.4054666821
C       -0.5119348846   -0.7557444723    0.9304871546
H       -0.8927412175   -1.3925403990    1.7240712882
13   
From optimize.out: Frame 18 / 34, Energy=    -286.8384419732
C        1.5633155505    0.4381611979   -0.1262689526
C        0.8361693739   -0.8249917696    0.1146256481
C       -0.5085654806   -1.0609105211   -0.4627354825
C       -1.0904033292    0.2971365524    0.0334649016
C       -0.3795721285    1.5383580370   -0.3323324547
N        0.9508186710    1.5812737234   -0.4227795863
H        2.6450613019    0.4620901090   -0.0180020925
H        1.4386333426   -1.7087447831    0.3163562121
H       -0.9573716665   -1.4203644903   -1.3727717999
H       -2.1788182672    0.3473084964   -0.0023690976
H       -0.9001384190    2.4905633254   -0.4044167999
C       -0.5149315066   -0.7449617613    0.9490878270
H       -0.9041974423   -1.3949181161    1.7281416773
13   
From optimize.out: Frame 17 / 34, Energy=    -286.8334788919
C        1.5586307087    0.4319270210   -0.1298591435
C        0.8368698290   -0.8323244222    0.1005125593
C       -0.5181102784   -1.0722901315   -0.4389140999
C       -1.0921063910    0.2960631226    0.0357229503
C       -0.3830875880    1.5337785120   -0.3379821621
N        0.9466085001    1.5769858637   -0.4293356852
H        2.6384743072    0.4608053418   -0.0069522149
H        1.4400264807   -1.7154568969    0.3018535662
H       -0.9338642465   -1.3934043178   -1.3788439513
H       -2.1799009149    0.3470493370   -0.0129455016
H       -0.8996087620    2.4889918578   -0.4019174598
C       -0.5120467091   -0.7295719919    0.9652653122
H       -0.9018849360   -1.3925532958    1.7333958302
13   
From optimize.out: Frame 16 / 34, Energy=    -286.8277960833
C        1.5550580259    0.4253507499   -0.1334981525
C        0.8392983400   -0.8390990826    0.0799267281
C       -0.5266421310   -1.0824434944   -0.4146276378
C       -1.0956840189    0.2955988596    0.0364109507
C       -0.3861898728    1.5292397788   -0.3394735191
N        0.9420441861    1.5737599324   -0.4300434777
H        2.6327638434    0.4591369686    0.0033697621
H        1.4421474526   -1.7222285377    0.2814918439
H       -0.9104023606   -1.3775978910   -1.3775422757
H       -2.1822918642    0.3467555433   -0.0301959855
H       -0.8979410562    2.4878855634   -0.3960269151
C       -0.5106682654   -0.7105410476    0.9814877802
H       -0.9014922790   -1.3858173429    1.7387208985
13   
From optimize.out: Frame 15 / 34, Energy=    -286.8212172670
C        1.5525811586    0.4178599981   -0.1370019654
C        0.8451154630   -0.8456462762    0.0524213741
C       -0.5312882222   -1.0912177247   -0.3895488395
C       -1.1016153255    0.2953469706    0.0349781642
C       -0.3887487640    1.5250442049   -0.3354820087
N        0.9367724762    1.5722149916   -0.4227284351
H        2.6279608069    0.4561797969    0.0120078462
H        1.4470707946   -1.7290027133    0.2546556813
H       -0.8912533770   -1.3733311213   -1.3657330011
H       -2.1860502705    0.3432911475   -0.0562792307
H       -0.8950249624    2.4875634697   -0.3857672343
C       -0.5113351165   -0.6857387485    0.9959183036
H       -0.9041846613   -1.3725639952    1.7425593456
13   
From optimize.out: Frame 14 / 34, Energy=    -286.8135457790
C        1.5526891384    0.4093702069   -0.1399599021
C        0.8574899135   -0.8523549250    0.0194134857
C       -0.5302236578   -1.1004764701   -0.3645028281
C       -1.1120402818    0.2946297601    0.0323959566
C       -0.3901220168    1.5207941601   -0.3245223849
N        0.9311862574    1.5714007921   -0.4036686566
H        2.6265088450    0.4523144286    0.0146186969
H        1.4613337864   -1.7355542569    0.2165714284
H       -0.8774814802   -1.3799651349   -1.3461694785
H       -2.1929632772    0.3344128758   -0.0908954327
H       -0.8904799868    2.4873356630   -0.3726603843
C       -0.5184262834   -0.6533376157    1.0113556189
H       -0.9174709567   -1.3485694839    1.7480238807
13   
From optimize.out: Frame 13 / 34, Energy=    -286.8048234795
C        1.5554672883    0.3986125540   -0.1415495194
C        0.8761827318   -0.8602567196   -0.0145977970
C       -0.5243468684   -1.1093371898   -0.3423543664
C       -1.1282642406    0.2930306903    0.0305610232
C       -0.3917065156    1.5159185335   -0.3088062900
N        0.9248511280    1.5685436635   -0.3750310083
H        2.6290000347    0.4462393161    0.0108227446
H        1.4859331941   -1.7430740740    0.1676803176
H       -0.8639489110   -1.3901539906   -1.3263337926
H       -2.2043520201    0.3203394356   -0.1283037316
H       -0.8858670107    2.4863927979   -0.3602678078
C       -0.5322897719   -0.6130903120    1.0301143576
H       -0.9406590386   -1.3131647049    1.7580658700
13   
From optimize.out: Frame 12 / 34, Energy=    -286.7954760785
C        1.5589574763    0.3871296322   -0.1403254607
C        0.8959634912   -0.8694703398   -0.0474751414
C       -0.5176560821   -1.1193632738   -0.3245712053
C       -1.1478245465    0.2918298583    0.0292459593
C       -0.3944739612    1.5107614697   -0.2917277357
N        0.9181683934    1.5628987259   -0.3420763259
H        2.6331458979    0.4392381976    0.0058184589
H        1.5142970182   -1.7514778060    0.1132673479
H       -0.8498431348   -1.4034052688   -1.3113070303
H       -2.2179932875    0.3057587951   -0.1650427655
H       -0.8816452183    2.4853008911   -0.3494276711
C       -0.5469925514   -0.5680159991    1.0515449974
H       -0.9641034952   -1.2711848825    1.7720765725
13   
From optimize.out: Frame 11 / 34, Energy=    -286.7859313292
C        1.5603917655    0.3762936123   -0.1361914891
C        0.9107337400   -0.8792121158   -0.0765182814
C       -0.5129422542   -1.1309700966   -0.3091951598
C       -1.1669556699    0.2913480486    0.0266243185
C       -0.3983131362    1.5062858007   -0.2758584273
N        0.9116167984    1.5564039387   -0.3091347325
H        2.6355105597    0.4317477750    0.0029963112
H        1.5378949191   -1.7599096627    0.0613718086
H       -0.8370538972   -1.4191764618   -1.2991043653
H       -2.2303010902    0.2921324905   -0.2010892912
H       -0.8774345750    2.4853032323   -0.3382241060
C       -0.5558498009   -0.5213465754    1.0700611193
H       -0.9772973591   -1.2288999857    1.7842622950
13   
From optimize.out: Frame 10 / 34, Energy=    -286.7759771218
C        1.5587108253    0.3659617437   -0.1295195590
C        0.9189075624   -0.8899698448   -0.0995806749
C       -0.5096678581   -1.1443999175   -0.2981053420
C       -1.1852774891    0.2914178141    0.0223949410
C       -0.4030958071    1.5030471867   -0.2613121314
N        0.9052300093    1.5499129834   -0.2775373727
H        2.6346857710    0.4233934003    0.0029995570
H        1.5545882361   -1.7685783245    0.0166178306
H       -0.8275565780   -1.4369519144   -1.2899523824
H       -2.2410818731    0.2781660113   -0.2359281094
H       -0.8729761737    2.4870961392   -0.3252513275
C       -0.5563311015   -0.4724803080    1.0826726728
H       -0.9761355236   -1.1866149694    1.7925018978
13   
From optimize.out: Frame 9 / 34, Energy=    -286.7646887803
C        1.5542955009    0.3555011942   -0.1209932907
C        0.9225030287   -0.9028356837   -0.1182203218
C       -0.5055429330   -1.1612966562   -0.2943391431
C       -1.2036784479    0.2919052138    0.0173040244
C       -0.4083691139    1.5014928907   -0.2471401308
N        0.8989500752    1.5436319499   -0.2470588766
H        2.6307505573    0.4142986949    0.0068692944
H        1.5667966380   -1.7780878519   -0.0201453616
H       -0.8235951591   -1.4576271415   -1.2854655870
H       -2.2516437949    0.2629601481   -0.2677133530
H       -0.8688166258    2.4906640804   -0.3099315440
C       -0.5489906227   -0.4196220498    1.0891184100
H       -0.9626591027   -1.1409847888    1.7977158800
13   
From optimize.out: Frame 8 / 34, Energy=    -286.7510723139
C        1.5482625741    0.3443314387   -0.1114461098
C        0.9243570264   -0.9186999605   -0.1346688408
C       -0.4992448016   -1.1834441607   -0.2996291712
C       -1.2232226888    0.2933523318    0.0123384650
C       -0.4138853031    1.5022043869   -0.2325970806
N        0.8926722508    1.5374799089   -0.2176419696
H        2.6248195617    0.4049441911    0.0146985492
H        1.5775582839   -1.7893474135   -0.0491431830
H       -0.8246246002   -1.4831673825   -1.2879482426
H       -2.2638168149    0.2478098840   -0.2940828999
H       -0.8660306803    2.4960171951   -0.2918877417
C       -0.5356383776   -0.3621859752    1.0904564545
H       -0.9412064304   -1.0892944441    1.8015517705
13   
From optimize.out: Frame 7 / 34, Energy=    -286.7344920617
C        1.5417972152    0.3321277322   -0.1018555622
C        0.9264937289   -0.9377844956   -0.1496509525
C       -0.4912162543   -1.2107770008   -0.3130483048
C       -1.2442869670    0.2965539851    0.0078179041
C       -0.4198199379    1.5057755213   -0.2175507343
N        0.8862062431    1.5317119804   -0.1898037081
H        2.6182298725    0.3958567266    0.0256367082
H        1.5883198506   -1.8032832501   -0.0696397823
H       -0.8289898931   -1.5152354241   -1.2977369361
H       -2.2788053176    0.2349456295   -0.3138771921
H       -0.8655671783    2.5034695655   -0.2706941152
C       -0.5176513767   -0.3015154040    1.0867634744
H       -0.9147099853   -1.0318455658    1.8036392010
13   
From optimize.out: Frame 6 / 34, Energy=    -286.7147976360
C        1.5359917200    0.3187372025   -0.0926674379
C        0.9301115479   -0.9595776840   -0.1628787652
C       -0.4830299708   -1.2414371779   -0.3315854000
C       -1.2664840201    0.3017050715    0.0034234768
C       -0.4267014686    1.5122608229   -0.2023543875
N        0.8792958713    1.5267928349   -0.1638246761
H        2.6122535193    0.3872336172    0.0391094745
H        1.5994605588   -1.8203268065   -0.0812065225
H       -0.8365459873   -1.5538332602   -1.3129353224
H       -2.2966826189    0.2254522570   -0.3276823391
H       -0.8680154639    2.5130513761   -0.2465632493
C       -0.4956770778   -0.2394880718    1.0772777723
H       -0.8839766102   -0.9705701817    1.8018873765
13   
From optimize.out: Frame 5 / 34, Energy=    -286.6920170815
C        1.5316916358    0.3040937718   -0.0833990470
C        0.9357446434   -0.9831994128   -0.1738597127
C       -0.4764195200   -1.2731023075   -0.3522264070
C       -1.2890195395    0.3084283120   -0.0013753232
C       -0.4352589647    1.5212317387   -0.1877590998
N        0.8717590399    1.5229083581   -0.1395695932
H        2.6078280733    0.3787813243    0.0557942905
H        1.6108845133   -1.8403408278   -0.0840588747
H       -0.8492608632   -1.5976782885   -1.3313406345
H       -2.3167668093    0.2189665608   -0.3365678098
H       -0.8738909323    2.5243360810   -0.2204593832
C       -0.4695277851   -0.1773136564    1.0608934101
H       -0.8477634916   -0.9071116536    1.7939281845
13   
From optimize.out: Frame 4 / 34, Energy=    -286.6659657553
C        1.5302248518    0.2883062879   -0.0731470001
C        0.9437137568   -1.0073327126   -0.1822996277
C       -0.4725505933   -1.3031229820   -0.3727736008
C       -1.3112948975    0.3159682375   -0.0069121501
C       -0.4463342022    1.5316223918   -0.1747884579
N        0.8637490077    1.5188666884   -0.1166001415
H        2.6062796230    0.3700036209    0.0770513997
H        1.6224297337   -1.8625993384   -0.0791500811
H       -0.8699644493   -1.6445241197   -1.3517907060
H       -2.3383820585    0.2140863968   -0.3410553483
H       -0.8840846726    2.5361203716   -0.1937544925
C       -0.4391992807   -0.1153994140    1.0368160790
H       -0.8045868189   -0.8419954283    1.7784041273
13   
From optimize.out: Frame 3 / 34, Energy=    -286.6361401641
C        1.5332187884    0.2716434426   -0.0606867344
C        0.9538514038   -1.0298034035   -0.1876389929
C       -0.4713368788   -1.3279107404   -0.3912664045
C       -1.3328723169    0.3231806029   -0.0133646575
C       -0.4604407308    1.5408602587   -0.1646216613
N        0.8556683633    1.5106690639   -0.0933725679
H        2.6089513133    0.3607828739    0.1023166772
H        1.6336330626   -1.8851618210   -0.0683751964
H       -0.9006171811   -1.6903872025   -1.3745724993
H       -2.3606998361    0.2087537777   -0.3419475729
H       -0.8995286710    2.5455094249   -0.1676787760
C       -0.4056070641   -0.0537059995    1.0054411295
H       -0.7542202525   -0.7744302777    1.7557672564
13   
From optimize.out: Frame 2 / 34, Energy=    -286.6015441328
C        1.5513805155    0.2570777498   -0.0508858240
C        0.9701732841   -1.0506326028   -0.1906848094
C       -0.4731569081   -1.3464555851   -0.4064222548
C       -1.3585034231    0.3292405919   -0.0195321496
C       -0.4789284596    1.5478871588   -0.1526861115
N        0.8491985339    1.4948708102   -0.0695300776
H        2.6282653329    0.3543919035    0.1254061788
H        1.6496620834   -1.9087181551   -0.0529251296
H       -0.9415688888   -1.7354844586   -1.4014807753
H       -2.3876884157    0.2025368987   -0.3435372093
H       -0.9231184378    2.5515162579   -0.1403741599
C       -0.3766172934    0.0068498422    0.9736859636
H       -0.7090979232   -0.7030804113    1.7289663585
13   
From optimize.out: Frame 1 / 34, Energy=    -286.5637887220
C        1.5630396670    0.2461613030   -0.0320794898
C        0.9809129559   -1.0715607899   -0.1830059044
C       -0.4816878456   -1.3561427911   -0.4217317474
C       -1.3774156525    0.3368110174   -0.0272765253
C       -0.4947423446    1.5546602002   -0.1533244848
N        0.8374250358    1.4808447242   -0.0521906835
H        2.6426294823    0.3502713227    0.1576233116
H        1.6581930832   -1.9337779073   -0.0177487604
H       -1.0016165173   -1.7729775400   -1.4216172981
H       -2.4126686424    0.2044920844   -0.3397257386
H       -0.9465691719    2.5560516083   -0.1197140699
C       -0.3307065403    0.0543594731    0.9278021214
H       -0.6367935094   -0.6491927050    1.6829892691
13   
C5H5N+CH->C6H6N atoms 1-13 frame 104 charge -0.000 sz -1.000 sz^2 0.527
C        1.5630396670    0.2461613030   -0.0320794898
C        0.9809129559   -1.0715607899   -0.1830059044
C       -0.4816878456   -1.3561427911   -0.4217317474
C       -1.3774156525    0.3368110174   -0.0272765253
C       -0.4947423446    1.5546602002   -0.1533244848
N        0.8374250358    1.4808447242   -0.0521906835
H        2.6426294823    0.3502713227    0.1576233116
H        1.6581930832   -1.9337779073   -0.0177487604
H       -1.0016165173   -1.7729775400   -1.4216172981
H       -2.4126686424    0.2044920844   -0.3397257386
H       -0.9465691719    2.5560516083   -0.1197140699
C       -0.3307065403    0.0543594731    0.9278021214
H       -0.6367935094   -0.6491927050    1.6829892691
13   
C5H5N+CH->C6H6N atoms 1-13 frame 105 charge +0.000 sz -1.000 sz^2 0.523
C        1.5645997071    0.2471034877   -0.0289919448
C        0.9783951682   -1.0808283458   -0.1880577259
C       -0.4751293284   -1.3650074171   -0.4299047445
C       -1.3779669486    0.3445149087   -0.0274175260
C       -0.4989735808    1.5630888132   -0.1617018332
N        0.8415488567    1.4802989723   -0.0511768994
H        2.6401176149    0.3505091764    0.1742742247
H        1.6634336975   -1.9343258743   -0.0185787057
H       -1.0175096619   -1.7828983488   -1.4266777578
H       -2.4213509589    0.1894327834   -0.3210604820
H       -0.9421334962    2.5667694912   -0.1251234230
C       -0.3220745186    0.0694238716    0.9355019962
H       -0.6329565510   -0.6480815185    1.6689148214
13   
C5H5N+CH->C6H6N atoms 1-13 frame 106 charge -0.000 sz -1.000 sz^2 0.519
C        1.5657902255    0.2477122888   -0.0260001566
C        0.9755276127   -1.0899311411   -0.1941759456
C       -0.4686538714   -1.3734715770   -0.4398340170
C       -1.3779060945    0.3524651150   -0.0288341197
C       -0.5031801422    1.5719608697   -0.1707351584
N        0.8456461651    1.4799316742   -0.0502457605
H        2.6358451853    0.3503447317    0.1915291984
H        1.6673952161   -1.9343040930   -0.0217369727
H       -1.0295632227   -1.7906492358   -1.4278902796
H       -2.4292152868    0.1745945734   -0.3016798159
H       -0.9369828532    2.5772229508   -0.1313785277
C       -0.3152485114    0.0829784626    0.9429597786
H       -0.6294544225   -0.6488546192    1.6580217768
13   
C5H5N+CH->C6H6N atoms 1-13 frame 107 charge -0.000 sz -1.000 sz^2 0.512
C        1.5664769757    0.2479799715   -0.0231252753
C        0.9722825593   -1.0987969792   -0.2013810734
C       -0.4623383093   -1.3815118443   -0.4515144272
C       -1.3772849073    0.3606209427   -0.0314525909
C       -0.5073604883    1.5812685814   -0.1803931163
N        0.8495848702    1.4797841897   -0.0494390954
H        2.6299254128    0.3497414766    0.2093637852
H        1.6701111471   -1.9338623599   -0.0273103955
H       -1.0375690920   -1.7963277268   -1.4253072534
H       -2.4358551640    0.1601813021   -0.2816000487
H       -0.9312532334    2.5875143144   -0.1385411519
C       -0.3102817981    0.0951038380    0.9501443810
H       -0.6264379727   -0.6516957062    1.6505562618
13   
C5H5N+CH->C6H6N atoms 1-13 frame 108 charge +0.000 sz -1.000 sz^2 0.505
C        1.5665212590    0.2479028849   -0.0203716684
C        0.9686342703   -1.1073588845   -0.2096613455
C       -0.4562418356   -1.3891051519   -0.4648817261
C       -1.3761581145    0.3689282034   -0.0351584557
C       -0.5115154039    1.5909897836   -0.1906211884
N        0.8532299683    1.4798940723   -0.0487865742
H        2.6225350578    0.3486677811    0.2277727942
H        1.6716799750   -1.9331884361   -0.0353389551
H       -1.0414656366   -1.8001604262   -1.4191004291
H       -2.4408992464    0.1463862671   -0.2608273112
H       -0.9251177823    2.5977867157   -0.1466496375
C       -0.3072134843    0.1058696912    0.9570708164
H       -0.6239890269   -0.6566125007    1.6465536807
13   
C5H5N+CH->C6H6N atoms 1-13 frame 109 charge +0.000 sz -1.000 sz^2 0.500
C        1.5657868596    0.2474821672   -0.0177239252
C        0.9645623507   -1.1155578766   -0.2189715535
C       -0.4503978248   -1.3962285801   -0.4798146824
C       -1.3745771903    0.3773199748   -0.0397999069
C       -0.5156453448    1.6010880724   -0.2013427168
N        0.8564493091    1.4802946352   -0.0483029576
H        2.6138998052    0.3470981183    0.2467709153
H        1.6722583987   -1.9324905135   -0.0458162276
H       -1.0413515961   -1.8025020687   -1.4095733294
H       -2.4440305400    0.1333866237   -0.2393614329
H       -0.9187756220    2.6082114159   -0.1557172933
C       -0.3060639372    0.1153326108    0.9637972646