13   
From optimize.out: Frame 9 / 10, Energy=    -286.8516701831
C        1.1030750516    0.2531806621    0.4984432056
C        0.8963496700   -0.9760527209   -0.4003436869
C       -0.4177137077   -1.0422269276   -0.6696209273
C       -1.0805697987    0.1430142782    0.0613758349
C       -0.4529943674    1.4115206774   -0.5505327308
N        0.7995107947    1.4966839090   -0.3220509565
H        2.0604414015    0.3338840246    1.0111666601
H        1.6867061885   -1.6270479997   -0.7575397395
H       -0.9411106401   -1.7521448548   -1.3007557173
H       -2.1651157948    0.1168866147    0.1676736568
H       -0.9925392699    2.1529675838   -1.1374028384
C       -0.1830197872    0.1122953535    1.3034683201
H       -0.3130197409   -0.6229606004    2.0961189190
13   
From optimize.out: Frame 8 / 10, Energy=    -286.8516669333
C        1.1029163696    0.2539016805    0.4985050298
C        0.8960351737   -0.9755834900   -0.4002326611
C       -0.4182230002   -1.0427252857   -0.6685971892
C       -1.0809016363    0.1429633091    0.0608084227
C       -0.4525113998    1.4116352947   -0.5507403227
N        0.7997561694    1.4970795885   -0.3214770248
H        2.0604618944    0.3341333985    1.0110074145
H        1.6863997430   -1.6264388856   -0.7575890573
H       -0.9411007850   -1.7530195005   -1.2998706669
H       -2.1653668446    0.1174576204    0.1679489500
H       -0.9917781514    2.1528589601   -1.1380829629
C       -0.1831738020    0.1129458104    1.3040620214
H       -0.3125137309   -0.6252085004    2.0942580465
13   
From optimize.out: Frame 7 / 10, Energy=    -286.8516202451
C        1.1031079756    0.2542665238    0.5001543874
C        0.8952189812   -0.9719351573   -0.4036988209
C       -0.4204055545   -1.0446368516   -0.6645799638
C       -1.0815323635    0.1421420373    0.0600601383
C       -0.4502368248    1.4086344137   -0.5553726356
N        0.7991785423    1.5009852747   -0.3131621823
H        2.0612878690    0.3313445685    1.0121198515
H        1.6854349072   -1.6216114852   -0.7633489089
H       -0.9416962151   -1.7542720615   -1.2979461187
H       -2.1657424581    0.1178538982    0.1701361861
H       -0.9884843358    2.1496407391   -1.1439988829
C       -0.1829031685    0.1128587431    1.3047396834
H       -0.3132273551   -0.6252706426    2.0948972663
13   
From optimize.out: Frame 6 / 10, Energy=    -286.8516082808
C        1.1029813418    0.2563314275    0.4971273693
C        0.8965604747   -0.9791109103   -0.3939153007
C       -0.4169591841   -1.0381740904   -0.6701565336
C       -1.0813327583    0.1442662751    0.0593868345
C       -0.4545282697    1.4159790791   -0.5485484535
N        0.7990902012    1.4948718803   -0.3277817171
H        2.0606667771    0.3374231375    1.0093994592
H        1.6872045594   -1.6300350863   -0.7502463291
H       -0.9410166993   -1.7551101751   -1.2926002689
H       -2.1659482092    0.1219954886    0.1652658686
H       -0.9944358262    2.1569866085   -1.1357539571
C       -0.1826288207    0.1131614378    1.3047035773
H       -0.3096535866   -0.6385850723    2.0831194512
13   
From optimize.out: Frame 5 / 10, Energy=    -286.8511322306
C        1.1020033265    0.2601849528    0.4964476736
C        0.8975436122   -0.9711492788   -0.4003097704
C       -0.4166111614   -1.0341415121   -0.6720634563
C       -1.0792422301    0.1526467798    0.0594923443
C       -0.4465614762    1.4182855889   -0.5497683847
N        0.8045204579    1.5023306847   -0.3182186183
H        2.0562752889    0.3431884282    1.0146049110
H        1.6899130706   -1.6142361586   -0.7671472687
H       -0.9588789983   -1.7933001738   -1.2247628675
H       -2.1666743862    0.1323960969    0.1320248887
H       -0.9858914269    2.1651874719   -1.1300176732
C       -0.1884193871    0.1093719811    1.3039223272
H       -0.3079766901   -0.6707648611    2.0557958943
13   
From optimize.out: Frame 4 / 10, Energy=    -286.8493441340
C        1.1016984185    0.2597918717    0.4929926307
C        0.9015545079   -0.9693028734   -0.3987867125
C       -0.4110545576   -1.0290736754   -0.6782277857
C       -1.0773000112    0.1688977887    0.0673130530
C       -0.4438613709    1.4238644132   -0.5455233891
N        0.8106116363    1.4980718551   -0.3243534286
H        2.0515473985    0.3564202270    1.0174513618
H        1.6962832156   -1.6042350696   -0.7751034180
H       -0.9761980910   -1.8200493518   -1.1569960419
H       -2.1671539831    0.1449875200    0.0902565654
H       -0.9854044897    2.1761896016   -1.1170885321
C       -0.1965399551    0.1015220040    1.3025346861
H       -0.3041827182   -0.7070843113    2.0255310108
13   
From optimize.out: Frame 3 / 10, Energy=    -286.8455455059
C        1.0989498343    0.2562337403    0.4876981214
C        0.9060595073   -0.9656258801   -0.4013774307
C       -0.4061837952   -1.0320420817   -0.6805524446
C       -1.0748938787    0.1879546403    0.0823085536
C       -0.4374562303    1.4258155757   -0.5411137272
N        0.8209269799    1.4947841421   -0.3265547555
H        2.0451259322    0.3743042244    1.0158931375
H        1.7028764139   -1.5883386045   -0.7921074940
H       -0.9928978634   -1.8449779009   -1.0897130439
H       -2.1653436291    0.1600470426    0.0441406283
H       -0.9816230842    2.1811467211   -1.1056831237
C       -0.2103951338    0.0911066088    1.3047541920
H       -0.3051450530   -0.7404082281    2.0023073869
13   
From optimize.out: Frame 2 / 10, Energy=    -286.8386978375
C        1.0971202836    0.2453764382    0.4790983812
C        0.9167603080   -0.9675874952   -0.4003204794
C       -0.3985732564   -1.0351540705   -0.6780641167
C       -1.0722789959    0.2095595853    0.1033978073
C       -0.4368886481    1.4278917174   -0.5338511114
N        0.8310559443    1.4845269435   -0.3310222943
H        2.0437172467    0.3965806716    1.0057470304
H        1.7143114080   -1.5758789527   -0.8060701061
H       -1.0051669158   -1.8580803103   -1.0293729383
H       -2.1607051027    0.1875047943   -0.0070742662
H       -0.9889966247    2.1821257799   -1.0933526998
C       -0.2283691291    0.0759991066    1.3072262809
H       -0.3119865178   -0.7728642080    1.9836585124
13   
From optimize.out: Frame 1 / 10, Energy=    -286.8274221311
C        1.0795692812    0.2309144201    0.4631248403
C        0.9285855462   -0.9678869237   -0.4055136564
C       -0.3903477031   -1.0341307504   -0.6660564404
C       -1.0638723148    0.2254068574    0.1295352324
C       -0.4288074209    1.4214531911   -0.5231289166
N        0.8467798116    1.4739203678   -0.3328048700
H        2.0279659837    0.4260895153    0.9765884626
H        1.7281755590   -1.5590044577   -0.8255415326
H       -1.0081839359   -1.8619555683   -0.9674144771
H       -2.1448136213    0.2216575696   -0.0508759595
H       -0.9883413589    2.1713781791   -1.0813122595
C       -0.2518961770    0.0578938343    1.3128532323
H       -0.3348136497   -0.8057362345    1.9705463445
13   
From optimize.out: Frame 6 / 47, Energy=    -286.8274221311
C        1.0795692812    0.2309144201    0.4631248403
C        0.9285855462   -0.9678869237   -0.4055136564
C       -0.3903477031   -1.0341307504   -0.6660564404
C       -1.0638723148    0.2254068574    0.1295352324
C       -0.4288074209    1.4214531911   -0.5231289166
N        0.8467798116    1.4739203678   -0.3328048700
H        2.0279659837    0.4260895153    0.9765884626
H        1.7281755590   -1.5590044577   -0.8255415326
H       -1.0081839359   -1.8619555683   -0.9674144771
H       -2.1448136213    0.2216575696   -0.0508759595
H       -0.9883413589    2.1713781791   -1.0813122595
C       -0.2518961770    0.0578938343    1.3128532323
H       -0.3348136497   -0.8057362345    1.9705463445
13   
From optimize.out: Frame 5 / 47, Energy=    -286.8097415252
C        1.0685511266    0.2187418284    0.4358160090
C        0.9552845019   -0.9608441240   -0.4304228243
C       -0.3721932249   -1.0199414627   -0.6373089494
C       -1.0449404897    0.2380431543    0.1402996337
C       -0.4246164164    1.4383605766   -0.5194182346
N        0.8510441586    1.4945420417   -0.3324695091
H        2.0217885268    0.4129321134    0.9439254890
H        1.7478200422   -1.5547184673   -0.8644020060
H       -1.0017119753   -1.8786684734   -0.8427118555
H       -2.1185191702    0.2414591174   -0.1014391210
H       -0.9947391208    2.1834714734   -1.0741272558
C       -0.2982294978    0.0305073856    1.3219905562
H       -0.3895384610   -0.8438851634    1.9602680679
13   
From optimize.out: Frame 4 / 47, Energy=    -286.7824259233
C        1.0525721877    0.2085326465    0.4171938545
C        0.9716509475   -0.9774944504   -0.4562002396
C       -0.3527400361   -1.0671559944   -0.6574446171
C       -1.0474358661    0.2741313537    0.1674396755
C       -0.4297492856    1.4778217379   -0.5103335159
N        0.8421707932    1.5173847469   -0.3365157152
H        2.0138688065    0.3877510857    0.9153535511
H        1.7751834091   -1.5652980819   -0.8878210905
H       -0.9463108684   -1.9743382244   -0.8244866915
H       -2.1209918237    0.3004594527   -0.0898692888
H       -1.0010351626    2.2281802137   -1.0574027242
C       -0.3278103413    0.0319198793    1.3435770112
H       -0.4293727603   -0.8418943654    1.9765097905
13   
From optimize.out: Frame 3 / 47, Energy=    -286.7397663650
C        1.0372367298    0.2003677021    0.4020844682
C        0.9829168967   -0.9957472151   -0.4803347117
C       -0.3379323324   -1.1211991344   -0.6845075900
C       -1.0502514101    0.3100040884    0.1950817758
C       -0.4346018064    1.5177216228   -0.5008109107
N        0.8329459583    1.5401666947   -0.3401610451
H        2.0063690779    0.3644531297    0.8901076203
H        1.7986022148   -1.5761482312   -0.9083202987
H       -0.8881268924   -2.0759739415   -0.8237807461
H       -2.1246010356    0.3587318892   -0.0723270837
H       -1.0062204002    2.2736139141   -1.0405797821
C       -0.3526594792    0.0379101622    1.3668204192
H       -0.4636775213   -0.8339006809    1.9967278847
13   
From optimize.out: Frame 2 / 47, Energy=    -286.6920728409
C        1.0240062043    0.1967894551    0.3943766557
C        0.9832519018   -1.0153012231   -0.5004567358
C       -0.3342560178   -1.1848822714   -0.7226656861
C       -1.0515787935    0.3428880992    0.2220762437
C       -0.4378357198    1.5562872310   -0.4908544977
N        0.8242745866    1.5625961126   -0.3423932500
H        2.0001182779    0.3468242680    0.8723694842
H        1.8118988939   -1.5860364500   -0.9235574422
H       -0.8286505454   -2.1831850147   -0.8529698028
H       -2.1278277677    0.4110355435   -0.0474014240
H       -1.0088708147    2.3173547209   -1.0245378899
C       -0.3680985370    0.0516633533    1.3926047097
H       -0.4864316687   -0.8160338244    2.0234096352
13   
C5H5N+CH->C6H6N atoms 1-13 frame 149 charge +0.000 sz -1.000 sz^2 0.894
C        1.0107666806    0.1932334688    0.3866747269
C        0.9835619658   -1.0348492907   -0.5205613171
C       -0.3306072220   -1.2485068614   -0.7609234706
C       -1.0528846978    0.3757312727    0.2491277828
C       -0.4410532126    1.5948052481   -0.4808936529
N        0.8156109169    1.5849973511   -0.3446449188
H        1.9938504379    0.3292620313    0.8545915723
H        1.8251692929   -1.5959622752   -0.9387304670
H       -0.7691782645   -2.2903336085   -0.8823893982
H       -2.1310434264    0.4633016391   -0.0223796939
H       -1.0114857297    2.3610101996   -1.0085305369
C       -0.3835208263    0.0654313223    1.4184419732
H       -0.5091859149   -0.7981204972    2.0502174003
13   
C5H5N+CH->C6H6N atoms 1-13 frame 150 charge -0.000 sz -1.000 sz^2 0.901
C        0.9949625147    0.1891890638    0.3782129564
C        0.9829518911   -1.0567227439   -0.5441933365
C       -0.3280911530   -1.3103530220   -0.7973951344
C       -1.0494103819    0.4052014565    0.2747018046
C       -0.4437999016    1.6369012824   -0.4722599920
N        0.8063587834    1.6134312531   -0.3463152658
H        1.9848385280    0.3112248258    0.8349051852
H        1.8344043606   -1.6105304430   -0.9601869123
H       -0.7032547095   -2.3924493439   -0.8996708317
H       -2.1283349496    0.5117478021   -0.0038169889
H       -1.0148641144    2.4071272390   -0.9941397429
C       -0.4011858071    0.0772077639    1.4488803879
H       -0.5345750608   -0.7819751338    2.0812778704
13   
C5H5N+CH->C6H6N atoms 1-13 frame 151 charge +0.000 sz -1.000 sz^2 0.915
C        0.9789661724    0.1852899096    0.3699196485
C        0.9822052175   -1.0787604330   -0.5681543604
C       -0.3261334322   -1.3717175770   -0.8335791683
C       -1.0450702213    0.4341312187    0.2998653715
C       -0.4465172124    1.6794801992   -0.4638561633
N        0.7967576112    1.6426604594   -0.3475777866
H        1.9755303842    0.2934286139    0.8153641834
H        1.8431622187   -1.6257341844   -0.9823496969
H       -0.6374938433   -2.4941340322   -0.9156660570
H       -2.1245529348    0.5595087539    0.0135508811
H       -1.0182631324    2.4534767374   -0.9802534175
C       -0.4187677846    0.0885570717    1.4798675308
H       -0.5598230430   -0.7661867373    2.1128690346
13   
C5H5N+CH->C6H6N atoms 1-13 frame 152 charge +0.000 sz -1.000 sz^2 0.933
C        0.9599010802    0.1843349453    0.3652185386
C        0.9794788869   -1.1037636818   -0.5983730384
C       -0.3351116751   -1.4239157935   -0.8628816117
C       -1.0241601871    0.4529434724    0.3161015733
C       -0.4489668829    1.7320338244   -0.4600472315
N        0.7798074028    1.6875971566   -0.3400999376
H        1.9612299319    0.2799018728    0.8000516673
H        1.8435981141   -1.6527953909   -1.0185904518
H       -0.5774231633   -2.5886086650   -0.9039052207
H       -2.0997172842    0.5939714768    0.0061126244
H       -1.0223995614    2.5053466590   -0.9761743128
C       -0.4345622638    0.0911648481    1.5202576664
H       -0.5816743981   -0.7582107246    2.1523297346
13   
C5H5N+CH->C6H6N atoms 1-13 frame 153 charge -0.000 sz -1.000 sz^2 0.960
C        0.9335986034    0.1749148118    0.3936097611
C        0.9705705698   -1.1016477848   -0.6325323190
C       -0.3429093146   -1.4432379489   -0.8762143035
C       -1.0153738409    0.4645170353    0.3653792700
C       -0.4457461880    1.7297927094   -0.4553468812
N        0.8054575216    1.6995189254   -0.3665246742
H        1.9294058578    0.2768821276    0.8171837989
H        1.8464838113   -1.6163591423   -1.0557549344
H       -0.5804484885   -2.5979844584   -0.8991739170
H       -2.0623201842    0.6152157530   -0.0194658057
H       -1.0299700119    2.4710440317   -0.9980570071
C       -0.4034203800    0.0846829640    1.5481068536
H       -0.6053279558   -0.7573390237    2.1787901584
13   
From optimize.out: Frame 1 / 42, Energy=    -286.6450782744
C        0.9131649963    0.1632542623    0.4333245209
C        0.9556625138   -1.0881783228   -0.6644269705
C       -0.3467977958   -1.4538916028   -0.8809931626
C       -1.0180126511    0.4789346721    0.4197388297
C       -0.4397420221    1.7012870375   -0.4550044498
N        0.8514294993    1.6930728340   -0.4114557396
H        1.8974468822    0.2753063202    0.8554088226
H        1.8496483927   -1.5526610328   -1.0819462038
H       -0.6157946886   -2.5434918019   -0.9057473793
H       -2.0253847140    0.6052833172   -0.0348818673
H       -1.0396130575    2.4010715105   -1.0345765389
C       -0.3519110801    0.0786445716    1.5596979176
H       -0.6300962752   -0.7586317652    2.2008622211
13   
From optimize.out: Frame 2 / 42, Energy=    -286.6928686977
C        0.9276416350    0.1598781179    0.4330389963
C        0.9566790644   -1.0679468881   -0.6334752514
C       -0.3266626237   -1.4377043453   -0.8684286517
C       -1.0505634663    0.4844274336    0.4148709564
C       -0.4394291521    1.6584855165   -0.4486182740
N        0.8560559824    1.6356429620   -0.4187540294
H        1.9148320444    0.2770631324    0.8620252679
H        1.8605583840   -1.5179532584   -1.0395566135
H       -0.6470765960   -2.4938404259   -0.9393619962
H       -2.0715438191    0.6001277738   -0.0017599439
H       -1.0320408542    2.3685023193   -1.0264778919
C       -0.3335091481    0.0851892376    1.5127699944
H       -0.6149414508   -0.7518715753    2.1537274369
13   
From optimize.out: Frame 3 / 42, Energy=    -286.7324012834
C        0.9467554519    0.1632743413    0.4291545486
C        0.9551248302   -1.0433705718   -0.5912853613
C       -0.3103396838   -1.4148210049   -0.8494356930
C       -1.0851636917    0.4834269931    0.3928431887
C       -0.4423849052    1.6127283889   -0.4441869324
N        0.8481003835    1.5679096033   -0.4074907093
H        1.9339752574    0.2870676430    0.8686997725
H        1.8657700614   -1.4886069132   -0.9860856475
H       -0.6830933128   -2.4419017147   -0.9685076250
H       -2.1222407043    0.5967565817    0.0307512915
H       -1.0153265230    2.3416671504   -1.0186200231
C       -0.3132212183    0.0882133575    1.4522206458
H       -0.5779559454   -0.7523438546    2.0919425444
13   
From optimize.out: Frame 4 / 42, Energy=    -286.7619897834
C        0.9660915138    0.1739254844    0.4333622527
C        0.9533767596   -1.0257565123   -0.5507300833
C       -0.2987638323   -1.3901361141   -0.8351048527
C       -1.1188358786    0.4787085921    0.3729913404
C       -0.4470814135    1.5686476703   -0.4458066054
N        0.8391275167    1.5040189147   -0.3956904299
H        1.9501304117    0.3065390326    0.8857892901
H        1.8684711673   -1.4697739033   -0.9369506612
H       -0.7256406917   -2.3806534969   -1.0110309555
H       -2.1692319436    0.5873205593    0.0690197814
H       -0.9958930415    2.3129821795   -1.0237847604
C       -0.2905053697    0.0891632429    1.3976841950
H       -0.5312451982   -0.7549856492    2.0402514888
13   
From optimize.out: Frame 5 / 42, Energy=    -286.7817982311
C        0.9871471805    0.1901718672    0.4445739704
C        0.9526924401   -1.0193914706   -0.5128010262
C       -0.2890285628   -1.3653540379   -0.8281752764
C       -1.1493601477    0.4718107456    0.3589887204
C       -0.4541290136    1.5291280511   -0.4544205566
N        0.8289882331    1.4527778805   -0.3910635326
H        1.9652314946    0.3297043176    0.9127669916
H        1.8703302139   -1.4659989237   -0.8906951084
H       -0.7683220421   -2.3097589032   -1.0750038959
H       -2.2113103494    0.5762050353    0.1206007297
H       -0.9806642971    2.2814278943   -1.0423550266
C       -0.2709453935    0.0871543529    1.3530541511
H       -0.4806297562   -0.7578768090    2.0045298594
13   
From optimize.out: Frame 7 / 42, Energy=    -286.8012710380
C        1.0074568681    0.2083228520    0.4562805292
C        0.9509926724   -1.0226889532   -0.4796255947
C       -0.2795106137   -1.3498573867   -0.8311054651
C       -1.1746653182    0.4684195525    0.3520978110
C       -0.4640679207    1.4987629714   -0.4675865541
N        0.8174315357    1.4203463472   -0.3972373774
H        1.9769690130    0.3446170259    0.9439111956
H        1.8719302090   -1.4747760359   -0.8434878555
H       -0.7931023017   -2.2431963074   -1.1648333754
H       -2.2465478237    0.5764851452    0.1956474003
H       -0.9748980003    2.2499285077   -1.0703191199
C       -0.2584963546    0.0811008616    1.3184909433
H       -0.4334919654   -0.7574645804    1.9877674628
13   
From optimize.out: Frame 14 / 42, Energy=    -286.8059409442
C        1.0109430508    0.2187645389    0.4618461810
C        0.9458914956   -1.0282801457   -0.4711100778
C       -0.2620895557   -1.3718157609   -0.8551244346
C       -1.1953149510    0.4887006847    0.3641756409
C       -0.4769643764    1.4876635145   -0.4737395115
N        0.8044093034    1.3994986244   -0.4091897869
H        1.9735734808    0.3241867628    0.9619372169
H        1.8770760844   -1.4745600477   -0.8136625218
H       -0.7614035120   -2.2379931801   -1.2588136414
H       -2.2693673283    0.6144251965    0.2908985966
H       -0.9763483018    2.2334989926   -1.0912806187
C       -0.2578706610    0.0853328099    1.3021244627
H       -0.4125347289   -0.7394219899    1.9919384947
13   
From optimize.out: Frame 15 / 42, Energy=    -286.8144371145
C        0.9974114573    0.2159016769    0.4674679821
C        0.9396298121   -1.0309657733   -0.4846762630
C       -0.2368107085   -1.4087560135   -0.9002250779
C       -1.2082142904    0.5243539193    0.3978428796
C       -0.4916734643    1.4853846192   -0.4718329623
N        0.7902462781    1.3762479490   -0.4257391002
H        1.9588588237    0.2703381378    0.9627423574
H        1.8853272624   -1.4561049421   -0.8087656822
H       -0.6947544912   -2.2739358207   -1.3353070549
H       -2.2753880988    0.6699892532    0.3701999017
H       -0.9840664293    2.2228781356   -1.1024659705
C       -0.2632232927    0.1073341260    1.3125907109
H       -0.4173428584   -0.7026652676    2.0181682793
13   
From optimize.out: Frame 16 / 42, Energy=    -286.8208922559
C        0.9838798885    0.2130241248    0.4731066869
C        0.9333619946   -1.0336407147   -0.4982032495
C       -0.2115409261   -1.4455959468   -0.9454074692
C       -1.2211094745    0.5599351009    0.4315753391
C       -0.5063659637    1.4830855406   -0.4699641649
N        0.7760948197    1.3530163903   -0.4423534023
H        1.9441623231    0.2164933086    0.9634581814
H        1.8935805568   -1.4376881044   -0.8037668011
H       -0.6281396502   -2.3096878649   -1.4119037887
H       -2.2813745776    0.7253806491    0.4495869207
H       -0.9917615262    2.2122608254   -1.1137426694
C       -0.2686014071    0.1293407098    1.3231098393
H       -0.4221860575   -0.6659240188    2.0445045778
13   
From optimize.out: Frame 17 / 42, Energy=    -286.8260688701
C        0.9703483208    0.2101321163    0.4787613806
C        0.9270884142   -1.0363053957   -0.5116925535
C       -0.1862790958   -1.4823382048   -0.9906685622
C       -1.2340013578    0.5954462524    0.4653708543
C       -0.5210423616    1.4807669694   -0.4681321090
N        0.7619550456    1.3298034209   -0.4590309424
H        1.9294837473    0.1626520245    0.9640868607
H        1.9018355835   -1.4193085398   -0.7986692273
H       -0.5615566242   -2.3452543676   -1.4885991433
H       -2.2873295232    0.7806045167    0.5290569657
H       -0.9994340150    2.2016472691   -1.1251077614
C       -0.2740043790    0.1513521418    1.3336802037
H       -0.4270637548   -0.6291982032    2.0709440343
13   
From optimize.out: Frame 18 / 42, Energy=    -286.8304797375
C        0.9568167296    0.2072258802    0.4844311951
C        0.9208094211   -1.0389602175   -0.5251456206
C       -0.1610241684   -1.5189853233   -1.0360054607
C       -1.2468907438    0.6308893126    0.4992273630
C       -0.5357031208    1.4784295677   -0.4663358266
N        0.7478270613    1.3066085387   -0.4757700458
H        1.9148228595    0.1088140456    0.9646304743
H        1.9100919790   -1.4009652949   -0.7934761523
H       -0.4950031703   -2.3806401815   -1.5653886589
H       -2.2932555440    0.8356657598    0.6086074802
H       -1.0070842975    2.1910376617   -1.1365584258
C       -0.2794316077    0.1733680260    1.3443002336
H       -0.4319753979   -0.5924877750    2.0974834445
13   
From optimize.out: Frame 19 / 42, Energy=    -286.8342659419
C        0.9432850896    0.2043056402    0.4901153064
C        0.9145253461   -1.0416055584   -0.5385638297
C       -0.1357751546   -1.5555397362   -1.0814154101
C       -1.2597783872    0.6662661400    0.5331429003
C       -0.5503486813    1.4760739706   -0.4645743895
N        0.7337109614    1.2834312658   -0.4925691099
H        1.9001794181    0.0549791433    0.9650910143
H        1.9183493999   -1.3826574565   -0.7881906194
H       -0.4284771605   -2.4158499676   -1.6422681009
H       -2.2991551071    0.8905690665    0.6882360313
H       -1.0147127562    2.1804321871   -1.1480919681
C       -0.2848825160    0.1953879888    1.3549684280
H       -0.4369204521   -0.5557926838    2.1241197472
13   
From optimize.out: Frame 20 / 42, Energy=    -286.8376864094
C        0.9297533745    0.2013716155    0.4958129314
C        0.9082365018   -1.0442417747   -0.5519484971
C       -0.1105311209   -1.5920037800   -1.1268957886
C       -1.2726649973    0.7015785174    0.5671155924
C       -0.5649794616    1.4737007882   -0.4628469076
N        0.7196068305    1.2602711474   -0.5094266000
H        1.8855531765    0.0011470987    0.9654703894
H        1.9266075215   -1.3643841493   -0.7828155318
H       -0.3619765750   -2.4508882053   -1.7192334459
H       -2.3050305468    0.9453189208    0.7679403022
H       -1.0223197553    2.1698310195   -1.1597058129
C       -0.2903565480    0.2174116769    1.3656833517
H       -0.4418983999   -0.5191128751    2.1508500168
13   
From optimize.out: Frame 21 / 42, Energy=    -286.8405931867
C        0.9187252762    0.1998645329    0.4950060479
C        0.9061839981   -1.0473003005   -0.5576567569
C       -0.0924494385   -1.6245717621   -1.1488890871
C       -1.2830608599    0.7291432531    0.5877722815
C       -0.5731382202    1.4788141915   -0.4622513341
N        0.7109274747    1.2515666605   -0.5191655895
H        1.8757893366   -0.0323795533    0.9601603169
H        1.9351007748   -1.3511393815   -0.7781388531
H       -0.3159678558   -2.4851824646   -1.7601725367
H       -2.3100994298    0.9875991448    0.8240707294
H       -1.0245815002    2.1732065398   -1.1655760071
C       -0.2983292101    0.2246332814    1.3654654685
H       -0.4491003459   -0.5042541419    2.1593753202
13   
From optimize.out: Frame 23 / 42, Energy=    -286.8451372677
C        0.9169347725    0.2043837786    0.4683784654
C        0.9189164796   -1.0538595860   -0.5367241580
C       -0.0976199306   -1.6489305677   -1.0870769666
C       -1.2859868098    0.7341176210    0.5642323835
C       -0.5591627805    1.5112641146   -0.4640025957
N        0.7199285741    1.2910860176   -0.5062990077
H        1.8803690238    0.0066206187    0.9383311604
H        1.9443690143   -1.3572778024   -0.7760865722
H       -0.3364805354   -2.5190812634   -1.6794372117
H       -2.3125907768    0.9917966154    0.8027799110
H       -1.0087926910    2.2261149655   -1.1498152559
C       -0.3160619542    0.1791021372    1.3237053860
H       -0.4638223858   -0.5653366490    2.1020144615
13   
From optimize.out: Frame 24 / 42, Energy=    -286.8467970840
C        0.9134725221    0.2051484739    0.4321501420
C        0.9323689934   -1.0683212632   -0.5220204918
C       -0.0941946464   -1.6909308068   -1.0286837826
C       -1.2926659775    0.7563664406    0.5521298886
C       -0.5488961673    1.5453767163   -0.4588711721
N        0.7229248594    1.3136532631   -0.5040225481
H        1.8728495909    0.0553394155    0.9297735087
H        1.9539651801   -1.3710934956   -0.7795175082
H       -0.3302699341   -2.5651656620   -1.6165873668
H       -2.3133556376    1.0209333755    0.8056908271
H       -0.9953483194    2.2818817537   -1.1248082330
C       -0.3368684685    0.1343307829    1.2727912971
H       -0.4839819951   -0.6175189939    2.0419754391
13   
From optimize.out: Frame 25 / 42, Energy=    -286.8480844060
C        0.9029806694    0.1937791262    0.3979661934
C        0.9457759133   -1.0898138034   -0.5127227589
C       -0.0830224958   -1.7434432613   -0.9867997422
C       -1.2994188488    0.7940315185    0.5574044880
C       -0.5470955849    1.5758660601   -0.4533651432
N        0.7167166221    1.3185673156   -0.5138725269
H        1.8526911561    0.0982275329    0.9303191547
H        1.9659356371   -1.3845118761   -0.7860714556
H       -0.2967953165   -2.6134736380   -1.5907479660
H       -2.3088094096    1.0766869730    0.8342713834
H       -0.9900750400    2.3299772982   -1.1031067268
C       -0.3578205570    0.0970771937    1.2283250798
H       -0.5010627455   -0.6529704394    1.9984000203
13   
From optimize.out: Frame 26 / 42, Energy=    -286.8490122947
C        0.8861166832    0.1720526655    0.3691564813
C        0.9575652674   -1.1092591406   -0.5180442403
C       -0.0672640960   -1.7956938977   -0.9595563843
C       -1.3027590897    0.8285946204    0.5631778853
C       -0.5443173222    1.6047925112   -0.4431935650
N        0.7090745243    1.3141235061   -0.5233135867
H        1.8304066799    0.1435615472    0.9207244097
H        1.9772293339   -1.3919128745   -0.8055180895
H       -0.2526489880   -2.6806248767   -1.5523740978
H       -2.2995923149    1.1322640753    0.8615781828
H       -0.9764234727    2.3850481645   -1.0692416017
C       -0.3802574290    0.0722424970    1.1937229253
H       -0.5371297763   -0.6751887975    1.9628816808
13   
From optimize.out: Frame 27 / 42, Energy=    -286.8496752004
C        0.8643745466    0.1489473017    0.3439041513
C        0.9663679404   -1.1312879174   -0.5246261513
C       -0.0438913974   -1.8580399918   -0.9397396227
C       -1.3060522378    0.8731709313    0.5818526463
C       -0.5456959566    1.6312666539   -0.4330023120
N        0.6947371513    1.2990181355   -0.5437004006
H        1.7970686208    0.1704369258    0.9172345767
H        1.9881104108   -1.3907042297   -0.8265470749
H       -0.1922123317   -2.7431861473   -1.5440311227
H       -2.2874413449    1.1995729528    0.9061961329
H       -0.9661222191    2.4302759600   -1.0430641110
C       -0.4053272362    0.0558187600    1.1654721367
H       -0.5639159463   -0.6852893348    1.9400511514
13   
From optimize.out: Frame 28 / 42, Energy=    -286.8501000104
C        0.8419961423    0.1251387769    0.3206953071
C        0.9750649540   -1.1495757258   -0.5368903833
C       -0.0168652203   -1.9185423888   -0.9209309108
C       -1.3046906561    0.9133656619    0.6004865192
C       -0.5449653863    1.6560509001   -0.4223778596
N        0.6811268246    1.2837532433   -0.5632360143
H        1.7648686027    0.1918501908    0.9086731333
H        1.9979965200   -1.3806344303   -0.8570615834
H       -0.1340926084   -2.8101228966   -1.5236619508
H       -2.2708192751    1.2596657067    0.9490655155
H       -0.9516904501    2.4755973646   -1.0143730772
C       -0.4287236969    0.0431740401    1.1412059984