
Running Job 1 of 1 optimize.in
qchem optimize.in_44257.0 ./optimize.d/ 1
/home/leeping/opt/qchem/5.0.2-openmp/exe/qcprog.exe_s optimize.in_44257.0 ./optimize.d/
Check license passed

                  Welcome to Q-Chem
     A Quantum Leap Into The Future Of Chemistry


 Q-Chem 5.0, Q-Chem, Inc., Pleasanton, CA (2017)

 Yihan Shao,  Zhengting Gan,  E. Epifanovsky,  A. T. B. Gilbert,  M. Wormit,  
 J. Kussmann,  A. W. Lange,  A. Behn,  Jia Deng,  Xintian Feng,  D. Ghosh,  
 M. Goldey,  P. R. Horn,  L. D. Jacobson,  I. Kaliman,  T. Kus,  A. Landau,  
 Jie Liu,  E. I. Proynov,  R. M. Richard,  R. P. Steele,  E. J. Sundstrom,  
 H. L. Woodcock III,  P. M. Zimmerman,  D. Zuev,  B. Albrecht,  E. Alguire,  
 S. A. Baeppler,  D. Barton,  Z. Benda,  Y. A. Bernard,  E. J. Berquist,  
 K. B. Bravaya,  H. Burton,  D. Casanova,  Chun-Min Chang,  Yunqing Chen,  
 A. Chien,  K. D. Closser,  M. P. Coons,  S. Dasgupta,  A. L. Dempwolff,  
 M. Diedenhofen,  Hainam Do,  R. G. Edgar,  Po-Tung Fang,  S. Fatehi,  
 Qingguo Feng,  J. Fosso-Tande,  Qinghui Ge,  A. Ghysels,  G. Gidofalvi,  
 J. Gomes,  J. Gonthier,  A. Gunina,  M. W. D. Hanson-Heine,  
 P. H. P. Harbach,  A. W. Hauser,  J. E. Herr,  E. G. Hohenstein,  
 Z. C. Holden,  Kerwin Hui,  T.-C. Jagau,  Hyunjun Ji,  B. Kaduk,  
 K. Khistyaev,  Jaehoon Kim,  P. Klunzinger,  K. Koh,  D. Kosenkov,  
 L. Koulias,  T. Kowalczyk,  C. M. Krauter,  A. Kunitsa,  Ka Un Lao,  
 A. Laurent,  K. V. Lawler,  Joonho Lee,  D. Lefrancois,  S. Lehtola,  
 D. S. Levine,  Yi-Pei Li,  You-Sheng Lin,  Fenglai Liu,  E. Livshits,  
 A. Luenser,  P. Manohar,  E. Mansoor,  S. F. Manzer,  Shan-Ping Mao,  
 Yuezhi Mao,  N. Mardirossian,  A. V. Marenich,  T. Markovich,  
 L. A. Martinez-Martinez,  S. A. Maurer,  N. J. Mayhall,  S. C. McKenzie,  
 J.-M. Mewes,  A. F. Morrison,  J. W. Mullinax,  K. Nanda,  
 T. S. Nguyen-Beck,  R. Olivares-Amaya,  J. A. Parkhill,  T. M. Perrine,  
 F. Plasser,  S. Prager,  A. Prociuk,  E. Ramos,  D. R. Rehn,  F. Rob,  
 M. Schneider,  N. Sergueev,  S. M. Sharada,  S. Sharma,  D. W. Small,  
 T. Stauch,  T. Stein,  Yu-Chuan Su,  A. J. W. Thom,  A. Tkatchenko,  
 T. Tsuchimochi,  L. Vogt,  O. Vydrov,  M. A. Watson,  J. Wenzel,  
 M. de Wergifosse,  T. A. Wesolowski,  A. White,  J. Witte,  A. Yamada,  
 Jun Yang,  K. Yao,  S. Yeganeh,  S. R. Yost,  Zhi-Qiang You,  A. Zech,  
 Igor Ying Zhang,  Xing Zhang,  Yan Zhao,  Ying Zhu,  B. R. Brooks,  
 G. K. L. Chan,  C. J. Cramer,  M. S. Gordon,  W. J. Hehre,  A. Klamt,  
 M. W. Schmidt,  C. D. Sherrill,  D. G. Truhlar,  A. Aspuru-Guzik,  R. Baer,  
 A. T. Bell,  N. A. Besley,  Jeng-Da Chai,  R. A. DiStasio Jr.,  A. Dreuw,  
 B. D. Dunietz,  T. R. Furlani,  Chao-Ping Hsu,  Yousung Jung,  Jing Kong,  
 D. S. Lambrecht,  WanZhen Liang,  C. Ochsenfeld,  V. A. Rassolov,  
 L. V. Slipchenko,  J. E. Subotnik,  T. Van Voorhis,  J. M. Herbert,  
 A. I. Krylov,  P. M. W. Gill,  M. Head-Gordon

 Contributors to earlier versions of Q-Chem not listed above: 
 R. D. Adamson,  B. Austin,  J. Baker,  G. J. O. Beran,  K. Brandhorst,  
 S. T. Brown,  E. F. C. Byrd,  A. K. Chakraborty,  C.-L. Cheng,  
 Siu Hung Chien,  D. M. Chipman,  D. L. Crittenden,  H. Dachsel,  
 R. J. Doerksen,  A. D. Dutoi,  L. Fusti-Molnar,  W. A. Goddard III,  
 A. Golubeva-Zadorozhnaya,  S. R. Gwaltney,  G. Hawkins,  A. Heyden,  
 S. Hirata,  G. Kedziora,  F. J. Keil,  C. Kelley,  Jihan Kim,  R. A. King,  
 R. Z. Khaliullin,  P. P. Korambath,  W. Kurlancheek,  A. M. Lee,  M. S. Lee,  
 S. V. Levchenko,  Ching Yeh Lin,  D. Liotard,  R. C. Lochan,  I. Lotan,  
 P. E. Maslen,  N. Nair,  D. P. O'Neill,  D. Neuhauser,  E. Neuscamman,  
 C. M. Oana,  R. Olson,  B. Peters,  R. Peverati,  P. A. Pieniazek,  
 Y. M. Rhee,  J. Ritchie,  M. A. Rohrdanz,  E. Rosta,  N. J. Russ,  
 H. F. Schaefer III,  N. E. Schultz,  N. Shenvi,  A. C. Simmonett,  A. Sodt,  
 D. Stuck,  K. S. Thanthiriwatte,  V. Vanovschi,  Tao Wang,  A. Warshel,  
 C. F. Williams,  Q. Wu,  X. Xu,  W. Zhang

 Please cite Q-Chem as follows:
 Y. Shao et al., Mol. Phys. 113, 184-215 (2015)
 DOI: 10.1080/00268976.2014.952696

 Q-Chem 5.0.2 for Intel X86 EM64T Linux

 Parts of Q-Chem use Armadillo 5.200.1 (Boston Tea Smuggler).
 http://arma.sourceforge.net/

 Q-Chem begins on Thu Mar  3 00:07:25 2022  

Host: 
0

     Scratch files written to ./optimize.d//
 Dec517 15110_ 26548  26544 5633   
Processing $rem in /home/leeping/opt/qchem/5.0.2-openmp/config/preferences.
 MEM_STATIC 2000
 MEM_TOTAL  8000
 SYMMETRY   OFF
 SYM_IGNORE TRUE 

Checking the input file for inconsistencies... 	...done.

--------------------------------------------------------------
User input:
--------------------------------------------------------------
$molecule
0 2
C        1.5748599053    0.4457949738   -0.0860317622
C        0.8229557593   -0.8160969868    0.1166120050
C       -0.5200598419   -0.9688885888   -0.5830004170
C       -1.1192044585    0.3159568790   -0.0355108530
C       -0.3703706087    1.5798969100   -0.2390095761
N        0.9608892206    1.6152682476   -0.2557641101
H        2.6628065437    0.4376265632   -0.0979064375
H        1.4076710846   -1.7255910359    0.2501101110
H       -0.9239840208   -1.7415043410   -1.2229397507
H       -2.2059505343    0.3777711622   -0.0368483990
H       -0.9048727448    2.5181695490   -0.3803360835
C       -0.5012349421   -0.7476811506    0.8586617756
H       -0.8835053624   -1.2907221814    1.7119634976
$end

$rem
method                b3lyp
basis                 6-31g(d)
unrestricted          true
symmetry              off
sym_ignore            true
incdft                false
incfock               0
scf_convergence       8
thresh                14
jobtype               opt
scf_guess             read
scf_algorithm         diis
max_scf_cycles        100
geom_opt_tol_gradient 600
geom_opt_tol_displacement 2400
geom_opt_tol_energy   200
geom_opt_max_cycles   100
$end

--------------------------------------------------------------
 ----------------------------------------------------------------
             Standard Nuclear Orientation (Angstroms)
    I     Atom           X                Y                Z
 ----------------------------------------------------------------
    1      C       1.5748599053     0.4457949738    -0.0860317622
    2      C       0.8229557593    -0.8160969868     0.1166120050
    3      C      -0.5200598419    -0.9688885888    -0.5830004170
    4      C      -1.1192044585     0.3159568790    -0.0355108530
    5      C      -0.3703706087     1.5798969100    -0.2390095761
    6      N       0.9608892206     1.6152682476    -0.2557641101
    7      H       2.6628065437     0.4376265632    -0.0979064375
    8      H       1.4076710846    -1.7255910359     0.2501101110
    9      H      -0.9239840208    -1.7415043410    -1.2229397507
   10      H      -2.2059505343     0.3777711622    -0.0368483990
   11      H      -0.9048727448     2.5181695490    -0.3803360835
   12      C      -0.5012349421    -0.7476811506     0.8586617756
   13      H      -0.8835053624    -1.2907221814     1.7119634976
 ----------------------------------------------------------------
 Nuclear Repulsion Energy =   277.1445937829 hartrees
 There are       25 alpha and       24 beta electrons
 Requested basis set is 6-31G(d)
 There are 40 shells and 117 basis functions

 Total QAlloc Memory Limit   8000 MB
 Mega-Array Size      1956 MB
 MEM_STATIC part      2000 MB
 A cutoff of  1.0D-14 yielded    808 shell pairs
 There are      7080 function pairs
 
 -------------------------------------------------------
 OpenMP Integral Computing Module                       
 Release: version 1.0, May 2013, Q-Chem Inc. Pittsburgh 
 -------------------------------------------------------
 Integral Job Info:
 Integral job number is                      11
 Integral operator is                         1
 short-range coefficients                     0
 long-range coefficients              100000000
 Omega coefficients                           0
 if combine SR and LR in K                    0
 Integral screening is                        0
 Integral computing path is                   2
 max size of driver memory is            800000
 size of driver memory is                593474
 size of scratch memory is              2361544
 max col of scratch BK array               1296
 max len of scratch array in speh3          155
 max len of scratch index in speh4           18
 max int batch size is                      520
 min int batch size is                       52
 fixed nKL is                                52
 max L of basis functions is                  2
 order of int derivative is                   0
 number of shells is                         40
 number of basis is                         117
 number of cartesian basis is               117
 number of contracted shell pairs           808
 number of primitive shell pairs           3555
 maxK2 (contraction) of shell pair           36
 max number of K2 of shell pair               1
 max number of CS2 of shell pair             84
 max number of PS2 of shell pair            366
 mem total for path MDJ                  535308
 -------------------------------------------------------
 Smallest overlap matrix eigenvalue = 1.60E-03

 Scale SEOQF with 1.000000e-01/1.000000e-01/1.000000e-01

 Standard Electronic Orientation quadrupole field applied
 Nucleus-field energy     =     0.0000000051 hartrees
 Guess MOs from SCF MO coefficient file
 Reading MOs from coefficient file
 Reading MOs from coefficient file
 An unrestricted hybrid HF-DFT SCF calculation will be
 performed using Pulay DIIS extrapolation
 Exchange:     0.2000 Hartree-Fock + 0.0800 Slater + 0.7200 B88
 Correlation:  0.1900 VWN1RPA + 0.8100 LYP
 Using SG-1 standard quadrature grid
 SCF converges when DIIS error is below 1.0E-08
Using Q-Chem read-in guess as SCF_GUESS READ specified.

 using 4 threads for integral computing
 -------------------------------------------------------
 OpenMP Integral computing Module                
 Release: version 1.0, May 2013, Q-Chem Inc. Pittsburgh 
 -------------------------------------------------------
 -------------------------------------------------------
 OpenMP BLAS3 based DFT computing Module                
 Release: version 1.0, May 2013, Q-Chem Inc. Pittsburgh 
 -------------------------------------------------------
 ---------------------------------------
  Cycle       Energy         DIIS Error
 ---------------------------------------
    1    -286.8584556587      6.25E-10
    2    -286.8584556587      8.76E-10 Convergence criterion met
 ---------------------------------------
 <S^2> = 0.7737
 SCF time:  CPU 4.54 s  wall 1.20 s
 SCF   energy in the final basis set = -286.85845566
 Total energy in the final basis set = -286.85845566
 
 --------------------------------------------------------------
 
                    Orbital Energies (a.u.)
 --------------------------------------------------------------
 
 Alpha MOs
 -- Occupied --
-14.317 -10.216 -10.216 -10.215 -10.215 -10.215 -10.215  -0.959
 -0.896  -0.750  -0.643  -0.635  -0.589  -0.545  -0.482  -0.471
 -0.465  -0.408  -0.395  -0.365  -0.337  -0.300  -0.298  -0.227
 -0.173
 -- Virtual --
  0.016   0.090   0.114   0.142   0.143   0.153   0.158   0.166
  0.197   0.210   0.231   0.274   0.290   0.304   0.321   0.388
  0.526   0.528   0.540   0.540   0.564   0.590   0.592   0.594
  0.615   0.617   0.632   0.656   0.672   0.735   0.792   0.802
  0.814   0.838   0.854   0.855   0.882   0.888   0.925   0.938
  0.959   0.983   1.144   1.156   1.163   1.197   1.256   1.370
  1.413   1.459   1.488   1.500   1.582   1.617   1.646   1.677
  1.739   1.741   1.859   1.868   1.876   1.916   1.993   2.025
  2.037   2.134   2.159   2.201   2.247   2.285   2.358   2.466
  2.472   2.484   2.525   2.578   2.596   2.609   2.625   2.689
  2.732   2.772   2.804   2.989   3.152   4.017   4.114   4.178
  4.380   4.454   4.461   4.550
 
 Beta MOs
 -- Occupied --
-14.320 -10.216 -10.216 -10.213 -10.213 -10.207 -10.207  -0.955
 -0.893  -0.738  -0.631  -0.630  -0.584  -0.542  -0.476  -0.466
 -0.464  -0.404  -0.377  -0.362  -0.322  -0.298  -0.294  -0.227
 -- Virtual --
 -0.064   0.036   0.091   0.120   0.143   0.144   0.161   0.165
  0.170   0.210   0.212   0.234   0.278   0.300   0.308   0.329
  0.393   0.527   0.534   0.548   0.562   0.566   0.592   0.599
  0.605   0.620   0.639   0.652   0.659   0.678   0.740   0.795
  0.803   0.817   0.842   0.847   0.857   0.883   0.897   0.931
  0.942   0.963   0.992   1.147   1.157   1.166   1.198   1.256
  1.387   1.420   1.459   1.497   1.516   1.583   1.633   1.659
  1.685   1.747   1.749   1.862   1.880   1.884   1.919   1.998
  2.029   2.051   2.142   2.163   2.224   2.256   2.296   2.374
  2.474   2.476   2.496   2.541   2.583   2.597   2.617   2.626
  2.693   2.735   2.776   2.810   2.991   3.156   4.014   4.129
  4.190   4.384   4.459   4.471   4.552
 --------------------------------------------------------------
 
          Ground-State Mulliken Net Atomic Charges

     Atom                 Charge (a.u.)    Spin (a.u.)
  --------------------------------------------------------
      1 C                     0.076415       0.596856
      2 C                    -0.220361      -0.053390
      3 C                    -0.090672       0.095229
      4 C                    -0.220542      -0.053414
      5 C                     0.076355       0.597476
      6 N                    -0.395298      -0.205402
      7 H                     0.135525      -0.032033
      8 H                     0.142091       0.000519
      9 H                     0.154192      -0.004311
     10 H                     0.142020       0.000516
     11 H                     0.135625      -0.032073
     12 C                    -0.089484       0.094304
     13 H                     0.154134      -0.004276
  --------------------------------------------------------
  Sum of atomic charges =    -0.000000
  Sum of spin   charges =     1.000000

 -----------------------------------------------------------------
                    Cartesian Multipole Moments
 -----------------------------------------------------------------
    Charge (ESU x 10^10)
                -0.0000
    Dipole Moment (Debye)
         X      -1.5106      Y      -2.5379      Z       0.4023
       Tot       2.9808
    Quadrupole Moments (Debye-Ang)
        XX     -37.8073     XY      -3.6493     YY     -41.8887
        XZ       0.5354     YZ       0.1181     ZZ     -41.2664
    Octopole Moments (Debye-Ang^2)
       XXX     -10.7745    XXY     -10.5690    XYY     -13.7056
       YYY     -30.8483    XXZ       1.5355    XYZ       1.1001
       YYZ       1.5373    XZZ      -6.5856    YZZ     -10.7569
       ZZZ       5.1436
    Hexadecapole Moments (Debye-Ang^3)
      XXXX    -271.1665   XXXY     -26.7354   XXYY    -110.6830
      XYYY     -44.5057   YYYY    -346.1030   XXXZ       4.8518
      XXYZ       7.0332   XYYZ       6.3109   YYYZ      21.7188
      XXZZ     -67.3932   XYZZ      -3.9975   YYZZ     -70.6115
      XZZZ       2.6940   YZZZ      18.0647   ZZZZ     -96.1226
 -----------------------------------------------------------------
 Calculating analytic gradient of the SCF energy
 Gradient of SCF Energy
            1           2           3           4           5           6
    1   0.0000733   0.0004349  -0.0007342  -0.0001548   0.0001112   0.0000967
    2   0.0002249   0.0000547   0.0000686  -0.0001414   0.0002336   0.0001733
    3  -0.0002714   0.0003097  -0.0000893   0.0003174  -0.0003065   0.0004742
            7           8           9          10          11          12
    1  -0.0001929   0.0003069  -0.0002250   0.0001609  -0.0002723   0.0002953
    2  -0.0001849  -0.0003331  -0.0000196  -0.0001458   0.0004136  -0.0004694
    3  -0.0000056   0.0002181  -0.0002485  -0.0003602  -0.0001626  -0.0001121
           13
    1   0.0001000
    2   0.0001255
    3   0.0002368
 Max gradient component =       7.342E-04
 RMS gradient           =       2.692E-04
 Gradient time:  CPU 8.09 s  wall 3.14 s
 Geometry Optimization Parameters
   NAtoms,    NIC,     NZ,  NCons,   NDum,   NFix, NCnnct, MaxDiis
       13     127       0       0       0       0       0       0


** GEOMETRY OPTIMIZATION IN DELOCALIZED INTERNAL COORDINATES **
   Searching for a Minimum

   Optimization Cycle:   1

                       Coordinates (Angstroms)
     ATOM                X               Y               Z
      1  C         1.5748599053    0.4457949738   -0.0860317622
      2  C         0.8229557593   -0.8160969868    0.1166120050
      3  C        -0.5200598419   -0.9688885888   -0.5830004170
      4  C        -1.1192044585    0.3159568790   -0.0355108530
      5  C        -0.3703706087    1.5798969100   -0.2390095761
      6  N         0.9608892206    1.6152682476   -0.2557641101
      7  H         2.6628065437    0.4376265632   -0.0979064375
      8  H         1.4076710846   -1.7255910359    0.2501101110
      9  H        -0.9239840208   -1.7415043410   -1.2229397507
     10  H        -2.2059505343    0.3777711622   -0.0368483990
     11  H        -0.9048727448    2.5181695490   -0.3803360835
     12  C        -0.5012349421   -0.7476811506    0.8586617756
     13  H        -0.8835053624   -1.2907221814    1.7119634976
   Point Group: c1    Number of degrees of freedom:    33


   Energy is   -286.858455659


 Attempting to Generate Delocalized Internal Coordinates

 33 Hessian modes will be used to form the next step
  Hessian Eigenvalues:
     0.013999    0.014263    0.016198    0.017694    0.018938    0.019041
     0.019118    0.020959    0.034956    0.043192    0.063661    0.078748
     0.082796    0.094108    0.126405    0.147077    0.160000    0.160000
     0.184737    0.187044    0.234611    0.253850    0.315969    0.317614
     0.342299    0.348767    0.349231    0.349862    0.350399    0.358154
     0.358411    0.534222    0.572635

 Minimum Search - Taking Simple RFO Step
 Searching for Lamda that Minimizes Along All modes
 Value Taken    Lamda =  -0.00001843
 Step Taken.  Stepsize is  0.024011

                             Maximum     Tolerance    Cnvgd?
         Gradient           0.000660      0.000600      NO
         Displacement       0.009717      0.002400      NO
         Energy change     *********      0.000002      NO


 New Cartesian Coordinates Obtained by Inverse Iteration

 Displacement from previous Coordinates is:  0.016643
 ----------------------------------------------------------------
             Standard Nuclear Orientation (Angstroms)
    I     Atom           X                Y                Z
 ----------------------------------------------------------------
    1      C       1.5751877236     0.4456964295    -0.0859246270
    2      C       0.8224775221    -0.8153030354     0.1174561384
    3      C      -0.5187162062    -0.9686041869    -0.5830774992
    4      C      -1.1193980815     0.3160409781    -0.0361673903
    5      C      -0.3701428071     1.5789271588    -0.2388473708
    6      N       0.9609130039     1.6141495743    -0.2598457188
    7      H       2.6634259738     0.4386562133    -0.0979529891
    8      H       1.4063163589    -1.7246875642     0.2497027670
    9      H      -0.9207244973    -1.7424615602    -1.2221101752
   10      H      -2.2063341362     0.3789713473    -0.0331540677
   11      H      -0.9040697882     2.5169144806    -0.3782928638
   12      C      -0.5024268939    -0.7468623541     0.8584352223
   13      H      -0.8865081718    -1.2914374808     1.7097785743
 ----------------------------------------------------------------
 Nuclear Repulsion Energy =   277.2107576850 hartrees
 There are       25 alpha and       24 beta electrons
 Applying Cartesian multipole field
    Component          Value
    ---------          -----
     (2,0,0)        1.00000E-11
     (0,2,0)        2.00000E-11
     (0,0,2)       -3.00000E-11
 Nucleus-field energy     =     0.0000000051 hartrees
 Requested basis set is 6-31G(d)
 There are 40 shells and 117 basis functions
 A cutoff of  1.0D-14 yielded    808 shell pairs
 There are      7080 function pairs
 Smallest overlap matrix eigenvalue = 1.59E-03
 Guess MOs from SCF MO coefficient file
 Reading MOs from coefficient file
 Reading MOs from coefficient file
 An unrestricted hybrid HF-DFT SCF calculation will be
 performed using Pulay DIIS extrapolation
 Exchange:     0.2000 Hartree-Fock + 0.0800 Slater + 0.7200 B88
 Correlation:  0.1900 VWN1RPA + 0.8100 LYP
 Using SG-1 standard quadrature grid
 SCF converges when DIIS error is below 1.0E-08
 Geometry optimization detected.  Setting ReadMinima to 0
 Setting SaveMinima to 0
Using Q-Chem read-in guess as SCF_GUESS READ specified.

 using 4 threads for integral computing
 -------------------------------------------------------
 OpenMP Integral computing Module                
 Release: version 1.0, May 2013, Q-Chem Inc. Pittsburgh 
 -------------------------------------------------------
 -------------------------------------------------------
 OpenMP BLAS3 based DFT computing Module                
 Release: version 1.0, May 2013, Q-Chem Inc. Pittsburgh 
 -------------------------------------------------------
 ---------------------------------------
  Cycle       Energy         DIIS Error
 ---------------------------------------
    1    -286.8599078177      1.24E-04
    2    -286.8584646296      1.66E-05
    3    -286.8584646394      2.10E-05
    4    -286.8584653483      4.09E-06
    5    -286.8584653752      1.32E-06
    6    -286.8584653789      6.37E-07
    7    -286.8584653798      1.67E-07
    8    -286.8584653799      6.23E-08
    9    -286.8584653799      1.79E-08
   10    -286.8584653799      9.67E-09 Convergence criterion met
 ---------------------------------------
 <S^2> = 0.7737
 SCF time:  CPU 25.38 s  wall 8.30 s
 SCF   energy in the final basis set = -286.85846538
 Total energy in the final basis set = -286.85846538
 
 --------------------------------------------------------------
 
                    Orbital Energies (a.u.)
 --------------------------------------------------------------
 
 Alpha MOs
 -- Occupied --
-14.317 -10.216 -10.216 -10.215 -10.215 -10.215 -10.215  -0.960
 -0.896  -0.750  -0.643  -0.635  -0.589  -0.545  -0.482  -0.471
 -0.465  -0.408  -0.395  -0.365  -0.338  -0.300  -0.298  -0.227
 -0.173
 -- Virtual --
  0.017   0.090   0.114   0.142   0.143   0.153   0.158   0.166
  0.197   0.210   0.231   0.274   0.291   0.304   0.321   0.388
  0.526   0.528   0.540   0.541   0.564   0.589   0.592   0.595
  0.615   0.617   0.632   0.656   0.672   0.735   0.791   0.802
  0.814   0.838   0.854   0.854   0.882   0.889   0.925   0.938
  0.959   0.983   1.144   1.156   1.163   1.197   1.256   1.370
  1.413   1.458   1.488   1.500   1.582   1.617   1.646   1.677
  1.740   1.742   1.860   1.868   1.876   1.916   1.994   2.025
  2.037   2.134   2.160   2.202   2.247   2.286   2.358   2.467
  2.473   2.484   2.526   2.578   2.596   2.609   2.625   2.690
  2.733   2.772   2.804   2.989   3.153   4.018   4.114   4.179
  4.380   4.454   4.461   4.550
 
 Beta MOs
 -- Occupied --
-14.320 -10.216 -10.216 -10.213 -10.213 -10.207 -10.207  -0.955
 -0.894  -0.738  -0.631  -0.630  -0.584  -0.542  -0.476  -0.466
 -0.464  -0.405  -0.377  -0.362  -0.322  -0.298  -0.294  -0.227
 -- Virtual --
 -0.064   0.036   0.091   0.120   0.144   0.144   0.161   0.165
  0.170   0.210   0.213   0.235   0.278   0.300   0.308   0.329
  0.393   0.527   0.534   0.548   0.562   0.566   0.592   0.599
  0.605   0.621   0.639   0.652   0.660   0.678   0.740   0.795
  0.804   0.817   0.842   0.847   0.857   0.883   0.897   0.931
  0.942   0.962   0.992   1.147   1.157   1.166   1.198   1.256
  1.387   1.420   1.458   1.497   1.516   1.583   1.633   1.659
  1.685   1.748   1.750   1.863   1.881   1.885   1.919   1.999
  2.030   2.051   2.143   2.164   2.224   2.256   2.297   2.374
  2.475   2.477   2.496   2.541   2.583   2.598   2.617   2.626
  2.694   2.736   2.776   2.810   2.991   3.157   4.014   4.130
  4.190   4.384   4.459   4.472   4.552
 --------------------------------------------------------------
 
          Ground-State Mulliken Net Atomic Charges

     Atom                 Charge (a.u.)    Spin (a.u.)
  --------------------------------------------------------
      1 C                     0.076434       0.596788
      2 C                    -0.220715      -0.053358
      3 C                    -0.090387       0.095006
      4 C                    -0.220638      -0.053391
      5 C                     0.076461       0.597312
      6 N                    -0.395264      -0.205294
      7 H                     0.135534      -0.032037
      8 H                     0.142072       0.000518
      9 H                     0.154175      -0.004307
     10 H                     0.142060       0.000516
     11 H                     0.135557      -0.032056
     12 C                    -0.089445       0.094592
     13 H                     0.154157      -0.004288
  --------------------------------------------------------
  Sum of atomic charges =    -0.000000
  Sum of spin   charges =     1.000000

 -----------------------------------------------------------------
                    Cartesian Multipole Moments
 -----------------------------------------------------------------
    Charge (ESU x 10^10)
                -0.0000
    Dipole Moment (Debye)
         X      -1.5112      Y      -2.5381      Z       0.4092
       Tot       2.9822
    Quadrupole Moments (Debye-Ang)
        XX     -37.8011     XY      -3.6434     YY     -41.8782
        XZ       0.5246     YZ       0.1384     ZZ     -41.2774
    Octopole Moments (Debye-Ang^2)
       XXX     -10.7766    XXY     -10.5491    XYY     -13.6984
       YYY     -30.8609    XXZ       1.5925    XYZ       1.1207
       YYZ       1.5868    XZZ      -6.5846    YZZ     -10.7573
       ZZZ       5.1846
    Hexadecapole Moments (Debye-Ang^3)
      XXXX    -271.1202   XXXY     -26.7194   XXYY    -110.6151
      XYYY     -44.4520   YYYY    -345.7055   XXXZ       4.8994
      XXYZ       7.0742   XYYZ       6.3437   YYYZ      21.8903
      XXZZ     -67.4053   XYZZ      -4.0162   YYZZ     -70.5754
      XZZZ       2.7978   YZZZ      18.1669   ZZZZ     -96.1888
 -----------------------------------------------------------------
 Calculating analytic gradient of the SCF energy
 Gradient of SCF Energy
            1           2           3           4           5           6
    1  -0.0001176   0.0002014  -0.0001370   0.0001508  -0.0000142   0.0000235
    2   0.0001406   0.0000179  -0.0001544   0.0000219   0.0000757  -0.0000686
    3   0.0000715   0.0001764   0.0000382  -0.0000568   0.0000870  -0.0000957
            7           8           9          10          11          12
    1   0.0000128   0.0000160  -0.0000564  -0.0000198   0.0000000  -0.0001366
    2  -0.0000174   0.0000559   0.0000907  -0.0000625  -0.0000444  -0.0001680
    3   0.0000032   0.0000100  -0.0000704   0.0000190  -0.0000146  -0.0002759
           13
    1   0.0000770
    2   0.0001126
    3   0.0001080
 Max gradient component =       2.759E-04
 RMS gradient           =       9.994E-05
 Gradient time:  CPU 7.50 s  wall 2.27 s
 Geometry Optimization Parameters
   NAtoms,    NIC,     NZ,  NCons,   NDum,   NFix, NCnnct, MaxDiis
       13     127       0       0       0       0       0       0

 Cartesian Hessian Update
 Hessian Updated using BFGS Update


** GEOMETRY OPTIMIZATION IN DELOCALIZED INTERNAL COORDINATES **
   Searching for a Minimum

   Optimization Cycle:   2

                       Coordinates (Angstroms)
     ATOM                X               Y               Z
      1  C         1.5751877236    0.4456964295   -0.0859246270
      2  C         0.8224775221   -0.8153030354    0.1174561384
      3  C        -0.5187162062   -0.9686041869   -0.5830774992
      4  C        -1.1193980815    0.3160409781   -0.0361673903
      5  C        -0.3701428071    1.5789271588   -0.2388473708
      6  N         0.9609130039    1.6141495743   -0.2598457188
      7  H         2.6634259738    0.4386562133   -0.0979529891
      8  H         1.4063163589   -1.7246875642    0.2497027670
      9  H        -0.9207244973   -1.7424615602   -1.2221101752
     10  H        -2.2063341362    0.3789713473   -0.0331540677
     11  H        -0.9040697882    2.5169144806   -0.3782928638
     12  C        -0.5024268939   -0.7468623541    0.8584352223
     13  H        -0.8865081718   -1.2914374808    1.7097785743
   Point Group: c1    Number of degrees of freedom:    33


   Energy is   -286.858465380

 Hessian Updated using BFGS Update

 33 Hessian modes will be used to form the next step
  Hessian Eigenvalues:
     0.013950    0.014263    0.015426    0.016878    0.017709    0.019037
     0.020006    0.023343    0.035847    0.042979    0.062941    0.078499
     0.081854    0.094124    0.124337    0.146515    0.158530    0.160008
     0.178554    0.187022    0.234863    0.253941    0.314703    0.317727
     0.342194    0.348965    0.349800    0.350302    0.355734    0.358385
     0.359592    0.537378    0.573045

 Minimum Search - Taking Simple RFO Step
 Searching for Lamda that Minimizes Along All modes
 Value Taken    Lamda =  -0.00000163
 Step Taken.  Stepsize is  0.008300

                             Maximum     Tolerance    Cnvgd?
         Gradient           0.000111      0.000600     YES
         Displacement       0.005885      0.002400      NO
         Energy change     -0.000010      0.000002      NO


 New Cartesian Coordinates Obtained by Inverse Iteration

 Displacement from previous Coordinates is:  0.004459
 ----------------------------------------------------------------
             Standard Nuclear Orientation (Angstroms)
    I     Atom           X                Y                Z
 ----------------------------------------------------------------
    1      C       1.5753626449     0.4456029359    -0.0863231391
    2      C       0.8223675614    -0.8151464409     0.1173313030
    3      C      -0.5184678653    -0.9683595421    -0.5828425510
    4      C      -1.1195581909     0.3162116681    -0.0361138767
    5      C      -0.3701672380     1.5788558805    -0.2391568712
    6      N       0.9609187784     1.6141320614    -0.2596467237
    7      H       2.6636063421     0.4389082302    -0.0980286229
    8      H       1.4058762293    -1.7247818792     0.2492764763
    9      H      -0.9200209705    -1.7431433560    -1.2209917697
   10      H      -2.2064799561     0.3793553914    -0.0330974604
   11      H      -0.9039666910     2.5169882349    -0.3780879045
   12      C      -0.5023567816    -0.7463897094     0.8587360011
   13      H      -0.8871138627    -1.2922334743     1.7089451389
 ----------------------------------------------------------------
 Nuclear Repulsion Energy =   277.2179787168 hartrees
 There are       25 alpha and       24 beta electrons
 Applying Cartesian multipole field
    Component          Value
    ---------          -----
     (2,0,0)        1.00000E-11
     (0,2,0)        2.00000E-11
     (0,0,2)       -3.00000E-11
 Nucleus-field energy     =     0.0000000051 hartrees
 Requested basis set is 6-31G(d)
 There are 40 shells and 117 basis functions
 A cutoff of  1.0D-14 yielded    808 shell pairs
 There are      7080 function pairs
 Smallest overlap matrix eigenvalue = 1.59E-03
 Guess MOs from SCF MO coefficient file
 Reading MOs from coefficient file
 Reading MOs from coefficient file
 An unrestricted hybrid HF-DFT SCF calculation will be
 performed using Pulay DIIS extrapolation
 Exchange:     0.2000 Hartree-Fock + 0.0800 Slater + 0.7200 B88
 Correlation:  0.1900 VWN1RPA + 0.8100 LYP
 Using SG-1 standard quadrature grid
 SCF converges when DIIS error is below 1.0E-08
 Geometry optimization detected.  Setting ReadMinima to 0
 Setting SaveMinima to 0
Using Q-Chem read-in guess as SCF_GUESS READ specified.

 using 4 threads for integral computing
 -------------------------------------------------------
 OpenMP Integral computing Module                
 Release: version 1.0, May 2013, Q-Chem Inc. Pittsburgh 
 -------------------------------------------------------
 -------------------------------------------------------
 OpenMP BLAS3 based DFT computing Module                
 Release: version 1.0, May 2013, Q-Chem Inc. Pittsburgh 
 -------------------------------------------------------
 ---------------------------------------
  Cycle       Energy         DIIS Error
 ---------------------------------------
    1    -286.8585387929      2.60E-05
    2    -286.8584664820      4.89E-06
    3    -286.8584664568      6.81E-06
    4    -286.8584665287      8.74E-07
    5    -286.8584665297      3.71E-07
    6    -286.8584665300      9.84E-08
    7    -286.8584665300      4.38E-08
    8    -286.8584665300      8.34E-09 Convergence criterion met
 ---------------------------------------
 <S^2> = 0.7737
 SCF time:  CPU 19.72 s  wall 5.89 s
 SCF   energy in the final basis set = -286.85846653
 Total energy in the final basis set = -286.85846653
 
 --------------------------------------------------------------
 
                    Orbital Energies (a.u.)
 --------------------------------------------------------------
 
 Alpha MOs
 -- Occupied --
-14.317 -10.216 -10.216 -10.215 -10.215 -10.215 -10.215  -0.960
 -0.896  -0.750  -0.643  -0.635  -0.589  -0.545  -0.482  -0.471
 -0.465  -0.408  -0.395  -0.365  -0.338  -0.299  -0.298  -0.227
 -0.173
 -- Virtual --
  0.016   0.090   0.114   0.142   0.143   0.153   0.158   0.166
  0.198   0.210   0.231   0.274   0.291   0.304   0.321   0.388
  0.526   0.528   0.540   0.541   0.564   0.589   0.592   0.595
  0.615   0.617   0.632   0.656   0.672   0.735   0.791   0.802
  0.814   0.838   0.854   0.854   0.882   0.889   0.925   0.938
  0.958   0.983   1.144   1.156   1.164   1.197   1.256   1.370
  1.413   1.458   1.488   1.500   1.582   1.617   1.646   1.677
  1.740   1.742   1.860   1.868   1.876   1.916   1.993   2.025
  2.037   2.134   2.160   2.202   2.247   2.286   2.358   2.467
  2.473   2.484   2.526   2.578   2.596   2.609   2.625   2.690
  2.733   2.772   2.804   2.989   3.153   4.017   4.114   4.179
  4.381   4.454   4.461   4.550
 
 Beta MOs
 -- Occupied --
-14.320 -10.216 -10.216 -10.213 -10.213 -10.207 -10.207  -0.955
 -0.894  -0.738  -0.631  -0.630  -0.584  -0.542  -0.476  -0.466
 -0.464  -0.405  -0.377  -0.362  -0.322  -0.298  -0.294  -0.227
 -- Virtual --
 -0.064   0.036   0.091   0.120   0.144   0.144   0.161   0.165
  0.170   0.210   0.213   0.235   0.278   0.300   0.308   0.329
  0.393   0.528   0.534   0.548   0.562   0.566   0.592   0.599
  0.605   0.621   0.639   0.652   0.659   0.678   0.740   0.795
  0.804   0.817   0.842   0.847   0.857   0.883   0.897   0.931
  0.942   0.962   0.992   1.147   1.157   1.167   1.199   1.256
  1.387   1.420   1.458   1.497   1.515   1.583   1.633   1.659
  1.685   1.748   1.750   1.863   1.881   1.885   1.920   1.999
  2.030   2.051   2.143   2.164   2.224   2.256   2.297   2.374
  2.475   2.477   2.497   2.541   2.583   2.597   2.617   2.626
  2.694   2.736   2.776   2.810   2.991   3.157   4.014   4.130
  4.191   4.384   4.459   4.472   4.552
 --------------------------------------------------------------
 
          Ground-State Mulliken Net Atomic Charges

     Atom                 Charge (a.u.)    Spin (a.u.)
  --------------------------------------------------------
      1 C                     0.076468       0.596893
      2 C                    -0.220883      -0.053334
      3 C                    -0.090276       0.094895
      4 C                    -0.220758      -0.053390
      5 C                     0.076511       0.597277
      6 N                    -0.395292      -0.205334
      7 H                     0.135572      -0.032040
      8 H                     0.142075       0.000517
      9 H                     0.154165      -0.004302
     10 H                     0.142092       0.000517
     11 H                     0.135560      -0.032055
     12 C                    -0.089423       0.094645
     13 H                     0.154189      -0.004289
  --------------------------------------------------------
  Sum of atomic charges =     0.000000
  Sum of spin   charges =     1.000000

 -----------------------------------------------------------------
                    Cartesian Multipole Moments
 -----------------------------------------------------------------
    Charge (ESU x 10^10)
                 0.0000
    Dipole Moment (Debye)
         X      -1.5114      Y      -2.5390      Z       0.4084
       Tot       2.9829
    Quadrupole Moments (Debye-Ang)
        XX     -37.7977     XY      -3.6424     YY     -41.8729
        XZ       0.5212     YZ       0.1375     ZZ     -41.2844
    Octopole Moments (Debye-Ang^2)
       XXX     -10.7792    XXY     -10.5489    XYY     -13.7035
       YYY     -30.8868    XXZ       1.5952    XYZ       1.1250
       YYZ       1.5893    XZZ      -6.5808    YZZ     -10.7567
       ZZZ       5.1788
    Hexadecapole Moments (Debye-Ang^3)
      XXXX    -271.1016   XXXY     -26.7046   XXYY    -110.6072
      XYYY     -44.4347   YYYY    -345.6458   XXXZ       4.9129
      XXYZ       7.0709   XYYZ       6.3368   YYYZ      21.8954
      XXZZ     -67.4082   XYZZ      -4.0159   YYZZ     -70.5700
      XZZZ       2.8160   YZZZ      18.1732   ZZZZ     -96.2096
 -----------------------------------------------------------------
 Calculating analytic gradient of the SCF energy
 Gradient of SCF Energy
            1           2           3           4           5           6
    1  -0.0000401   0.0000599   0.0000127   0.0001086  -0.0000710   0.0000146
    2   0.0000163   0.0000689  -0.0001357   0.0000923  -0.0000102  -0.0000294
    3  -0.0000167   0.0001176   0.0001196  -0.0000233  -0.0000121   0.0000024
            7           8           9          10          11          12
    1   0.0000215  -0.0000099  -0.0000019  -0.0000253   0.0000034  -0.0001168
    2   0.0000150   0.0000470   0.0000646  -0.0000323  -0.0000459  -0.0001143
    3   0.0000049  -0.0000147  -0.0000420   0.0000256   0.0000011  -0.0002209
           13
    1   0.0000443
    2   0.0000638
    3   0.0000585
 Max gradient component =       2.209E-04
 RMS gradient           =       6.850E-05
 Gradient time:  CPU 7.80 s  wall 1.99 s
 Geometry Optimization Parameters
   NAtoms,    NIC,     NZ,  NCons,   NDum,   NFix, NCnnct, MaxDiis
       13     127       0       0       0       0       0       0

 Cartesian Hessian Update
 Hessian Updated using BFGS Update


** GEOMETRY OPTIMIZATION IN DELOCALIZED INTERNAL COORDINATES **
   Searching for a Minimum

   Optimization Cycle:   3

                       Coordinates (Angstroms)
     ATOM                X               Y               Z
      1  C         1.5753626449    0.4456029359   -0.0863231391
      2  C         0.8223675614   -0.8151464409    0.1173313030
      3  C        -0.5184678653   -0.9683595421   -0.5828425510
      4  C        -1.1195581909    0.3162116681   -0.0361138767
      5  C        -0.3701672380    1.5788558805   -0.2391568712
      6  N         0.9609187784    1.6141320614   -0.2596467237
      7  H         2.6636063421    0.4389082302   -0.0980286229
      8  H         1.4058762293   -1.7247818792    0.2492764763
      9  H        -0.9200209705   -1.7431433560   -1.2209917697
     10  H        -2.2064799561    0.3793553914   -0.0330974604
     11  H        -0.9039666910    2.5169882349   -0.3780879045
     12  C        -0.5023567816   -0.7463897094    0.8587360011
     13  H        -0.8871138627   -1.2922334743    1.7089451389
   Point Group: c1    Number of degrees of freedom:    33


   Energy is   -286.858466530

 Hessian Updated using BFGS Update

 33 Hessian modes will be used to form the next step
  Hessian Eigenvalues:
     0.008794    0.014281    0.014395    0.016537    0.017701    0.019540
     0.019865    0.024197    0.034662    0.042033    0.061851    0.076504
     0.082285    0.094093    0.126229    0.145419    0.159573    0.160189
     0.180104    0.187519    0.236587    0.254124    0.316180    0.321490
     0.346167    0.349014    0.349847    0.350311    0.355141    0.358406
     0.360683    0.537234    0.571863

 Minimum Search - Taking Simple RFO Step
 Searching for Lamda that Minimizes Along All modes
 Value Taken    Lamda =  -0.00000100
 Step Taken.  Stepsize is  0.009936

                             Maximum     Tolerance    Cnvgd?
         Gradient           0.000097      0.000600     YES
         Displacement       0.008053      0.002400      NO
         Energy change     -0.000001      0.000002     YES


                       Distance Matrix (Angstroms)
             C (  1)   C (  2)   C (  3)   C (  4)   C (  5)   N (  6)
   C (  2)  1.482554
   C (  3)  2.574868  1.520381
   C (  4)  2.698492  2.252686  1.519982
   C (  5)  2.256703  2.698235  2.574572  1.482256
   N (  6)  1.331556  2.462256  2.993711  2.462306  1.331711
   H (  7)  1.088327  2.238123  3.512982  3.785660  3.243945  2.075191
   H (  8)  2.202708  1.088728  2.228833  3.259589  3.782449  3.406661
   H (  9)  3.507852  2.384996  1.081096  2.384260  3.507423  3.966537
   H ( 10)  3.782797  3.259353  2.228888  1.088759  2.203022  3.407112
   H ( 11)  3.243892  3.785339  3.512575  2.237598  1.088272  2.075325
   C ( 12)  2.575054  1.519639  1.458657  1.520137  2.574803  2.993997
   H ( 13)  3.508113  2.383941  2.343733  2.384608  3.507918  3.967057
             H (  7)   H (  8)   H (  9)   H ( 10)   H ( 11)   C ( 12)
   H (  8)  2.526670
   H (  9)  4.343360  2.751695
   H ( 10)  4.870883  4.190017  2.751558
   H ( 11)  4.138167  4.870480  4.342749  2.526862
   C ( 12)  3.513353  2.229360  2.343764  2.228610  3.512927
   H ( 13)  4.343918  2.752369  2.964613  2.751299  4.343519  1.081129

 
 Final energy is   -286.858466529989     


 ******************************
 **  OPTIMIZATION CONVERGED  **
 ******************************

                       Coordinates (Angstroms)
     ATOM                X               Y               Z
      1  C         1.5753626449    0.4456029359   -0.0863231391
      2  C         0.8223675614   -0.8151464409    0.1173313030
      3  C        -0.5184678653   -0.9683595421   -0.5828425510
      4  C        -1.1195581909    0.3162116681   -0.0361138767
      5  C        -0.3701672380    1.5788558805   -0.2391568712
      6  N         0.9609187784    1.6141320614   -0.2596467237
      7  H         2.6636063421    0.4389082302   -0.0980286229
      8  H         1.4058762293   -1.7247818792    0.2492764763
      9  H        -0.9200209705   -1.7431433560   -1.2209917697
     10  H        -2.2064799561    0.3793553914   -0.0330974604
     11  H        -0.9039666910    2.5169882349   -0.3780879045
     12  C        -0.5023567816   -0.7463897094    0.8587360011
     13  H        -0.8871138627   -1.2922334743    1.7089451389

Z-matrix Print:
$molecule
0 2
N 
C  1 1.331556
H  2 1.088327 1 117.736803
C  1 1.331711 2 115.847819 3 179.974382 0
H  4 1.088272 1 117.740811 2 -179.985936 0
C  4 1.482256 1 122.006098 2 -0.009811 0
H  6 1.088759 4 117.109837 1 179.973474 0
C  2 1.482554 1 121.990811 3 179.996562 0
H  8 1.088728 2 117.060944 1 179.898357 0
C  8 1.519639 2 118.118787 1 -32.887654 0
H  10 1.081129 8 132.149600 2 -127.919947 0
C  10 1.458657 8 61.352036 2 106.916111 0
H  12 1.081096 10 134.149191 8 122.390006 0
$end

 
 --------------------------------------------------------------
 
                    Orbital Energies (a.u.)
 --------------------------------------------------------------
 
 Alpha MOs
 -- Occupied --
-14.317 -10.216 -10.216 -10.215 -10.215 -10.215 -10.215  -0.960
 -0.896  -0.750  -0.643  -0.635  -0.589  -0.545  -0.482  -0.471
 -0.465  -0.408  -0.395  -0.365  -0.338  -0.299  -0.298  -0.227
 -0.173
 -- Virtual --
  0.016   0.090   0.114   0.142   0.143   0.153   0.158   0.166
  0.198   0.210   0.231   0.274   0.291   0.304   0.321   0.388
  0.526   0.528   0.540   0.541   0.564   0.589   0.592   0.595
  0.615   0.617   0.632   0.656   0.672   0.735   0.791   0.802
  0.814   0.838   0.854   0.854   0.882   0.889   0.925   0.938
  0.958   0.983   1.144   1.156   1.164   1.197   1.256   1.370
  1.413   1.458   1.488   1.500   1.582   1.617   1.646   1.677
  1.740   1.742   1.860   1.868   1.876   1.916   1.993   2.025
  2.037   2.134   2.160   2.202   2.247   2.286   2.358   2.467
  2.473   2.484   2.526   2.578   2.596   2.609   2.625   2.690
  2.733   2.772   2.804   2.989   3.153   4.017   4.114   4.179
  4.381   4.454   4.461   4.550
 
 Beta MOs
 -- Occupied --
-14.320 -10.216 -10.216 -10.213 -10.213 -10.207 -10.207  -0.955
 -0.894  -0.738  -0.631  -0.630  -0.584  -0.542  -0.476  -0.466
 -0.464  -0.405  -0.377  -0.362  -0.322  -0.298  -0.294  -0.227
 -- Virtual --
 -0.064   0.036   0.091   0.120   0.144   0.144   0.161   0.165
  0.170   0.210   0.213   0.235   0.278   0.300   0.308   0.329
  0.393   0.528   0.534   0.548   0.562   0.566   0.592   0.599
  0.605   0.621   0.639   0.652   0.659   0.678   0.740   0.795
  0.804   0.817   0.842   0.847   0.857   0.883   0.897   0.931
  0.942   0.962   0.992   1.147   1.157   1.167   1.199   1.256
  1.387   1.420   1.458   1.497   1.515   1.583   1.633   1.659
  1.685   1.748   1.750   1.863   1.881   1.885   1.920   1.999
  2.030   2.051   2.143   2.164   2.224   2.256   2.297   2.374
  2.475   2.477   2.497   2.541   2.583   2.597   2.617   2.626
  2.694   2.736   2.776   2.810   2.991   3.157   4.014   4.130
  4.191   4.384   4.459   4.472   4.552
 --------------------------------------------------------------
 
          Ground-State Mulliken Net Atomic Charges

     Atom                 Charge (a.u.)    Spin (a.u.)
  --------------------------------------------------------
      1 C                     0.076468       0.596893
      2 C                    -0.220883      -0.053334
      3 C                    -0.090276       0.094895
      4 C                    -0.220758      -0.053390
      5 C                     0.076511       0.597277
      6 N                    -0.395292      -0.205334
      7 H                     0.135572      -0.032040
      8 H                     0.142075       0.000517
      9 H                     0.154165      -0.004302
     10 H                     0.142092       0.000517
     11 H                     0.135560      -0.032055
     12 C                    -0.089423       0.094645
     13 H                     0.154189      -0.004289
  --------------------------------------------------------
  Sum of atomic charges =     0.000000
  Sum of spin   charges =     1.000000

 -----------------------------------------------------------------
                    Cartesian Multipole Moments
 -----------------------------------------------------------------
    Charge (ESU x 10^10)
                 0.0000
    Dipole Moment (Debye)
         X      -1.5114      Y      -2.5390      Z       0.4084
       Tot       2.9829
    Quadrupole Moments (Debye-Ang)
        XX     -37.7977     XY      -3.6424     YY     -41.8729
        XZ       0.5212     YZ       0.1375     ZZ     -41.2844
    Octopole Moments (Debye-Ang^2)
       XXX     -10.7792    XXY     -10.5489    XYY     -13.7035
       YYY     -30.8868    XXZ       1.5952    XYZ       1.1250
       YYZ       1.5893    XZZ      -6.5808    YZZ     -10.7567
       ZZZ       5.1788
    Hexadecapole Moments (Debye-Ang^3)
      XXXX    -271.1016   XXXY     -26.7046   XXYY    -110.6072
      XYYY     -44.4347   YYYY    -345.6458   XXXZ       4.9129
      XXYZ       7.0709   XYYZ       6.3368   YYYZ      21.8954
      XXZZ     -67.4082   XYZZ      -4.0159   YYZZ     -70.5700
      XZZZ       2.8160   YZZZ      18.1732   ZZZZ     -96.2096
 -----------------------------------------------------------------
Archival summary:
1\1\c8-73\OPT\ProcedureUnspecified\6-31G*\166(2)\hpark21\ThuMar300:07:522022ThuMar300:07:522022\0\\#,OPT,ProcedureUnspecified,6-31G*,\\0,2\N\C,1,1.33156\H,2,1.08833,1,117.737\C,1,1.33171,2,115.848,3,179.974,0\H,4,1.08827,1,117.741,2,-179.986,0\C,4,1.48226,1,122.006,2,-0.00981063,0\H,6,1.08876,4,117.11,1,179.973,0\C,2,1.48255,1,121.991,3,179.997,0\H,8,1.08873,2,117.061,1,179.898,0\C,8,1.51964,2,118.119,1,-32.8877,0\H,10,1.08113,8,132.15,2,-127.92,0\C,10,1.45866,8,61.352,2,106.916,0\H,12,1.0811,10,134.149,8,122.39,0\\\@

 Total job time:  27.01s(wall), 77.30s(cpu) 
 Thu Mar  3 00:07:52 2022

        *************************************************************
        *                                                           *
        *  Thank you very much for using Q-Chem.  Have a nice day.  *
        *                                                           *
        *************************************************************


