13   
From optimize.out: Frame 1 / 2, Energy=    -286.8516735490
C        1.0918431871    0.2799420557    0.5084593209
C        0.9055643285   -0.9931703433   -0.3326926237
C       -0.4025144818   -1.0756662791   -0.6258838152
C       -1.0814473266    0.1439411724    0.0311892415
C       -0.4421382406    1.3816098886   -0.6301732424
N        0.8049740084    1.4811062327   -0.3790758163
H        2.0381411306    0.3877494274    1.0364811344
H        1.7037857060   -1.6606120475   -0.6384633482
H       -0.9124601364   -1.8187001688   -1.2293897903
H       -2.1680275795    0.1208834678    0.1152858240
H       -0.9691858428    2.0914680144   -1.2654672980
C       -0.2113110014    0.1769689155    1.2911729625
H       -0.3572237511   -0.5155203361    2.1185574514
13   
From optimize.out: Frame 24 / 25, Energy=    -286.8516735490
C        1.0959555162    0.2881588433    0.5026923152
C        0.8987287001   -0.9965392466   -0.3237243676
C       -0.4061681876   -1.0834928100   -0.6184800728
C       -1.0784248963    0.1491409396    0.0405753494
C       -0.4476645541    1.3876966183   -0.6252024738
N        0.8007191081    1.4908833980   -0.3638486778
H        2.0438729072    0.3806798365    1.0309292833
H        1.7013623913   -1.6631821678   -0.6186205988
H       -0.9109204866   -1.8118663422   -1.2441632100
H       -2.1650850304    0.1244715693    0.1211579783
H       -0.9721066233    2.0819111228   -1.2780434396
C       -0.2168386661    0.1739527753    1.2746187457
H       -0.3434301783   -0.5218145365    2.1021091686
13   
From optimize.out: Frame 22 / 25, Energy=    -286.8516371046
C        1.0935464361    0.2951711290    0.4944458656
C        0.8915682968   -0.9918274522   -0.3226088914
C       -0.4038432796   -1.0886656884   -0.6441607774
C       -1.0834906927    0.1646285683    0.0707774174
C       -0.4421899392    1.3723576305   -0.6259134025
N        0.8194074081    1.4671507509   -0.3954457692
H        2.0431643600    0.3758544094    1.0213966704
H        1.7048263006   -1.6439815973   -0.6177010359
H       -0.8931192267   -1.8229785395   -1.2751836985
H       -2.1709826010    0.1209761432    0.1272771036
H       -0.9701677622    2.0844303566   -1.2548064998
C       -0.2205870555    0.1577799501    1.2801134794
H       -0.3681322446   -0.4908956607    2.1418095384
13   
From optimize.out: Frame 22 / 25, Energy=    -286.8516371046
C        1.0800837185    0.2901156241    0.5084131380
C        0.8833385880   -0.9580505875   -0.3553593543
C       -0.4136270424   -1.0824485797   -0.6421326728
C       -1.0689956646    0.1630471662    0.0919391622
C       -0.4196581973    1.3391291740   -0.6300768779
N        0.8473359752    1.4468526466   -0.3809515575
H        2.0306526674    0.3610325880    1.0339114244
H        1.7069756006   -1.5757493997   -0.6898046521
H       -0.9200670703   -1.8125316334   -1.2536101648
H       -2.1536159502    0.0870473556    0.1154369180
H       -0.9440344947    2.0380593900   -1.2747241017
C       -0.2255424159    0.1530780475    1.2922890612
H       -0.4028457142   -0.4495817915    2.1846696773
13   
From optimize.out: Frame 20 / 25, Energy=    -286.8514458014
C        1.0899583050    0.2768504347    0.4957040719
C        0.8795286166   -0.9531335066   -0.3727190289
C       -0.4140057914   -1.0572415620   -0.6404164256
C       -1.0412312033    0.1550705117    0.0836876018
C       -0.4167736842    1.3353857852   -0.6139373465
N        0.8652633259    1.4349384963   -0.3699142164
H        2.0116906521    0.3583571668    1.0702012405
H        1.6972967793   -1.5710404891   -0.7165671985
H       -0.9729807417   -1.7764579817   -1.2068807140
H       -2.1158803217   -0.0050796169    0.0629304633
H       -0.9522178111    2.0312813265   -1.2514601107
C       -0.2258634696    0.1702170581    1.2707397537
H       -0.4047846557   -0.3991476230    2.1886319094
13   
From optimize.out: Frame 18 / 25, Energy=    -286.8512065182
C        1.1060055715    0.2703105384    0.4819037122
C        0.8801658537   -0.9954387295   -0.3451095567
C       -0.4002187167   -1.0996989361   -0.6595604015
C       -1.0551324020    0.2080545531    0.0809380166
C       -0.4444789786    1.3922222897   -0.5952193339
N        0.8413746617    1.4566951847   -0.3543308766
H        2.0347000430    0.3595024017    1.0444119743
H        1.7010280830   -1.6234124474   -0.6660268690
H       -0.9527492757   -1.8395529812   -1.2135568120
H       -2.1205592061   -0.0058281410    0.0431050437
H       -0.9778006303    2.0994519496   -1.2240458325
C       -0.2305143593    0.1837969281    1.2502282447
H       -0.3818206441   -0.4061026101    2.1572626907
13   
From optimize.out: Frame 17 / 25, Energy=    -286.8504983628
C        1.1150933082    0.2558333094    0.4668897631
C        0.9058788822   -1.0138178730   -0.3597399528
C       -0.3741453071   -1.1485312496   -0.6324943483
C       -1.0784969644    0.2507215624    0.0728216541
C       -0.4551955732    1.4303567726   -0.5820615286
N        0.8364226829    1.4564737136   -0.3519131954
H        2.0425950785    0.3525191275    1.0304504524
H        1.7328718112   -1.6287297146   -0.6932869911
H       -0.9385886699   -1.9120088605   -1.1421250551
H       -2.1389017861    0.0180278510    0.0142532120
H       -0.9795810857    2.1660642368   -1.1848953354
C       -0.2569259708    0.1845907599    1.2306450077
H       -0.4110264057   -0.4114996354    2.1314563174
13   
From optimize.out: Frame 17 / 25, Energy=    -286.8504983628
C        1.1210829485    0.2501392266    0.4542015685
C        0.9327806468   -1.0126067155   -0.3817764783
C       -0.3512438552   -1.1718568531   -0.6044972646
C       -1.0991245088    0.2726567509    0.0730405939
C       -0.4524495712    1.4376970922   -0.5802781067
N        0.8438910107    1.4432166096   -0.3669327665
H        2.0435539264    0.3548545955    1.0249558399
H        1.7643886019   -1.6139520733   -0.7321020058
H       -0.9339558573   -1.9496058876   -1.0720926683
H       -2.1591631114    0.0497716980    0.0037550395
H       -0.9697362425    2.1985537728   -1.1580244302
C       -0.2828359635    0.1653471975    1.2197737364
H       -0.4571880245   -0.4242154135    2.1199769422
13   
From optimize.out: Frame 16 / 25, Energy=    -286.8501894988
C        1.1339767621    0.2794465282    0.4417055713
C        0.9387954097   -0.9945264627   -0.3684907070
C       -0.3428493689   -1.1264205076   -0.6332412577
C       -1.1097516955    0.2670079224    0.1066089521
C       -0.4377424791    1.3927057661   -0.6007386928
N        0.8601998690    1.4205802653   -0.4201987951
H        2.0507483142    0.3995003521    1.0201553584
H        1.7686099316   -1.6108954010   -0.6986258196
H       -0.9434332162   -1.8960008622   -1.0911888349
H       -2.1755108184    0.0840733520    0.0545215759
H       -0.9599940689    2.1570340069   -1.1683700867
C       -0.2879241282    0.0968364587    1.2251540117
H       -0.4951245114   -0.4693414183    2.1327087246
13   
From optimize.out: Frame 16 / 25, Energy=    -286.8501894988
C        1.1234317900    0.2922904401    0.4449157994
C        0.9229126228   -0.9799208939   -0.3653919022
C       -0.3498032377   -1.1009383051   -0.6817171265
C       -1.1037802297    0.2587682806    0.1363165530
C       -0.4278594322    1.3559941745   -0.6147869134
N        0.8715078940    1.4083669329   -0.4360650765
H        2.0388529896    0.4032728347    1.0276632004
H        1.7557189477   -1.6011999770   -0.6790981275
H       -0.9450082201   -1.8678949994   -1.1462831965
H       -2.1669037817    0.0739693221    0.0851972702
H       -0.9542453282    2.1197252683   -1.1777417853
C       -0.2749348346    0.0869281090    1.2413051436
H       -0.4898891799   -0.4493611867    2.1656861614
13   
From optimize.out: Frame 15 / 25, Energy=    -286.8491340664
C        1.0915047185    0.2846225979    0.4613766650
C        0.8923808579   -0.9712163069   -0.3778691085
C       -0.3669339961   -1.1053341566   -0.7367297664
C       -1.0857026447    0.2536660261    0.1569098914
C       -0.4241573278    1.3357301730   -0.6193689841
N        0.8771539746    1.4064549984   -0.4132579748
H        2.0093268211    0.3642954689    1.0455862061
H        1.7335730960   -1.5832959705   -0.6852787516
H       -0.9371494767   -1.8787653530   -1.2152578762
H       -2.1378704098    0.0257497123    0.0875336804
H       -0.9516701216    2.0997869621   -1.1790753770
C       -0.2505751458    0.1358947297    1.2636944027
H       -0.4498803457   -0.3675888814    2.2117369930
13   
From optimize.out: Frame 14 / 25, Energy=    -286.8441990864
C        1.0527596429    0.2864288800    0.4584794220
C        0.8692044287   -0.9743856554   -0.3825214944
C       -0.3766695067   -1.1443283759   -0.7780126367
C       -1.0730212020    0.2746269105    0.1658394957
C       -0.4250743932    1.3546820436   -0.6264785436
N        0.8781255956    1.4189357219   -0.4126953979
H        1.9638082939    0.3484503485    1.0555670273
H        1.7220023331   -1.5816698036   -0.6634954595
H       -0.9085690913   -1.9496436132   -1.2420661788
H       -2.1234010181    0.0376619563    0.0942361669
H       -0.9506774539    2.1347813400   -1.1625638097
C       -0.2215758896    0.1439226107    1.2680348895
H       -0.4069117394   -0.3494623634    2.2256765194
13   
From optimize.out: Frame 14 / 25, Energy=    -286.8441990864
C        1.0308547847    0.2979663832    0.4382721433
C        0.8666179374   -0.9859590636   -0.3759876617
C       -0.3734481101   -1.1905393755   -0.7840988149
C       -1.0732720989    0.3075585164    0.1604087822
C       -0.4290235214    1.3971623773   -0.6330511631
N        0.8749490478    1.4366452421   -0.4365620719
H        1.9300841473    0.3664502393    1.0519408242
H        1.7271459512   -1.5964688667   -0.6254481910
H       -0.8775811468   -2.0326434416   -1.2149926807
H       -2.1319688389    0.1014651487    0.1042541854
H       -0.9513132737    2.1988013119   -1.1396294200
C       -0.2051145611    0.1045314294    1.2531033112
H       -0.3879303177   -0.4049699009    2.2017907569
13   
From optimize.out: Frame 13 / 25, Energy=    -286.8367281086
C        1.0164261841    0.3063520090    0.4184046829
C        0.8673381927   -0.9981466713   -0.3711649950
C       -0.3686606317   -1.2363129202   -0.7849812053
C       -1.0768611509    0.3386812899    0.1527321233
C       -0.4339601893    1.4389529623   -0.6364590609
N        0.8704548338    1.4531814681   -0.4553586553
H        1.9075020903    0.3807491777    1.0431737782
H        1.7343398800   -1.6103677852   -0.5967239653
H       -0.8467016102   -2.1136930589   -1.1825601459
H       -2.1429440746    0.1603162610    0.1061395056
H       -0.9521159377    2.2623377691   -1.1134985956
C       -0.1974251481    0.0705424309    1.2396709826
H       -0.3773924384   -0.4525929325    2.1806255507
13   
From optimize.out: Frame 12 / 25, Energy=    -286.8326629820
C        1.0498757266    0.2941948111    0.4037012088
C        0.8881304348   -1.0121878726   -0.3775371063
C       -0.3550585164   -1.2722976160   -0.7539630453
C       -1.1002677508    0.3539229637    0.1325403423
C       -0.4441569383    1.4700341526   -0.6200198681
N        0.8586166746    1.4599843377   -0.4402847569
H        1.9564420123    0.3702341664    1.0043910654
H        1.7529298734   -1.6166107729   -0.6293736941
H       -0.8212861497   -2.1702340239   -1.1224605568
H       -2.1669070315    0.1797879574    0.0580905682
H       -0.9538121700    2.3130417558   -1.0719209518
C       -0.2444743506    0.0748136836    1.2374788883
H       -0.4200318145   -0.4446835430    2.1793579064
13   
From optimize.out: Frame 11 / 25, Energy=    -286.8184553277
C        1.0924976536    0.2776401112    0.3938410972
C        0.9113432813   -1.0239014227   -0.3863588655
C       -0.3413344609   -1.2973936953   -0.7186711483
C       -1.1254585391    0.3605789279    0.1123605088
C       -0.4539887149    1.4909470732   -0.6003200179
N        0.8467833178    1.4620594273   -0.4169141870
H        2.0193003461    0.3535297090    0.9636071264
H        1.7714661160   -1.6189472875   -0.6759341509
H       -0.8030702748   -2.2065753159   -1.0656417073
H       -2.1902243358    0.1818265416    0.0032458048
H       -0.9554539711    2.3487284403   -1.0338637029
C       -0.3001566680    0.0911417751    1.2395543857
H       -0.4717037502   -0.4196342841    2.1850948570
13   
From optimize.out: Frame 11 / 25, Energy=    -286.8184553277
C        1.1163295781    0.2639538078    0.3934696950
C        0.9221463474   -1.0290237919   -0.3798035679
C       -0.3341107461   -1.3036876867   -0.6890550007
C       -1.1482525232    0.3622116941    0.0882561748
C       -0.4644377238    1.5033958916   -0.5906872328
N        0.8344579967    1.4582592202   -0.3917570604
H        2.0538403024    0.3377597741    0.9475839618
H        1.7768837757   -1.6225310865   -0.6908096608
H       -0.7916333112   -2.2236851757   -1.0140788547
H       -2.2132182578    0.1787775013   -0.0407834695
H       -0.9565997288    2.3785357527   -0.9997833814
C       -0.3328995528    0.0989268957    1.2077459804
H       -0.4625061567   -0.4028927967    2.1597024162
13   
From optimize.out: Frame 10 / 25, Energy=    -286.8134331808
C        1.1058357775    0.2571584862    0.4085159877
C        0.9110902409   -1.0226372639   -0.3494388745
C       -0.3385941725   -1.2785179601   -0.6734906470
C       -1.1634223223    0.3554465690    0.0617608270
C       -0.4741688488    1.5001008778   -0.5989298518
N        0.8233615827    1.4455747358   -0.3678419796
H        2.0368742859    0.3260933605    0.9742666937
H        1.7601799737   -1.6275446742   -0.6519616534
H       -0.7930465885   -2.2068593613   -0.9794944107
H       -2.2319108014    0.1679955441   -0.0600745712
H       -0.9567544288    2.3939303159   -0.9777389392
C       -0.3231370983    0.0916068097    1.1263256249
H       -0.3563076001   -0.4023474394    2.0881017942
13   
From optimize.out: Frame 9 / 25, Energy=    -286.8106455721
C        1.0883677148    0.2537396066    0.4155328227
C        0.8950323790   -1.0075742872   -0.3350587082
C       -0.3451132350   -1.2280755449   -0.6923870471
C       -1.1565718349    0.3316815757    0.0602949016
C       -0.4729697834    1.4749956777   -0.6101111472
N        0.8258679690    1.4304349824   -0.3574406816
H        2.0033141456    0.3138777786    1.0067312311
H        1.7353282983   -1.6311233692   -0.6202369788
H       -0.8027584592   -2.1580885669   -0.9917370086
H       -2.2259723615    0.1310732688   -0.0554467859
H       -0.9571814499    2.3722809666   -0.9781204976
C       -0.3126295133    0.0919055199    1.0896002251
H       -0.2747138695   -0.3751276082    2.0683796745
13   
From optimize.out: Frame 9 / 25, Energy=    -286.8106455721
C        1.0784510653    0.2550602717    0.4059680486
C        0.8858328394   -0.9923955365   -0.3526333517
C       -0.3483261918   -1.1805521184   -0.7403306300
C       -1.1280120929    0.3018661199    0.0906941952
C       -0.4592032333    1.4400697368   -0.6153567846
N        0.8433901531    1.4223403605   -0.3690983760
H        1.9776634336    0.3069967169    1.0203120005
H        1.7184108758   -1.6306973267   -0.6248203906
H       -0.8148400696   -2.1036117704   -1.0512914378
H       -2.1940073612    0.0840921066   -0.0287457456
H       -0.9578894995    2.3200188228   -1.0034707977
C       -0.3149570326    0.1041705479    1.1371325991
H       -0.2865128864   -0.3273579312    2.1316406707
13   
From optimize.out: Frame 8 / 25, Energy=    -286.7931856722
C        1.0685343749    0.2563809423    0.3964032348
C        0.8766332617   -0.9772167230   -0.3702080680
C       -0.3515391619   -1.1330284954   -0.7882744112
C       -1.0994522328    0.2720505408    0.1210936144
C       -0.4454366262    1.4051436515   -0.6206024437
N        0.8609124096    1.4142457052   -0.3807561187
H        1.9520126155    0.3001156268    1.0338928262
H        1.7014933834   -1.6302712824   -0.6294038213
H       -0.8269217300   -2.0491347487   -1.1108461132
H       -2.1620422286    0.0371107501   -0.0020445949
H       -0.9585975519    2.2677564628   -1.0288212027
C       -0.3172845616    0.1164356266    1.1846651696
H       -0.2983119522   -0.2795880566    2.1949019285
13   
From optimize.out: Frame 8 / 25, Energy=    -286.7931856722
C        1.0589078833    0.2579582001    0.3868091669
C        0.8673879584   -0.9620191035   -0.3875063750
C       -0.3550821157   -1.0859152780   -0.8351517743
C       -1.0707494696    0.2424081024    0.1508630350
C       -0.4316124001    1.3708542077   -0.6257695472
N        0.8782985911    1.4066659536   -0.3922150089
H        1.9269855846    0.2935757957    1.0469637159
H        1.6844802242   -1.6297760994   -0.6340453455
H       -0.8392165231   -1.9953663148   -1.1687897319
H       -2.1298535708   -0.0097672977    0.0236324819
H       -0.9592684206    2.2162452919   -1.0538330993
C       -0.3197529084    0.1281667461    1.2317064485
H       -0.3105248333   -0.2330302041    2.2573360339
13   
From optimize.out: Frame 6 / 25, Energy=    -286.7739610548
C        1.0742075103    0.2806548511    0.3756654417
C        0.8551962290   -0.9466484933   -0.3803219210
C       -0.3856475661   -1.0771069743   -0.7893825042
C       -1.0328210476    0.2298159622    0.1257111254
C       -0.4142735684    1.3924486341   -0.6239557698
N        0.8828233788    1.4424468497   -0.3861505455
H        1.9559328045    0.3159120090    1.0165850590
H        1.6610901881   -1.6235965920   -0.6430778937
H       -0.8680526390   -2.0052196280   -1.0879441226
H       -2.0820759466   -0.0438107427   -0.0378953944
H       -0.9567967425    2.2316804084   -1.0485129506
C       -0.3336656941    0.0945796671    1.2337464076
H       -0.3559169064   -0.2911559512    2.2455330682
13   
From optimize.out: Frame 6 / 25, Energy=    -286.7739610548
C        1.0903172923    0.3016536602    0.3669680420
C        0.8454521320   -0.9350113251   -0.3704205474
C       -0.4136670965   -1.0774604974   -0.7378837341
C       -1.0024963498    0.2234260178    0.0966776596
C       -0.4005392722    1.4189720366   -0.6213098001
N        0.8838880493    1.4773917845   -0.3783673734
H        1.9876587316    0.3380570055    0.9857028141
H        1.6422635691   -1.6178913706   -0.6507008104
H       -0.8928499151   -2.0242928379   -1.0015237010
H       -2.0431510798   -0.0671682915   -0.1002976228
H       -0.9543558815    2.2555760488   -1.0389496503
C       -0.3462631660    0.0609332216    1.2270580000
H       -0.3962570132   -0.3541854526    2.2230467237
13   
From optimize.out: Frame 5 / 25, Energy=    -286.7735619684
C        1.1076449384    0.3199876327    0.3561000314
C        0.8394980538   -0.9267077981   -0.3633662890
C       -0.4377228923   -1.0846724222   -0.6877201137
C       -0.9764987269    0.2215701658    0.0701791865
C       -0.3880974969    1.4480685150   -0.6171137001
N        0.8833561804    1.5113967795   -0.3705122553
H        2.0214031154    0.3586223750    0.9509253943
H        1.6284954808   -1.6134433166   -0.6625586989
H       -0.9101602796   -2.0519829715   -0.9162893298
H       -2.0098018891   -0.0823298887   -0.1593173826
H       -0.9514092330    2.2836742132   -1.0269908289
C       -0.3639052334    0.0297148981    1.2233425888
H       -0.4428020176   -0.4138981823    2.2033213971
13   
From optimize.out: Frame 5 / 25, Energy=    -286.7735619684
C        1.1252108209    0.3183518028    0.3378869977
C        0.8549886673   -0.9383269217   -0.3733141465
C       -0.4331866318   -1.1244716345   -0.6617302613
C       -0.9816230545    0.2435479638    0.0658092996
C       -0.3865688295    1.4802660030   -0.6064394851
N        0.8748418772    1.5288364805   -0.3650050977
H        2.0538045728    0.3639972880    0.9082486294
H        1.6453623010   -1.6169636476   -0.6919786004
H       -0.8831897483   -2.1141747750   -0.8665920557
H       -2.0165031296   -0.0503267890   -0.1806292194
H       -0.9468942969    2.3235532220   -1.0069137209
C       -0.4012506334    0.0217104388    1.2361187469
H       -0.5049919151   -0.4359994311    2.2045389134
13   
From optimize.out: Frame 4 / 25, Energy=    -286.7509367976
C        1.1398727781    0.3045560462    0.3182617497
C        0.8811507710   -0.9603418155   -0.3921282553
C       -0.4116214891   -1.1776617965   -0.6553204866
C       -1.0052505809    0.2765586685    0.0759881845
C       -0.3921062975    1.5088010027   -0.5935832666
N        0.8628328313    1.5329230635   -0.3619180374
H        2.0797388600    0.3589722831    0.8680652300
H        1.6783883542   -1.6248377575   -0.7272300417
H       -0.8333121863   -2.1870593671   -0.8476755004
H       -2.0469973345    0.0055058842   -0.1747400587
H       -0.9421866323    2.3638437809   -0.9852664552
C       -0.4443847407    0.0295626133    1.2569515420
H       -0.5661243333   -0.4308226058    2.2185953958
13   
From optimize.out: Frame 3 / 25, Energy=    -286.7228487512
C        1.1545344329    0.2907605741    0.2986369064
C        0.9073123354   -0.9823562554   -0.4109419762
C       -0.3900567910   -1.2308508618   -0.6489108441
C       -1.0288776201    0.3095686925    0.0861668596
C       -0.3976436514    1.5373354140   -0.5807273133
N        0.8508240331    1.5370095622   -0.3588310408
H        2.1056726124    0.3539473819    0.8278826591
H        1.7114137264   -1.6327117050   -0.7624807560
H       -0.7834356528   -2.2599424564   -0.8287593352
H       -2.0774909106    0.0613374061   -0.1688510194
H       -0.9374790648    2.4041335091   -0.9636196360
C       -0.4875179586    0.0374146260    1.2777839076
H       -0.6272554910   -0.4256458873    2.2326515883
13   
From optimize.out: Frame 3 / 25, Energy=    -286.7228487512
C        1.1691957988    0.2769653737    0.2790124496
C        0.9334733843   -1.0043702616   -0.4297553264
C       -0.3684925177   -1.2840388792   -0.6425013279
C       -1.0525041938    0.3425780663    0.0963453341
C       -0.4031808961    1.5658692631   -0.5678716132
N        0.8388154714    1.5410959804   -0.3557441050
H        2.1316058539    0.3489225796    0.7877008799
H        1.7444384480   -1.6405854974   -0.7977307759
H       -0.7335601018   -2.3328241098   -0.8098435426
H       -2.1079838859    0.1171678282   -0.1629620961
H       -0.9327715900    2.4444224435   -0.9419732432
C       -0.5306503267    0.0452664840    1.2986158627
H       -0.6883854444   -0.4204692708    2.2467075039
13   
From optimize.out: Frame 2 / 25, Energy=    -286.6649202496
C        1.1829513173    0.2617356654    0.2590352649
C        0.9591174574   -1.0263509902   -0.4516971267
C       -0.3460506038   -1.3359724788   -0.6374086569
C       -1.0738830266    0.3733800878    0.1077725326
C       -0.4080136592    1.5926186296   -0.5540323404
N        0.8265823814    1.5441872750   -0.3503154289
H        2.1557419791    0.3420880965    0.7469819020
H        1.7752515133   -1.6483566565   -0.8377292724
H       -0.6817613684   -2.4029776923   -0.7933292016
H       -2.1349421892    0.1691507321   -0.1570387119
H       -0.9276037113    2.4816935241   -0.9209891799
C       -0.5753267579    0.0566325727    1.3232666191
H       -0.7520633319   -0.4078287654    2.2654836001
13   
From optimize.out: Frame 2 / 25, Energy=    -286.6649202496
C        1.1955007825    0.2446976162    0.2386579779
C        0.9840243931   -1.0482284776   -0.4776135850
C       -0.3225383533   -1.3861456893   -0.6340283439
C       -1.0923041980    0.4012506785    0.1207788950
C       -0.4119245648    1.6169930767   -0.5389624983
N        0.8140932806    1.5459866399   -0.3418814253
H        2.1774940622    0.3329383598    0.7056818254
H        1.8031275662   -1.6559741196   -0.8837422796
H       -0.6276243901   -2.4694202615   -0.7799574184
H       -2.1572677183    0.2160286979   -0.1510871379
H       -0.9218562155    2.5149700880   -0.9009169335
C       -0.6218720160    0.0724998976    1.3527749700
H       -0.8188526287   -0.3855965066    2.2902959536
13   
C5H5N+CH->C6H6N atoms 1-13 frame 148 charge +0.000 sz -1.000 sz^2 1.424
C        1.2077467345    0.2272796046    0.2182314186
C        1.0087097080   -1.0700363971   -0.5043893476
C       -0.2988293406   -1.4358091400   -0.6310487110
C       -1.1100069339    0.4283890650    0.1341209889
C       -0.4156153808    1.6407705627   -0.5236413748
N        0.8015715009    1.5474852754   -0.3327742962
H        2.1986525817    0.3232756158    0.6643347101
H        1.8302701204   -1.6635402945   -0.9310413599
H       -0.5730633759   -2.5348706186   -0.7673359910
H       -2.1784815949    0.2616350394   -0.1451415538
H       -0.9159875326    2.5472587633   -0.8810963296
C       -0.6687493169    0.0893686190    1.3833380485
H       -0.8862171698   -0.3612060950    2.3164437978
13   
C5H5N+CH->C6H6N atoms 1-13 frame 148 charge +0.000 sz -1.000 sz^2 1.424
C        1.2199924851    0.2098618794    0.1978051950
C        1.0333946172   -1.0918439580   -0.5311646699
C       -0.2751207176   -1.4854717742   -0.6280691272
C       -1.1277093788    0.4555270053    0.1474628634
C       -0.4193061361    1.6645476579   -0.5083205033
N        0.7890499270    1.5489838863   -0.3236673168
H        2.2198107534    0.3136130305    0.6229882746
H        1.8574122284   -1.6711063451   -0.9783396626
H       -0.5185032587   -2.6003198997   -0.7547147711
H       -2.1996951229    0.3072406311   -0.1391960675
H       -0.9101189462    2.5795469077   -0.8612760516
C       -0.7156258472    0.1062370632    1.4139006247
H       -0.9535806035   -0.3368160843    2.3425912122
13   
C5H5N+CH->C6H6N atoms 1-13 frame 149 charge -0.000 sz -1.000 sz^2 1.377
C        1.2160879854    0.1890898696    0.1853755180
C        1.0475834002   -1.1113001369   -0.5590545187
C       -0.2605901873   -1.5222598960   -0.6568863725
C       -1.1315382567    0.4738624523    0.1689741734
C       -0.4228838767    1.6775607396   -0.4986490188
N        0.7764322918    1.5465910756   -0.3123892679
H        2.2169911895    0.2932470363    0.6082324171
H        1.8786296370   -1.6790890897   -1.0126278040
H       -0.4787876717   -2.6479438489   -0.7861318857
H       -2.2054254524    0.3281066783   -0.1197762678
H       -0.9100521293    2.5942928995   -0.8551593624
C       -0.7389006362    0.1408681209    1.4534078594
H       -0.9875462937   -0.2830259007    2.3846845300
13   
C5H5N+CH->C6H6N atoms 1-13 frame 149 charge -0.000 sz -1.000 sz^2 1.377
C        1.1956572892    0.1649785139    0.1811954634
C        1.0509537825   -1.1282568825   -0.5879561256
C       -0.2555294506   -1.5456878729   -0.7181421479
C       -1.1211371451    0.4830951401    0.1987540473
C       -0.4263291722    1.6794864741   -0.4948098624
N        0.7637750499    1.5402230252   -0.2989397215
H        2.1896218608    0.2620113266    0.6207848346
H        1.8936788818   -1.6874614975   -1.0334284913
H       -0.4544639670   -2.6770855150   -0.8625156698
H       -2.1952680177    0.3235321843   -0.0866438159
H       -0.9159289834    2.5909999114   -0.8631091976
C       -0.7378892298    0.1935339002    1.5018939383
H       -0.9871408983   -0.1993687080    2.4429167486
13   
C5H5N+CH->C6H6N atoms 1-13 frame 150 charge +0.000 sz -1.000 sz^2 1.321
C        1.1751030015    0.1409368620    0.1771452285
C        1.0541639245   -1.1450999572   -0.6167342929
C       -0.2506189781   -1.5688266830   -0.7795402939
C       -1.1105955448    0.4921626923    0.2285030955
C       -0.4297563779    1.6812552264   -0.4910666741
N        0.7511772481    1.5338321330   -0.2855249389
H        2.1620548146    0.2307786518    0.6336419572
H        1.9085745680   -1.6957994344   -1.0539507619
H       -0.4304607678   -2.7058426360   -0.9391372223
H       -2.1849468321    0.3186400943   -0.0534854728
H       -0.9218572572    2.5874819613   -0.8712089554
C       -0.7365587402    0.2461906624    1.5502700360
H       -0.9862790586   -0.1157095731    2.5010882948
13   
C5H5N+CH->C6H6N atoms 1-13 frame 151 charge -0.000 sz -1.000 sz^2 1.275
C        1.1541151461    0.1169305485    0.1734174592
C        1.0568960465   -1.1611946323   -0.6469379595
C       -0.2457204620   -1.5925411967   -0.8404011805
C       -1.0996727424    0.5011654858    0.2602072452
C       -0.4325194965    1.6815791117   -0.4870944051
N        0.7399236390    1.5272513074   -0.2737976424
H        2.1336998485    0.2003344422    0.6463589372
H        1.9235275965   -1.7014041822   -1.0760835163
H       -0.4065509319   -2.7327479826   -1.0152652119
H       -2.1742093697    0.3166371067   -0.0224635645
H       -0.9280135948    2.5807111390   -0.8802920208
C       -0.7342052816    0.2959994038    1.6002571462
H       -0.9872703977   -0.0327205512    2.5620947132
13   
C5H5N+CH->C6H6N atoms 1-13 frame 151 charge -0.000 sz -1.000 sz^2 1.275
C        1.1354210545    0.1011121079    0.1740720516
C        1.0529893917   -1.1642610906   -0.6830719962
C       -0.2415801813   -1.6159614876   -0.8770231942
C       -1.0890051515    0.5066042549    0.3031657612
C       -0.4288941469    1.6657007587   -0.4824872907
N        0.7478639708    1.5201578433   -0.2846057750
H        2.1057227497    0.1878763283    0.6546953190
H        1.9341765278   -1.6753266261   -1.1068982549
H       -0.3921851520   -2.7281475866   -1.0638602642
H       -2.1604734647    0.3458486147   -0.0226320426
H       -0.9351656657    2.5399897937   -0.8979334662
C       -0.7209806114    0.3008343101    1.6506654165
H       -1.0078893211    0.0155727794    2.6359137357
13   
C5H5N+CH->C6H6N atoms 1-13 frame 152 charge +0.000 sz -1.000 sz^2 1.036
C        1.1202942870    0.0936993446    0.1781226125
C        1.0421838936   -1.1563878141   -0.7218550636
C       -0.2358818331   -1.6396196001   -0.8936032440
C       -1.0815145793    0.5093432398    0.3537997067
C       -0.4238547043    1.6362568463   -0.4784905997
N        0.7739318488    1.5118642553   -0.3145782744
H        2.0800844208    0.1899411832    0.6632319270
H        1.9407990194   -1.6237000908   -1.1391232737
H       -0.3899705985   -2.6946898883   -1.0926892467
H       -2.1404091258    0.3976647422   -0.0427899819
H       -0.9443092978    2.4724980644   -0.9240272994