13   
From optimize.out: Frame 24 / 25, Energy=    -286.8516735490
C        1.0918431871    0.2799420557    0.5084593209
C        0.9055643285   -0.9931703433   -0.3326926237
C       -0.4025144818   -1.0756662791   -0.6258838152
C       -1.0814473266    0.1439411724    0.0311892415
C       -0.4421382406    1.3816098886   -0.6301732424
N        0.8049740084    1.4811062327   -0.3790758163
H        2.0381411306    0.3877494274    1.0364811344
H        1.7037857060   -1.6606120475   -0.6384633482
H       -0.9124601364   -1.8187001688   -1.2293897903
H       -2.1680275795    0.1208834678    0.1152858240
H       -0.9691858428    2.0914680144   -1.2654672980
C       -0.2113110014    0.1769689155    1.2911729625
H       -0.3572237511   -0.5155203361    2.1185574514
13   
From optimize.out: Frame 22 / 25, Energy=    -286.8516371046
C        1.0928120032    0.2842130326    0.5013989889
C        0.9090258547   -0.9901817470   -0.3406470781
C       -0.4020020891   -1.0706465300   -0.6237694309
C       -1.0795271969    0.1445110763    0.0370972912
C       -0.4407841462    1.3779209893   -0.6370688772
N        0.8075092856    1.4768935400   -0.3943659165
H        2.0292150475    0.3940749642    1.0467406771
H        1.7054006005   -1.6629851969   -0.6383231585
H       -0.9209286137   -1.8162036260   -1.2150609925
H       -2.1664452992    0.1093884993    0.1097752139
H       -0.9624948064    2.1029157259   -1.2587563334
C       -0.2110236139    0.1774936353    1.2983650582
H       -0.3607570261   -0.5273943631    2.1146145578
13   
From optimize.out: Frame 22 / 25, Energy=    -286.8516371046
C        1.0924664383    0.2847049696    0.5117210013
C        0.9001527287   -0.9905828005   -0.3311067172
C       -0.4097104325   -1.0831684234   -0.6064938328
C       -1.0753025103    0.1436638973    0.0333646097
C       -0.4447347999    1.3871612174   -0.6274058255
N        0.7974070668    1.4980496486   -0.3456065643
H        2.0432875472    0.3789820640    1.0343102337
H        1.7015382597   -1.6542758248   -0.6356932127
H       -0.9206806989   -1.8092763357   -1.2287017387
H       -2.1616159510    0.1265620515    0.1202104800
H       -0.9651565773    2.0697749181   -1.2966950906
C       -0.2165923836    0.1786375309    1.2774830237
H       -0.3410586873   -0.5302329129    2.0946136335
13   
From optimize.out: Frame 20 / 25, Energy=    -286.8514458014
C        1.1032973654    0.2954266144    0.4836938137
C        0.8957322055   -1.0090730249   -0.3081901493
C       -0.3987144626   -1.0841753965   -0.6437019706
C       -1.0849951385    0.1606659384    0.0557484596
C       -0.4538294534    1.3888232291   -0.6205660981
N        0.8076884300    1.4758039037   -0.4022344202
H        2.0451046439    0.3842523532    1.0238149602
H        1.7009923223   -1.6819232303   -0.5826957617
H       -0.8903826802   -1.8173163313   -1.2766978204
H       -2.1723847980    0.1200726978    0.1231517398
H       -0.9867311720    2.1074485819   -1.2387959329
C       -0.2173569032    0.1640949362    1.2685916242
H       -0.3484203590   -0.5041002716    2.1178815559
13   
From optimize.out: Frame 20 / 25, Energy=    -286.8514458014
C        1.0826663318    0.2948860580    0.5064430242
C        0.8869222001   -0.9725848113   -0.3386973496
C       -0.4095660228   -1.0936759641   -0.6446727148
C       -1.0818120294    0.1690500779    0.0875467553
C       -0.4292025484    1.3539852862   -0.6318799342
N        0.8324834648    1.4574955477   -0.3878709804
H        2.0409993877    0.3664839687    1.0186983383
H        1.7091042604   -1.6016462555   -0.6567599832
H       -0.8961726702   -1.8292964416   -1.2734942386
H       -2.1694180271    0.1219842092    0.1318801919
H       -0.9516862800    2.0587465797   -1.2726711188
C       -0.2241912651    0.1507336775    1.2929695860
H       -0.3901268018   -0.4761619323    2.1685084238
13   
From optimize.out: Frame 18 / 25, Energy=    -286.8512065182
C        1.0787721150    0.2876929162    0.5094136780
C        0.8815186183   -0.9506692511   -0.3638213034
C       -0.4156894678   -1.0767466515   -0.6408426896
C       -1.0624867583    0.1599985334    0.0941698856
C       -0.4148110127    1.3315843637   -0.6291611796
N        0.8548789564    1.4414475534   -0.3774374664
H        2.0253979923    0.3582640553    1.0416375272
H        1.7058945415   -1.5625974484   -0.7065866848
H       -0.9322020566   -1.8040174746   -1.2435118589
H       -2.1455907232    0.0693043599    0.1070860533
H       -0.9401484666    2.0275532144   -1.2757667275
C       -0.2262286100    0.1542686569    1.2919434505
H       -0.4093051283   -0.4360828277    2.1928773155
13   
From optimize.out: Frame 17 / 25, Energy=    -286.8504983628
C        1.0897225387    0.2769446971    0.4959056094
C        0.8795235412   -0.9525110155   -0.3731297846
C       -0.4142052624   -1.0566219703   -0.6401287527
C       -1.0410295867    0.1542942119    0.0837268896
C       -0.4163657975    1.3345517497   -0.6142119189
N        0.8656157480    1.4346167265   -0.3701442501
H        2.0113517300    0.3583390506    1.0705802449
H        1.6972469863   -1.5702669250   -0.7173191855
H       -0.9732775251   -1.7755372006   -1.2067699111
H       -2.1158142332   -0.0050645141    0.0632187580
H       -0.9518397999    2.0302845003   -1.2518588860
C       -0.2257991594    0.1700163766    1.2710397613
H       -0.4051291801   -0.3990456870    2.1890914257
13   
From optimize.out: Frame 17 / 25, Energy=    -286.8504983628
C        1.1058788015    0.2704852175    0.4820949279
C        0.8798713435   -0.9951682265   -0.3449820830
C       -0.4005361926   -1.0990804944   -0.6598420036
C       -1.0548456927    0.2074914178    0.0810346325
C       -0.4443168977    1.3917053850   -0.5953964055
N        0.8414654497    1.4566665245   -0.3543808215
H        2.0345769110    0.3595804964    1.0446083597
H        1.7006591358   -1.6232766565   -0.6657880588
H       -0.9529399670   -1.8386352160   -1.2143628641
H       -2.1203430594   -0.0060994606    0.0434629003
H       -0.9777436268    2.0985936316   -1.2245321603
C       -0.2302061188    0.1837683967    1.2504812542
H       -0.3815200865   -0.4060310155    2.1576023222
13   
From optimize.out: Frame 16 / 25, Energy=    -286.8501894988
C        1.1142939670    0.2588897772    0.4694017702
C        0.8994213274   -1.0131245817   -0.3534439569
C       -0.3794617146   -1.1401334914   -0.6411488705
C       -1.0738778438    0.2448731051    0.0746211358
C       -0.4550760460    1.4260182178   -0.5836421583
N        0.8354388179    1.4585690297   -0.3510654119
H        2.0427505786    0.3543964625    1.0315720289
H        1.7251503523   -1.6322906367   -0.6816406046
H       -0.9402816207   -1.8995577168   -1.1608560339
H       -2.1346911715    0.0119111021    0.0197078906
H       -0.9815275995    2.1555699440   -1.1922490582
C       -0.2506675379    0.1856623493    1.2336861430
H       -0.4014715090   -0.4107835611    2.1350571258
13   
From optimize.out: Frame 16 / 25, Energy=    -286.8501894988
C        1.1181223281    0.2442511444    0.4573707748
C        0.9303491108   -1.0164450279   -0.3835979707
C       -0.3539993368   -1.1803536763   -0.5996989411
C       -1.0960006391    0.2728836801    0.0660027064
C       -0.4556485091    1.4467972722   -0.5760718978
N        0.8401509368    1.4485337321   -0.3551257822
H        2.0420058272    0.3454051624    1.0262003555
H        1.7621314723   -1.6152359728   -0.7374197549
H       -0.9321734101   -1.9591911678   -1.0711459695
H       -2.1548574698    0.0412066316   -0.0064167222
H       -0.9722049749    2.2058312621   -1.1570291721
C       -0.2806416480    0.1805300840    1.2191209433
H       -0.4472336873   -0.4142131241    2.1178114305
13   
From optimize.out: Frame 15 / 25, Energy=    -286.8491340664
C        1.1278880987    0.2636733100    0.4469169719
C        0.9383696672   -1.0037841415   -0.3775896771
C       -0.3449102278   -1.1523264336   -0.6155264773
C       -1.1063048966    0.2721351413    0.0892175689
C       -0.4450966349    1.4167798238   -0.5899463111
N        0.8524877782    1.4309949085   -0.3940717749
H        2.0471123185    0.3765746415    1.0220952519
H        1.7695767393   -1.6110009589   -0.7198788645
H       -0.9380529109   -1.9275735894   -1.0742687081
H       -2.1690598674    0.0694589785    0.0271353979
H       -0.9640617241    2.1818260599   -1.1603120862
C       -0.2878797193    0.1304484906    1.2212742175
H       -0.4800686209   -0.4472062308    2.1249544911
13   
From optimize.out: Frame 14 / 25, Energy=    -286.8441990864
C        1.1395218984    0.2938116916    0.4369593857
C        0.9391831468   -0.9860952048   -0.3602039902
C       -0.3409724802   -1.1028271701   -0.6493746625
C       -1.1128908031    0.2623384037    0.1224478289
C       -0.4310448193    1.3707807685   -0.6105676525
N        0.8672235114    1.4110953239   -0.4439934899
H        2.0540597292    0.4203795140    1.0183886367
H        1.7677294296   -1.6107992661   -0.6792700066
H       -0.9483332286   -1.8672465917   -1.1065985239
H       -2.1813859013    0.0973831192    0.0794630251
H       -0.9562895281    2.1344551085   -1.1757087599
C       -0.2879645729    0.0662249296    1.2286874617
H       -0.5088363819   -0.4895006262    2.1397707476
13   
From optimize.out: Frame 14 / 25, Energy=    -286.8441990864
C        1.1150553846    0.2914984865    0.4490578565
C        0.9144422941   -0.9767065879   -0.3680926953
C       -0.3544004725   -1.0999549744   -0.6985544023
C       -1.0990373247    0.2569096978    0.1435365203
C       -0.4262011405    1.3482963702   -0.6169834331
N        0.8737383157    1.4069465504   -0.4319375963
H        2.0309364603    0.3943672090    1.0324914778
H        1.7494663692   -1.5962026498   -0.6790086483
H       -0.9432772423   -1.8682325562   -1.1669427781
H       -2.1593644847    0.0617802522    0.0881824807
H       -0.9531811312    2.1120570096   -1.1788001651
C       -0.2681516380    0.0977060491    1.2478738265
H       -0.4800253901   -0.4284648565    2.1791775567
13   
From optimize.out: Frame 13 / 25, Energy=    -286.8367281086
C        1.0826311413    0.2820318547    0.4660182279
C        0.8840684027   -0.9691476421   -0.3815527308
C       -0.3716564609   -1.1073609608   -0.7511137350
C       -1.0806783149    0.2524438538    0.1619487995
C       -0.4233872464    1.3309953973   -0.6202678279
N        0.8784409494    1.4062697882   -0.4062197424
H        2.0011845969    0.3529648378    1.0505201252
H        1.7275847224   -1.5784329057   -0.6876412430
H       -0.9348406162   -1.8827339705   -1.2334623615
H       -2.1297717287    0.0121738849    0.0872892211
H       -0.9511007933    2.0951637717   -1.1791790732
C       -0.2439525578    0.1502837158    1.2696553851
H       -0.4385220946   -0.3446516251    2.2240049548
13   
From optimize.out: Frame 13 / 25, Energy=    -286.8367281086
C        1.0562019006    0.2846158092    0.4616549121
C        0.8696108851   -0.9725669423   -0.3835482591
C       -0.3771757359   -1.1370665087   -0.7770562190
C       -1.0729817746    0.2694518450    0.1666929098
C       -0.4244538041    1.3480064351   -0.6254456837
N        0.8786247770    1.4161527442   -0.4089448490
H        1.9691079038    0.3456217403    1.0561368701
H        1.7211940348   -1.5793441922   -0.6694744302
H       -0.9134387184   -1.9366005340   -1.2463206669
H       -2.1220546206    0.0276355489    0.0926618768
H       -0.9505775374    2.1247208666   -1.1661678541
C       -0.2241627192    0.1501127717    1.2703813251
H       -0.4098945911   -0.3407395838    2.2294300680
13   
From optimize.out: Frame 12 / 25, Energy=    -286.8326629820
C        1.0342414859    0.2961825745    0.4413963825
C        0.8670178338   -0.9841697036   -0.3769978549
C       -0.3739461689   -1.1833947116   -0.7831578334
C       -1.0732333078    0.3024669741    0.1612484226
C       -0.4284129483    1.3905945101   -0.6320349731
N        0.8754401726    1.4339071803   -0.4328720551
H        1.9352982239    0.3636672835    1.0525014700
H        1.7263506985   -1.5941807896   -0.6313306638
H       -0.8823721803   -2.0198108717   -1.2191785033
H       -2.1306441716    0.0916005629    0.1027053036
H       -0.9512149699    2.1889032100   -1.1431752967
C       -0.2076596404    0.1106216840    1.2554118765
H       -0.3908650276   -0.3963879030    2.2054837250
13   
From optimize.out: Frame 11 / 25, Energy=    -286.8184553277
C        1.0122810712    0.3077493398    0.4211378529
C        0.8644247825   -0.9957724650   -0.3704474507
C       -0.3707166020   -1.2297229145   -0.7892594477
C       -1.0734848410    0.3354821033    0.1558039354
C       -0.4323720925    1.4331825852   -0.6386242624
N        0.8722555682    1.4516616165   -0.4567992612
H        1.9014885441    0.3817128267    1.0488660698
H        1.7315073622   -1.6090173870   -0.5931868974
H       -0.8513056423   -2.1030212095   -1.1920363397
H       -2.1392337226    0.1555655769    0.1127487305
H       -0.9518524023    2.2530855534   -1.1201827394
C       -0.1911565616    0.0711305962    1.2404424279
H       -0.3718354640   -0.4520362222    2.1815373820
13   
From optimize.out: Frame 11 / 25, Energy=    -286.8184553277
C        1.0326989868    0.3008663953    0.4076748576
C        0.8787756014   -1.0074672835   -0.3739819160
C       -0.3605893440   -1.2621838353   -0.7681857653
C       -1.0901158021    0.3512405940    0.1406728641
C       -0.4401947085    1.4616061949   -0.6279589555
N        0.8633855461    1.4591480715   -0.4497031531
H        1.9311099516    0.3769661032    1.0208270917
H        1.7454597227   -1.6156691518   -0.6106097173
H       -0.8286271914   -2.1555883952   -1.1453586908
H       -2.1575101014    0.1789664030    0.0801931407
H       -0.9531505201    2.2986599355   -1.0872581152
C       -0.2220342418    0.0682334232    1.2366424578
H       -0.3992078993   -0.4547784549    2.1770459013
13   
From optimize.out: Frame 10 / 25, Energy=    -286.8134331808
C        1.0754291158    0.2842696688    0.3977897147
C        0.9020473771   -1.0192105702   -0.3828260705
C       -0.3468304480   -1.2873436246   -0.7328042746
C       -1.1153705409    0.3579134553    0.1204418011
C       -0.4500514445    1.4825722061   -0.6082090943
N        0.8515221485    1.4612284291   -0.4262732536
H        1.9941278605    0.3602192391    0.9799396166
H        1.7640430223   -1.6180115980   -0.6572883746
H       -0.8103650728   -2.1920219449   -1.0883955983
H       -2.1808866001    0.1810101625    0.0252091458
H       -0.9547964892    2.3344372159   -1.0491042525
C       -0.2778579170    0.0846029660    1.2387232242
H       -0.4510110118   -0.4296656049    2.1827974161
13   
From optimize.out: Frame 9 / 25, Energy=    -286.8106455721
C        1.1181592449    0.2676729423    0.3879045718
C        0.9253191528   -1.0309538569   -0.3916702250
C       -0.3330715520   -1.3125034140   -0.6974227840
C       -1.1406252797    0.3645863167    0.1002107382
C       -0.4599081805    1.5035382172   -0.5884592331
N        0.8396587509    1.4633087866   -0.4028433542
H        2.0571457693    0.3434723749    0.9390521415
H        1.7826263219   -1.6203540442   -0.7039670319
H       -0.7921029543   -2.2284554946   -1.0314325058
H       -2.2042630988    0.1830539219   -0.0297748491
H       -0.9564424583    2.3702144963   -1.0109503898
C       -0.3336815921    0.1009725087    1.2408039905
H       -0.5028141242   -0.4045527549    2.1885489309
13   
From optimize.out: Frame 9 / 25, Energy=    -286.8106455721
C        1.1145533444    0.2603432857    0.3988722962
C        0.9190661996   -1.0271500920   -0.3682834608
C       -0.3351195920   -1.2951294110   -0.6809315875
C       -1.1556570231    0.3599064193    0.0766507288
C       -0.4688349878    1.5032577224   -0.5928501668
N        0.8294091237    1.4533571197   -0.3809945273
H        2.0506313673    0.3322140022    0.9558666214
H        1.7713089329   -1.6246445511   -0.6780365334
H       -0.7911773834   -2.2190541676   -0.9972319940
H       -2.2219118932    0.1746259679   -0.0514705977
H       -0.9567524064    2.3866139979   -0.9889424907
C       -0.3321403520    0.0969410221    1.1756533858
H       -0.4233753301   -0.4012813155    2.1316983259
13   
From optimize.out: Frame 8 / 25, Energy=    -286.7931856722
C        1.1003123694    0.2551406127    0.4146261839
C        0.9060367122   -1.0197779580   -0.3374990359
C       -0.3407956499   -1.2679930253   -0.6687761032
C       -1.1683423782    0.3526208296    0.0523266575
C       -0.4775483572    1.4981007163   -0.6027819108
N        0.8195298900    1.4406438551   -0.3595085892
H        2.0281578657    0.3222153515    0.9859248903
H        1.7531287191   -1.6293821781   -0.6354407358
H       -0.7942309078   -2.1991327911   -0.9682559639
H       -2.2382460612    0.1637945397   -0.0655260071
H       -0.9567557102    2.3985658995   -0.9706404233
C       -0.3174326805    0.0882270786    1.0950717946
H       -0.3138138113   -0.4030229304    2.0604792430
13   
From optimize.out: Frame 8 / 25, Energy=    -286.7931856722
C        1.0885587806    0.2537141611    0.4157171089
C        0.8952096281   -1.0078667388   -0.3347200945
C       -0.3450513304   -1.2289911868   -0.6914633100
C       -1.1571221003    0.3322560351    0.0597091933
C       -0.4732350258    1.4756686017   -0.6100100786
N        0.8255303661    1.4305909429   -0.3572160708
H        2.0038083622    0.3140103572    1.0064695681
H        1.7356542491   -1.6311315779   -0.6201486694
H       -0.8025256807   -2.1591381806   -0.9905895633
H       -2.2265882366    0.1319784629   -0.0559612394
H       -0.9571678078    2.3732879102   -0.9776320690
C       -0.3125846685    0.0916692075    1.0886844108
H       -0.2744865358   -0.3760479947    2.0671608141
13   
From optimize.out: Frame 7 / 25, Energy=    -286.7904541185
C        1.0786169211    0.2550381836    0.4061280192
C        0.8859867015   -0.9926494008   -0.3523394162
C       -0.3482724552   -1.1813469469   -0.7395287744
C       -1.1284897541    0.3023647828    0.0901857675
C       -0.4594334786    1.4406538725   -0.6152690514
N        0.8430970949    1.4224757429   -0.3689034013
H        1.9780924413    0.3071118026    1.0200848624
H        1.7186938194   -1.6307044522   -0.6247437331
H       -0.8146380049   -2.1045228939   -1.0502953910
H       -2.1945419752    0.0848778657   -0.0291923200
H       -0.9578776574    2.3208929062   -1.0030468144
C       -0.3149181049    0.1039654155    1.1363376210
H       -0.2863155481   -0.3281568781    2.1305826317
13   
From optimize.out: Frame 6 / 25, Energy=    -286.7739610548
C        1.0686750617    0.2563622061    0.3965389296
C        0.8767637750   -0.9774320629   -0.3699587378
C       -0.3514935799   -1.1337027069   -0.7875942389
C       -1.0998574078    0.2724735305    0.1206623418
C       -0.4456319313    1.4056391433   -0.6205280242
N        0.8606638236    1.4143605430   -0.3805907318
H        1.9523765204    0.3002132479    1.0337001568
H        1.7017333897   -1.6302773266   -0.6293387968
H       -0.8267503290   -2.0499076072   -1.1100012187
H       -2.1624957138    0.0377772686   -0.0024234007
H       -0.9585875069    2.2684979022   -1.0284615598
C       -0.3172515412    0.1162616235    1.1839908312
H       -0.2981445604   -0.2802657616    2.1940044492
13   
From optimize.out: Frame 6 / 25, Energy=    -286.7739610548
C        1.0587332022    0.2576862286    0.3869498400
C        0.8675408484   -0.9622147249   -0.3875780594
C       -0.3547147047   -1.0860584670   -0.8356597034
C       -1.0712250616    0.2425822783    0.1511389161
C       -0.4318303840    1.3706244141   -0.6257869970
N        0.8782305524    1.4062453431   -0.3922780623
H        1.9266605995    0.2933146933    1.0473154511
H        1.6847729600   -1.6298502009   -0.6339338605
H       -0.8388626532   -1.9952923204   -1.1697070464
H       -2.1304494524   -0.0093233286    0.0243455187
H       -0.9592973564    2.2161028982   -1.0538763051
C       -0.3195849775    0.1285578315    1.2316440414
H       -0.3099735727   -0.2323746451    2.2574262668
13   
From optimize.out: Frame 5 / 25, Energy=    -286.7735619684
C        1.0697721669    0.2748734612    0.3780600088
C        0.8578789728   -0.9498524372   -0.3830479661
C       -0.3779332320   -1.0770096424   -0.8035611401
C       -1.0411700402    0.2315752410    0.1337046161
C       -0.4180548933    1.3851462138   -0.6246842579
N        0.8825302538    1.4328258139   -0.3882934076
H        1.9471980257    0.3098150509    1.0250875554
H        1.6662735308   -1.6251673529   -0.6409791531
H       -0.8612254555   -1.9999683939   -1.1117373838
H       -2.0927927368   -0.0373799448   -0.0207148195
H       -0.9574687601    2.2251014632   -1.0511459175
C       -0.3301973595    0.1038432029    1.2355878593
H       -0.3448104724   -0.2738026756    2.2517240061
13   
From optimize.out: Frame 5 / 25, Energy=    -286.7735619684
C        1.0859228221    0.2959255479    0.3693405424
C        0.8481101533   -0.9381857435   -0.3731214710
C       -0.4060238527   -1.0773640624   -0.7519317087
C       -1.0107684034    0.2251690842    0.1045974874
C       -0.4042857509    1.4117369107   -0.6220315749
N        0.8835976256    1.4678594100   -0.3804904883
H        1.9790044468    0.3320162331    0.9941269569
H        1.6473991455   -1.6194476565   -0.6486214105
H       -0.8860856466   -2.0190899958   -1.0250976988
H       -2.0537691109   -0.0607967557   -0.0832753731
H       -0.9550217062    2.2490577310   -1.0415583534
C       -0.3428267933    0.0701113906    1.2288824820
H       -0.3852529291   -0.3369920936    2.2291806100
13   
From optimize.out: Frame 4 / 25, Energy=    -286.7509367976
C        1.1020734773    0.3169776345    0.3606210759
C        0.8383413338   -0.9265190497   -0.3631949759
C       -0.4341144735   -1.0777184825   -0.7003022773
C       -0.9803667667    0.2187629275    0.0754903588
C       -0.3905166085    1.4383276076   -0.6193788919
N        0.8846649974    1.5028930062   -0.3726875690
H        2.0108108680    0.3542174153    0.9631663585
H        1.6285247601   -1.6137279600   -0.6562636678
H       -0.9109458377   -2.0382115976   -0.9384580137
H       -2.0147454851   -0.0842135666   -0.1458359267
H       -0.9525746523    2.2730139988   -1.0319707893
C       -0.3554562271    0.0363795783    1.2221771047
H       -0.4256953857   -0.4001815117    2.2066372138
13   
From optimize.out: Frame 3 / 25, Energy=    -286.7228487512
C        1.1176993178    0.3254195406    0.3479412566
C        0.8415854958   -0.9270484175   -0.3636754444
C       -0.4442347230   -1.0972216523   -0.6650140687
C       -0.9695183786    0.2266361688    0.0605945301
C       -0.3837319158    1.4656471674   -0.6130258858
N        0.8809942610    1.5267428731   -0.3665866371
H        2.0405181146    0.3665716606    0.9288350852
H        1.6284426428   -1.6129296431   -0.6739188482
H       -0.9087426443   -2.0768350910   -0.8762832425
H       -2.0008805688   -0.0789305626   -0.1836463097
H       -0.9493060920    2.3029118671   -1.0180038845
C       -0.3791524932    0.0176876720    1.2254458466
H       -0.4736730162   -0.4386515831    2.1973376025
13   
From optimize.out: Frame 3 / 25, Energy=    -286.7228487512
C        1.1323982170    0.3115890244    0.3282665611
C        0.8678135173   -0.9491187798   -0.3825369569
C       -0.4226152449   -1.1505458315   -0.6585881440
C       -0.9932054366    0.2597300468    0.0707990616
C       -0.3892833359    1.4942540635   -0.6001372751
N        0.8689549572    1.5308397526   -0.3634917987
H        2.0665177455    0.3615339947    0.8885504402
H        1.6615519080   -1.6208235925   -0.7092591085
H       -0.8587394114   -2.1499033222   -0.8573190253
H       -2.0314516065   -0.0229572141   -0.1777423108
H       -0.9445865661    2.3433039416   -0.9963020768
C       -0.4223952806    0.0255596308    1.2463311317
H       -0.5349594629   -0.4334617144    2.2114295014
13   
From optimize.out: Frame 2 / 25, Energy=    -286.6649202496
C        1.1470971162    0.2977585082    0.3085918656
C        0.8940415387   -0.9711891420   -0.4013984695
C       -0.4009957669   -1.2038700108   -0.6521622194
C       -1.0168924946    0.2928239249    0.0810035932
C       -0.3948347560    1.5228609596   -0.5872486643
N        0.8569156535    1.5349366321   -0.3603969603
H        2.0925173763    0.3564963289    0.8482657952
H        1.6946611732   -1.6287175418   -0.7445993688
H       -0.8087361786   -2.2229715534   -0.8383548081
H       -2.0620226441    0.0330161343   -0.1718383118
H       -0.9398670401    2.3836960160   -0.9746002690
C       -0.4656380681    0.0334315896    1.2672164169
H       -0.5962459095   -0.4282718457    2.2255214003
13   
From optimize.out: Frame 2 / 25, Energy=    -286.6649202496
C        1.1617960154    0.2839279921    0.2889171700
C        0.9202695602   -0.9932595043   -0.4202599821
C       -0.3793762889   -1.2571941900   -0.6457362947
C       -1.0405795526    0.3259178029    0.0912081247
C       -0.4003861761    1.5514678557   -0.5743600535
N        0.8448763498    1.5390335116   -0.3573021219
H        2.1185170072    0.3514586631    0.8079811502
H        1.7277704384   -1.6366114912   -0.7799396291
H       -0.7587329457   -2.2960397846   -0.8193905909
H       -2.0925936818    0.0889894828   -0.1659343128
H       -0.9351475142    2.4240880905   -0.9528984612
C       -0.5088808555    0.0413035484    1.2881017021
H       -0.6575323562   -0.4230819770    2.2396132992
13   
From optimize.out: Frame 1 / 25, Energy=    -286.6094236637
C        1.1764949146    0.2700974759    0.2692424745
C        0.9464975817   -1.0153298666   -0.4391214947
C       -0.3577568108   -1.3105183693   -0.6393103700
C       -1.0642666106    0.3590116810    0.1014126562
C       -0.4059375963    1.5800747517   -0.5614714427
N        0.8328370460    1.5431303911   -0.3542072835
H        2.1445166381    0.3464209973    0.7676965052
H        1.7608797036   -1.6445054406   -0.8152798894
H       -0.7087297129   -2.3691080158   -0.8004263737
H       -2.1231647195    0.1449628313   -0.1600303138
H       -0.9304279883    2.4644801650   -0.9311966534
C       -0.5521236429    0.0491755072    1.3089869872
H       -0.7188188028   -0.4178921082    2.2537051981
13   
C5H5N+CH->C6H6N atoms 1-13 frame 148 charge +0.000 sz -1.000 sz^2 1.424
C        1.1893308494    0.2534734115    0.2489495834
C        0.9715870796   -1.0372408953   -0.4641230319
C       -0.3344837721   -1.3611235291   -0.6355295857
C       -1.0833849487    0.3875774230    0.1140566877
C       -0.4100650044    1.6050131587   -0.5466818089
N        0.8204021854    1.5452315756   -0.3464699112
H        2.1668336700    0.3378067837    0.7265139289
H        1.7894522107   -1.6521620196   -0.8599113707
H       -0.6551141118   -2.4364441130   -0.7863165291
H       -2.1465794352    0.1930506493   -0.1540827283
H       -0.9248130605    2.4987019393   -0.9109032377
C       -0.5982536142    0.0640008536    1.3373762363
H       -0.7849120483   -0.3978852377    2.2771217673
13   
C5H5N+CH->C6H6N atoms 1-13 frame 148 charge +0.000 sz -1.000 sz^2 1.424
C        1.2016078577    0.2360112270    0.2284712213
C        0.9963349978   -1.0591041207   -0.4909666991
C       -0.3107146321   -1.4109129288   -0.6325423964
C       -1.1011325797    0.4147846337    0.1274326178
C       -0.4137651805    1.6288509457   -0.5313218304
N        0.8078486498    1.5467340117   -0.3373396859
H        2.1880458486    0.3281195345    0.6850619552
H        1.8166635998   -1.6597473827   -0.9073304039
H       -0.6004147281   -2.5020604556   -0.7736630931
H       -2.1678471113    0.2387726508   -0.1481220659
H       -0.9189294943    2.5310725002   -0.8910323678
C       -0.6452497983    0.0809123550    1.3680168244
H       -0.8524474293   -0.3734329707    2.3033359238
13   
C5H5N+CH->C6H6N atoms 1-13 frame 149 charge -0.000 sz -1.000 sz^2 1.377
C        1.2138848660    0.2185490424    0.2079928591
C        1.0210829159   -1.0809673461   -0.5178103664
C       -0.2869454921   -1.4607023285   -0.6295552070
C       -1.1188802107    0.4419918445    0.1408085479
C       -0.4174653565    1.6526887327   -0.5159618518
N        0.7952951141    1.5482364479   -0.3282094607
H        2.2092580272    0.3184322852    0.6436099815
H        1.8438749889   -1.6673327459   -0.9547494371
H       -0.5457153444   -2.5676767981   -0.7610096571
H       -2.1891147875    0.2844946522   -0.1421614035
H       -0.9130459281    2.5634430612   -0.8711614978
C       -0.6922459825    0.0978238564    1.3986574125
H       -0.9199828103   -0.3489807037    2.3295500803
13   
C5H5N+CH->C6H6N atoms 1-13 frame 149 charge -0.000 sz -1.000 sz^2 1.377
C        1.2261618743    0.2010868578    0.1875144970
C        1.0458308340   -1.1028305716   -0.5446540336
C       -0.2631763521   -1.5104917282   -0.6265680177
C       -1.1366278416    0.4691990553    0.1541844780
C       -0.4211655326    1.6765265196   -0.5006018732
N        0.7827415785    1.5497388840   -0.3190792355
H        2.2304702058    0.3087450359    0.6021580078
H        1.8710863780   -1.6749181090   -1.0021684702
H       -0.4910159608   -2.6332931407   -0.7483562212
H       -2.2103824636    0.3302166537   -0.1362007412
H       -0.9071623619    2.5958136221   -0.8512906279
C       -0.7392421666    0.1147353578    1.4292980006
H       -0.9875181914   -0.3245284367    2.3557642369
13   
C5H5N+CH->C6H6N atoms 1-13 frame 150 charge +0.000 sz -1.000 sz^2 1.321
C        1.2059970483    0.1770725788    0.1832329193
C        1.0493389323   -1.1197840354   -0.5734793740
C       -0.2579996458   -1.5340479792   -0.6872560355
C       -1.1264400585    0.4785337412    0.1837888975
C       -0.4246051288    1.6785967097   -0.4966928596
N        0.7701123279    1.5434379402   -0.3056879788
H        2.2034893625    0.2777228093    0.6143171061
H        1.8861856615   -1.6832671289   -1.0231048383
H       -0.4665386885   -2.6626193506   -0.8239714784
H       -2.2004600523    0.3259931322   -0.1033239990
H       -0.9129467870    2.5927696033   -0.8590346441
C       -0.7385585278    0.1670451088    1.4775585195