13   
Frame   0 IRC: Energy =  -286.8764950000 ; +0.0000 kcal/mol
C        1.6764250729    0.3747709935   -0.2334392591
C        1.1023141276   -0.8497570868   -0.3105020546
C       -0.3341608134   -1.0624972866   -0.0765829487
C       -1.1528042251    0.3488409284    0.1003397990
C       -0.3194233388    1.5367597442   -0.1509141628
N        0.9692597077    1.5764632583   -0.2118673813
H        2.7519111526    0.4884160752   -0.3297736923
H        1.7067755099   -1.7181395061   -0.5597740924
H       -0.8092292255   -1.8924266244   -0.6022800680
H       -2.1797468596    0.4256591709   -0.2616368981
H       -0.8537414331    2.4642254150   -0.3654143113
C       -0.9122004099   -0.6050758373    1.1836887942
H       -1.6453792659   -1.0872392438    1.8181562759
13   
Frame   1 IRC: Energy =  -286.8764860000 ; +0.0056 kcal/mol
C        1.6761693824    0.3758662215   -0.2330922108
C        1.1027993371   -0.8496973806   -0.3102887793
C       -0.3348295597   -1.0623478011   -0.0773170623
C       -1.1531518673    0.3489803163    0.1009207399
C       -0.3194830613    1.5364432721   -0.1509156022
N        0.9691058914    1.5778120517   -0.2121783433
H        2.7519103328    0.4880641242   -0.3292975225
H        1.7074368591   -1.7194888630   -0.5601624567
H       -0.8097113169   -1.8931453898   -0.6033216117
H       -2.1800161639    0.4256312502   -0.2614131719
H       -0.8530753790    2.4633921331   -0.3657653643
C       -0.9119807769   -0.6039362239    1.1844759367
H       -1.6451736777   -1.0875737106    1.8183554485
13   
Frame   2 IRC: Energy =  -286.8764670000 ; +0.0176 kcal/mol
C        1.6762457139    0.3773618651   -0.2328987221
C        1.1025754210   -0.8500157455   -0.3100515202
C       -0.3351431861   -1.0624066951   -0.0779908038
C       -1.1534788869    0.3490297866    0.1012724847
C       -0.3187858954    1.5360697893   -0.1509007199
N        0.9684528537    1.5785265725   -0.2122865655
H        2.7519019639    0.4877889251   -0.3291374820
H        1.7080137593   -1.7205656800   -0.5604805957
H       -0.8099006715   -1.8935418768   -0.6038161150
H       -2.1800819354    0.4255705298   -0.2613471219
H       -0.8527152350    2.4630152333   -0.3658770999
C       -0.9118494635   -0.6029914501    1.1849931033
H       -1.6452344379   -1.0878412542    1.8185211577
13   
Frame   3 IRC: Energy =  -286.8763680000 ; +0.0797 kcal/mol
C        1.6733589807    0.3734014756   -0.2257649592
C        1.0978420693   -0.8498932133   -0.3147186932
C       -0.3415114754   -1.0587830324   -0.0931572048
C       -1.1519482845    0.3503292828    0.1053464413
C       -0.3217913131    1.5377319591   -0.1594161202
N        0.9666121584    1.5755052304   -0.2200335162
H        2.7508180317    0.4854011859   -0.2978286503
H        1.7044664193   -1.7208460569   -0.5480231989
H       -0.8227307950   -1.8783531385   -0.6289397479
H       -2.1838913089    0.4276340300   -0.2417503907
H       -0.8569080827    2.4611379144   -0.3898528127
C       -0.8999066797   -0.6107340199    1.1795204614
H       -1.6144097203   -1.0925316172    1.8346183915
13   
Frame   4 IRC: Energy =  -286.8763630000 ; +0.0828 kcal/mol
C        1.6730933906    0.3735730841   -0.2256172118
C        1.0974583218   -0.8495808370   -0.3147408379
C       -0.3417273528   -1.0589348162   -0.0935977113
C       -1.1518573492    0.3502702117    0.1054227910
C       -0.3218377420    1.5377469134   -0.1595689506
N        0.9668537575    1.5750149488   -0.2202033247
H        2.7508764240    0.4853789297   -0.2971501141
H        1.7045174869   -1.7210357341   -0.5477871675
H       -0.8229010256   -1.8777915921   -0.6293389717
H       -2.1840026493    0.4276856540   -0.2413352083
H       -0.8571221942    2.4612374736   -0.3904040611
C       -0.8995810251   -0.6109149842    1.1793117846
H       -1.6137700428   -1.0926492517    1.8350089834
13   
Frame   5 IRC: Energy =  -286.8763060000 ; +0.1186 kcal/mol
C        1.6722795020    0.3730551626   -0.2234493349
C        1.0965863176   -0.8499529979   -0.3159474601
C       -0.3439862147   -1.0574983174   -0.0984519861
C       -1.1517679424    0.3507334677    0.1068190869
C       -0.3225651726    1.5379823233   -0.1619530986
N        0.9657824338    1.5755689946   -0.2227441541
H        2.7502451012    0.4843832778   -0.2878831931
H        1.7037514332   -1.7219628016   -0.5440127959
H       -0.8270899528   -1.8740394636   -0.6375490700
H       -2.1851858258    0.4280952362   -0.2359471470
H       -0.8577117922    2.4599738174   -0.3970158918
C       -0.8960332756   -0.6122252734    1.1782835564
H       -1.6043046117   -1.0941134257    1.8398514884
13   
Frame   6 IRC: Energy =  -286.8762980000 ; +0.1236 kcal/mol
C        1.6719580680    0.3736221528   -0.2231854507
C        1.0962216459   -0.8496257523   -0.3159521521
C       -0.3444420082   -1.0575659565   -0.0992186010
C       -1.1517320066    0.3507141381    0.1070405023
C       -0.3225920079    1.5378896617   -0.1621836619
N        0.9659006007    1.5752779378   -0.2230400072
H        2.7502421983    0.4842306561   -0.2868546663
H        1.7039512785   -1.7225481275   -0.5437043992
H       -0.8274860392   -1.8735112614   -0.6384078930
H       -2.1853173085    0.4281223336   -0.2353641204
H       -0.8578095635    2.4598869269   -0.3977586491
C       -0.8955968557   -0.6121502682    1.1781787671
H       -1.6032980021   -1.0943424411    1.8404503313
13   
Frame   7 IRC: Energy =  -286.8762660000 ; +0.1437 kcal/mol
C        1.6717000753    0.3725962224   -0.2221948664
C        1.0957629636   -0.8500411208   -0.3166980561
C       -0.3452571691   -1.0567790960   -0.1013630929
C       -1.1515571597    0.3509023854    0.1074768603
C       -0.3230259448    1.5382416723   -0.1634448270
N        0.9653446569    1.5753155881   -0.2242097364
H        2.7499167164    0.4838621746   -0.2823135407
H        1.7032140111   -1.7223567254   -0.5415877162
H       -0.8294666712   -1.8713698504   -0.6422367197
H       -2.1858317017    0.4283560107   -0.2326925038
H       -0.8583744970    2.4595671554   -0.4009840455
C       -0.8939016508   -0.6133356162    1.1773767255
H       -1.5985236291   -1.0949588000    1.8428715190
13   
Frame   8 IRC: Energy =  -286.8762470000 ; +0.1556 kcal/mol
C        1.6715389221    0.3731373048   -0.2211402293
C        1.0953310920   -0.8498473734   -0.3172592472
C       -0.3464021241   -1.0565080703   -0.1029240087
C       -1.1516140367    0.3509099855    0.1080266258
C       -0.3231152190    1.5382917811   -0.1645071220
N        0.9652153380    1.5755038335   -0.2247627675
H        2.7500842780    0.4835561539   -0.2801907034
H        1.7036859341   -1.7235482342   -0.5407916859
H       -0.8305110655   -1.8708057934   -0.6446174545
H       -2.1862287495    0.4285030035   -0.2315742068
H       -0.8587293723    2.4595696197   -0.4025147926
C       -0.8927745946   -0.6131174115    1.1778577826
H       -1.5964804024   -1.0956447993    1.8443978094
13   
Frame   9 IRC: Energy =  -286.8762140000 ; +0.1763 kcal/mol
C        1.6705093121    0.3725157770   -0.2210461359
C        1.0946559496   -0.8499793349   -0.3161329402
C       -0.3464813719   -1.0564033158   -0.1045791930
C       -1.1513582704    0.3512469676    0.1082153729
C       -0.3233797778    1.5379740105   -0.1645792472
N        0.9648550564    1.5748957454   -0.2265120015
H        2.7488274549    0.4833052680   -0.2757853480
H        1.7020833110   -1.7224525024   -0.5388974939
H       -0.8324240535   -1.8679857228   -0.6477121688
H       -2.1865312856    0.4284895870   -0.2290521769
H       -0.8584503824    2.4582323298   -0.4051361823
C       -0.8912803502   -0.6143050490    1.1756126075
H       -1.5910255922   -1.0955337604    1.8456049072
13   
Frame  10 IRC: Energy =  -286.8761960000 ; +0.1876 kcal/mol
C        1.6703238251    0.3729872232   -0.2212930825
C        1.0937284665   -0.8497597793   -0.3154515079
C       -0.3463531029   -1.0566877781   -0.1048917838
C       -1.1511973679    0.3512342277    0.1080965302
C       -0.3228340589    1.5377472617   -0.1642842025
N        0.9646756508    1.5738433051   -0.2270128938
H        2.7481758547    0.4832601876   -0.2745625070
H        1.7016552841   -1.7221564294   -0.5384350402
H       -0.8327548873   -1.8666899684   -0.6481243362
H       -2.1866007027    0.4284495959   -0.2283328512
H       -0.8585302894    2.4580380290   -0.4058879831
C       -0.8908682337   -0.6149411662    1.1744289308
H       -1.5894204384   -1.0953247088    1.8457507271
13   
Frame  11 IRC: Energy =  -286.8760920000 ; +0.2529 kcal/mol
C        1.6695904809    0.3719733464   -0.2178655638
C        1.0930057137   -0.8501609128   -0.3202277624
C       -0.3507720816   -1.0537664490   -0.1127316703
C       -1.1512063770    0.3512680257    0.1099002893
C       -0.3244853008    1.5390016330   -0.1686878831
N        0.9635496644    1.5752392909   -0.2294759785
H        2.7488913103    0.4816809694   -0.2622156859
H        1.7020120831   -1.7252573430   -0.5318774108
H       -0.8383891722   -1.8623182152   -0.6599980817
H       -2.1882627974    0.4289400144   -0.2219033377
H       -0.8604710808    2.4579915864   -0.4145259263
C       -0.8862412454   -0.6165008276    1.1748594923
H       -1.5772211974   -1.0980911187    1.8547495189
13   
Frame  12 IRC: Energy =  -286.8760740000 ; +0.2642 kcal/mol
C        1.6695542958    0.3726139312   -0.2173686174
C        1.0928142249   -0.8493696392   -0.3207936554
C       -0.3518220678   -1.0535039165   -0.1134748037
C       -1.1510934227    0.3514958647    0.1099609839
C       -0.3247435358    1.5391431573   -0.1692209533
N        0.9636807612    1.5748409942   -0.2296787451
H        2.7489427027    0.4814122834   -0.2610236210
H        1.7026260591   -1.7264587216   -0.5313839548
H       -0.8389532307   -1.8620667013   -0.6613153295
H       -2.1884753409    0.4289706275   -0.2213259767
H       -0.8607458733    2.4580409494   -0.4153766767
C       -0.8856546075   -0.6166187989    1.1752106419
H       -1.5761299651   -1.0985000303    1.8557907079
13   
Frame  13 IRC: Energy =  -286.8757340000 ; +0.4775 kcal/mol
C        1.6653554407    0.3703040280   -0.2122279671
C        1.0881635356   -0.8506156580   -0.3223167714
C       -0.3586133657   -1.0496960929   -0.1296939263
C       -1.1504738941    0.3516438192    0.1118481586
C       -0.3267814213    1.5398657575   -0.1759542665
N        0.9607730255    1.5744420638   -0.2389784131
H        2.7451167956    0.4784535360   -0.2327665032
H        1.6983670863   -1.7288476519   -0.5142159258
H       -0.8521348694   -1.8472408747   -0.6874063129
H       -2.1913249117    0.4293030106   -0.2080755301
H       -0.8632222014    2.4557250838   -0.4310739605
C       -0.8747447594   -0.6213087602    1.1685321360
H       -1.5404804608   -1.1020282611    1.8723292823
13   
Frame  14 IRC: Energy =  -286.8757110000 ; +0.4920 kcal/mol
C        1.6659026672    0.3695685886   -0.2120544619
C        1.0881868549   -0.8513332032   -0.3224780578
C       -0.3584622310   -1.0491117856   -0.1299891893
C       -1.1505321944    0.3517747004    0.1118703398
C       -0.3265820940    1.5399235861   -0.1762521400
N        0.9598673238    1.5751256611   -0.2393120019
H        2.7446749591    0.4783328573   -0.2317078925
H        1.6978885875   -1.7283938839   -0.5134736400
H       -0.8528180420   -1.8470005211   -0.6885775454
H       -2.1914066151    0.4293193749   -0.2075557178
H       -0.8632128251    2.4555378242   -0.4316360221
C       -0.8744656947   -0.6216884208    1.1683540154
H       -1.5390406961   -1.1020547779    1.8728123134
13   
Frame  15 IRC: Energy =  -286.8752890000 ; +0.7568 kcal/mol
C        1.6613762081    0.3693502371   -0.2076632596
C        1.0834123040   -0.8508410883   -0.3255296839
C       -0.3668433677   -1.0454806260   -0.1463827162
C       -1.1502615356    0.3516746501    0.1130600247
C       -0.3287509756    1.5411032032   -0.1825414455
N        0.9582148185    1.5736634391   -0.2475468970
H        2.7416707372    0.4751367430   -0.2062781581
H        1.6952922007   -1.7336160046   -0.4945915981
H       -0.8644782328   -1.8334788822   -0.7132894227
H       -2.1942040120    0.4300556089   -0.1969096715
H       -0.8661075072    2.4548017494   -0.4449432461
C       -0.8648525859   -0.6259134820    1.1625253868
H       -1.5044680517   -1.1064555477    1.8900906872
13   
Frame  16 IRC: Energy =  -286.8752420000 ; +0.7863 kcal/mol
C        1.6610516253    0.3710467584   -0.2074200147
C        1.0817237439   -0.8505222730   -0.3254485483
C       -0.3673300668   -1.0460423590   -0.1478636206
C       -1.1505001331    0.3514840481    0.1131034978
C       -0.3276321040    1.5407989516   -0.1827200096
N        0.9578870928    1.5726657709   -0.2479036862
H        2.7416841230    0.4749390821   -0.2050343078
H        1.6957788625   -1.7347849223   -0.4938065877
H       -0.8647251595   -1.8322291514   -0.7141303261
H       -2.1942503520    0.4300596082   -0.1963741995
H       -0.8665801515    2.4552173041   -0.4456987731
C       -0.8641076874   -0.6257733600    1.1620716679
H       -1.5029997931   -1.1068594578    1.8912249079
13   
Frame  17 IRC: Energy =  -286.8747210000 ; +1.1132 kcal/mol
C        1.6573290653    0.3672497074   -0.2034758488
C        1.0790097454   -0.8516977089   -0.3274453308
C       -0.3749135043   -1.0408680390   -0.1627473842
C       -1.1502848599    0.3520005226    0.1139226429
C       -0.3309238307    1.5424867891   -0.1889283312
N        0.9553410549    1.5734950649   -0.2568814983
H        2.7370891603    0.4717908041   -0.1808961980
H        1.6906481334   -1.7376872030   -0.4720545111
H       -0.8765394992   -1.8197279170   -0.7401602636
H       -2.1970424254    0.4317006206   -0.1867483572
H       -0.8686015779    2.4538501249   -0.4574075876
C       -0.8559672336   -0.6310609365    1.1553986399
H       -1.4651442283   -1.1115318291    1.9074240280
13   
Frame  18 IRC: Energy =  -286.8746440000 ; +1.1615 kcal/mol
C        1.6564467780    0.3686634646   -0.2030406233
C        1.0773139605   -0.8511230555   -0.3274554629
C       -0.3760792329   -1.0411837189   -0.1651701492
C       -1.1504635372    0.3517551645    0.1140636728
C       -0.3304609113    1.5423559269   -0.1894718368
N        0.9554232183    1.5723503955   -0.2578558676
H        2.7368181439    0.4714074094   -0.1781778986
H        1.6907775114   -1.7391271335   -0.4697089539
H       -0.8774595610   -1.8176133045   -0.7426319764
H       -2.1972619000    0.4318683040   -0.1856639763
H       -0.8691835354    2.4541644784   -0.4588168874
C       -0.8548418027   -0.6312752878    1.1544104904
H       -1.4610291317   -1.1122426432    1.9095194691
13   
Frame  19 IRC: Energy =  -286.8743910000 ; +1.3203 kcal/mol
C        1.6552467054    0.3662933545   -0.2015189094
C        1.0766705789   -0.8521204890   -0.3281944331
C       -0.3789844213   -1.0386225665   -0.1709722448
C       -1.1503563187    0.3521731335    0.1143247646
C       -0.3319315998    1.5431707222   -0.1920480843
N        0.9539478127    1.5733376966   -0.2616932488
H        2.7346610846    0.4701163620   -0.1684567994
H        1.6881558595   -1.7397699336   -0.4601624356
H       -0.8824232028   -1.8127710730   -0.7536691773
H       -2.1984498666    0.4327240638   -0.1818178932
H       -0.8698341308    2.4534498204   -0.4633809719
C       -0.8518262056   -0.6337609741    1.1516225044
H       -1.4448762955   -1.1142201168    1.9159669287
13   
Frame  20 IRC: Energy =  -286.8742780000 ; +1.3912 kcal/mol
C        1.6540852160    0.3677037810   -0.2009553845
C        1.0747458776   -0.8514714026   -0.3282267061
C       -0.3806070980   -1.0387919501   -0.1741515209
C       -1.1505703582    0.3519001313    0.1145166656
C       -0.3316146848    1.5430992492   -0.1928432064
N        0.9540757187    1.5720736286   -0.2631414375
H        2.7341513380    0.4695844588   -0.1647012114
H        1.6880491670   -1.7414717023   -0.4565690413
H       -0.8838014483   -1.8099819007   -0.7573440892
H       -2.1987733167    0.4330445784   -0.1803263750
H       -0.8705374041    2.4537693882   -0.4652556762
C       -0.8504283156   -0.6342412391    1.1502177907
H       -1.4387746916   -1.1152170207    1.9187801922
13   
Frame  21 IRC: Energy =  -286.8740600000 ; +1.5280 kcal/mol
C        1.6533036803    0.3654533878   -0.1998400938
C        1.0744677853   -0.8525014377   -0.3286968712
C       -0.3827428736   -1.0365863099   -0.1785155880
C       -1.1504564536    0.3523499837    0.1146827077
C       -0.3328109060    1.5438029143   -0.1948586383
N        0.9527083133    1.5731571108   -0.2662414059
H        2.7323385179    0.4685887487   -0.1572921394
H        1.6857224986   -1.7416855303   -0.4487538973
H       -0.8877009045   -1.8063633811   -0.7661154210
H       -2.1997357081    0.4338444603   -0.1773836336
H       -0.8709404715    2.4531295235   -0.4686523519
C       -0.8482696763   -0.6363484772    1.1480056488
H       -1.4258838020   -1.1168409929    1.9236616840
13   
Frame  22 IRC: Energy =  -286.8739050000 ; +1.6253 kcal/mol
C        1.6518723743    0.3668780940   -0.1991664100
C        1.0722638135   -0.8518030548   -0.3287162046
C       -0.3848299828   -1.0366101038   -0.1824878844
C       -1.1507253479    0.3520583715    0.1149297923
C       -0.3325962593    1.5437806361   -0.1959067953
N        0.9528512436    1.5717840098   -0.2682159178
H        2.7315713379    0.4679076857   -0.1525048112
H        1.6853442766   -1.7436537586   -0.4437675339
H       -0.8895297591   -1.8028651213   -0.7710431686
H       -2.2001583996    0.4343624737   -0.1754587056
H       -0.8717671022    2.4534669002   -0.4709838793
C       -0.8466291845   -0.6371278170    1.1461393171
H       -1.4176670105   -1.1181783153    1.9271822013
13   
Frame  23 IRC: Energy =  -286.8736940000 ; +1.7577 kcal/mol
C        1.6512937523    0.3646312222   -0.1982524062
C        1.0721699892   -0.8528830251   -0.3290171157
C       -0.3866065988   -1.0345224338   -0.1862180479
C       -1.1505847389    0.3525551944    0.1150554761
C       -0.3336585599    1.5444560528   -0.1976892912
N        0.9514861108    1.5729392981   -0.2710510023
H        2.7298735213    0.4670432210   -0.1461334018
H        1.6830739834   -1.7436310098   -0.4365669424
H       -0.8929757416   -1.7997942750   -0.7788860322
H       -2.2010438341    0.4351898499   -0.1728856401
H       -0.8720446916    2.4528418630   -0.4738469682
C       -0.8448932965   -0.6391241120    1.1441587419
H       -1.4060898955   -1.1197018458    1.9313326299
13   
Frame  24 IRC: Energy =  -286.8734940000 ; +1.8832 kcal/mol
C        1.6496295028    0.3661182920   -0.1975192409
C        1.0696747432   -0.8521382481   -0.3289817379
C       -0.3891189050   -1.0344420709   -0.1908801179
C       -1.1509211679    0.3522442032    0.1153647498
C       -0.3334816374    1.5444566316   -0.1989450725
N        0.9516488185    1.5714592557   -0.2735332156
H        2.7288752737    0.4662420604   -0.1405155239
H        1.6824360580   -1.7458448101   -0.4302409266
H       -0.8951498363   -1.7956605150   -0.7848847093
H       -2.2015344464    0.4359322974   -0.1705585140
H       -0.8729814865    2.4532210229   -0.4765394775
C       -0.8431095787   -0.6401985028    1.1418505877
H       -1.3959673380   -1.1213896163    1.9353831986
13   
Frame  25 IRC: Energy =  -286.8732740000 ; +2.0212 kcal/mol
C        1.6491297845    0.3637986231   -0.1967172328
C        1.0696716169   -0.8532630837   -0.3291313114
C       -0.3907408002   -1.0323435487   -0.1944129211
C       -1.1507356379    0.3528023795    0.1154814735
C       -0.3345023495    1.5451612508   -0.2006708043
N        0.9502514813    1.5726699631   -0.2763840097
H        2.7271578036    0.4654256144   -0.1345280861
H        1.6800684072   -1.7456802638   -0.4229923911
H       -0.8984650732   -1.7927835022   -0.7925217952
H       -2.2024268131    0.4368576225   -0.1680609684
H       -0.8731898759    2.4525735094   -0.4791834029
C       -0.8415835188   -0.6422348778    1.1398991567
H       -1.3846350249   -1.1229836864    1.9392222928
13   
Frame  26 IRC: Energy =  -286.8730020000 ; +2.1919 kcal/mol
C        1.6471402322    0.3652742065   -0.1959047524
C        1.0667602894   -0.8525012959   -0.3290043382
C       -0.3938781438   -1.0320422588   -0.2001298886
C       -1.1511390704    0.3525040793    0.1158917712
C       -0.3344262986    1.5452133943   -0.2022726875
N        0.9504081094    1.5711150285   -0.2797081613
H        2.7257909287    0.4644467648   -0.1275923014
H        1.6789658765   -1.7482014998   -0.4145150364
H       -0.9012142691   -1.7876891213   -0.8002246795
H       -2.2030373372    0.4379654632   -0.1650366635
H       -0.8742701099    2.4529781844   -0.4824481152
C       -0.8395742918   -0.6438098908    1.1369005457
H       -1.3715259153   -1.1252530544    1.9440443072
13   
Frame  27 IRC: Energy =  -286.8727780000 ; +2.3325 kcal/mol
C        1.6467763055    0.3629349536   -0.1952474545
C        1.0669194948   -0.8536965137   -0.3290101190
C       -0.3952531524   -1.0299653148   -0.2033450253
C       -1.1508946845    0.3531342584    0.1159972693
C       -0.3353141849    1.5459477235   -0.2039141223
N        0.9489466898    1.5723512746   -0.2824961761
H        2.7240729521    0.4637017497   -0.1221563849
H        1.6765186986   -1.7478223327   -0.4074357976
H       -0.9043319443   -1.7851294110   -0.8074275559
H       -2.2039133757    0.4389515474   -0.1626393971
H       -0.8743995195    2.4523085412   -0.4848047786
C       -0.8383212369   -0.6458513552    1.1350877662
H       -1.3608060427   -1.1268651210    1.9473917758
13   
Frame  28 IRC: Energy =  -286.8724700000 ; +2.5257 kcal/mol
C        1.6446778690    0.3645793344   -0.1945226090
C        1.0637181851   -0.8528558606   -0.3287774176
C       -0.3986906901   -1.0296842043   -0.2093384053
C       -1.1513545561    0.3527978481    0.1164971217
C       -0.3351684917    1.5459359737   -0.2055815636
N        0.9492052576    1.5707389480   -0.2862097187
H        2.7226176325    0.4627120599   -0.1150136617
H        1.6752732795   -1.7505220516   -0.3980448029
H       -0.9070959278   -1.7796963772   -0.8154759682
H       -2.2044826199    0.4402766130   -0.1592894192
H       -0.8755352713    2.4528123739   -0.4881397170
C       -0.8364054331   -0.6476668729    1.1318059934
H       -1.3467592337   -1.1294277843    1.9520901680
13   
Frame  29 IRC: Energy =  -286.8722110000 ; +2.6883 kcal/mol
C        1.6442238150    0.3620846920   -0.1939478841
C        1.0639371955   -0.8540423049   -0.3286004119
C       -0.4000464312   -1.0274492613   -0.2128041235
C       -1.1510011260    0.3534941564    0.1166587803
C       -0.3360898642    1.5468039625   -0.2073632265
N        0.9477042731    1.5719299031   -0.2893630587
H        2.7207018198    0.4619369111   -0.1093256894
H        1.6724797537   -1.7500348745   -0.3901070577
H       -0.9104384491   -1.7770074890   -0.8232087805
H       -2.2054452600    0.4414626241   -0.1565820365
H       -0.8756451703    2.4520742051   -0.4905624964
C       -0.8351485140   -0.6498566719    1.1297161758
H       -1.3352320422   -1.1313958527    1.9554898090
13   
Frame  30 IRC: Energy =  -286.8718030000 ; +2.9443 kcal/mol
C        1.6418332847    0.3636959402   -0.1933023831
C        1.0601661386   -0.8532142954   -0.3282362893
C       -0.4042821698   -1.0268437442   -0.2199421930
C       -1.1514694075    0.3531965454    0.1173560254
C       -0.3360131750    1.5468261635   -0.2094592356
N        0.9479665798    1.5703934872   -0.2942696799
H        2.7187919631    0.4607860061   -0.1007145686
H        1.6706081619   -1.7530717786   -0.3778486693
H       -0.9138146004   -1.7704685878   -0.8331187418
H       -2.2061436151    0.4432965557   -0.1521422108
H       -0.8769145185    2.4526346901   -0.4945013551
C       -0.8330073744   -0.6524308393    1.1255798315
H       -1.3177212673   -1.1348001429    1.9605994697
13   
Frame  31 IRC: Energy =  -286.8713670000 ; +3.2179 kcal/mol
C        1.6406146636    0.3611360077   -0.1926682433
C        1.0595341490   -0.8542846155   -0.3279051791
C       -0.4067892339   -1.0239726851   -0.2257188454
C       -1.1510179088    0.3539693521    0.1177899376
C       -0.3371994249    1.5480130443   -0.2122272894
N        0.9464735302    1.5712077178   -0.2995436019
H        2.7159481787    0.4596532179   -0.0920965720
H        1.6665746341   -1.7530910736   -0.3647511222
H       -0.9185333863   -1.7657663597   -0.8446361364
H       -2.2073382093    0.4453394887   -0.1474122725
H       -0.8772890425    2.4518955998   -0.4981402688
C       -0.8312677973   -0.6558172843    1.1222360706
H       -1.2997101525   -1.1382824100    1.9650735228
13   
Frame  32 IRC: Energy =  -286.8702010000 ; +3.9495 kcal/mol
C        1.6359035861    0.3615398808   -0.1921343872
C        1.0529329616   -0.8541612331   -0.3260171339
C       -0.4160148571   -1.0201946560   -0.2429083606
C       -1.1507263988    0.3545917886    0.1192965053
C       -0.3374358773    1.5492832775   -0.2186314160
N        0.9454689862    1.5701243346   -0.3140052542
H        2.7098748330    0.4570837892   -0.0711728813
H        1.6579830171   -1.7572829348   -0.3297670718
H       -0.9281775234   -1.7519272404   -0.8700479029
H       -2.2094062873    0.4505942440   -0.1334409537
H       -0.8794074253    2.4526815141   -0.5067943976
C       -0.8254321633   -0.6634708640    1.1122367413
H       -1.2555628517   -1.1488619004    1.9733865127
13   
Frame  33 IRC: Energy =  -286.8699990000 ; +4.0763 kcal/mol
C        1.6360909768    0.3591370193   -0.1919833531
C        1.0546414000   -0.8543099312   -0.3258287781
C       -0.4175710576   -1.0177352815   -0.2430482907
C       -1.1502127125    0.3547478138    0.1193624579
C       -0.3390247387    1.5501120046   -0.2197585434
N        0.9454518333    1.5711516203   -0.3160802569
H        2.7081388202    0.4566969505   -0.0685256003
H        1.6560238271   -1.7565867209   -0.3251232932
H       -0.9302778892   -1.7514591085   -0.8744874454
H       -2.2099006114    0.4513568097   -0.1315760519
H       -0.8792659036    2.4521626504   -0.5078104886
C       -0.8248775108   -0.6655493907    1.1114241428
H       -1.2492164335   -1.1497244359    1.9734355009
13   
Frame  34 IRC: Energy =  -286.8689290000 ; +4.7477 kcal/mol
C        1.6312790609    0.3613001194   -0.1925940918
C        1.0463322806   -0.8541054688   -0.3243333482
C       -0.4241910524   -1.0160454655   -0.2599828342
C       -1.1495567316    0.3555012219    0.1206826269
C       -0.3378666472    1.5509748630   -0.2254363540
N        0.9446104978    1.5695361274   -0.3289356899
H        2.7034165705    0.4546717475   -0.0509411705
H        1.6475196802   -1.7602295982   -0.2927922029
H       -0.9376768118   -1.7394705703   -0.8939654808
H       -2.2112059734    0.4552749074   -0.1174707339
H       -0.8809453995    2.4536379158   -0.5144352416
C       -0.8187752322   -0.6707092898    1.1021066861
H       -1.2129402416   -1.1603365098    1.9780978346
13   
Frame  35 IRC: Energy =  -286.8685670000 ; +4.9749 kcal/mol
C        1.6311299619    0.3589799654   -0.1925941447
C        1.0472117196   -0.8545795829   -0.3239321205
C       -0.4268569978   -1.0127519902   -0.2617827729
C       -1.1488166913    0.3555689546    0.1208434383
C       -0.3384671656    1.5520440618   -0.2275356041
N        0.9436537668    1.5706319762   -0.3329700134
H        2.7006790077    0.4539692541   -0.0459539514
H        1.6438093498   -1.7595902346   -0.2831238137
H       -0.9409569988   -1.7377422227   -0.9011881390
H       -2.2118598106    0.4564695111   -0.1130795529
H       -0.8810268872    2.4534954233   -0.5162710314
C       -0.8169919878   -0.6737916300    1.0999198385
H       -1.2015072666   -1.1627034862    1.9776678672
13   
Frame  36 IRC: Energy =  -286.8672290000 ; +5.8145 kcal/mol
C        1.6262307605    0.3607563939   -0.1935496573
C        1.0386775110   -0.8539470035   -0.3216815934
C       -0.4346445977   -1.0097961617   -0.2807704512
C       -1.1470135868    0.3565315920    0.1211149436
C       -0.3378300231    1.5535867595   -0.2346621659
N        0.9431616458    1.5701035605   -0.3467521663
H        2.6945805675    0.4513631030   -0.0281206452
H        1.6309253210   -1.7622860895   -0.2443651487
H       -0.9493516829   -1.7274611208   -0.9215000159
H       -2.2130815070    0.4588718002   -0.0944118501
H       -0.8823039428    2.4559661972   -0.5222863562
C       -0.8063179567   -0.6789946990    1.0901658784
H       -1.1630325088   -1.1746943318    1.9768192283
13   
Frame  37 IRC: Energy =  -286.8669150000 ; +6.0115 kcal/mol
C        1.6263700410    0.3591132105   -0.1935595895
C        1.0408301884   -0.8529772867   -0.3211352117
C       -0.4370250565   -1.0065745128   -0.2818183966
C       -1.1466235739    0.3542717062    0.1220898548
C       -0.3386657344    1.5542492788   -0.2363147459
N        0.9445000179    1.5703131868   -0.3493108514
H        2.6912552428    0.4506804371   -0.0252568392
H        1.6277007500   -1.7617694691   -0.2372987328
H       -0.9520302388   -1.7273399935   -0.9267126742
H       -2.2133010190    0.4594230912   -0.0908709996
H       -0.8828236408    2.4568948163   -0.5235312932
C       -0.8049832444   -0.6803723847    1.0890767629
H       -1.1552037321   -1.1759120802    1.9746427164
13   
Frame  38 IRC: Energy =  -286.8656570000 ; +6.8010 kcal/mol
C        1.6210563167    0.3612146339   -0.1943504289
C        1.0300349646   -0.8532383543   -0.3185512825
C       -0.4433266584   -1.0055295637   -0.2993048043
C       -1.1438873546    0.3579008203    0.1196374169
C       -0.3385720715    1.5562051757   -0.2423059268
N        0.9427593403    1.5711236146   -0.3594544140
H        2.6883431207    0.4481208647   -0.0115451054
H        1.6142838058   -1.7634266530   -0.2023058799
H       -0.9581113446   -1.7196223262   -0.9418304392
H       -2.2142954661    0.4591278118   -0.0730512915
H       -0.8829325067    2.4585228613   -0.5274729144
C       -0.7909341697   -0.6838054192    1.0789256073
H       -1.1244179763   -1.1865934659    1.9716094628
13   