13   
Frame   0 IRC: Energy =  -286.8764950000 ; +0.0000 kcal/mol
C       -0.2520550000   -0.0372490000   -0.0000000000
C        0.0772920000    0.0517060000   -0.0000000000
C       -0.1441960000   -0.0297880000   -0.0000000000
C       -0.0189900000    0.0297290000    0.0000000000
C       -0.0517580000   -0.0514820000   -0.0000000000
N       -0.1820580000    0.0179310000   -0.0000000000
H        0.1248820000    0.0008940000   -0.0000000000
H        0.1330920000    0.0029080000   -0.0000000000
H        0.1442650000    0.0165370000   -0.0000000000
H        0.1442360000    0.0236850000   -0.0000000000
H        0.1282810000    0.0050330000   -0.0000000000
C       -0.2515700000    0.9919890000    0.0000000000
H        0.1485790000   -0.0218920000    0.0000000000
13   
Frame   1 IRC: Energy =  -286.8764860000 ; +0.0056 kcal/mol
C       -0.2530890000   -0.0372370000   -0.0000000000
C        0.0774520000    0.0518130000   -0.0000000000
C       -0.1447690000   -0.0298150000   -0.0000000000
C       -0.0179240000    0.0298730000    0.0000000000
C       -0.0519110000   -0.0516390000   -0.0000000000
N       -0.1817100000    0.0178950000   -0.0000000000
H        0.1248160000    0.0008960000   -0.0000000000
H        0.1332650000    0.0029290000   -0.0000000000
H        0.1442920000    0.0163960000   -0.0000000000
H        0.1443260000    0.0237460000   -0.0000000000
H        0.1281950000    0.0050200000   -0.0000000000
C       -0.2515480000    0.9918750000    0.0000000000
H        0.1486040000   -0.0217520000    0.0000000000
13   
Frame   2 IRC: Energy =  -286.8764670000 ; +0.0176 kcal/mol
C       -0.2535170000   -0.0372730000   -0.0000000000
C        0.0770970000    0.0518380000   -0.0000000000
C       -0.1454540000   -0.0295940000   -0.0000000000
C       -0.0172720000    0.0297990000    0.0000000000
C       -0.0517190000   -0.0517660000   -0.0000000000
N       -0.1811880000    0.0179330000   -0.0000000000
H        0.1248060000    0.0008970000   -0.0000000000
H        0.1333930000    0.0029520000   -0.0000000000
H        0.1443260000    0.0162250000   -0.0000000000
H        0.1443880000    0.0237920000   -0.0000000000
H        0.1279960000    0.0050440000   -0.0000000000
C       -0.2514800000    0.9917820000    0.0000000000
H        0.1486230000   -0.0216300000    0.0000000000
13   
Frame   3 IRC: Energy =  -286.8763680000 ; +0.0797 kcal/mol
C       -0.2508460000   -0.0385600000   -0.0000000000
C        0.0681170000    0.0573250000   -0.0000000000
C       -0.1391440000   -0.0350700000   -0.0000000000
C       -0.0223990000    0.0278580000    0.0000000000
C       -0.0484990000   -0.0530590000   -0.0000000000
N       -0.1820710000    0.0189960000   -0.0000000000
H        0.1248690000    0.0009100000   -0.0000000000
H        0.1333330000    0.0027020000   -0.0000000000
H        0.1441800000    0.0161380000   -0.0000000000
H        0.1441680000    0.0251970000   -0.0000000000
H        0.1281000000    0.0050320000   -0.0000000000
C       -0.2482310000    0.9948870000    0.0000000000
H        0.1484220000   -0.0223560000    0.0000000000
13   
Frame   4 IRC: Energy =  -286.8763630000 ; +0.0828 kcal/mol
C       -0.2505470000   -0.0386400000   -0.0000000000
C        0.0678770000    0.0574940000   -0.0000000000
C       -0.1392000000   -0.0351250000   -0.0000000000
C       -0.0226340000    0.0277780000    0.0000000000
C       -0.0484680000   -0.0530960000   -0.0000000000
N       -0.1820460000    0.0190510000   -0.0000000000
H        0.1248410000    0.0009080000   -0.0000000000
H        0.1333580000    0.0027040000   -0.0000000000
H        0.1441950000    0.0160850000   -0.0000000000
H        0.1441630000    0.0252460000   -0.0000000000
H        0.1281430000    0.0050360000   -0.0000000000
C       -0.2481090000    0.9949190000    0.0000000000
H        0.1484270000   -0.0223610000    0.0000000000
13   
Frame   5 IRC: Energy =  -286.8763060000 ; +0.1186 kcal/mol
C       -0.2506310000   -0.0387680000   -0.0000000000
C        0.0654130000    0.0588880000   -0.0000000000
C       -0.1377430000   -0.0366960000   -0.0000000000
C       -0.0231150000    0.0271000000    0.0000000000
C       -0.0476230000   -0.0532900000   -0.0000000000
N       -0.1819940000    0.0192200000   -0.0000000000
H        0.1248580000    0.0009050000   -0.0000000000
H        0.1334260000    0.0026430000   -0.0000000000
H        0.1441560000    0.0160100000   -0.0000000000
H        0.1441720000    0.0256790000   -0.0000000000
H        0.1280290000    0.0050220000   -0.0000000000
C       -0.2473130000    0.9957750000    0.0000000000
H        0.1483640000   -0.0224900000    0.0000000000
13   
Frame   6 IRC: Energy =  -286.8762980000 ; +0.1236 kcal/mol
C       -0.2504490000   -0.0388580000   -0.0000000000
C        0.0650550000    0.0591360000   -0.0000000000
C       -0.1378830000   -0.0367890000   -0.0000000000
C       -0.0231890000    0.0270060000    0.0000000000
C       -0.0475550000   -0.0533770000   -0.0000000000
N       -0.1818790000    0.0192940000   -0.0000000000
H        0.1248130000    0.0009030000   -0.0000000000
H        0.1334930000    0.0026480000   -0.0000000000
H        0.1441750000    0.0159180000   -0.0000000000
H        0.1441860000    0.0257600000   -0.0000000000
H        0.1280400000    0.0050270000   -0.0000000000
C       -0.2471810000    0.9958030000    0.0000000000
H        0.1483740000   -0.0224720000    0.0000000000
13   
Frame   7 IRC: Energy =  -286.8762660000 ; +0.1437 kcal/mol
C       -0.2502780000   -0.0388660000   -0.0000000000
C        0.0638460000    0.0597390000   -0.0000000000
C       -0.1368480000   -0.0376230000   -0.0000000000
C       -0.0237590000    0.0265970000    0.0000000000
C       -0.0470710000   -0.0533550000   -0.0000000000
N       -0.1820230000    0.0193550000   -0.0000000000
H        0.1248700000    0.0009000000   -0.0000000000
H        0.1334450000    0.0026050000   -0.0000000000
H        0.1441330000    0.0159640000   -0.0000000000
H        0.1441480000    0.0259450000   -0.0000000000
H        0.1280200000    0.0050180000   -0.0000000000
C       -0.2468110000    0.9963240000    0.0000000000
H        0.1483290000   -0.0226020000    0.0000000000
13   
Frame   8 IRC: Energy =  -286.8762470000 ; +0.1556 kcal/mol
C       -0.2504540000   -0.0388660000   -0.0000000000
C        0.0631440000    0.0600060000   -0.0000000000
C       -0.1369690000   -0.0377520000   -0.0000000000
C       -0.0237500000    0.0264020000    0.0000000000
C       -0.0468470000   -0.0534390000   -0.0000000000
N       -0.1817300000    0.0194190000   -0.0000000000
H        0.1248760000    0.0008970000   -0.0000000000
H        0.1335760000    0.0025940000   -0.0000000000
H        0.1441390000    0.0158110000   -0.0000000000
H        0.1441590000    0.0260790000   -0.0000000000
H        0.1280270000    0.0050090000   -0.0000000000
C       -0.2465330000    0.9963360000    0.0000000000
H        0.1483630000   -0.0224960000    0.0000000000
13   
Frame   9 IRC: Energy =  -286.8762140000 ; +0.1763 kcal/mol
C       -0.2498270000   -0.0390220000   -0.0000000000
C        0.0619020000    0.0608510000   -0.0000000000
C       -0.1354090000   -0.0388580000   -0.0000000000
C       -0.0244490000    0.0260560000    0.0000000000
C       -0.0466210000   -0.0533940000   -0.0000000000
N       -0.1820580000    0.0194830000   -0.0000000000
H        0.1247790000    0.0008890000   -0.0000000000
H        0.1334510000    0.0026040000   -0.0000000000
H        0.1441700000    0.0159230000   -0.0000000000
H        0.1441970000    0.0262970000   -0.0000000000
H        0.1278830000    0.0050210000   -0.0000000000
C       -0.2462360000    0.9969360000    0.0000000000
H        0.1482170000   -0.0227880000    0.0000000000
13   
Frame  10 IRC: Energy =  -286.8761960000 ; +0.1876 kcal/mol
C       -0.2488600000   -0.0391480000   -0.0000000000
C        0.0610820000    0.0611370000   -0.0000000000
C       -0.1348310000   -0.0390460000   -0.0000000000
C       -0.0251900000    0.0258180000    0.0000000000
C       -0.0463560000   -0.0533280000   -0.0000000000
N       -0.1821030000    0.0195550000   -0.0000000000
H        0.1247400000    0.0008850000   -0.0000000000
H        0.1334180000    0.0026320000   -0.0000000000
H        0.1441990000    0.0159410000   -0.0000000000
H        0.1442040000    0.0263640000   -0.0000000000
H        0.1277690000    0.0050600000   -0.0000000000
C       -0.2462250000    0.9970480000    0.0000000000
H        0.1481530000   -0.0229180000    0.0000000000
13   
Frame  11 IRC: Energy =  -286.8760920000 ; +0.2529 kcal/mol
C       -0.2493420000   -0.0388770000   -0.0000000000
C        0.0583320000    0.0624580000   -0.0000000000
C       -0.1347430000   -0.0407680000   -0.0000000000
C       -0.0250350000    0.0243720000    0.0000000000
C       -0.0452170000   -0.0531880000   -0.0000000000
N       -0.1817050000    0.0196740000   -0.0000000000
H        0.1249240000    0.0008690000   -0.0000000000
H        0.1336220000    0.0024640000   -0.0000000000
H        0.1440460000    0.0156830000   -0.0000000000
H        0.1441060000    0.0269340000   -0.0000000000
H        0.1279290000    0.0050010000   -0.0000000000
C       -0.2451620000    0.9982810000    0.0000000000
H        0.1482440000   -0.0229040000    0.0000000000
13   
Frame  12 IRC: Energy =  -286.8760740000 ; +0.2642 kcal/mol
C       -0.2488430000   -0.0388740000   -0.0000000000
C        0.0577850000    0.0626660000   -0.0000000000
C       -0.1344720000   -0.0409160000   -0.0000000000
C       -0.0255960000    0.0243920000    0.0000000000
C       -0.0450500000   -0.0533100000   -0.0000000000
N       -0.1817930000    0.0197590000   -0.0000000000
H        0.1249080000    0.0008650000   -0.0000000000
H        0.1337330000    0.0024540000   -0.0000000000
H        0.1440310000    0.0156200000   -0.0000000000
H        0.1441090000    0.0269350000   -0.0000000000
H        0.1280050000    0.0049860000   -0.0000000000
C       -0.2451010000    0.9982710000    0.0000000000
H        0.1482840000   -0.0228460000    0.0000000000
13   
Frame  13 IRC: Energy =  -286.8757340000 ; +0.4775 kcal/mol
C       -0.2473950000   -0.0380070000   -0.0000000000
C        0.0500850000    0.0657780000   -0.0000000000
C       -0.1303080000   -0.0460530000   -0.0000000000
C       -0.0274070000    0.0199120000    0.0000000000
C       -0.0427610000   -0.0513510000   -0.0000000000
N       -0.1815220000    0.0196710000   -0.0000000000
H        0.1249190000    0.0007600000   -0.0000000000
H        0.1337310000    0.0023470000   -0.0000000000
H        0.1439870000    0.0154750000   -0.0000000000
H        0.1440680000    0.0285730000   -0.0000000000
H        0.1276980000    0.0049480000   -0.0000000000
C       -0.2430320000    1.0016540000    0.0000000000
H        0.1479370000   -0.0237070000    0.0000000000
13   
Frame  14 IRC: Energy =  -286.8757110000 ; +0.4920 kcal/mol
C       -0.2476480000   -0.0378980000   -0.0000000000
C        0.0497240000    0.0657270000   -0.0000000000
C       -0.1296670000   -0.0463120000   -0.0000000000
C       -0.0274000000    0.0197330000    0.0000000000
C       -0.0424790000   -0.0512130000   -0.0000000000
N       -0.1816140000    0.0196180000   -0.0000000000
H        0.1250290000    0.0007610000   -0.0000000000
H        0.1336560000    0.0023340000   -0.0000000000
H        0.1439660000    0.0155840000   -0.0000000000
H        0.1440580000    0.0285850000   -0.0000000000
H        0.1275530000    0.0049540000   -0.0000000000
C       -0.2430700000    1.0019050000    0.0000000000
H        0.1478930000   -0.0237790000    0.0000000000
13   
Frame  15 IRC: Energy =  -286.8752890000 ; +0.7568 kcal/mol
C       -0.2449250000   -0.0359660000   -0.0000000000
C        0.0424880000    0.0675540000   -0.0000000000
C       -0.1273830000   -0.0505540000   -0.0000000000
C       -0.0288410000    0.0145270000    0.0000000000
C       -0.0407420000   -0.0481680000   -0.0000000000
N       -0.1810190000    0.0192920000   -0.0000000000
H        0.1250020000    0.0005950000   -0.0000000000
H        0.1338780000    0.0022370000   -0.0000000000
H        0.1438760000    0.0152380000   -0.0000000000
H        0.1439450000    0.0301040000   -0.0000000000
H        0.1275660000    0.0048810000   -0.0000000000
C       -0.2415640000    1.0048150000    0.0000000000
H        0.1477180000   -0.0245540000    0.0000000000
13   
Frame  16 IRC: Energy =  -286.8752420000 ; +0.7863 kcal/mol
C       -0.2440880000   -0.0359380000   -0.0000000000
C        0.0414620000    0.0675840000   -0.0000000000
C       -0.1281610000   -0.0502140000   -0.0000000000
C       -0.0292880000    0.0139260000    0.0000000000
C       -0.0403650000   -0.0478920000   -0.0000000000
N       -0.1803520000    0.0193620000   -0.0000000000
H        0.1249970000    0.0005780000   -0.0000000000
H        0.1340070000    0.0022720000   -0.0000000000
H        0.1439280000    0.0149900000   -0.0000000000
H        0.1439600000    0.0301900000   -0.0000000000
H        0.1274010000    0.0049330000   -0.0000000000
C       -0.2412500000    1.0047220000    0.0000000000
H        0.1477500000   -0.0245110000    0.0000000000
13   
Frame  17 IRC: Energy =  -286.8747210000 ; +1.1132 kcal/mol
C       -0.2426030000   -0.0325630000   -0.0000000000
C        0.0349440000    0.0680480000   -0.0000000000
C       -0.1234110000   -0.0553080000   -0.0000000000
C       -0.0296480000    0.0082990000    0.0000000000
C       -0.0390980000   -0.0435730000   -0.0000000000
N       -0.1807520000    0.0184660000   -0.0000000000
H        0.1251370000    0.0003680000   -0.0000000000
H        0.1339060000    0.0021600000   -0.0000000000
H        0.1437350000    0.0152420000   -0.0000000000
H        0.1437630000    0.0316920000   -0.0000000000
H        0.1273840000    0.0047660000   -0.0000000000
C       -0.2407670000    1.0081140000    0.0000000000
H        0.1474100000   -0.0257120000    0.0000000000
13   
Frame  18 IRC: Energy =  -286.8746440000 ; +1.1615 kcal/mol
C       -0.2415970000   -0.0321640000   -0.0000000000
C        0.0337340000    0.0680180000   -0.0000000000
C       -0.1239490000   -0.0553310000   -0.0000000000
C       -0.0300010000    0.0073320000    0.0000000000
C       -0.0388960000   -0.0429490000   -0.0000000000
N       -0.1802100000    0.0184910000   -0.0000000000
H        0.1250870000    0.0003270000   -0.0000000000
H        0.1340400000    0.0021910000   -0.0000000000
H        0.1437680000    0.0150080000   -0.0000000000
H        0.1437520000    0.0319080000   -0.0000000000
H        0.1273430000    0.0047930000   -0.0000000000
C       -0.2404980000    1.0081570000    0.0000000000
H        0.1474270000   -0.0257800000    0.0000000000
13   
Frame  19 IRC: Energy =  -286.8743910000 ; +1.3203 kcal/mol
C       -0.2412820000   -0.0303670000   -0.0000000000
C        0.0310710000    0.0677940000   -0.0000000000
C       -0.1214190000   -0.0575710000   -0.0000000000
C       -0.0298330000    0.0049190000    0.0000000000
C       -0.0383910000   -0.0408870000   -0.0000000000
N       -0.1805670000    0.0179720000   -0.0000000000
H        0.1252180000    0.0002300000   -0.0000000000
H        0.1339320000    0.0021380000   -0.0000000000
H        0.1436680000    0.0152470000   -0.0000000000
H        0.1436560000    0.0324920000   -0.0000000000
H        0.1272930000    0.0047020000   -0.0000000000
C       -0.2406070000    1.0096800000    0.0000000000
H        0.1472630000   -0.0263500000    0.0000000000
13   
Frame  20 IRC: Energy =  -286.8742780000 ; +1.3912 kcal/mol
C       -0.2400830000   -0.0296170000   -0.0000000000
C        0.0295480000    0.0675860000   -0.0000000000
C       -0.1218260000   -0.0577510000   -0.0000000000
C       -0.0301590000    0.0035740000    0.0000000000
C       -0.0382110000   -0.0398210000   -0.0000000000
N       -0.1799970000    0.0178740000   -0.0000000000
H        0.1251620000    0.0001700000   -0.0000000000
H        0.1340770000    0.0021730000   -0.0000000000
H        0.1436910000    0.0150060000   -0.0000000000
H        0.1436280000    0.0327880000   -0.0000000000
H        0.1272710000    0.0047120000   -0.0000000000
C       -0.2403720000    1.0098030000    0.0000000000
H        0.1472700000   -0.0264960000    0.0000000000
13   
Frame  21 IRC: Energy =  -286.8740600000 ; +1.5280 kcal/mol
C       -0.2399860000   -0.0280190000   -0.0000000000
C        0.0274560000    0.0672230000   -0.0000000000
C       -0.1195300000   -0.0595810000   -0.0000000000
C       -0.0298840000    0.0016530000    0.0000000000
C       -0.0378070000   -0.0380910000   -0.0000000000
N       -0.1803840000    0.0173970000   -0.0000000000
H        0.1252980000    0.0000890000   -0.0000000000
H        0.1339600000    0.0021300000   -0.0000000000
H        0.1436060000    0.0152600000   -0.0000000000
H        0.1435460000    0.0332300000   -0.0000000000
H        0.1272080000    0.0046290000   -0.0000000000
C       -0.2406150000    1.0110610000    0.0000000000
H        0.1471310000   -0.0269810000    0.0000000000
13   
Frame  22 IRC: Energy =  -286.8739050000 ; +1.6253 kcal/mol
C       -0.2385800000   -0.0268470000   -0.0000000000
C        0.0255770000    0.0667700000   -0.0000000000
C       -0.1197900000   -0.0599070000   -0.0000000000
C       -0.0301670000   -0.0000930000    0.0000000000
C       -0.0376480000   -0.0365840000   -0.0000000000
N       -0.1797670000    0.0172090000   -0.0000000000
H        0.1252400000    0.0000040000   -0.0000000000
H        0.1341170000    0.0021720000   -0.0000000000
H        0.1436210000    0.0150110000   -0.0000000000
H        0.1435000000    0.0336050000   -0.0000000000
H        0.1271970000    0.0046280000   -0.0000000000
C       -0.2404290000    1.0112430000    0.0000000000
H        0.1471300000   -0.0272130000    0.0000000000
13   
Frame  23 IRC: Energy =  -286.8736940000 ; +1.7577 kcal/mol
C       -0.2385810000   -0.0252810000   -0.0000000000
C        0.0236890000    0.0663060000   -0.0000000000
C       -0.1175120000   -0.0615740000   -0.0000000000
C       -0.0298270000   -0.0018150000    0.0000000000
C       -0.0372620000   -0.0349800000   -0.0000000000
N       -0.1801870000    0.0167450000   -0.0000000000
H        0.1253840000   -0.0000710000   -0.0000000000
H        0.1339910000    0.0021330000   -0.0000000000
H        0.1435420000    0.0152820000   -0.0000000000
H        0.1434220000    0.0339850000   -0.0000000000
H        0.1271220000    0.0045480000   -0.0000000000
C       -0.2407810000    1.0123940000    0.0000000000
H        0.1470000000   -0.0276710000    0.0000000000
13   
Frame  24 IRC: Energy =  -286.8734940000 ; +1.8832 kcal/mol
C       -0.2369700000   -0.0236410000   -0.0000000000
C        0.0214730000    0.0655320000   -0.0000000000
C       -0.1176470000   -0.0619870000   -0.0000000000
C       -0.0300580000   -0.0039360000    0.0000000000
C       -0.0371350000   -0.0330000000   -0.0000000000
N       -0.1795040000    0.0164520000   -0.0000000000
H        0.1253290000   -0.0001810000   -0.0000000000
H        0.1341620000    0.0021860000   -0.0000000000
H        0.1435490000    0.0150240000   -0.0000000000
H        0.1433580000    0.0344240000   -0.0000000000
H        0.1271130000    0.0045350000   -0.0000000000
C       -0.2406650000    1.0125790000    0.0000000000
H        0.1469940000   -0.0279880000    0.0000000000
13   
Frame  25 IRC: Energy =  -286.8732740000 ; +2.0212 kcal/mol
C       -0.2370030000   -0.0219770000   -0.0000000000
C        0.0195930000    0.0649470000   -0.0000000000
C       -0.1152560000   -0.0636160000   -0.0000000000
C       -0.0296660000   -0.0056300000    0.0000000000
C       -0.0367310000   -0.0313760000   -0.0000000000
N       -0.1799720000    0.0159650000   -0.0000000000
H        0.1254810000   -0.0002590000   -0.0000000000
H        0.1340300000    0.0021510000   -0.0000000000
H        0.1434740000    0.0153110000   -0.0000000000
H        0.1432780000    0.0347880000   -0.0000000000
H        0.1270320000    0.0044510000   -0.0000000000
C       -0.2411290000    1.0136980000    0.0000000000
H        0.1468690000   -0.0284530000    0.0000000000
13   
Frame  26 IRC: Energy =  -286.8730020000 ; +2.1919 kcal/mol
C       -0.2351180000   -0.0196070000   -0.0000000000
C        0.0168360000    0.0636880000   -0.0000000000
C       -0.1151040000   -0.0641950000   -0.0000000000
C       -0.0298110000   -0.0082960000    0.0000000000
C       -0.0366440000   -0.0287050000   -0.0000000000
N       -0.1792260000    0.0155220000   -0.0000000000
H        0.1254390000   -0.0004070000   -0.0000000000
H        0.1342160000    0.0022180000   -0.0000000000
H        0.1434690000    0.0150500000   -0.0000000000
H        0.1431880000    0.0353210000   -0.0000000000
H        0.1270250000    0.0044180000   -0.0000000000
C       -0.2411270000    1.0138970000    0.0000000000
H        0.1468560000   -0.0289050000    0.0000000000
13   
Frame  27 IRC: Energy =  -286.8727780000 ; +2.3325 kcal/mol
C       -0.2351800000   -0.0179100000   -0.0000000000
C        0.0149820000    0.0630190000   -0.0000000000
C       -0.1126220000   -0.0657490000   -0.0000000000
C       -0.0294030000   -0.0098960000    0.0000000000
C       -0.0361630000   -0.0271360000   -0.0000000000
N       -0.1797370000    0.0150310000   -0.0000000000
H        0.1255950000   -0.0004830000   -0.0000000000
H        0.1340720000    0.0021840000   -0.0000000000
H        0.1433980000    0.0153510000   -0.0000000000
H        0.1431060000    0.0356470000   -0.0000000000
H        0.1269290000    0.0043320000   -0.0000000000
C       -0.2417090000    1.0149690000    0.0000000000
H        0.1467330000   -0.0293600000    0.0000000000
13   
Frame  28 IRC: Energy =  -286.8724700000 ; +2.5257 kcal/mol
C       -0.2331480000   -0.0150080000   -0.0000000000
C        0.0120430000    0.0612750000   -0.0000000000
C       -0.1124370000   -0.0662260000   -0.0000000000
C       -0.0294970000   -0.0127530000    0.0000000000
C       -0.0361570000   -0.0239920000   -0.0000000000
N       -0.1788950000    0.0144410000   -0.0000000000
H        0.1255630000   -0.0006560000   -0.0000000000
H        0.1342810000    0.0022710000   -0.0000000000
H        0.1433860000    0.0150700000   -0.0000000000
H        0.1430070000    0.0361840000   -0.0000000000
H        0.1269210000    0.0042820000   -0.0000000000
C       -0.2417890000    1.0149780000    0.0000000000
H        0.1467220000   -0.0298670000    0.0000000000
13   
Frame  29 IRC: Energy =  -286.8722110000 ; +2.6883 kcal/mol
C       -0.2331400000   -0.0130380000   -0.0000000000
C        0.0099780000    0.0604350000   -0.0000000000
C       -0.1096880000   -0.0678460000   -0.0000000000
C       -0.0290940000   -0.0144980000    0.0000000000
C       -0.0355810000   -0.0222580000   -0.0000000000
N       -0.1794840000    0.0139200000   -0.0000000000
H        0.1257190000   -0.0007450000   -0.0000000000
H        0.1341310000    0.0022400000   -0.0000000000
H        0.1433190000    0.0153920000   -0.0000000000
H        0.1429090000    0.0365550000   -0.0000000000
H        0.1268310000    0.0041890000   -0.0000000000
C       -0.2425170000    1.0160200000    0.0000000000
H        0.1466150000   -0.0303670000    0.0000000000
13   
Frame  30 IRC: Energy =  -286.8718030000 ; +2.9443 kcal/mol
C       -0.2308190000   -0.0090080000   -0.0000000000
C        0.0063690000    0.0578780000   -0.0000000000
C       -0.1090500000   -0.0684280000   -0.0000000000
C       -0.0291080000   -0.0178980000    0.0000000000
C       -0.0356160000   -0.0182290000   -0.0000000000
N       -0.1785760000    0.0131270000   -0.0000000000
H        0.1257270000   -0.0009730000   -0.0000000000
H        0.1343660000    0.0023510000   -0.0000000000
H        0.1432880000    0.0151100000   -0.0000000000
H        0.1427880000    0.0371650000   -0.0000000000
H        0.1268220000    0.0041070000   -0.0000000000
C       -0.2427870000    1.0158270000    0.0000000000
H        0.1465970000   -0.0310290000    0.0000000000
13   
Frame  31 IRC: Energy =  -286.8713670000 ; +3.2179 kcal/mol
C       -0.2300790000   -0.0054680000   -0.0000000000
C        0.0030030000    0.0560640000   -0.0000000000
C       -0.1055510000   -0.0703830000   -0.0000000000
C       -0.0286310000   -0.0207580000    0.0000000000
C       -0.0349210000   -0.0150960000   -0.0000000000
N       -0.1791310000    0.0122870000   -0.0000000000
H        0.1258960000   -0.0011430000   -0.0000000000
H        0.1342520000    0.0023380000   -0.0000000000
H        0.1431990000    0.0154040000   -0.0000000000
H        0.1426220000    0.0377120000   -0.0000000000
H        0.1267750000    0.0039560000   -0.0000000000
C       -0.2438890000    1.0168740000    0.0000000000
H        0.1464560000   -0.0317840000    0.0000000000
13   
Frame  32 IRC: Energy =  -286.8702010000 ; +3.9495 kcal/mol
C       -0.2256480000    0.0062930000   -0.0000000000
C       -0.0063250000    0.0485450000   -0.0000000000
C       -0.1004010000   -0.0723060000   -0.0000000000
C       -0.0292130000   -0.0281090000    0.0000000000
C       -0.0336020000   -0.0050740000   -0.0000000000
N       -0.1782560000    0.0099730000   -0.0000000000
H        0.1261470000   -0.0017530000   -0.0000000000
H        0.1345230000    0.0025430000   -0.0000000000
H        0.1430550000    0.0150450000   -0.0000000000
H        0.1422870000    0.0388040000   -0.0000000000
H        0.1266520000    0.0036070000   -0.0000000000
C       -0.2455220000    1.0158110000    0.0000000000
H        0.1463030000   -0.0333790000    0.0000000000
13   
Frame  33 IRC: Energy =  -286.8699990000 ; +4.0763 kcal/mol
C       -0.2259210000    0.0074180000   -0.0000000000
C       -0.0066660000    0.0483540000   -0.0000000000
C       -0.0973370000   -0.0736950000   -0.0000000000
C       -0.0289050000   -0.0283810000    0.0000000000
C       -0.0335990000   -0.0044410000   -0.0000000000
N       -0.1792550000    0.0096150000   -0.0000000000
H        0.1261610000   -0.0017820000   -0.0000000000
H        0.1343740000    0.0024960000   -0.0000000000
H        0.1428910000    0.0155620000   -0.0000000000
H        0.1422080000    0.0388420000   -0.0000000000
H        0.1268570000    0.0035130000   -0.0000000000
C       -0.2468180000    1.0161240000    0.0000000000
H        0.1460110000   -0.0336240000    0.0000000000
13   
Frame  34 IRC: Energy =  -286.8689290000 ; +4.7477 kcal/mol
C       -0.2213840000    0.0194150000   -0.0000000000
C       -0.0154240000    0.0399260000   -0.0000000000
C       -0.0949070000   -0.0735940000   -0.0000000000
C       -0.0304950000   -0.0346270000    0.0000000000
C       -0.0319590000    0.0051980000   -0.0000000000
N       -0.1778240000    0.0074600000   -0.0000000000
H        0.1264640000   -0.0024240000   -0.0000000000
H        0.1347830000    0.0027580000   -0.0000000000
H        0.1429110000    0.0145980000   -0.0000000000
H        0.1419860000    0.0396300000   -0.0000000000
H        0.1266280000    0.0031690000   -0.0000000000
C       -0.2470090000    1.0132810000    0.0000000000
H        0.1462300000   -0.0347910000    0.0000000000
13   
Frame  35 IRC: Energy =  -286.8685670000 ; +4.9749 kcal/mol
C       -0.2212110000    0.0224470000   -0.0000000000
C       -0.0171170000    0.0385990000   -0.0000000000
C       -0.0909260000   -0.0750530000   -0.0000000000
C       -0.0306370000   -0.0355700000    0.0000000000
C       -0.0311150000    0.0069430000   -0.0000000000
N       -0.1785000000    0.0069070000   -0.0000000000
H        0.1265680000   -0.0025410000   -0.0000000000
H        0.1346630000    0.0027400000   -0.0000000000
H        0.1426890000    0.0151150000   -0.0000000000
H        0.1418580000    0.0396490000   -0.0000000000
H        0.1266500000    0.0030680000   -0.0000000000
C       -0.2487380000    1.0128150000    0.0000000000
H        0.1458170000   -0.0351200000    0.0000000000
13   
Frame  36 IRC: Energy =  -286.8672290000 ; +5.8145 kcal/mol
C       -0.2166990000    0.0387690000   -0.0000000000
C       -0.0257640000    0.0273300000   -0.0000000000
C       -0.0865040000   -0.0742100000   -0.0000000000
C       -0.0341050000   -0.0406090000    0.0000000000
C       -0.0286160000    0.0180410000   -0.0000000000
N       -0.1778140000    0.0039840000   -0.0000000000
H        0.1269230000   -0.0033980000   -0.0000000000
H        0.1351390000    0.0030630000   -0.0000000000
H        0.1426000000    0.0138880000   -0.0000000000
H        0.1416490000    0.0396790000   -0.0000000000
H        0.1265940000    0.0025170000   -0.0000000000
C       -0.2492170000    1.0067990000    0.0000000000
H        0.1458140000   -0.0358550000    0.0000000000
13   
Frame  37 IRC: Energy =  -286.8669150000 ; +6.0115 kcal/mol
C       -0.2174910000    0.0407820000   -0.0000000000
C       -0.0246380000    0.0263510000   -0.0000000000
C       -0.0847820000   -0.0750520000   -0.0000000000
C       -0.0326660000   -0.0414000000    0.0000000000
C       -0.0285440000    0.0198200000   -0.0000000000
N       -0.1783220000    0.0035030000   -0.0000000000
H        0.1267100000   -0.0034550000   -0.0000000000
H        0.1350060000    0.0030470000   -0.0000000000
H        0.1424160000    0.0142380000   -0.0000000000
H        0.1414260000    0.0399930000   -0.0000000000
H        0.1269800000    0.0024730000   -0.0000000000
C       -0.2513370000    1.0056370000    0.0000000000
H        0.1452400000   -0.0359380000    0.0000000000
13   
Frame  38 IRC: Energy =  -286.8656570000 ; +6.8010 kcal/mol
C       -0.2124730000    0.0594230000   -0.0000000000
C       -0.0341520000    0.0136860000   -0.0000000000
C       -0.0788190000   -0.0729920000   -0.0000000000
C       -0.0398750000   -0.0440770000    0.0000000000
C       -0.0258160000    0.0303480000   -0.0000000000
N       -0.1782110000    0.0000450000   -0.0000000000
H        0.1273480000   -0.0044730000   -0.0000000000
H        0.1357220000    0.0034800000   -0.0000000000
H        0.1423020000    0.0128300000   -0.0000000000
H        0.1414830000    0.0390520000   -0.0000000000
H        0.1267440000    0.0017440000   -0.0000000000
C       -0.2499300000    0.9971290000    0.0000000000
H        0.1456770000   -0.0361970000    0.0000000000
13   