
Running Job 1 of 1 irc_product.in
qchem irc_product.in_4072.0 ./irc_product.d/ 1
/home/leeping/opt/qchem/5.0.2-openmp/exe/qcprog.exe_s irc_product.in_4072.0 ./irc_product.d/
Check license passed

                  Welcome to Q-Chem
     A Quantum Leap Into The Future Of Chemistry


 Q-Chem 5.0, Q-Chem, Inc., Pleasanton, CA (2017)

 Yihan Shao,  Zhengting Gan,  E. Epifanovsky,  A. T. B. Gilbert,  M. Wormit,  
 J. Kussmann,  A. W. Lange,  A. Behn,  Jia Deng,  Xintian Feng,  D. Ghosh,  
 M. Goldey,  P. R. Horn,  L. D. Jacobson,  I. Kaliman,  T. Kus,  A. Landau,  
 Jie Liu,  E. I. Proynov,  R. M. Richard,  R. P. Steele,  E. J. Sundstrom,  
 H. L. Woodcock III,  P. M. Zimmerman,  D. Zuev,  B. Albrecht,  E. Alguire,  
 S. A. Baeppler,  D. Barton,  Z. Benda,  Y. A. Bernard,  E. J. Berquist,  
 K. B. Bravaya,  H. Burton,  D. Casanova,  Chun-Min Chang,  Yunqing Chen,  
 A. Chien,  K. D. Closser,  M. P. Coons,  S. Dasgupta,  A. L. Dempwolff,  
 M. Diedenhofen,  Hainam Do,  R. G. Edgar,  Po-Tung Fang,  S. Fatehi,  
 Qingguo Feng,  J. Fosso-Tande,  Qinghui Ge,  A. Ghysels,  G. Gidofalvi,  
 J. Gomes,  J. Gonthier,  A. Gunina,  M. W. D. Hanson-Heine,  
 P. H. P. Harbach,  A. W. Hauser,  J. E. Herr,  E. G. Hohenstein,  
 Z. C. Holden,  Kerwin Hui,  T.-C. Jagau,  Hyunjun Ji,  B. Kaduk,  
 K. Khistyaev,  Jaehoon Kim,  P. Klunzinger,  K. Koh,  D. Kosenkov,  
 L. Koulias,  T. Kowalczyk,  C. M. Krauter,  A. Kunitsa,  Ka Un Lao,  
 A. Laurent,  K. V. Lawler,  Joonho Lee,  D. Lefrancois,  S. Lehtola,  
 D. S. Levine,  Yi-Pei Li,  You-Sheng Lin,  Fenglai Liu,  E. Livshits,  
 A. Luenser,  P. Manohar,  E. Mansoor,  S. F. Manzer,  Shan-Ping Mao,  
 Yuezhi Mao,  N. Mardirossian,  A. V. Marenich,  T. Markovich,  
 L. A. Martinez-Martinez,  S. A. Maurer,  N. J. Mayhall,  S. C. McKenzie,  
 J.-M. Mewes,  A. F. Morrison,  J. W. Mullinax,  K. Nanda,  
 T. S. Nguyen-Beck,  R. Olivares-Amaya,  J. A. Parkhill,  T. M. Perrine,  
 F. Plasser,  S. Prager,  A. Prociuk,  E. Ramos,  D. R. Rehn,  F. Rob,  
 M. Schneider,  N. Sergueev,  S. M. Sharada,  S. Sharma,  D. W. Small,  
 T. Stauch,  T. Stein,  Yu-Chuan Su,  A. J. W. Thom,  A. Tkatchenko,  
 T. Tsuchimochi,  L. Vogt,  O. Vydrov,  M. A. Watson,  J. Wenzel,  
 M. de Wergifosse,  T. A. Wesolowski,  A. White,  J. Witte,  A. Yamada,  
 Jun Yang,  K. Yao,  S. Yeganeh,  S. R. Yost,  Zhi-Qiang You,  A. Zech,  
 Igor Ying Zhang,  Xing Zhang,  Yan Zhao,  Ying Zhu,  B. R. Brooks,  
 G. K. L. Chan,  C. J. Cramer,  M. S. Gordon,  W. J. Hehre,  A. Klamt,  
 M. W. Schmidt,  C. D. Sherrill,  D. G. Truhlar,  A. Aspuru-Guzik,  R. Baer,  
 A. T. Bell,  N. A. Besley,  Jeng-Da Chai,  R. A. DiStasio Jr.,  A. Dreuw,  
 B. D. Dunietz,  T. R. Furlani,  Chao-Ping Hsu,  Yousung Jung,  Jing Kong,  
 D. S. Lambrecht,  WanZhen Liang,  C. Ochsenfeld,  V. A. Rassolov,  
 L. V. Slipchenko,  J. E. Subotnik,  T. Van Voorhis,  J. M. Herbert,  
 A. I. Krylov,  P. M. W. Gill,  M. Head-Gordon

 Contributors to earlier versions of Q-Chem not listed above: 
 R. D. Adamson,  B. Austin,  J. Baker,  G. J. O. Beran,  K. Brandhorst,  
 S. T. Brown,  E. F. C. Byrd,  A. K. Chakraborty,  C.-L. Cheng,  
 Siu Hung Chien,  D. M. Chipman,  D. L. Crittenden,  H. Dachsel,  
 R. J. Doerksen,  A. D. Dutoi,  L. Fusti-Molnar,  W. A. Goddard III,  
 A. Golubeva-Zadorozhnaya,  S. R. Gwaltney,  G. Hawkins,  A. Heyden,  
 S. Hirata,  G. Kedziora,  F. J. Keil,  C. Kelley,  Jihan Kim,  R. A. King,  
 R. Z. Khaliullin,  P. P. Korambath,  W. Kurlancheek,  A. M. Lee,  M. S. Lee,  
 S. V. Levchenko,  Ching Yeh Lin,  D. Liotard,  R. C. Lochan,  I. Lotan,  
 P. E. Maslen,  N. Nair,  D. P. O'Neill,  D. Neuhauser,  E. Neuscamman,  
 C. M. Oana,  R. Olson,  B. Peters,  R. Peverati,  P. A. Pieniazek,  
 Y. M. Rhee,  J. Ritchie,  M. A. Rohrdanz,  E. Rosta,  N. J. Russ,  
 H. F. Schaefer III,  N. E. Schultz,  N. Shenvi,  A. C. Simmonett,  A. Sodt,  
 D. Stuck,  K. S. Thanthiriwatte,  V. Vanovschi,  Tao Wang,  A. Warshel,  
 C. F. Williams,  Q. Wu,  X. Xu,  W. Zhang

 Please cite Q-Chem as follows:
 Y. Shao et al., Mol. Phys. 113, 184-215 (2015)
 DOI: 10.1080/00268976.2014.952696

 Q-Chem 5.0.2 for Intel X86 EM64T Linux

 Parts of Q-Chem use Armadillo 5.200.1 (Boston Tea Smuggler).
 http://arma.sourceforge.net/

 Q-Chem begins on Wed Mar  2 01:22:05 2022  

Host: 
0

     Scratch files written to ./irc_product.d//
 Dec517 15110_ 26548  26544 5633   
Processing $rem in /home/leeping/opt/qchem/5.0.2-openmp/config/preferences.
 MEM_STATIC 2000
 MEM_TOTAL  8000
 SYMMETRY   OFF
 SYM_IGNORE TRUE 

Checking the input file for inconsistencies... 	...done.

--------------------------------------------------------------
User input:
--------------------------------------------------------------
$molecule
0 2
C        1.5779469684    0.4187592301   -0.1637269914
C        0.8150283981   -0.8257173397    0.0989648667
C       -0.5607284438   -0.9747999929   -0.5291910636
C       -1.1156385907    0.3342952092    0.0132378223
C       -0.3603678040    1.5755786040   -0.2795527659
N        0.9707663675    1.5897774397   -0.3545177004
H        2.6647564820    0.3997771833   -0.1973506900
H        1.3917362961   -1.7400176595    0.2254794554
H       -1.0068983984   -1.7610263481   -1.1204013096
H       -2.1990878065    0.4174228136    0.0709183894
H       -0.8880146071    2.5101957788   -0.4561617909
C       -0.4691753240   -0.7121072545    0.9065177435
H       -0.8203235374   -1.2321376639    1.7857840344
$end

$rem
method                b3lyp
basis                 6-31+g(d,p)
unrestricted          true
symmetry              off
sym_ignore            true
incdft                false
incfock               0
scf_convergence       8
thresh                14
jobtype               sp
scf_guess             read
scf_algorithm         diis
max_scf_cycles        100
scf_final_print       1
$end

--------------------------------------------------------------
 ----------------------------------------------------------------
             Standard Nuclear Orientation (Angstroms)
    I     Atom           X                Y                Z
 ----------------------------------------------------------------
    1      C       1.5779469684     0.4187592301    -0.1637269914
    2      C       0.8150283981    -0.8257173397     0.0989648667
    3      C      -0.5607284438    -0.9747999929    -0.5291910636
    4      C      -1.1156385907     0.3342952092     0.0132378223
    5      C      -0.3603678040     1.5755786040    -0.2795527659
    6      N       0.9707663675     1.5897774397    -0.3545177004
    7      H       2.6647564820     0.3997771833    -0.1973506900
    8      H       1.3917362961    -1.7400176595     0.2254794554
    9      H      -1.0068983984    -1.7610263481    -1.1204013096
   10      H      -2.1990878065     0.4174228136     0.0709183894
   11      H      -0.8880146071     2.5101957788    -0.4561617909
   12      C      -0.4691753240    -0.7121072545     0.9065177435
   13      H      -0.8203235374    -1.2321376639     1.7857840344
 ----------------------------------------------------------------
 Nuclear Repulsion Energy =   277.0953218751 hartrees
 There are       25 alpha and       24 beta electrons
 Requested basis set is 6-31+G(d,p)
 There are 53 shells and 163 basis functions

 Total QAlloc Memory Limit   8000 MB
 Mega-Array Size      1956 MB
 MEM_STATIC part      2000 MB

                       Distance Matrix (Angstroms)
             C (  1)   C (  2)   C (  3)   C (  4)   C (  5)   N (  6)
   C (  2)  1.483163
   C (  3)  2.578663  1.519708
   C (  4)  2.700714  2.253986  1.521803
   C (  5)  2.260246  2.700195  2.570388  1.482209
   N (  6)  1.332799  2.462624  2.992164  2.462634  1.333319
   H (  7)  1.087495  2.238556  3.521837  3.786822  3.246636  2.076151
   H (  8)  2.201471  1.088367  2.228723  3.261096  3.783927  3.406046
   H (  9)  3.513989  2.383500  1.080162  2.384813  3.501137  3.965554
   H ( 10)  3.784317  3.260534  2.232182  1.088163  2.201147  3.406374
   H ( 11)  3.246628  3.786402  3.501092  2.237564  1.087709  2.076672
   C ( 12)  2.571963  1.521259  1.462412  1.520139  2.579168  2.993713
   H ( 13)  3.503963  2.384305  2.343656  2.383871  3.515743  3.968891
             H (  7)   H (  8)   H (  9)   H ( 10)   H ( 11)   C ( 12)
   H (  8)  2.525488
   H (  9)  4.359145  2.750506
   H ( 10)  4.871269  4.191951  2.754306
   H ( 11)  4.140415  4.870956  4.324198  2.525158
   C ( 12)  3.503761  2.232354  2.344734  2.228601  3.523572
   H ( 13)  4.329175  2.754215  2.959805  2.750055  4.363022  1.080206

 
 A cutoff of  1.0D-14 yielded   1391 shell pairs
 There are     13471 function pairs
 
 -------------------------------------------------------
 OpenMP Integral Computing Module                       
 Release: version 1.0, May 2013, Q-Chem Inc. Pittsburgh 
 -------------------------------------------------------
 Integral Job Info:
 Integral job number is                      11
 Integral operator is                         1
 short-range coefficients                     0
 long-range coefficients              100000000
 Omega coefficients                           0
 if combine SR and LR in K                    0
 Integral screening is                        0
 Integral computing path is                   2
 max size of driver memory is            800000
 size of driver memory is                593474
 size of scratch memory is              2361544
 max col of scratch BK array               1296
 max len of scratch array in speh3          155
 max len of scratch index in speh4           18
 max int batch size is                      520
 min int batch size is                       52
 fixed nKL is                                52
 max L of basis functions is                  2
 order of int derivative is                   0
 number of shells is                         53
 number of basis is                         163
 number of cartesian basis is               163
 number of contracted shell pairs          1391
 number of primitive shell pairs           4772
 maxK2 (contraction) of shell pair           36
 max number of K2 of shell pair               1
 max number of CS2 of shell pair            126
 max number of PS2 of shell pair            660
 mem total for path MDJ                  535308
 -------------------------------------------------------
 Smallest overlap matrix eigenvalue = 4.91E-05

 Scale SEOQF with 1.000000e-01/1.000000e-01/1.000000e-01

 Standard Electronic Orientation quadrupole field applied
 Nucleus-field energy     =     0.0000000049 hartrees
 Guess MOs from SCF MO coefficient file
 Reading MOs from coefficient file
 Reading MOs from coefficient file
 An unrestricted hybrid HF-DFT SCF calculation will be
 performed using Pulay DIIS extrapolation
 Exchange:     0.2000 Hartree-Fock + 0.0800 Slater + 0.7200 B88
 Correlation:  0.1900 VWN1RPA + 0.8100 LYP
 Using SG-1 standard quadrature grid
 SCF converges when DIIS error is below 1.0E-08
Using Q-Chem read-in guess as SCF_GUESS READ specified.

 using 4 threads for integral computing
 -------------------------------------------------------
 OpenMP Integral computing Module                
 Release: version 1.0, May 2013, Q-Chem Inc. Pittsburgh 
 -------------------------------------------------------
 -------------------------------------------------------
 OpenMP BLAS3 based DFT computing Module                
 Release: version 1.0, May 2013, Q-Chem Inc. Pittsburgh 
 -------------------------------------------------------
 ---------------------------------------
  Cycle       Energy         DIIS Error
 ---------------------------------------
    1    -286.8793654365      4.66E-10
    2    -286.8793654365      8.17E-10 Convergence criterion met
 ---------------------------------------
 One-Electron    Energy =  -934.4252066353
 Total Coulomb   Energy =   412.1097160831
 Alpha Exchange  Energy =    -4.0209502760
 Beta  Exchange  Energy =    -3.9337607415
 DFT   Exchange  Energy =   -31.5914784559
 DFT Correlation Energy =    -2.1130072908
 Nuclear Repu.   Energy =   277.0953218800
 Nuclear Attr.   Energy = -1218.5362073979
 Kinetic         Energy =   284.1110007625
 <S^2> = 0.7726
 SCF time:  CPU 10.32 s  wall 3.42 s
 Final Alpha MO Eigenvalues
            1           2           3           4           5           6
    1 -14.3309314 -10.2259709 -10.2259473 -10.2255541 -10.2254436 -10.2249762
            7           8           9          10          11          12
    1 -10.2247135  -0.9701031  -0.9071133  -0.7598710  -0.6523428  -0.6447027
           13          14          15          16          17          18
    1  -0.5972831  -0.5528740  -0.4895419  -0.4817008  -0.4733409  -0.4167378
           19          20          21          22          23          24
    1  -0.4044849  -0.3735705  -0.3481200  -0.3099037  -0.3085028  -0.2382817
           25          26          27          28          29          30
    1  -0.1838487  -0.0085451  -0.0012270   0.0165900   0.0233397   0.0297153
 Final Beta MO Eigenvalues
            1           2           3           4           5           6
    1 -14.3344599 -10.2261495 -10.2261338 -10.2234446 -10.2230743 -10.2176564
            7           8           9          10          11          12
    1 -10.2176113  -0.9660293  -0.9044160  -0.7480985  -0.6405343  -0.6397905
           13          14          15          16          17          18
    1  -0.5924873  -0.5502209  -0.4834800  -0.4762031  -0.4716242  -0.4132283
           19          20          21          22          23          24
    1  -0.3872136  -0.3702650  -0.3332558  -0.3086964  -0.3046657  -0.2387256
           25          26          27          28          29
    1  -0.0797722  -0.0009916   0.0006942   0.0166328   0.0238086
 SCF   energy in the final basis set = -286.87936544
 Total energy in the final basis set = -286.87936544
 
 --------------------------------------------------------------
 
                    Orbital Energies (a.u.)
 --------------------------------------------------------------
 
 Alpha MOs
 -- Occupied --
-14.331 -10.226 -10.226 -10.226 -10.225 -10.225 -10.225  -0.970
 -0.907  -0.760  -0.652  -0.645  -0.597  -0.553  -0.490  -0.482
 -0.473  -0.417  -0.404  -0.374  -0.348  -0.310  -0.309  -0.238
 -0.184
 -- Virtual --
 -0.009  -0.001   0.017   0.023   0.030   0.044   0.053   0.062
  0.064   0.078   0.087   0.095   0.097   0.115   0.116   0.118
  0.123   0.143   0.147   0.148   0.162   0.173   0.179   0.186
  0.193   0.198   0.211   0.224   0.228   0.236   0.251   0.258
  0.258   0.269   0.309   0.309   0.313   0.317   0.322   0.324
  0.344   0.368   0.454   0.474   0.632   0.638   0.641   0.661
  0.675   0.711   0.736   0.740   0.745   0.751   0.784   0.786
  0.820   0.839   0.860   0.902   0.936   0.954   0.958   0.977
  1.011   1.023   1.044   1.088   1.113   1.136   1.153   1.155
  1.193   1.205   1.326   1.354   1.400   1.405   1.467   1.506
  1.543   1.561   1.594   1.652   1.729   1.775   1.789   1.810
  1.849   1.906   1.940   1.959   1.982   2.078   2.079   2.161
  2.165   2.178   2.191   2.272   2.334   2.347   2.367   2.395
  2.410   2.419   2.436   2.478   2.513   2.531   2.544   2.555
  2.599   2.607   2.614   2.660   2.678   2.704   2.763   2.882
  2.912   2.929   2.961   3.141   3.149   3.277   3.295   3.425
  3.521   3.571   3.684   4.170   4.315   4.399   4.601   4.605
  4.712   4.740
 
 Beta MOs
 -- Occupied --
-14.334 -10.226 -10.226 -10.223 -10.223 -10.218 -10.218  -0.966
 -0.904  -0.748  -0.641  -0.640  -0.592  -0.550  -0.483  -0.476
 -0.472  -0.413  -0.387  -0.370  -0.333  -0.309  -0.305  -0.239
 -- Virtual --
 -0.080  -0.001   0.001   0.017   0.024   0.038   0.045   0.053
  0.062   0.065   0.079   0.087   0.097   0.106   0.115   0.117
  0.118   0.131   0.144   0.148   0.151   0.163   0.173   0.181
  0.192   0.196   0.199   0.211   0.231   0.232   0.238   0.250
  0.264   0.265   0.269   0.310   0.311   0.316   0.317   0.328
  0.329   0.345   0.372   0.459   0.479   0.637   0.643   0.660
  0.662   0.679   0.738   0.745   0.746   0.755   0.755   0.788
  0.788   0.824   0.846   0.862   0.909   0.939   0.955   0.958
  0.979   1.006   1.024   1.044   1.086   1.126   1.143   1.155
  1.156   1.194   1.207   1.339   1.355   1.410   1.417   1.474
  1.509   1.557   1.570   1.594   1.663   1.735   1.777   1.793
  1.812   1.863   1.907   1.950   1.967   1.985   2.080   2.081
  2.167   2.169   2.191   2.206   2.275   2.334   2.354   2.371
  2.398   2.413   2.430   2.436   2.480   2.526   2.537   2.548
  2.566   2.601   2.608   2.626   2.665   2.686   2.712   2.763
  2.883   2.914   2.933   2.965   3.143   3.152   3.278   3.296
  3.427   3.523   3.573   3.686   4.167   4.329   4.409   4.605
  4.610   4.721   4.744
 --------------------------------------------------------------
 
          Ground-State Mulliken Net Atomic Charges

     Atom                 Charge (a.u.)    Spin (a.u.)
  --------------------------------------------------------
      1 C                    -0.101772       0.605647
      2 C                    -0.171281      -0.050454
      3 C                    -0.014903       0.081491
      4 C                    -0.171854      -0.050503
      5 C                    -0.100740       0.606742
      6 N                    -0.216481      -0.202707
      7 H                     0.124272      -0.032265
      8 H                     0.130310       0.000800
      9 H                     0.141338      -0.004002
     10 H                     0.130306       0.000805
     11 H                     0.124293      -0.032341
     12 C                    -0.014901       0.080759
     13 H                     0.141414      -0.003973
  --------------------------------------------------------
  Sum of atomic charges =    -0.000000
  Sum of spin   charges =     1.000000

 -----------------------------------------------------------------
                    Cartesian Multipole Moments
 -----------------------------------------------------------------
    Charge (ESU x 10^10)
                -0.0000
    Dipole Moment (Debye)
         X      -1.6656      Y      -2.7285      Z       0.6034
       Tot       3.2532
    Quadrupole Moments (Debye-Ang)
        XX     -38.8246     XY      -4.2011     YY     -43.3010
        XZ       0.6230     YZ       0.3338     ZZ     -42.7078
    Octopole Moments (Debye-Ang^2)
       XXX     -11.9856    XXY     -11.6435    XYY     -15.0912
       YYY     -33.1597    XXZ       2.1812    XYZ       1.5959
       YYZ       2.5390    XZZ      -7.4102    YZZ     -11.7039
       ZZZ       7.7130
    Hexadecapole Moments (Debye-Ang^3)
      XXXX    -283.0391   XXXY     -29.1041   XXYY    -116.5501
      XYYY     -48.4349   YYYY    -360.9485   XXXZ       9.7045
      XXYZ       9.9731   XYYZ      10.4062   YYYZ      28.4637
      XXZZ     -73.5320   XYZZ      -4.8601   YYZZ     -76.9286
      XZZZ       8.6508   YZZZ      23.6019   ZZZZ    -111.2946
 -----------------------------------------------------------------
 Mayer SCF Bond Order, atomic valence on the diagonal:

            1           2           3           4           5           6
    1   3.5200648   0.9058609   0.0472350  -0.0041474   0.1729234   1.3445213
    2   0.9058609   4.0346623   1.1177550  -0.0031104  -0.0041106  -0.0197004
    3   0.0472350   1.1177550   3.8576857   1.1168458   0.0413168   0.0287614
    4  -0.0041474  -0.0031104   1.1168458   4.0370151   0.9065838  -0.0196932
    5   0.1729234  -0.0041106   0.0413168   0.9065838   3.5171256   1.3432457
    6   1.3445213  -0.0197004   0.0287614  -0.0196932   1.3432457   2.6801627
    7   0.9974732  -0.0529548   0.0110471  -0.0002745   0.0081651  -0.0295545
    8   0.0145070   0.8507903   0.0196131   0.0390076  -0.0030467   0.0109075
    9  -0.0033093   0.0423210   0.8430758   0.0415969  -0.0027199   0.0057938
   10  -0.0030545   0.0390447   0.0194484   0.8508705   0.0144979   0.0109154
   11   0.0081684  -0.0002675   0.0099894  -0.0529003   0.9973654  -0.0294753
   12   0.0423891   1.1176820   0.5720290   1.1199639   0.0462856   0.0286474
   13  -0.0025024   0.0413521   0.0305691   0.0422724  -0.0033809   0.0057938
            7           8           9          10          11          12
    1   0.9974732   0.0145070  -0.0033093  -0.0030545   0.0081684   0.0423891
    2  -0.0529548   0.8507903   0.0423210   0.0390447  -0.0002675   1.1176820
    3   0.0110471   0.0196131   0.8430758   0.0194484   0.0099894   0.5720290
    4  -0.0002745   0.0390076   0.0415969   0.8508705  -0.0529003   1.1199639
    5   0.0081651  -0.0030467  -0.0027199   0.0144979   0.9973654   0.0462856
    6  -0.0295545   0.0109075   0.0057938   0.0109154  -0.0294753   0.0286474
    7   0.9460349   0.0001486   0.0001941   0.0000808   0.0014339   0.0101009
    8   0.0001486   0.9559595   0.0001161   0.0039155   0.0000806   0.0197817
    9   0.0001941   0.0001161   0.9590990   0.0001334   0.0001734   0.0304433
   10   0.0000808   0.0039155   0.0001334   0.9559525   0.0001521   0.0198341
   11   0.0014339   0.0000806   0.0001734   0.0001521   0.9460358   0.0111196
   12   0.0101009   0.0197817   0.0304433   0.0198341   0.0111196   3.8612736
   13   0.0001752   0.0001381   0.0012805   0.0001141   0.0001960   0.8429971
           13
    1  -0.0025024
    2   0.0413521
    3   0.0305691
    4   0.0422724
    5  -0.0033809
    6   0.0057938
    7   0.0001752
    8   0.0001381
    9   0.0012805
   10   0.0001141
   11   0.0001960
   12   0.8429971
   13   0.9590052


Archival summary:
1\1\c8-73\SP\ProcedureUnspecified\6-31+G**\166(2)\hpark21\WedMar201:22:152022WedMar201:22:152022\0\\#,ProcedureUnspecified,6-31+G**,\\0,2\N\C,1,1.3328\H,2,1.0875,1,117.787\C,1,1.33332,2,115.939,3,-178.73,0\H,4,1.08771,1,117.777,2,-178.442,0\C,4,1.48221,1,121.921,2,0.653198,0\H,6,1.08816,4,116.991,1,179.082,0\C,2,1.48316,1,121.886,3,179.466,0\H,8,1.08837,2,116.93,1,178.951,0\C,8,1.51971,2,118.344,1,31.6462,0\H,10,1.08016,8,132.189,2,128.667,0\C,10,1.46241,8,61.3088,2,-106.47,0\H,12,1.08021,10,133.812,8,-122.21,0\\\@

 Total job time:  10.05s(wall), 12.18s(cpu) 
 Wed Mar  2 01:22:15 2022

        *************************************************************
        *                                                           *
        *  Thank you very much for using Q-Chem.  Have a nice day.  *
        *                                                           *
        *************************************************************


