13   
Frame   0 IRC: Energy =  -286.8764950000 ; +0.0000 kcal/mol
C        1.6764250729    0.3747709935   -0.2334392591
C        1.1023141276   -0.8497570868   -0.3105020546
C       -0.3341608134   -1.0624972866   -0.0765829487
C       -1.1528042251    0.3488409284    0.1003397990
C       -0.3194233388    1.5367597442   -0.1509141628
N        0.9692597077    1.5764632583   -0.2118673813
H        2.7519111526    0.4884160752   -0.3297736923
H        1.7067755099   -1.7181395061   -0.5597740924
H       -0.8092292255   -1.8924266244   -0.6022800680
H       -2.1797468596    0.4256591709   -0.2616368981
H       -0.8537414331    2.4642254150   -0.3654143113
C       -0.9122004099   -0.6050758373    1.1836887942
H       -1.6453792659   -1.0872392438    1.8181562759
13   
Frame   1 IRC: Energy =  -286.8759256504 ; +0.3573 kcal/mol
C        1.6677222410    0.3716060686   -0.2151256362
C        1.0907850247   -0.8499133052   -0.3214582252
C       -0.3547852636   -1.0518424775   -0.1205515713
C       -1.1508231085    0.3515604206    0.1107844006
C       -0.3256327110    1.5394584440   -0.1721588491
N        0.9624120508    1.5746669319   -0.2337363991
H        2.7472733735    0.4801213154   -0.2486944058
H        1.7007677736   -1.7275010656   -0.5238931581
H       -0.8447046757   -1.8555978601   -0.6726994116
H       -2.1897186726    0.4291156537   -0.2155445092
H       -0.8618263509    2.4570304852   -0.4222257543
C       -0.8808943957   -0.6186651344    1.1722966598
H       -1.5605752855   -1.1000394766    1.8630068594
13   
Frame   2 IRC: Energy =  -286.8745626273 ; +1.2126 kcal/mol
C        1.6560607972    0.3679011632   -0.2025511926
C        1.0771070289   -0.8514438612   -0.3276931388
C       -0.3770136322   -1.0403599723   -0.1670362843
C       -1.1504290524    0.3518895964    0.1141476481
C       -0.3309339306    1.5426179905   -0.1903004384
N        0.9549486818    1.5726679423   -0.2590900892
H        2.7361243663    0.4709921683   -0.1750512896
H        1.6899343063   -1.7393338781   -0.4666384956
H       -0.8790560232   -1.8160558917   -0.7461818848
H       -2.1976439871    0.4321435431   -0.1844269559
H       -0.8693927872    2.4539346221   -0.4602848395
C       -0.8538718925   -0.6320747622    1.1535137870
H       -1.4558338753   -1.1128786604    1.9115931734
13   
Frame   3 IRC: Energy =  -286.8723765280 ; +2.5844 kcal/mol
C        1.6445140028    0.3636790284   -0.1943151932
C        1.0637972250   -0.8532840434   -0.3287135370
C       -0.3991799714   -1.0288776228   -0.2105891684
C       -1.1512270047    0.3530491429    0.1165554636
C       -0.3355010112    1.5462492272   -0.2062245582
N        0.9486635586    1.5711687587   -0.2873477458
H        2.7219262237    0.4624323120   -0.1129608964
H        1.6742651078   -1.7503462315   -0.3951801040
H       -0.9083022297   -1.7787259688   -0.8182667076
H       -2.2048300327    0.4407046394   -0.1583123361
H       -0.8755749334    2.4525459719   -0.4890140879
C       -0.8359518163   -0.6484571622    1.1310517870
H       -1.3425991187   -1.1301380519    1.9533170841
13   
Frame   4 IRC: Energy =  -286.8694182186 ; +4.4408 kcal/mol
C        1.6334791345    0.3603111205   -0.1923148537
C        1.0501313233   -0.8541989518   -0.3250170791
C       -0.4211643004   -1.0168180724   -0.2522401298
C       -1.1498566550    0.3551567534    0.1200790276
C       -0.3383961425    1.5505803524   -0.2228403815
N        0.9449951679    1.5702747528   -0.3230580105
H        2.7055756475    0.4555976980   -0.0589810118
H        1.6514078922   -1.7585640250   -0.3075744186
H       -0.9342939235   -1.7449518936   -0.8850598572
H       -2.2106091441    0.4534834997   -0.1239198777
H       -0.8801775111    2.4529634043   -0.5114063141
C       -0.8215652773   -0.6683501135    1.1063667544
H       -1.2295262116   -1.1554845248    1.9759661520
13   
Frame   5 IRC: Energy =  -286.8658014871 ; +6.7103 kcal/mol
C        1.6216666224    0.3609732757   -0.1942595973
C        1.0312748458   -0.8532083695   -0.3188480587
C       -0.4426028904   -1.0056495809   -0.2972964098
C       -1.1442016220    0.3574839998    0.1199190907
C       -0.3385828291    1.5559805319   -0.2416178121
N        0.9429592651    1.5710305333   -0.3582893791
H        2.6886775914    0.4484148434   -0.0131199612
H        1.6158248036   -1.7632363178   -0.2063249703
H       -0.9574129016   -1.7205087359   -0.9400940942
H       -2.2141812493    0.4591617260   -0.0750979671
H       -0.8829200030    2.4583358728   -0.5270202011
C       -0.7925477707   -0.6834111194    1.0800915143
H       -1.1279538622   -1.1853666595    1.9719578459
13   
Frame   6 IRC: Energy =  -286.8610775157 ; +9.6746 kcal/mol
C        1.6091096043    0.3660117997   -0.1871885838
C        1.0032342004   -0.8488109012   -0.2861427287
C       -0.4695170504   -0.9953247918   -0.3460428533
C       -1.1320121740    0.3543641385    0.1082038367
C       -0.3394171897    1.5624585760   -0.2619372548
N        0.9435508925    1.5779349316   -0.3721461118
H        2.6730998116    0.4388246432    0.0053937753
H        1.5639460133   -1.7617885754   -0.1105399357
H       -0.9810105312   -1.7190980767   -0.9860997048
H       -2.2107301539    0.4479813139   -0.0210769344
H       -0.8862157654    2.4677016018   -0.5344353598
C       -0.7295461651   -0.6867207685    1.0530210101
H       -1.0444914925   -1.2035338910    1.9389908450
13   
Frame   7 IRC: Energy =  -286.8563710589 ; +12.6280 kcal/mol (Transition State)
C        1.5993869759    0.3846126187   -0.1827832709
C        0.9454833438   -0.8456844264   -0.1875209517
C       -0.5069974813   -0.9912503580   -0.3961164755
C       -1.1189346592    0.3478913881    0.0919984614
C       -0.3436302190    1.5646909155   -0.2756371119
N        0.9503269168    1.5817180545   -0.3686046353
H        2.6678227955    0.4354897611   -0.0007007014
H        1.5245923302   -1.7570656575   -0.0619651975
H       -1.0034493500   -1.7321028163   -1.0169466465
H       -2.2025951605    0.4359023146    0.0100840041
H       -0.8885325291    2.4722984099   -0.5351786275
C       -0.6344371929   -0.6926337189    1.0215469904
H       -0.9890357702   -1.2038664851    1.9018241624
13   
Frame   8 IRC: Energy =  -286.8635804199 ; +8.1040 kcal/mol
C        1.5928869799    0.4078829362   -0.1838746472
C        0.8775692852   -0.8482711403   -0.0718910503
C       -0.5418448127   -0.9862832068   -0.4419082859
C       -1.1104062101    0.3425612589    0.0753017035
C       -0.3511834993    1.5651681176   -0.2832799567
N        0.9627650092    1.5826054920   -0.3630110738
H        2.6661922400    0.4346874829   -0.0110043058
H        1.4931115263   -1.7513036221   -0.0319957561
H       -1.0212168841   -1.7443436213   -1.0372253469
H       -2.1966685267    0.4282562644    0.0308875287
H       -0.8907169401    2.4753041351   -0.5352596581
C       -0.5361318192   -0.7059708630    0.9847325369
H       -0.9443563483   -1.2002932336    1.8685283114
13   
Frame   9 IRC: Energy =  -286.8749579591 ; +0.9645 kcal/mol
C        1.5824161030    0.4182512891   -0.1695558505
C        0.8275443662   -0.8422107581    0.0356983902
C       -0.5691924882   -0.9762805352   -0.4892327808
C       -1.1038980751    0.3356751376    0.0523384031
C       -0.3556911790    1.5660498941   -0.2916802823
N        0.9709328956    1.5876535217   -0.3607705754
H        2.6622923118    0.4312389296   -0.0314388746
H        1.4452355898   -1.7435398672    0.0139221585
H       -1.0391231135   -1.7601759189   -1.0586173413
H       -2.1895303858    0.4213952080    0.0628245064
H       -0.8933693170    2.4791844605   -0.5335089168
C       -0.4555403051   -0.7188205628    0.9454969484
H       -0.8820764026   -1.1984207986    1.8245242151
13   
Frame  10 IRC: Energy =  -286.8788043248 ; -1.4491 kcal/mol
C        1.5787869657    0.4221468187   -0.1522871419
C        0.8153459138   -0.8319451279    0.0608074623
C       -0.5733167030   -0.9712972224   -0.5282612536
C       -1.1114026891    0.3370567848    0.0304604059
C       -0.3603262736    1.5717691706   -0.2993845157
N        0.9706457807    1.5910702023   -0.3515878658
H        2.6639791765    0.4204091792   -0.0788260694
H        1.3942405402   -1.7508247083    0.1320098731
H       -1.0405696976   -1.7641926765   -1.0933925141
H       -2.1929208360    0.4230156471    0.1097488915
H       -0.8928837659    2.4919587703   -0.5275022012
C       -0.4507610438   -0.7131462462    0.9068340045
H       -0.8008173680   -1.2260205917    1.7913809243
13   
Frame  11 IRC: Energy =  -286.8793650000 ; -1.8010 kcal/mol
C        1.5779469684    0.4187592301   -0.1637269914
C        0.8150283981   -0.8257173397    0.0989648667
C       -0.5607284438   -0.9747999929   -0.5291910636
C       -1.1156385907    0.3342952092    0.0132378223
C       -0.3603678040    1.5755786040   -0.2795527659
N        0.9707663675    1.5897774397   -0.3545177004
H        2.6647564820    0.3997771833   -0.1973506900
H        1.3917362961   -1.7400176595    0.2254794554
H       -1.0068983984   -1.7610263481   -1.1204013096
H       -2.1990878065    0.4174228136    0.0709183894
H       -0.8880146071    2.5101957788   -0.4561617909
C       -0.4691753240   -0.7121072545    0.9065177435
H       -0.8203235374   -1.2321376639    1.7857840344
