
Running Job 1 of 1 qcts1.in
qchem qcts1.in_38031.0 ./qcts1.d/ 1
/home/leeping/opt/qchem/5.0.2-openmp/exe/qcprog.exe_s qcts1.in_38031.0 ./qcts1.d/
Check license passed

                  Welcome to Q-Chem
     A Quantum Leap Into The Future Of Chemistry


 Q-Chem 5.0, Q-Chem, Inc., Pleasanton, CA (2017)

 Yihan Shao,  Zhengting Gan,  E. Epifanovsky,  A. T. B. Gilbert,  M. Wormit,  
 J. Kussmann,  A. W. Lange,  A. Behn,  Jia Deng,  Xintian Feng,  D. Ghosh,  
 M. Goldey,  P. R. Horn,  L. D. Jacobson,  I. Kaliman,  T. Kus,  A. Landau,  
 Jie Liu,  E. I. Proynov,  R. M. Richard,  R. P. Steele,  E. J. Sundstrom,  
 H. L. Woodcock III,  P. M. Zimmerman,  D. Zuev,  B. Albrecht,  E. Alguire,  
 S. A. Baeppler,  D. Barton,  Z. Benda,  Y. A. Bernard,  E. J. Berquist,  
 K. B. Bravaya,  H. Burton,  D. Casanova,  Chun-Min Chang,  Yunqing Chen,  
 A. Chien,  K. D. Closser,  M. P. Coons,  S. Dasgupta,  A. L. Dempwolff,  
 M. Diedenhofen,  Hainam Do,  R. G. Edgar,  Po-Tung Fang,  S. Fatehi,  
 Qingguo Feng,  J. Fosso-Tande,  Qinghui Ge,  A. Ghysels,  G. Gidofalvi,  
 J. Gomes,  J. Gonthier,  A. Gunina,  M. W. D. Hanson-Heine,  
 P. H. P. Harbach,  A. W. Hauser,  J. E. Herr,  E. G. Hohenstein,  
 Z. C. Holden,  Kerwin Hui,  T.-C. Jagau,  Hyunjun Ji,  B. Kaduk,  
 K. Khistyaev,  Jaehoon Kim,  P. Klunzinger,  K. Koh,  D. Kosenkov,  
 L. Koulias,  T. Kowalczyk,  C. M. Krauter,  A. Kunitsa,  Ka Un Lao,  
 A. Laurent,  K. V. Lawler,  Joonho Lee,  D. Lefrancois,  S. Lehtola,  
 D. S. Levine,  Yi-Pei Li,  You-Sheng Lin,  Fenglai Liu,  E. Livshits,  
 A. Luenser,  P. Manohar,  E. Mansoor,  S. F. Manzer,  Shan-Ping Mao,  
 Yuezhi Mao,  N. Mardirossian,  A. V. Marenich,  T. Markovich,  
 L. A. Martinez-Martinez,  S. A. Maurer,  N. J. Mayhall,  S. C. McKenzie,  
 J.-M. Mewes,  A. F. Morrison,  J. W. Mullinax,  K. Nanda,  
 T. S. Nguyen-Beck,  R. Olivares-Amaya,  J. A. Parkhill,  T. M. Perrine,  
 F. Plasser,  S. Prager,  A. Prociuk,  E. Ramos,  D. R. Rehn,  F. Rob,  
 M. Schneider,  N. Sergueev,  S. M. Sharada,  S. Sharma,  D. W. Small,  
 T. Stauch,  T. Stein,  Yu-Chuan Su,  A. J. W. Thom,  A. Tkatchenko,  
 T. Tsuchimochi,  L. Vogt,  O. Vydrov,  M. A. Watson,  J. Wenzel,  
 M. de Wergifosse,  T. A. Wesolowski,  A. White,  J. Witte,  A. Yamada,  
 Jun Yang,  K. Yao,  S. Yeganeh,  S. R. Yost,  Zhi-Qiang You,  A. Zech,  
 Igor Ying Zhang,  Xing Zhang,  Yan Zhao,  Ying Zhu,  B. R. Brooks,  
 G. K. L. Chan,  C. J. Cramer,  M. S. Gordon,  W. J. Hehre,  A. Klamt,  
 M. W. Schmidt,  C. D. Sherrill,  D. G. Truhlar,  A. Aspuru-Guzik,  R. Baer,  
 A. T. Bell,  N. A. Besley,  Jeng-Da Chai,  R. A. DiStasio Jr.,  A. Dreuw,  
 B. D. Dunietz,  T. R. Furlani,  Chao-Ping Hsu,  Yousung Jung,  Jing Kong,  
 D. S. Lambrecht,  WanZhen Liang,  C. Ochsenfeld,  V. A. Rassolov,  
 L. V. Slipchenko,  J. E. Subotnik,  T. Van Voorhis,  J. M. Herbert,  
 A. I. Krylov,  P. M. W. Gill,  M. Head-Gordon

 Contributors to earlier versions of Q-Chem not listed above: 
 R. D. Adamson,  B. Austin,  J. Baker,  G. J. O. Beran,  K. Brandhorst,  
 S. T. Brown,  E. F. C. Byrd,  A. K. Chakraborty,  C.-L. Cheng,  
 Siu Hung Chien,  D. M. Chipman,  D. L. Crittenden,  H. Dachsel,  
 R. J. Doerksen,  A. D. Dutoi,  L. Fusti-Molnar,  W. A. Goddard III,  
 A. Golubeva-Zadorozhnaya,  S. R. Gwaltney,  G. Hawkins,  A. Heyden,  
 S. Hirata,  G. Kedziora,  F. J. Keil,  C. Kelley,  Jihan Kim,  R. A. King,  
 R. Z. Khaliullin,  P. P. Korambath,  W. Kurlancheek,  A. M. Lee,  M. S. Lee,  
 S. V. Levchenko,  Ching Yeh Lin,  D. Liotard,  R. C. Lochan,  I. Lotan,  
 P. E. Maslen,  N. Nair,  D. P. O'Neill,  D. Neuhauser,  E. Neuscamman,  
 C. M. Oana,  R. Olson,  B. Peters,  R. Peverati,  P. A. Pieniazek,  
 Y. M. Rhee,  J. Ritchie,  M. A. Rohrdanz,  E. Rosta,  N. J. Russ,  
 H. F. Schaefer III,  N. E. Schultz,  N. Shenvi,  A. C. Simmonett,  A. Sodt,  
 D. Stuck,  K. S. Thanthiriwatte,  V. Vanovschi,  Tao Wang,  A. Warshel,  
 C. F. Williams,  Q. Wu,  X. Xu,  W. Zhang

 Please cite Q-Chem as follows:
 Y. Shao et al., Mol. Phys. 113, 184-215 (2015)
 DOI: 10.1080/00268976.2014.952696

 Q-Chem 5.0.2 for Intel X86 EM64T Linux

 Parts of Q-Chem use Armadillo 5.200.1 (Boston Tea Smuggler).
 http://arma.sourceforge.net/

 Q-Chem begins on Tue Mar  1 19:44:50 2022  

Host: 
0

     Scratch files written to ./qcts1.d//
 Dec517 15110_ 26548  26544 5633   
Processing $rem in /home/leeping/opt/qchem/5.0.2-openmp/config/preferences.
 MEM_STATIC 2000
 MEM_TOTAL  8000
 SYMMETRY   OFF
 SYM_IGNORE TRUE 

Checking the input file for inconsistencies... 	...done.

--------------------------------------------------------------
User input:
--------------------------------------------------------------
$molecule
0 2
C        1.5953338844    0.4067361017   -0.1897943789
C        0.9086320669   -0.8397409949   -0.0649906087
C       -0.5126109957   -0.9956759066   -0.4192020483
C       -1.1069925506    0.3330125840    0.0367531990
C       -0.3433821655    1.5702450987   -0.2598141450
N        0.9595827628    1.5926281024   -0.3386283302
H        2.6835607586    0.4311459777   -0.1477095139
H        1.5213434727   -1.7402807548    0.0056334112
H       -0.9667137477   -1.8040614407   -0.9805469258
H       -2.1949569365    0.4108182279   -0.0421480633
H       -0.8847285105    2.5024367666   -0.4149514210
C       -0.5791075294   -0.6885768809    1.0010056585
H       -1.0904739228   -1.1865992606    1.8157054302
$end

$rem
method                b3lyp
basis                 6-31g(d)
unrestricted          true
symmetry              off
sym_ignore            true
incdft                false
incfock               0
scf_convergence       8
thresh                14
jobtype               freq
scf_guess             read
scf_algorithm         diis
max_scf_cycles        100
$end

--------------------------------------------------------------
 ----------------------------------------------------------------
             Standard Nuclear Orientation (Angstroms)
    I     Atom           X                Y                Z
 ----------------------------------------------------------------
    1      C       1.5953338844     0.4067361017    -0.1897943789
    2      C       0.9086320669    -0.8397409949    -0.0649906087
    3      C      -0.5126109957    -0.9956759066    -0.4192020483
    4      C      -1.1069925506     0.3330125840     0.0367531990
    5      C      -0.3433821655     1.5702450987    -0.2598141450
    6      N       0.9595827628     1.5926281024    -0.3386283302
    7      H       2.6835607586     0.4311459777    -0.1477095139
    8      H       1.5213434727    -1.7402807548     0.0056334112
    9      H      -0.9667137477    -1.8040614407    -0.9805469258
   10      H      -2.1949569365     0.4108182279    -0.0421480633
   11      H      -0.8847285105     2.5024367666    -0.4149514210
   12      C      -0.5791075294    -0.6885768809     1.0010056585
   13      H      -1.0904739228    -1.1865992606     1.8157054302
 ----------------------------------------------------------------
 Nuclear Repulsion Energy =   275.0231131471 hartrees
 There are       25 alpha and       24 beta electrons
 Requested basis set is 6-31G(d)
 There are 40 shells and 117 basis functions

 Total QAlloc Memory Limit   8000 MB
 Mega-Array Size      1956 MB
 MEM_STATIC part      2000 MB

                       Distance Matrix (Angstroms)
             C (  1)   C (  2)   C (  3)   C (  4)   C (  5)   N (  6)
   C (  2)  1.428580
   C (  3)  2.542207  1.472995
   C (  4)  2.712808  2.334191  1.525319
   C (  5)  2.262140  2.722780  2.576430  1.483845
   N (  6)  1.353762  2.448243  2.978786  2.449138  1.305538
   H (  7)  1.089314  2.184575  3.510704  3.796308  3.236124  2.087484
   H (  8)  2.157162  1.091501  2.207236  3.347785  3.808838  3.397407
   H (  9)  3.475198  2.298930  1.083884  2.371005  3.506272  3.957294
   H ( 10)  3.793168  3.346145  2.225013  1.093593  2.195445  3.381671
   H ( 11)  3.254745  3.809038  3.517852  2.227070  1.089084  2.057926
   C ( 12)  2.710334  1.836455  1.454552  1.500697  2.597597  3.060406
   H ( 13)  3.711376  2.766542  2.316288  2.339693  3.530739  4.070380
             H (  7)   H (  8)   H (  9)   H ( 10)   H ( 11)   C ( 12)
   H (  8)  2.467662
   H (  9)  4.360536  2.677134
   H ( 10)  4.879702  4.294229  2.700901
   H ( 11)  4.134532  4.895582  4.344254  2.496107
   C ( 12)  3.635702  2.551224  2.306750  2.215357  3.504412
   H ( 13)  4.551421  3.225603  2.866287  2.687610  4.315918  1.083170

 
 A cutoff of  1.0D-14 yielded    808 shell pairs
 There are      7080 function pairs
 Smallest overlap matrix eigenvalue = 1.51E-03
 Guess MOs from SCF MO coefficient file
 Reading MOs from coefficient file
 Reading MOs from coefficient file
 An unrestricted hybrid HF-DFT SCF calculation will be
 performed using Pulay DIIS extrapolation
 Exchange:     0.2000 Hartree-Fock + 0.0800 Slater + 0.7200 B88
 Correlation:  0.1900 VWN1RPA + 0.8100 LYP
 Using SG-1 standard quadrature grid
 SCF converges when DIIS error is below 1.0E-08
Using Q-Chem read-in guess as SCF_GUESS READ specified.

 -------------------------------------------------------
 OpenMP BLAS3 based DFT computing Module                
 -------------------------------------------------------
 ---------------------------------------
  Cycle       Energy         DIIS Error
 ---------------------------------------
    1    -286.8362367652      1.66E-09
    2    -286.8362367652      2.10E-09 Convergence criterion met
 ---------------------------------------
 <S^2> = 0.7812
 SCF time:  CPU 3.39 s  wall 6.48 s
 SCF   energy in the final basis set = -286.83623677
 Total energy in the final basis set = -286.83623677
 
 --------------------------------------------------------------
 
                    Orbital Energies (a.u.)
 --------------------------------------------------------------
 
 Alpha MOs
 -- Occupied --
-14.319 -10.227 -10.218 -10.218 -10.215 -10.215 -10.214  -0.950
 -0.889  -0.757  -0.649  -0.640  -0.580  -0.542  -0.482  -0.478
 -0.464  -0.418  -0.389  -0.369  -0.339  -0.307  -0.274  -0.236
 -0.166
 -- Virtual --
 -0.010   0.078   0.092   0.131   0.141   0.150   0.158   0.165
  0.175   0.214   0.232   0.272   0.294   0.317   0.344   0.400
  0.520   0.522   0.531   0.546   0.560   0.581   0.587   0.596
  0.616   0.622   0.650   0.661   0.678   0.728   0.794   0.807
  0.822   0.837   0.854   0.857   0.884   0.891   0.910   0.932
  0.961   0.986   1.123   1.149   1.175   1.187   1.238   1.342
  1.409   1.441   1.470   1.507   1.560   1.589   1.633   1.658
  1.744   1.765   1.801   1.856   1.880   1.921   1.983   2.052
  2.080   2.108   2.148   2.200   2.255   2.281   2.351   2.406
  2.451   2.487   2.525   2.547   2.580   2.589   2.651   2.674
  2.707   2.766   2.805   3.004   3.195   4.024   4.117   4.162
  4.356   4.412   4.443   4.554
 
 Beta MOs
 -- Occupied --
-14.322 -10.229 -10.216 -10.214 -10.212 -10.212 -10.206  -0.946
 -0.885  -0.748  -0.643  -0.632  -0.571  -0.539  -0.478  -0.472
 -0.461  -0.415  -0.375  -0.364  -0.330  -0.300  -0.264  -0.231
 -- Virtual --
 -0.068   0.005   0.089   0.102   0.134   0.144   0.155   0.163
  0.169   0.181   0.218   0.235   0.278   0.300   0.323   0.350
  0.404   0.525   0.532   0.539   0.560   0.568   0.587   0.592
  0.602   0.628   0.645   0.657   0.665   0.684   0.732   0.796
  0.809   0.826   0.839   0.852   0.859   0.886   0.895   0.915
  0.937   0.966   0.993   1.126   1.152   1.176   1.192   1.239
  1.352   1.419   1.448   1.474   1.515   1.574   1.593   1.646
  1.666   1.750   1.773   1.815   1.863   1.885   1.932   1.992
  2.055   2.087   2.114   2.162   2.211   2.268   2.292   2.364
  2.415   2.460   2.492   2.534   2.556   2.584   2.597   2.655
  2.677   2.712   2.769   2.813   3.007   3.199   4.021   4.128
  4.172   4.366   4.417   4.451   4.556
 --------------------------------------------------------------
 
          Ground-State Mulliken Net Atomic Charges

     Atom                 Charge (a.u.)    Spin (a.u.)
  --------------------------------------------------------
      1 C                     0.060389       0.554636
      2 C                    -0.187137      -0.155694
      3 C                    -0.075493       0.057310
      4 C                    -0.213286      -0.037247
      5 C                     0.085324       0.437705
      6 N                    -0.391948      -0.165779
      7 H                     0.138133      -0.030472
      8 H                     0.150192       0.007670
      9 H                     0.151640      -0.003252
     10 H                     0.145357       0.006231
     11 H                     0.136354      -0.023039
     12 C                    -0.158120       0.363330
     13 H                     0.158594      -0.011398
  --------------------------------------------------------
  Sum of atomic charges =    -0.000000
  Sum of spin   charges =     1.000000

 -----------------------------------------------------------------
                    Cartesian Multipole Moments
 -----------------------------------------------------------------
    Charge (ESU x 10^10)
                -0.0000
    Dipole Moment (Debye)
         X      -1.5897      Y      -2.4698      Z       0.0889
       Tot       2.9385
    Quadrupole Moments (Debye-Ang)
        XX     -37.3327     XY      -3.6331     YY     -41.4439
        XZ       0.0005     YZ       0.4633     ZZ     -42.1016
    Octopole Moments (Debye-Ang^2)
       XXX     -11.5083    XXY     -10.8185    XYY     -13.4604
       YYY     -29.6843    XXZ       1.8343    XYZ       2.4109
       YYZ       1.4771    XZZ      -7.7577    YZZ      -9.7721
       ZZZ       4.7801
    Hexadecapole Moments (Debye-Ang^3)
      XXXX    -279.9663   XXXY     -24.9860   XXYY    -109.5994
      XYYY     -42.5218   YYYY    -339.3982   XXXZ      17.4019
      XXYZ       8.0562   XYYZ      10.1631   YYYZ      27.1129
      XXZZ     -70.0039   XYZZ      -3.4053   YYZZ     -72.6103
      XZZZ      14.1440   YZZZ      20.9116   ZZZZ    -103.2551
 -----------------------------------------------------------------
 Calculating MO derivatives via CPSCF
   1         3          39      0.266329    0.055591
   2         3          39      0.030764    0.005213
   3         3          39      0.003579    0.000626
   4         4          38      0.000426    0.000079
   5        31          11      0.000029    0.000007
   6        42           0      0.000000    0.000000    Roots Converged
 Time for AOints: 5.8 s (CPU) 7.6 s (wall)
 ------------------------------------------------------------------------------
                     AOints        : Timing summary (seconds)
 ------------------------------------------------------------------------------
     job step          cpu (% of tot)      sys (% of tot)     wall (% of tot)
 ------------------------------------------------------------------------------
  cpscf_lag         0.5474E+02 (29.1)   0.2700E-04 (37.0)   0.5853E+02 (27.9)
  iterzp            0.1276E+03 (67.8)   0.4400E-04 (60.3)   0.1433E+03 (68.3)
  make_fx           0.0000E+00 ( 0.0)   0.0000E+00 ( 0.0)   0.0000E+00 ( 0.0)
  AOints            0.5772E+01 ( 3.1)   0.1000E-05 ( 1.4)   0.7613E+01 ( 3.6)
 ------------------------------------------------------------------------------
   Grand Totals     0.1883E+03          0.7300E-04          0.2097E+03
 ------------------------------------------------------------------------------
 Calculating analytic Hessian of the SCF energy
 Polarizability Matrix (a.u.)
            1           2           3
    1 -71.5393403   1.7276006   4.9665804
    2   1.7276006 -67.5551947   5.7167405
    3   4.9665804   5.7167405 -42.4046969
 
 Direct stationary perturbation theory relativistic correction:
 
 rels  =       0.069273923714
 relv  =      -0.339149316176
 rel2e =       0.157095870618
 E_rel =      -0.112779521843
 
 Hessian of the SCF Energy
            1           2           3           4           5           6
    1   0.7117881   0.0009925   0.0215343  -0.1415597  -0.0919578  -0.0074668
    2   0.0009925   0.5333785  -0.0416566  -0.0127645  -0.2169173  -0.0441954
    3   0.0215343  -0.0416566   0.1161008  -0.0111366   0.0167930  -0.0348222
    4  -0.1415597  -0.0127645  -0.0111366   0.5079822  -0.0733639   0.1403211
    5  -0.0919578  -0.2169173   0.0167930  -0.0733639   0.6476907  -0.0062628
    6  -0.0074668  -0.0441954  -0.0348222   0.1403211  -0.0062628   0.0550027
    7  -0.0220433  -0.0031292  -0.0075603  -0.2588722  -0.0252226  -0.0255368
    8  -0.0226814   0.0081573  -0.0152018  -0.0241880  -0.0851740  -0.0116455
    9   0.0071772   0.0246701   0.0021771  -0.1079471  -0.0420520  -0.0096867
   10   0.0047316  -0.0113834  -0.0003935  -0.0270719   0.0557406  -0.0063066
   11   0.0018124  -0.0137592  -0.0032296   0.0071116  -0.0025637  -0.0001307
   12  -0.0024850   0.0012905  -0.0089669   0.0030514  -0.0027125   0.0200928
   13  -0.0833610   0.1112280  -0.0105029  -0.0268835  -0.0277715   0.0253449
   14   0.0529884  -0.0117353   0.0010882   0.0002323   0.0018405   0.0024051
   15  -0.0052109   0.0003650   0.0092417   0.0020698   0.0021433  -0.0073583
   16  -0.1233785   0.0130055  -0.0021022   0.0533903   0.0312195  -0.0375815
   17   0.0679803  -0.2330352   0.0228164  -0.0132201  -0.0654718   0.0253072
   18  -0.0118684   0.0147747  -0.0578141   0.0065519   0.0085501   0.0066372
   19  -0.3309369  -0.0189808  -0.0107713  -0.0095715   0.0018681  -0.0024830
   20  -0.0203874  -0.0561347   0.0057160  -0.0260930   0.0018986  -0.0033620
   21  -0.0117786   0.0085143  -0.0261155  -0.0006237  -0.0016179   0.0103293
   22   0.0129893  -0.0130353   0.0000906  -0.1391723   0.1266348  -0.0069814
   23   0.0197875  -0.0172353   0.0020413   0.1240455  -0.2480269   0.0189183
   24  -0.0026876   0.0002466   0.0010971  -0.0131548   0.0168843  -0.0422502
   25  -0.0004179   0.0033378  -0.0034593  -0.0076034  -0.0215977  -0.0088964
   26   0.0000796  -0.0018666   0.0000115   0.0028101   0.0027844  -0.0003540
   27   0.0020423   0.0014449   0.0005427  -0.0010252   0.0044262  -0.0001953
   28   0.0011345  -0.0003879   0.0001537   0.0003245   0.0022542  -0.0007098
   29   0.0006091  -0.0007118   0.0006445   0.0011043  -0.0077519   0.0021638
   30   0.0002166   0.0008364   0.0002572  -0.0021001  -0.0027428  -0.0008500
   31  -0.0035849  -0.0001180   0.0007281  -0.0009136   0.0002128  -0.0002655
   32  -0.0022437   0.0036628   0.0016733  -0.0006497   0.0004716  -0.0006139
   33   0.0026551   0.0031220   0.0097396  -0.0016664  -0.0002920  -0.0024122
   34  -0.0254331  -0.0603697   0.0211728   0.0407833   0.0219246  -0.0647554
   35  -0.0081962   0.0026581   0.0073389   0.0225903  -0.0238624   0.0189225
   36   0.0075650   0.0293004  -0.0137953  -0.0087026   0.0118172   0.0081238
   37   0.0000718  -0.0083950   0.0022465   0.0091680   0.0000590  -0.0046826
   38   0.0012167   0.0035387   0.0019650  -0.0076149  -0.0049177  -0.0011526
   39   0.0003068   0.0012869   0.0023578  -0.0056377  -0.0049341  -0.0026108
            7           8           9          10          11          12
    1  -0.0220433  -0.0226814   0.0071772   0.0047316   0.0018124  -0.0024850
    2  -0.0031292   0.0081573   0.0246701  -0.0113834  -0.0137592   0.0012905
    3  -0.0075603  -0.0152018   0.0021771  -0.0003935  -0.0032296  -0.0089669
    4  -0.2588722  -0.0241880  -0.1079471  -0.0270719   0.0071116   0.0030514
    5  -0.0252226  -0.0851740  -0.0420520   0.0557406  -0.0025637  -0.0027125
    6  -0.0255368  -0.0116455  -0.0096867  -0.0063066  -0.0001307   0.0200928
    7   0.4693800   0.0950366   0.0970020  -0.0871030   0.0390234  -0.0128387
    8   0.0950366   0.5027529   0.2425180   0.0321495  -0.1444555  -0.0263170
    9   0.0970020   0.2425180   0.4571194   0.0120972  -0.0815533  -0.0267156
   10  -0.0871030   0.0321495   0.0120972   0.6611911  -0.0285705   0.0158467
   11   0.0390234  -0.1444555  -0.0815533  -0.0285705   0.5055852  -0.0854936
   12  -0.0128387  -0.0263170  -0.0267156   0.0158467  -0.0854936   0.2029987
   13   0.0072984  -0.0001316  -0.0055735  -0.1272240  -0.0370319   0.0082287
   14   0.0009478  -0.0358560   0.0097173  -0.0622495  -0.1741012   0.0254514
   15  -0.0113439  -0.0104024  -0.0003573   0.0153229   0.0280517  -0.0622941
   16   0.0033190   0.0073460   0.0090540  -0.0411427  -0.0305592   0.0112192
   17   0.0039612  -0.0007348  -0.0094865  -0.0240092   0.0147265   0.0091151
   18   0.0033714   0.0057437   0.0008214   0.0107224   0.0038861   0.0155935
   19   0.0009838  -0.0017230   0.0009088   0.0003987   0.0004678   0.0001842
   20  -0.0015268  -0.0036754   0.0013516   0.0005240   0.0003352  -0.0002547
   21  -0.0047911   0.0002016   0.0014605   0.0000780   0.0017589  -0.0026167
   22  -0.0160395   0.0235676   0.0029446  -0.0076079  -0.0014852  -0.0022382
   23  -0.0032408   0.0066425   0.0006580  -0.0016318   0.0010983   0.0000994
   24  -0.0023550   0.0121014  -0.0036195   0.0025510   0.0022235   0.0005207
   25  -0.1025104  -0.0951115  -0.0665717   0.0064679   0.0072863   0.0081258
   26  -0.0961079  -0.2131586  -0.1233399  -0.0110047  -0.0085955  -0.0079827
   27  -0.0646541  -0.1180517  -0.1099524   0.0050294   0.0063889  -0.0038775
   28  -0.0052195  -0.0004848  -0.0032712  -0.3186147   0.0146652  -0.0157730
   29   0.0209934   0.0010445   0.0082763   0.0123394  -0.0552220   0.0030693
   30   0.0210124   0.0001997   0.0007380  -0.0212923   0.0043020  -0.0387036
   31   0.0000174  -0.0025126   0.0005842   0.0095847  -0.0117627   0.0032730
   32  -0.0007647  -0.0029443   0.0010021   0.0126738  -0.0122403   0.0043816
   33   0.0040459  -0.0016746  -0.0009960  -0.0035957   0.0048967   0.0095665
   34   0.0118666  -0.0151263   0.0562752  -0.0778992   0.0310822  -0.0056383
   35  -0.0413772  -0.0424082  -0.0155821   0.0382579  -0.1017615   0.0708706
   36  -0.0077092  -0.0921995  -0.2941010  -0.0308352   0.1199935  -0.1000158
   37  -0.0010774   0.0038594  -0.0026798   0.0042893   0.0079604  -0.0109558
   38   0.0114067   0.0098097  -0.0161796  -0.0128361  -0.0090462   0.0084824
   39   0.0113574   0.0147281  -0.0168880   0.0007757  -0.0010941  -0.0055820
           13          14          15          16          17          18
    1  -0.0833610   0.0529884  -0.0052109  -0.1233785   0.0679803  -0.0118684
    2   0.1112280  -0.0117353   0.0003650   0.0130055  -0.2330352   0.0147747
    3  -0.0105029   0.0010882   0.0092417  -0.0021022   0.0228164  -0.0578141
    4  -0.0268835   0.0002323   0.0020698   0.0533903  -0.0132201   0.0065519
    5  -0.0277715   0.0018405   0.0021433   0.0312195  -0.0654718   0.0085501
    6   0.0253449   0.0024051  -0.0073583  -0.0375815   0.0253072   0.0066372
    7   0.0072984   0.0009478  -0.0113439   0.0033190   0.0039612   0.0033714
    8  -0.0001316  -0.0358560  -0.0104024   0.0073460  -0.0007348   0.0057437
    9  -0.0055735   0.0097173  -0.0003573   0.0090540  -0.0094865   0.0008214
   10  -0.1272240  -0.0622495   0.0153229  -0.0411427  -0.0240092   0.0107224
   11  -0.0370319  -0.1741012   0.0280517  -0.0305592   0.0147265   0.0038861
   12   0.0082287   0.0254514  -0.0622941   0.0112192   0.0091151   0.0155935
   13   0.7234859  -0.0855080  -0.0227699  -0.3959790  -0.0430875   0.0314256
   14  -0.0855080   0.6098617  -0.0917437  -0.0224484  -0.1029678   0.0107912
   15  -0.0227699  -0.0917437   0.1502936   0.0313486   0.0074271  -0.0578016
   16  -0.3959790  -0.0224484   0.0313486   0.5826714  -0.0418057  -0.0289127
   17  -0.0430875  -0.1029678   0.0074271  -0.0418057   0.3958137  -0.0418244
   18   0.0314256   0.0107912  -0.0578016  -0.0289127  -0.0418244   0.0871403
   19   0.0023088   0.0011378  -0.0007100  -0.0156264   0.0103770  -0.0016218
   20   0.0027177  -0.0045170   0.0015445   0.0365244  -0.0028523   0.0012040
   21  -0.0048598  -0.0008870   0.0064595   0.0014122  -0.0007866  -0.0031613
   22  -0.0012521  -0.0007921   0.0000607  -0.0004994  -0.0033888  -0.0000226
   23  -0.0024020   0.0002159  -0.0000686  -0.0030588  -0.0047442   0.0009758
   24   0.0002277  -0.0008811   0.0004631  -0.0011046   0.0010165   0.0039347
   25  -0.0010317  -0.0014921   0.0009287   0.0003051   0.0001213   0.0002311
   26   0.0014397   0.0017443  -0.0027131  -0.0014947  -0.0005051   0.0009836
   27  -0.0021916  -0.0000548   0.0028529   0.0012864  -0.0003993  -0.0004037
   28  -0.0125344   0.0050967  -0.0008725  -0.0013088  -0.0038994   0.0001155
   29  -0.0278311   0.0080008  -0.0022290  -0.0028342  -0.0049874   0.0018456
   30   0.0073851  -0.0025318  -0.0002256   0.0006108   0.0028123   0.0009914
   31  -0.1107304   0.1070146  -0.0178076  -0.0291676   0.0302708  -0.0045578
   32   0.1098299  -0.2691606   0.0420005   0.0060356   0.0069266  -0.0026825
   33  -0.0158997   0.0429294  -0.0367320  -0.0018012  -0.0065706  -0.0040493
   34   0.0236248   0.0082803   0.0089167  -0.0266588   0.0130509  -0.0043646
   35  -0.0019991  -0.0263830   0.0223796   0.0074942   0.0005270  -0.0034320
   36  -0.0110359   0.0063404  -0.0060044   0.0170277  -0.0090829   0.0086012
   37   0.0022783  -0.0032077   0.0000674  -0.0059246   0.0036492  -0.0010700
   38   0.0005473   0.0030578   0.0032452   0.0005758  -0.0026952  -0.0008158
   39   0.0002213  -0.0026246   0.0014624  -0.0004567  -0.0003442  -0.0004899
           19          20          21          22          23          24
    1  -0.3309369  -0.0203874  -0.0117786   0.0129893   0.0197875  -0.0026876
    2  -0.0189808  -0.0561347   0.0085143  -0.0130353  -0.0172353   0.0002466
    3  -0.0107713   0.0057160  -0.0261155   0.0000906   0.0020413   0.0010971
    4  -0.0095715  -0.0260930  -0.0006237  -0.1391723   0.1240455  -0.0131548
    5   0.0018681   0.0018986  -0.0016179   0.1266348  -0.2480269   0.0168843
    6  -0.0024830  -0.0033620   0.0103293  -0.0069814   0.0189183  -0.0422502
    7   0.0009838  -0.0015268  -0.0047911  -0.0160395  -0.0032408  -0.0023550
    8  -0.0017230  -0.0036754   0.0002016   0.0235676   0.0066425   0.0121014
    9   0.0009088   0.0013516   0.0014605   0.0029446   0.0006580  -0.0036195
   10   0.0003987   0.0005240   0.0000780  -0.0076079  -0.0016318   0.0025510
   11   0.0004678   0.0003352   0.0017589  -0.0014852   0.0010983   0.0022235
   12   0.0001842  -0.0002547  -0.0026167  -0.0022382   0.0000994   0.0005207
   13   0.0023088   0.0027177  -0.0048598  -0.0012521  -0.0024020   0.0002277
   14   0.0011378  -0.0045170  -0.0008870  -0.0007921   0.0002159  -0.0008811
   15  -0.0007100   0.0015445   0.0064595   0.0000607  -0.0000686   0.0004631
   16  -0.0156264   0.0365244   0.0014122  -0.0004994  -0.0030588  -0.0011046
   17   0.0103770  -0.0028523  -0.0007866  -0.0033888  -0.0047442   0.0010165
   18  -0.0016218   0.0012040  -0.0031613  -0.0000226   0.0009758   0.0039347
   19   0.3538403   0.0081664   0.0141106   0.0004814  -0.0004941  -0.0001065
   20   0.0081664   0.0645620  -0.0055757   0.0004237   0.0006139  -0.0002477
   21   0.0141106  -0.0055757   0.0170639   0.0002049  -0.0002661  -0.0012501
   22   0.0004814   0.0004237   0.0002049   0.1480696  -0.1340976   0.0133701
   23  -0.0004941   0.0006139  -0.0002661  -0.1340976   0.2595442  -0.0201764
   24  -0.0001065  -0.0002477  -0.0012501   0.0133701  -0.0201764   0.0320638
   25  -0.0003184  -0.0007253   0.0003620   0.0008969   0.0005964   0.0008248
   26  -0.0000626   0.0000519  -0.0000314  -0.0003886   0.0003549   0.0001764
   27   0.0003179   0.0003865  -0.0001823  -0.0003402  -0.0005097  -0.0000519
   28  -0.0000788   0.0000319  -0.0001351  -0.0003037  -0.0005550   0.0003296
   29  -0.0000788   0.0002807  -0.0004075   0.0020972   0.0004303  -0.0010406
   30   0.0000355  -0.0001172  -0.0004401   0.0008925   0.0000938   0.0015276
   31  -0.0004820   0.0011503   0.0000603   0.0002852   0.0003174  -0.0001615
   32  -0.0001583   0.0000877   0.0002542   0.0000768  -0.0000075  -0.0001859
   33  -0.0000088  -0.0002574   0.0012662   0.0000715   0.0000532  -0.0011380
   34  -0.0007990  -0.0006992   0.0051010   0.0020429   0.0003747   0.0026754
   35  -0.0004147  -0.0007033  -0.0007911   0.0003354   0.0010286  -0.0096760
   36   0.0002513  -0.0002853  -0.0029064  -0.0084383  -0.0019268   0.0094334
   37  -0.0001997  -0.0001064   0.0008593   0.0001098   0.0003584  -0.0004086
   38  -0.0001048   0.0000527  -0.0003658   0.0000521   0.0000854  -0.0004408
   39  -0.0001069  -0.0001025   0.0000930   0.0003858   0.0001078  -0.0007306
           25          26          27          28          29          30
    1  -0.0004179   0.0000796   0.0020423   0.0011345   0.0006091   0.0002166
    2   0.0033378  -0.0018666   0.0014449  -0.0003879  -0.0007118   0.0008364
    3  -0.0034593   0.0000115   0.0005427   0.0001537   0.0006445   0.0002572
    4  -0.0076034   0.0028101  -0.0010252   0.0003245   0.0011043  -0.0021001
    5  -0.0215977   0.0027844   0.0044262   0.0022542  -0.0077519  -0.0027428
    6  -0.0088964  -0.0003540  -0.0001953  -0.0007098   0.0021638  -0.0008500
    7  -0.1025104  -0.0961079  -0.0646541  -0.0052195   0.0209934   0.0210124
    8  -0.0951115  -0.2131586  -0.1180517  -0.0004848   0.0010445   0.0001997
    9  -0.0665717  -0.1233399  -0.1099524  -0.0032712   0.0082763   0.0007380
   10   0.0064679  -0.0110047   0.0050294  -0.3186147   0.0123394  -0.0212923
   11   0.0072863  -0.0085955   0.0063889   0.0146652  -0.0552220   0.0043020
   12   0.0081258  -0.0079827  -0.0038775  -0.0157730   0.0030693  -0.0387036
   13  -0.0010317   0.0014397  -0.0021916  -0.0125344  -0.0278311   0.0073851
   14  -0.0014921   0.0017443  -0.0000548   0.0050967   0.0080008  -0.0025318
   15   0.0009287  -0.0027131   0.0028529  -0.0008725  -0.0022290  -0.0002256
   16   0.0003051  -0.0014947   0.0012864  -0.0013088  -0.0028342   0.0006108
   17   0.0001213  -0.0005051  -0.0003993  -0.0038994  -0.0049874   0.0028123
   18   0.0002311   0.0009836  -0.0004037   0.0001155   0.0018456   0.0009914
   19  -0.0003184  -0.0000626   0.0003179  -0.0000788  -0.0000788   0.0000355
   20  -0.0007253   0.0000519   0.0003865   0.0000319   0.0002807  -0.0001172
   21   0.0003620  -0.0000314  -0.0001823  -0.0001351  -0.0004075  -0.0004401
   22   0.0008969  -0.0003886  -0.0003402  -0.0003037   0.0020972   0.0008925
   23   0.0005964   0.0003549  -0.0005097  -0.0005550   0.0004303   0.0000938
   24   0.0008248   0.0001764  -0.0000519   0.0003296  -0.0010406   0.0015276
   25   0.1002703   0.1008632   0.0707172   0.0003204  -0.0003959  -0.0009005
   26   0.1008632   0.2142796   0.1304075   0.0002592   0.0008458   0.0010447
   27   0.0707172   0.1304075   0.1206144  -0.0001795  -0.0007672  -0.0005743
   28   0.0003204   0.0002592  -0.0001795   0.3405387  -0.0201869   0.0192625
   29  -0.0003959   0.0008458  -0.0007672  -0.0201869   0.0601381  -0.0071326
   30  -0.0009005   0.0010447  -0.0005743   0.0192625  -0.0071326   0.0373151
   31   0.0002065  -0.0001677   0.0001898   0.0005663   0.0007500  -0.0000874
   32   0.0002371  -0.0003901   0.0003911  -0.0004321   0.0004247   0.0000450
   33  -0.0000187   0.0000331  -0.0003347   0.0003504  -0.0000848  -0.0001899
   34   0.0019221   0.0037964  -0.0115252  -0.0056327   0.0133522  -0.0259062
   35   0.0075086   0.0038748  -0.0258151   0.0032889  -0.0028010   0.0046921
   36  -0.0011215   0.0025196  -0.0116494   0.0004690  -0.0046320   0.0001227
   37   0.0014924  -0.0000221   0.0003327   0.0008080   0.0000813   0.0008710
   38  -0.0006283   0.0005802   0.0021525   0.0003500   0.0003093  -0.0015015
   39  -0.0002217  -0.0007551   0.0032113   0.0002603   0.0002942   0.0000315
           31          32          33          34          35          36
    1  -0.0035849  -0.0022437   0.0026551  -0.0254331  -0.0081962   0.0075650
    2  -0.0001180   0.0036628   0.0031220  -0.0603697   0.0026581   0.0293004
    3   0.0007281   0.0016733   0.0097396   0.0211728   0.0073389  -0.0137953
    4  -0.0009136  -0.0006497  -0.0016664   0.0407833   0.0225903  -0.0087026
    5   0.0002128   0.0004716  -0.0002920   0.0219246  -0.0238624   0.0118172
    6  -0.0002655  -0.0006139  -0.0024122  -0.0647554   0.0189225   0.0081238
    7   0.0000174  -0.0007647   0.0040459   0.0118666  -0.0413772  -0.0077092
    8  -0.0025126  -0.0029443  -0.0016746  -0.0151263  -0.0424082  -0.0921995
    9   0.0005842   0.0010021  -0.0009960   0.0562752  -0.0155821  -0.2941010
   10   0.0095847   0.0126738  -0.0035957  -0.0778992   0.0382579  -0.0308352
   11  -0.0117627  -0.0122403   0.0048967   0.0310822  -0.1017615   0.1199935
   12   0.0032730   0.0043816   0.0095665  -0.0056383   0.0708706  -0.1000158
   13  -0.1107304   0.1098299  -0.0158997   0.0236248  -0.0019991  -0.0110359
   14   0.1070146  -0.2691606   0.0429294   0.0082803  -0.0263830   0.0063404
   15  -0.0178076   0.0420005  -0.0367320   0.0089167   0.0223796  -0.0060044
   16  -0.0291676   0.0060356  -0.0018012  -0.0266588   0.0074942   0.0170277
   17   0.0302708   0.0069266  -0.0065706   0.0130509   0.0005270  -0.0090829
   18  -0.0045578  -0.0026825  -0.0040493  -0.0043646  -0.0034320   0.0086012
   19  -0.0004820  -0.0001583  -0.0000088  -0.0007990  -0.0004147   0.0002513
   20   0.0011503   0.0000877  -0.0002574  -0.0006992  -0.0007033  -0.0002853
   21   0.0000603   0.0002542   0.0012662   0.0051010  -0.0007911  -0.0029064
   22   0.0002852   0.0000768   0.0000715   0.0020429   0.0003354  -0.0084383
   23   0.0003174  -0.0000075   0.0000532   0.0003747   0.0010286  -0.0019268
   24  -0.0001615  -0.0001859  -0.0011380   0.0026754  -0.0096760   0.0094334
   25   0.0002065   0.0002371  -0.0000187   0.0019221   0.0075086  -0.0011215
   26  -0.0001677  -0.0003901   0.0000331   0.0037964   0.0038748   0.0025196
   27   0.0001898   0.0003911  -0.0003347  -0.0115252  -0.0258151  -0.0116494
   28   0.0005663  -0.0004321   0.0003504  -0.0056327   0.0032889   0.0004690
   29   0.0007500   0.0004247  -0.0000848   0.0133522  -0.0028010  -0.0046320
   30  -0.0000874   0.0000450  -0.0001899  -0.0259062   0.0046921   0.0001227
   31   0.1347450  -0.1232645   0.0182553  -0.0008094  -0.0016600  -0.0002365
   32  -0.1232645   0.2757354  -0.0455126  -0.0015823  -0.0019550  -0.0006053
   33   0.0182553  -0.0455126   0.0255777  -0.0019411   0.0034273  -0.0000931
   34  -0.0008094  -0.0015823  -0.0019411   0.1607502   0.0475148  -0.0941632
   35  -0.0016600  -0.0019550   0.0034273   0.0475148   0.2935336  -0.1883471
   36  -0.0002365  -0.0006053  -0.0000931  -0.0941632  -0.1883471   0.6054659
   37   0.0002827   0.0002421  -0.0004465  -0.1037576  -0.0733430   0.1369294
   38  -0.0002304  -0.0006110  -0.0000697  -0.0615984  -0.1017477   0.1271078
   39   0.0000256  -0.0001475  -0.0002048   0.1141531   0.1160124  -0.2031817
           37          38          39
    1   0.0000718   0.0012167   0.0003068
    2  -0.0083950   0.0035387   0.0012869
    3   0.0022465   0.0019650   0.0023578
    4   0.0091680  -0.0076149  -0.0056377
    5   0.0000590  -0.0049177  -0.0049341
    6  -0.0046826  -0.0011526  -0.0026108
    7  -0.0010774   0.0114067   0.0113574
    8   0.0038594   0.0098097   0.0147281
    9  -0.0026798  -0.0161796  -0.0168880
   10   0.0042893  -0.0128361   0.0007757
   11   0.0079604  -0.0090462  -0.0010941
   12  -0.0109558   0.0084824  -0.0055820
   13   0.0022783   0.0005473   0.0002213
   14  -0.0032077   0.0030578  -0.0026246
   15   0.0000674   0.0032452   0.0014624
   16  -0.0059246   0.0005758  -0.0004567
   17   0.0036492  -0.0026952  -0.0003442
   18  -0.0010700  -0.0008158  -0.0004899
   19  -0.0001997  -0.0001048  -0.0001069
   20  -0.0001064   0.0000527  -0.0001025
   21   0.0008593  -0.0003658   0.0000930
   22   0.0001098   0.0000521   0.0003858
   23   0.0003584   0.0000854   0.0001078
   24  -0.0004086  -0.0004408  -0.0007306
   25   0.0014924  -0.0006283  -0.0002217
   26  -0.0000221   0.0005802  -0.0007551
   27   0.0003327   0.0021525   0.0032113
   28   0.0008080   0.0003500   0.0002603
   29   0.0000813   0.0003093   0.0002942
   30   0.0008710  -0.0015015   0.0000315
   31   0.0002827  -0.0002304   0.0000256
   32   0.0002421  -0.0006110  -0.0001475
   33  -0.0004465  -0.0000697  -0.0002048
   34  -0.1037576  -0.0615984   0.1141531
   35  -0.0733430  -0.1017477   0.1160124
   36   0.1369294   0.1271078  -0.2031817
   37   0.0924589   0.0688643  -0.1210630
   38   0.0688643   0.1015841  -0.1224272
   39  -0.1210630  -0.1224272   0.2225319
 Gradient time:  CPU 251.64 s  wall 279.25 s
 **********************************************************************
 **                                                                  **
 **                       VIBRATIONAL ANALYSIS                       **
 **                       --------------------                       **
 **                                                                  **
 **        VIBRATIONAL FREQUENCIES (CM**-1) AND NORMAL MODES         **
 **     FORCE CONSTANTS (mDYN/ANGSTROM) AND REDUCED MASSES (AMU)     **
 **                  INFRARED INTENSITIES (KM/MOL)                   **
 **                                                                  **
 **********************************************************************
 

 Mode:                 1                      2                      3
 Frequency:      -564.39                 274.08                 357.21
 Force Cnst:      0.9687                 0.1065                 0.3234
 Red. Mass:       5.1612                 2.4055                 4.3020
 IR Active:          YES                    YES                    YES
 IR Intens:       11.499                  0.339                  1.208
 Raman Active:       YES                    YES                    YES
               X      Y      Z        X      Y      Z        X      Y      Z
 C         -0.026  0.060 -0.023   -0.012  0.008  0.197   -0.037 -0.022 -0.009
 C         -0.236 -0.004  0.371   -0.029 -0.014 -0.105   -0.032 -0.046 -0.182
 C         -0.111  0.013 -0.170   -0.044  0.075 -0.053   -0.082 -0.137  0.069
 C          0.009 -0.014 -0.043    0.009  0.033  0.150   -0.016 -0.039 -0.181
 C         -0.028  0.005  0.002   -0.019 -0.022 -0.154   -0.023 -0.013 -0.093
 N          0.041 -0.009  0.004   -0.016 -0.030 -0.025    0.003  0.030  0.298
 H         -0.008 -0.057 -0.288   -0.027  0.033  0.520   -0.039 -0.060  0.075
 H         -0.240 -0.013  0.328   -0.050 -0.041 -0.250    0.000 -0.026 -0.174
 H         -0.105 -0.029 -0.094   -0.115  0.094 -0.018   -0.167 -0.323  0.400
 H         -0.003 -0.023  0.172    0.000  0.038  0.298   -0.024 -0.061 -0.045
 H          0.000  0.033  0.107   -0.038 -0.110 -0.603   -0.001  0.019  0.025
 C          0.328 -0.035 -0.156    0.119 -0.032  0.003    0.174  0.226  0.005
 H          0.547 -0.078 -0.044    0.140 -0.149 -0.056    0.377  0.417  0.242
 TransDip   0.015 -0.069  0.082   -0.006 -0.017 -0.006   -0.010 -0.034 -0.000

 Mode:                 4                      5                      6
 Frequency:       534.56                 593.27                 657.36
 Force Cnst:      1.0874                 0.5854                 0.6183
 Red. Mass:       6.4587                 2.8228                 2.4286
 IR Active:          YES                    YES                    YES
 IR Intens:        3.432                 12.231                 33.857
 Raman Active:       YES                    YES                    YES
               X      Y      Z        X      Y      Z        X      Y      Z
 C         -0.056  0.152 -0.026    0.149  0.025 -0.122   -0.148 -0.041 -0.037
 C         -0.125  0.108 -0.022    0.000  0.115  0.040    0.009 -0.143  0.055
 C         -0.188 -0.281  0.106   -0.005  0.106  0.001    0.059  0.031  0.016
 C          0.124 -0.041  0.055   -0.125 -0.014  0.068    0.159  0.035 -0.010
 C          0.161 -0.004 -0.123   -0.004 -0.153 -0.113   -0.036  0.122 -0.093
 N          0.189  0.293  0.021    0.034 -0.043  0.178   -0.036  0.063  0.089
 H         -0.050 -0.078 -0.036    0.174 -0.030 -0.632   -0.129 -0.081 -0.495
 H          0.062  0.236 -0.003   -0.093  0.042 -0.066    0.092 -0.106 -0.168
 H         -0.128 -0.128 -0.173    0.075  0.103 -0.055   -0.028  0.057  0.057
 H          0.139  0.223  0.118   -0.119  0.004  0.026    0.155 -0.055 -0.028
 H         -0.028 -0.145 -0.297    0.022 -0.208 -0.525   -0.082  0.063 -0.289
 C         -0.144 -0.299 -0.017   -0.052 -0.009  0.031    0.040 -0.046  0.074
 H          0.095  0.156  0.409   -0.099 -0.159 -0.087   -0.484 -0.251 -0.362
 TransDip  -0.026 -0.008  0.053    0.007 -0.005 -0.112   -0.010 -0.010 -0.186

 Mode:                 7                      8                      9
 Frequency:       669.66                 735.43                 762.76
 Force Cnst:      0.4862                 0.5360                 0.5834
 Red. Mass:       1.8401                 1.6821                 1.7021
 IR Active:          YES                    YES                    YES
 IR Intens:       20.500                 12.596                  2.560
 Raman Active:       YES                    YES                    YES
               X      Y      Z        X      Y      Z        X      Y      Z
 C         -0.022 -0.035 -0.032    0.003 -0.027 -0.215    0.006 -0.012  0.007
 C          0.078 -0.065  0.028   -0.003 -0.006  0.048    0.016 -0.001  0.012
 C          0.060 -0.054 -0.013    0.020  0.005 -0.019   -0.029  0.114  0.059
 C          0.017  0.094  0.090    0.019  0.007  0.051    0.033 -0.012 -0.063
 C         -0.052  0.083 -0.010   -0.004  0.000 -0.044   -0.028 -0.030 -0.149
 N         -0.052 -0.054  0.054   -0.009  0.013  0.071   -0.018 -0.013  0.023
 H         -0.017  0.032 -0.141   -0.047  0.130  0.884    0.003  0.036  0.070
 H          0.087 -0.050  0.179   -0.020  0.003  0.262   -0.047 -0.057 -0.163
 H          0.054  0.161 -0.326   -0.008 -0.002  0.017   -0.037  0.430 -0.386
 H          0.010  0.008  0.021    0.016  0.031  0.118    0.029 -0.079 -0.099
 H         -0.012  0.053 -0.330   -0.011  0.009  0.022    0.016  0.128  0.632
 C         -0.071 -0.010 -0.114   -0.001 -0.007 -0.001    0.013 -0.093  0.077
 H          0.483  0.403  0.468   -0.190 -0.035 -0.130    0.157  0.124  0.301
 TransDip   0.005  0.023  0.143   -0.027  0.063  0.091    0.014  0.047  0.014

 Mode:                10                     11                     12
 Frequency:       810.48                 824.98                 887.19
 Force Cnst:      0.6798                 0.5555                 1.5184
 Red. Mass:       1.7565                 1.3852                 3.2743
 IR Active:          YES                    YES                    YES
 IR Intens:       11.865                  5.689                 11.086
 Raman Active:       YES                    YES                    YES
               X      Y      Z        X      Y      Z        X      Y      Z
 C          0.044  0.008  0.041    0.018  0.022  0.030   -0.155 -0.023  0.021
 C          0.068 -0.006 -0.005    0.014  0.009  0.003   -0.060 -0.033 -0.033
 C         -0.009 -0.068  0.006   -0.033 -0.026 -0.050    0.130  0.032 -0.133
 C         -0.084  0.081  0.074    0.095  0.004  0.031    0.053 -0.062  0.190
 C         -0.021  0.068 -0.147   -0.017 -0.106  0.004    0.047 -0.168 -0.089
 N          0.004 -0.025  0.018   -0.040 -0.010  0.001    0.055  0.103  0.008
 H          0.055  0.035 -0.185    0.024  0.047 -0.132   -0.149 -0.218 -0.164
 H          0.066  0.008  0.180    0.020  0.016  0.032    0.059  0.079  0.330
 H          0.047 -0.334  0.336   -0.036  0.049 -0.154   -0.046  0.030  0.030
 H         -0.099  0.121  0.330    0.081  0.128  0.403    0.083 -0.041 -0.259
 H          0.124  0.275  0.566   -0.098 -0.126  0.173   -0.109 -0.166  0.494
 C         -0.013 -0.047 -0.076    0.017  0.048 -0.043   -0.099  0.181 -0.003
 H         -0.068 -0.199 -0.202   -0.557  0.602 -0.049    0.393 -0.253  0.012
 TransDip   0.010 -0.012  0.109   -0.016  0.071  0.023   -0.026 -0.079  0.067

 Mode:                13                     14                     15
 Frequency:       920.53                 978.33                 997.29
 Force Cnst:      0.7347                 0.9950                 1.3865
 Red. Mass:       1.4715                 1.7644                 2.3660
 IR Active:          YES                    YES                    YES
 IR Intens:        0.520                  9.640                  0.691
 Raman Active:       YES                    YES                    YES
               X      Y      Z        X      Y      Z        X      Y      Z
 C         -0.085 -0.048 -0.014   -0.070 -0.021  0.019   -0.005  0.058 -0.017
 C         -0.076  0.101  0.032   -0.056  0.139 -0.115   -0.040  0.106  0.034
 C          0.089 -0.008 -0.025    0.011 -0.030  0.053   -0.009 -0.016  0.036
 C         -0.018 -0.016  0.015    0.040  0.013 -0.018    0.198  0.119 -0.009
 C          0.019  0.036 -0.020    0.008  0.029 -0.002   -0.007 -0.079  0.006
 N          0.026 -0.048  0.006   -0.014 -0.108  0.020   -0.086 -0.152  0.024
 H         -0.088 -0.182  0.071   -0.065 -0.166 -0.100   -0.010  0.150  0.055
 H         -0.016  0.094 -0.552    0.026  0.284  0.775    0.076  0.152 -0.388
 H          0.628 -0.276 -0.077    0.155  0.140 -0.306   -0.222 -0.153  0.408
 H         -0.032 -0.027  0.217    0.044  0.012 -0.060    0.245  0.317 -0.359
 H          0.104  0.097  0.053    0.111  0.078 -0.056   -0.061 -0.102  0.099
 C         -0.005  0.000  0.019    0.070 -0.023  0.029   -0.061 -0.019 -0.059
 H         -0.040  0.190  0.115   -0.112 -0.121 -0.135    0.237 -0.258 -0.037
 TransDip  -0.002  0.022 -0.007    0.058  0.062 -0.052    0.014 -0.008  0.021

 Mode:                16                     17                     18
 Frequency:      1046.60                1051.90                1061.78
 Force Cnst:      1.3565                 1.5077                 0.9502
 Red. Mass:       2.1019                 2.3127                 1.4305
 IR Active:          YES                    YES                    YES
 IR Intens:       24.159                 16.341                  0.172
 Raman Active:       YES                    YES                    YES
               X      Y      Z        X      Y      Z        X      Y      Z
 C         -0.127 -0.055 -0.003   -0.109  0.031 -0.011    0.050  0.015 -0.001
 C          0.096 -0.014 -0.002    0.053 -0.032  0.046   -0.015 -0.014  0.011
 C          0.003  0.146  0.035    0.023 -0.115  0.118   -0.009 -0.074  0.001
 C         -0.026  0.060 -0.133   -0.141  0.142  0.007    0.057 -0.038 -0.068
 C          0.045 -0.112  0.037    0.031 -0.115  0.019   -0.012  0.026  0.001
 N         -0.009  0.050 -0.000    0.048  0.006 -0.008   -0.019 -0.011  0.003
 H         -0.134 -0.079 -0.014   -0.114 -0.022  0.095    0.051  0.090 -0.011
 H          0.048 -0.013  0.271    0.311  0.099 -0.374   -0.043 -0.045 -0.076
 H          0.211 -0.146  0.292   -0.077  0.363 -0.482    0.059  0.153 -0.380
 H         -0.031  0.500  0.502   -0.126  0.176 -0.169    0.027  0.194  0.642
 H         -0.096 -0.223 -0.102    0.099 -0.076  0.054   -0.054  0.002 -0.001
 C          0.001 -0.083 -0.025    0.089  0.049 -0.068   -0.076  0.104  0.048
 H          0.235 -0.032  0.144   -0.121 -0.164 -0.329    0.264 -0.486 -0.107
 TransDip  -0.065 -0.075  0.122   -0.035 -0.056 -0.111   -0.008  0.001  0.011

 Mode:                19                     20                     21
 Frequency:      1100.20                1187.47                1237.60
 Force Cnst:      1.0680                 1.6435                 1.6928
 Red. Mass:       1.4975                 1.9782                 1.8758
 IR Active:          YES                    YES                    YES
 IR Intens:        8.640                 16.736                  2.244
 Raman Active:       YES                    YES                    YES
               X      Y      Z        X      Y      Z        X      Y      Z
 C          0.089 -0.025  0.011   -0.056  0.131 -0.013    0.078 -0.142  0.008
 C         -0.070 -0.053 -0.041    0.027 -0.099 -0.010    0.061  0.050  0.043
 C          0.015 -0.027  0.056   -0.078 -0.009 -0.130   -0.084 -0.041 -0.118
 C          0.018  0.093  0.021   -0.031 -0.000  0.013   -0.018  0.017  0.009
 C         -0.033 -0.035  0.002    0.064 -0.015 -0.002   -0.028  0.039 -0.009
 N         -0.046  0.074 -0.008    0.005 -0.071  0.013   -0.062  0.057 -0.003
 H          0.087  0.025 -0.003   -0.062  0.601 -0.069    0.085 -0.450  0.044
 H         -0.478 -0.319  0.091    0.153 -0.013  0.096    0.493  0.324 -0.062
 H          0.557 -0.171 -0.181    0.309 -0.232 -0.150   -0.017 -0.092 -0.126
 H          0.053  0.252 -0.305    0.009  0.377 -0.245    0.024  0.427 -0.252
 H         -0.225 -0.131  0.068    0.309  0.116 -0.035   -0.272 -0.080  0.026
 C          0.036 -0.005 -0.007    0.011  0.002  0.150    0.037  0.005  0.095
 H         -0.004 -0.055 -0.061   -0.035  0.023  0.155    0.017 -0.051  0.067
 TransDip   0.032 -0.074 -0.048    0.091  0.078 -0.054    0.006  0.033 -0.035

 Mode:                22                     23                     24
 Frequency:      1300.19                1331.87                1398.53
 Force Cnst:      1.8697                 2.8008                 1.7573
 Red. Mass:       1.8772                 2.6799                 1.5249
 IR Active:          YES                    YES                    YES
 IR Intens:        1.263                  3.152                  5.673
 Raman Active:       YES                    YES                    YES
               X      Y      Z        X      Y      Z        X      Y      Z
 C          0.015  0.027  0.003    0.033  0.146 -0.016    0.059  0.050 -0.006
 C         -0.074  0.017 -0.015   -0.084 -0.108 -0.045   -0.052 -0.068 -0.009
 C          0.210 -0.074 -0.066    0.053  0.018 -0.026   -0.001  0.011 -0.010
 C         -0.065  0.015 -0.034   -0.009  0.117 -0.048    0.040  0.084 -0.025
 C         -0.017  0.002 -0.003   -0.171  0.007  0.016   -0.034 -0.099  0.021
 N         -0.022  0.007 -0.001    0.190 -0.086 -0.004   -0.078  0.060 -0.008
 H          0.019 -0.142 -0.015    0.062 -0.280  0.087    0.076 -0.432  0.067
 H         -0.315 -0.140 -0.010    0.367  0.198  0.095    0.236  0.120  0.044
 H         -0.535  0.205  0.141    0.082 -0.064  0.066    0.114 -0.076  0.018
 H         -0.037  0.577  0.055   -0.046 -0.164  0.129    0.012 -0.297  0.104
 H          0.181  0.118 -0.019   -0.652 -0.266  0.092    0.687  0.284 -0.093
 C          0.021 -0.057  0.089   -0.025 -0.034  0.075   -0.019 -0.010  0.023
 H         -0.080  0.132  0.161   -0.039  0.039  0.124    0.047 -0.041  0.047
 TransDip   0.001  0.032 -0.016    0.000 -0.049  0.028    0.043 -0.059  0.023

 Mode:                25                     26                     27
 Frequency:      1423.27                1481.85                1561.29
 Force Cnst:      2.1498                 2.8879                 4.9405
 Red. Mass:       1.8013                 2.2322                 3.4400
 IR Active:          YES                    YES                    YES
 IR Intens:        0.792                  5.242                 18.373
 Raman Active:       YES                    YES                    YES
               X      Y      Z        X      Y      Z        X      Y      Z
 C          0.048 -0.131  0.019    0.064  0.009  0.003    0.023  0.183 -0.020
 C         -0.133 -0.008 -0.015   -0.136 -0.106 -0.022   -0.037 -0.089  0.002
 C          0.073 -0.016 -0.017    0.044  0.093  0.131    0.023  0.015  0.015
 C         -0.030  0.102 -0.034   -0.009 -0.175  0.034   -0.067 -0.014  0.002
 C          0.090 -0.017 -0.003   -0.030  0.041 -0.010    0.329  0.082 -0.038
 N         -0.051  0.046 -0.000   -0.006  0.004 -0.002   -0.203 -0.070  0.021
 H          0.023  0.719 -0.110    0.072  0.113 -0.009    0.044 -0.617  0.051
 H          0.315  0.301  0.028    0.513  0.326 -0.015    0.063 -0.035  0.013
 H         -0.082  0.026  0.049    0.155  0.123  0.058    0.035  0.035 -0.012
 H         -0.075 -0.354  0.152    0.059  0.629 -0.077   -0.090 -0.168  0.066
 H         -0.138 -0.138  0.035    0.107  0.129 -0.022   -0.467 -0.341  0.124
 C          0.006 -0.031  0.032   -0.002  0.011 -0.121    0.002 -0.005 -0.007
 H          0.009  0.012  0.069   -0.011  0.125 -0.094   -0.020  0.048  0.012
 TransDip  -0.009  0.020  0.018    0.056  0.043  0.021    0.095  0.097 -0.018

 Mode:                28                     29                     30
 Frequency:      3116.28                3151.15                3168.27
 Force Cnst:      6.2203                 6.3587                 6.4331
 Red. Mass:       1.0871                 1.0869                 1.0877
 IR Active:          YES                    YES                    YES
 IR Intens:       15.382                  6.271                 48.512
 Raman Active:       YES                    YES                    YES
               X      Y      Z        X      Y      Z        X      Y      Z
 C         -0.001  0.001 -0.000   -0.032 -0.000 -0.001    0.033  0.004  0.001
 C          0.002 -0.003  0.000    0.043 -0.065  0.006    0.009 -0.016  0.002
 C          0.002  0.001  0.000    0.001  0.002  0.002   -0.000  0.001  0.000
 C         -0.084  0.006 -0.005    0.002  0.000  0.001    0.012  0.001  0.000
 C          0.006 -0.009  0.001   -0.001  0.003 -0.001    0.035 -0.066  0.011
 N          0.001 -0.000 -0.000   -0.001  0.001 -0.000    0.001 -0.001  0.000
 H          0.010 -0.000 -0.000    0.391  0.009  0.016   -0.397 -0.013 -0.016
 H         -0.018  0.027 -0.002   -0.507  0.757 -0.069   -0.111  0.169 -0.015
 H         -0.016 -0.023 -0.020   -0.018 -0.035 -0.026   -0.001 -0.007 -0.004
 H          0.980 -0.070  0.065   -0.031  0.002 -0.003   -0.126  0.004 -0.007
 H         -0.072  0.119 -0.019    0.020 -0.036  0.006   -0.431  0.758 -0.129
 C          0.001  0.001 -0.001    0.000  0.001 -0.000   -0.001 -0.000  0.001
 H         -0.013 -0.012  0.026   -0.001 -0.002  0.003    0.007  0.004 -0.009
 TransDip  -0.125 -0.002 -0.007    0.010 -0.079  0.007    0.160 -0.153  0.025

 Mode:                31                     32                     33
 Frequency:      3175.32                3214.94                3243.72
 Force Cnst:      6.4974                 6.6464                 6.8056
 Red. Mass:       1.0937                 1.0914                 1.0978
 IR Active:          YES                    YES                    YES
 IR Intens:       12.924                 14.440                  0.271
 Raman Active:       YES                    YES                    YES
               X      Y      Z        X      Y      Z        X      Y      Z
 C         -0.073 -0.004 -0.003    0.003 -0.000  0.000   -0.002 -0.000  0.000
 C         -0.015  0.026 -0.002    0.006 -0.003 -0.000   -0.003  0.001 -0.000
 C         -0.001 -0.003 -0.002   -0.036 -0.063 -0.044    0.010  0.018  0.015
 C          0.005  0.001 -0.000   -0.002  0.002 -0.000    0.004 -0.004  0.002
 C          0.020 -0.034  0.006   -0.001  0.001  0.000    0.001 -0.002  0.000
 N         -0.000  0.001 -0.000   -0.000 -0.000  0.000    0.000  0.000 -0.000
 H          0.825  0.027  0.034   -0.023 -0.001 -0.000    0.014  0.000  0.001
 H          0.179 -0.278  0.025   -0.034  0.046 -0.005    0.016 -0.018 -0.001
 H          0.020  0.038  0.028    0.408  0.713  0.499   -0.104 -0.183 -0.125
 H         -0.056  0.001 -0.002    0.024 -0.005 -0.001   -0.038  0.006 -0.003
 H         -0.215  0.378 -0.065    0.005 -0.007  0.001   -0.008  0.015 -0.002
 C         -0.000 -0.001  0.001    0.009  0.010 -0.014    0.036  0.040 -0.068
 H          0.008  0.007 -0.015   -0.114 -0.117  0.195   -0.439 -0.450  0.731
 TransDip  -0.109 -0.036  0.005   -0.050 -0.080 -0.077   -0.007  0.014 -0.007

 STANDARD THERMODYNAMIC QUANTITIES AT   298.15 K  AND     1.00 ATM

   This Molecule has  1 Imaginary Frequencies
   Zero point vibrational energy:       63.266 kcal/mol

   Atom    1 Element C  Has Mass   12.00000
   Atom    2 Element C  Has Mass   12.00000
   Atom    3 Element C  Has Mass   12.00000
   Atom    4 Element C  Has Mass   12.00000
   Atom    5 Element C  Has Mass   12.00000
   Atom    6 Element N  Has Mass   14.00307
   Atom    7 Element H  Has Mass    1.00783
   Atom    8 Element H  Has Mass    1.00783
   Atom    9 Element H  Has Mass    1.00783
   Atom   10 Element H  Has Mass    1.00783
   Atom   11 Element H  Has Mass    1.00783
   Atom   12 Element C  Has Mass   12.00000
   Atom   13 Element H  Has Mass    1.00783
   Molecular Mass:    92.050050 amu
   Principal axes and moments of inertia in amu*Bohr^2:
                             1           2           3
    Eigenvalues --      351.43258   491.09968   722.30850
          X               0.55573     0.81998     0.13707
          Y               0.80453    -0.57198     0.15989
          Z              -0.20951    -0.02142     0.97757
   Rotational Symmetry Number is   1
   The Molecule is an Asymmetric Top
   Translational Enthalpy:        0.889 kcal/mol
   Rotational Enthalpy:           0.889 kcal/mol
   Vibrational Enthalpy:         64.608 kcal/mol
   gas constant (RT):             0.592 kcal/mol
   Translational Entropy:        39.471  cal/mol.K
   Rotational Entropy:           26.325  cal/mol.K
   Vibrational Entropy:           6.288  cal/mol.K

   Total Enthalpy:               66.978 kcal/mol
   Total Entropy:                72.084  cal/mol.K
Archival summary:
1\1\c8-73\FREQ\ProcedureUnspecified\6-31G*\166(2)\hpark21\TueMar119:49:432022TueMar119:49:432022\0\\#,FREQ,ProcedureUnspecified,6-31G*,\\0,2\N\C,1,1.30554\H,2,1.08908,1,118.217\C,1,1.35376,2,116.554,3,-177.611,0\H,4,1.08931,1,116.986,2,-173.652,0\C,4,1.42858,1,123.243,2,5.20786,0\H,6,1.0915,4,117.11,1,177.338,0\C,6,1.47299,4,122.355,1,15.6859,0\H,8,1.08388,6,127.426,4,135.888,0\C,8,1.45455,6,77.6998,4,-92.5739,0\H,10,1.08317,8,131.216,6,-129.116,0\C,2,1.48385,1,122.681,3,-179.726,0\H,12,1.09359,2,115.991,1,-172.856,0\\\@

 Total job time:  293.13s(wall), 255.24s(cpu) 
 Tue Mar  1 19:49:43 2022

        *************************************************************
        *                                                           *
        *  Thank you very much for using Q-Chem.  Have a nice day.  *
        *                                                           *
        *************************************************************


