
Running Job 1 of 1 qcts1.in
qchem qcts1.in_37566.0 ./qcts1.d/ 1
/home/leeping/opt/qchem/5.0.2-openmp/exe/qcprog.exe_s qcts1.in_37566.0 ./qcts1.d/
Check license passed

                  Welcome to Q-Chem
     A Quantum Leap Into The Future Of Chemistry


 Q-Chem 5.0, Q-Chem, Inc., Pleasanton, CA (2017)

 Yihan Shao,  Zhengting Gan,  E. Epifanovsky,  A. T. B. Gilbert,  M. Wormit,  
 J. Kussmann,  A. W. Lange,  A. Behn,  Jia Deng,  Xintian Feng,  D. Ghosh,  
 M. Goldey,  P. R. Horn,  L. D. Jacobson,  I. Kaliman,  T. Kus,  A. Landau,  
 Jie Liu,  E. I. Proynov,  R. M. Richard,  R. P. Steele,  E. J. Sundstrom,  
 H. L. Woodcock III,  P. M. Zimmerman,  D. Zuev,  B. Albrecht,  E. Alguire,  
 S. A. Baeppler,  D. Barton,  Z. Benda,  Y. A. Bernard,  E. J. Berquist,  
 K. B. Bravaya,  H. Burton,  D. Casanova,  Chun-Min Chang,  Yunqing Chen,  
 A. Chien,  K. D. Closser,  M. P. Coons,  S. Dasgupta,  A. L. Dempwolff,  
 M. Diedenhofen,  Hainam Do,  R. G. Edgar,  Po-Tung Fang,  S. Fatehi,  
 Qingguo Feng,  J. Fosso-Tande,  Qinghui Ge,  A. Ghysels,  G. Gidofalvi,  
 J. Gomes,  J. Gonthier,  A. Gunina,  M. W. D. Hanson-Heine,  
 P. H. P. Harbach,  A. W. Hauser,  J. E. Herr,  E. G. Hohenstein,  
 Z. C. Holden,  Kerwin Hui,  T.-C. Jagau,  Hyunjun Ji,  B. Kaduk,  
 K. Khistyaev,  Jaehoon Kim,  P. Klunzinger,  K. Koh,  D. Kosenkov,  
 L. Koulias,  T. Kowalczyk,  C. M. Krauter,  A. Kunitsa,  Ka Un Lao,  
 A. Laurent,  K. V. Lawler,  Joonho Lee,  D. Lefrancois,  S. Lehtola,  
 D. S. Levine,  Yi-Pei Li,  You-Sheng Lin,  Fenglai Liu,  E. Livshits,  
 A. Luenser,  P. Manohar,  E. Mansoor,  S. F. Manzer,  Shan-Ping Mao,  
 Yuezhi Mao,  N. Mardirossian,  A. V. Marenich,  T. Markovich,  
 L. A. Martinez-Martinez,  S. A. Maurer,  N. J. Mayhall,  S. C. McKenzie,  
 J.-M. Mewes,  A. F. Morrison,  J. W. Mullinax,  K. Nanda,  
 T. S. Nguyen-Beck,  R. Olivares-Amaya,  J. A. Parkhill,  T. M. Perrine,  
 F. Plasser,  S. Prager,  A. Prociuk,  E. Ramos,  D. R. Rehn,  F. Rob,  
 M. Schneider,  N. Sergueev,  S. M. Sharada,  S. Sharma,  D. W. Small,  
 T. Stauch,  T. Stein,  Yu-Chuan Su,  A. J. W. Thom,  A. Tkatchenko,  
 T. Tsuchimochi,  L. Vogt,  O. Vydrov,  M. A. Watson,  J. Wenzel,  
 M. de Wergifosse,  T. A. Wesolowski,  A. White,  J. Witte,  A. Yamada,  
 Jun Yang,  K. Yao,  S. Yeganeh,  S. R. Yost,  Zhi-Qiang You,  A. Zech,  
 Igor Ying Zhang,  Xing Zhang,  Yan Zhao,  Ying Zhu,  B. R. Brooks,  
 G. K. L. Chan,  C. J. Cramer,  M. S. Gordon,  W. J. Hehre,  A. Klamt,  
 M. W. Schmidt,  C. D. Sherrill,  D. G. Truhlar,  A. Aspuru-Guzik,  R. Baer,  
 A. T. Bell,  N. A. Besley,  Jeng-Da Chai,  R. A. DiStasio Jr.,  A. Dreuw,  
 B. D. Dunietz,  T. R. Furlani,  Chao-Ping Hsu,  Yousung Jung,  Jing Kong,  
 D. S. Lambrecht,  WanZhen Liang,  C. Ochsenfeld,  V. A. Rassolov,  
 L. V. Slipchenko,  J. E. Subotnik,  T. Van Voorhis,  J. M. Herbert,  
 A. I. Krylov,  P. M. W. Gill,  M. Head-Gordon

 Contributors to earlier versions of Q-Chem not listed above: 
 R. D. Adamson,  B. Austin,  J. Baker,  G. J. O. Beran,  K. Brandhorst,  
 S. T. Brown,  E. F. C. Byrd,  A. K. Chakraborty,  C.-L. Cheng,  
 Siu Hung Chien,  D. M. Chipman,  D. L. Crittenden,  H. Dachsel,  
 R. J. Doerksen,  A. D. Dutoi,  L. Fusti-Molnar,  W. A. Goddard III,  
 A. Golubeva-Zadorozhnaya,  S. R. Gwaltney,  G. Hawkins,  A. Heyden,  
 S. Hirata,  G. Kedziora,  F. J. Keil,  C. Kelley,  Jihan Kim,  R. A. King,  
 R. Z. Khaliullin,  P. P. Korambath,  W. Kurlancheek,  A. M. Lee,  M. S. Lee,  
 S. V. Levchenko,  Ching Yeh Lin,  D. Liotard,  R. C. Lochan,  I. Lotan,  
 P. E. Maslen,  N. Nair,  D. P. O'Neill,  D. Neuhauser,  E. Neuscamman,  
 C. M. Oana,  R. Olson,  B. Peters,  R. Peverati,  P. A. Pieniazek,  
 Y. M. Rhee,  J. Ritchie,  M. A. Rohrdanz,  E. Rosta,  N. J. Russ,  
 H. F. Schaefer III,  N. E. Schultz,  N. Shenvi,  A. C. Simmonett,  A. Sodt,  
 D. Stuck,  K. S. Thanthiriwatte,  V. Vanovschi,  Tao Wang,  A. Warshel,  
 C. F. Williams,  Q. Wu,  X. Xu,  W. Zhang

 Please cite Q-Chem as follows:
 Y. Shao et al., Mol. Phys. 113, 184-215 (2015)
 DOI: 10.1080/00268976.2014.952696

 Q-Chem 5.0.2 for Intel X86 EM64T Linux

 Parts of Q-Chem use Armadillo 5.200.1 (Boston Tea Smuggler).
 http://arma.sourceforge.net/

 Q-Chem begins on Tue Mar  1 19:40:48 2022  

Host: 
0

     Scratch files written to ./qcts1.d//
 Dec517 15110_ 26548  26544 5633   
Processing $rem in /home/leeping/opt/qchem/5.0.2-openmp/config/preferences.
 MEM_STATIC 2000
 MEM_TOTAL  8000
 SYMMETRY   OFF
 SYM_IGNORE TRUE 

Checking the input file for inconsistencies... 	...done.

--------------------------------------------------------------
User input:
--------------------------------------------------------------
$molecule
0 2
C        1.5953338844    0.4067361017   -0.1897943789
C        0.9086320669   -0.8397409949   -0.0649906087
C       -0.5126109957   -0.9956759066   -0.4192020483
C       -1.1069925506    0.3330125840    0.0367531990
C       -0.3433821655    1.5702450987   -0.2598141450
N        0.9595827628    1.5926281024   -0.3386283302
H        2.6835607586    0.4311459777   -0.1477095139
H        1.5213434727   -1.7402807548    0.0056334112
H       -0.9667137477   -1.8040614407   -0.9805469258
H       -2.1949569365    0.4108182279   -0.0421480633
H       -0.8847285105    2.5024367666   -0.4149514210
C       -0.5791075294   -0.6885768809    1.0010056585
H       -1.0904739228   -1.1865992606    1.8157054302
$end

$rem
method                b3lyp
basis                 6-31g(d)
unrestricted          true
symmetry              off
sym_ignore            true
incdft                false
incfock               0
scf_convergence       8
thresh                14
jobtype               sp
scf_guess             core
scf_guess_mix         5
scf_algorithm         diis
max_scf_cycles        100
$end

--------------------------------------------------------------
 ----------------------------------------------------------------
             Standard Nuclear Orientation (Angstroms)
    I     Atom           X                Y                Z
 ----------------------------------------------------------------
    1      C       1.5953338844     0.4067361017    -0.1897943789
    2      C       0.9086320669    -0.8397409949    -0.0649906087
    3      C      -0.5126109957    -0.9956759066    -0.4192020483
    4      C      -1.1069925506     0.3330125840     0.0367531990
    5      C      -0.3433821655     1.5702450987    -0.2598141450
    6      N       0.9595827628     1.5926281024    -0.3386283302
    7      H       2.6835607586     0.4311459777    -0.1477095139
    8      H       1.5213434727    -1.7402807548     0.0056334112
    9      H      -0.9667137477    -1.8040614407    -0.9805469258
   10      H      -2.1949569365     0.4108182279    -0.0421480633
   11      H      -0.8847285105     2.5024367666    -0.4149514210
   12      C      -0.5791075294    -0.6885768809     1.0010056585
   13      H      -1.0904739228    -1.1865992606     1.8157054302
 ----------------------------------------------------------------
 Nuclear Repulsion Energy =   275.0231131471 hartrees
 There are       25 alpha and       24 beta electrons
 Requested basis set is 6-31G(d)
 There are 40 shells and 117 basis functions

 Total QAlloc Memory Limit   8000 MB
 Mega-Array Size      1956 MB
 MEM_STATIC part      2000 MB

                       Distance Matrix (Angstroms)
             C (  1)   C (  2)   C (  3)   C (  4)   C (  5)   N (  6)
   C (  2)  1.428580
   C (  3)  2.542207  1.472995
   C (  4)  2.712808  2.334191  1.525319
   C (  5)  2.262140  2.722780  2.576430  1.483845
   N (  6)  1.353762  2.448243  2.978786  2.449138  1.305538
   H (  7)  1.089314  2.184575  3.510704  3.796308  3.236124  2.087484
   H (  8)  2.157162  1.091501  2.207236  3.347785  3.808838  3.397407
   H (  9)  3.475198  2.298930  1.083884  2.371005  3.506272  3.957294
   H ( 10)  3.793168  3.346145  2.225013  1.093593  2.195445  3.381671
   H ( 11)  3.254745  3.809038  3.517852  2.227070  1.089084  2.057926
   C ( 12)  2.710334  1.836455  1.454552  1.500697  2.597597  3.060406
   H ( 13)  3.711376  2.766542  2.316288  2.339693  3.530739  4.070380
             H (  7)   H (  8)   H (  9)   H ( 10)   H ( 11)   C ( 12)
   H (  8)  2.467662
   H (  9)  4.360536  2.677134
   H ( 10)  4.879702  4.294229  2.700901
   H ( 11)  4.134532  4.895582  4.344254  2.496107
   C ( 12)  3.635702  2.551224  2.306750  2.215357  3.504412
   H ( 13)  4.551421  3.225603  2.866287  2.687610  4.315918  1.083170

 
 A cutoff of  1.0D-14 yielded    808 shell pairs
 There are      7080 function pairs
 
 -------------------------------------------------------
 OpenMP Integral Computing Module                       
 Release: version 1.0, May 2013, Q-Chem Inc. Pittsburgh 
 -------------------------------------------------------
 Integral Job Info:
 Integral job number is                      11
 Integral operator is                         1
 short-range coefficients                     0
 long-range coefficients              100000000
 Omega coefficients                           0
 if combine SR and LR in K                    0
 Integral screening is                        0
 Integral computing path is                   2
 max size of driver memory is            800000
 size of driver memory is                593474
 size of scratch memory is              2361544
 max col of scratch BK array               1296
 max len of scratch array in speh3          155
 max len of scratch index in speh4           18
 max int batch size is                      520
 min int batch size is                       52
 fixed nKL is                                52
 max L of basis functions is                  2
 order of int derivative is                   0
 number of shells is                         40
 number of basis is                         117
 number of cartesian basis is               117
 number of contracted shell pairs           808
 number of primitive shell pairs           3541
 maxK2 (contraction) of shell pair           36
 max number of K2 of shell pair               1
 max number of CS2 of shell pair             84
 max number of PS2 of shell pair            372
 mem total for path MDJ                  535308
 -------------------------------------------------------
 Smallest overlap matrix eigenvalue = 1.51E-03

 Scale SEOQF with 1.000000e-01/1.000000e-01/1.000000e-01

 Standard Electronic Orientation quadrupole field applied
 Nucleus-field energy     =     0.0000000050 hartrees
 Guess MOs from core Hamiltonian diagonalization
 Mixing HOMO and LUMO in initial guess
 Adding  50% of the LUMO to the HOMO
 An unrestricted hybrid HF-DFT SCF calculation will be
 performed using Pulay DIIS extrapolation
 Exchange:     0.2000 Hartree-Fock + 0.0800 Slater + 0.7200 B88
 Correlation:  0.1900 VWN1RPA + 0.8100 LYP
 Using SG-1 standard quadrature grid
 SCF converges when DIIS error is below 1.0E-08
 using 4 threads for integral computing
 -------------------------------------------------------
 OpenMP Integral computing Module                
 Release: version 1.0, May 2013, Q-Chem Inc. Pittsburgh 
 -------------------------------------------------------
 -------------------------------------------------------
 OpenMP BLAS3 based DFT computing Module                
 Release: version 1.0, May 2013, Q-Chem Inc. Pittsburgh 
 -------------------------------------------------------
 ---------------------------------------
  Cycle       Energy         DIIS Error
 ---------------------------------------
    1    -240.0762295623      1.30E-01
    2    -237.9490542476      1.02E-01
    3    -267.8220635906      9.22E-02
    4    -265.6904478729      1.00E-01
    5    -282.1771836729      4.43E-02
    6    -286.5549953201      1.19E-02
    7    -286.5357492896      1.23E-02
    8    -286.8212549362      2.96E-03
    9    -286.8320195766      1.52E-03
   10    -286.8358516082      3.43E-04
   11    -286.8361151390      1.74E-04
   12    -286.8361947677      5.58E-05
   13    -286.8362271574      1.68E-05
   14    -286.8362323167      7.56E-06
   15    -286.8362352964      2.56E-06
   16    -286.8362364923      9.66E-07
   17    -286.8362367395      4.28E-07
   18    -286.8362367632      1.72E-07
   19    -286.8362367649      7.97E-08
   20    -286.8362367651      2.20E-08
   21    -286.8362367651      7.17E-09 Convergence criterion met
 ---------------------------------------
 <S^2> = 0.7812
 SCF time:  CPU 54.77 s  wall 37.22 s
 SCF   energy in the final basis set = -286.83623677
 Total energy in the final basis set = -286.83623677
 
 --------------------------------------------------------------
 
                    Orbital Energies (a.u.)
 --------------------------------------------------------------
 
 Alpha MOs
 -- Occupied --
-14.319 -10.227 -10.218 -10.218 -10.215 -10.215 -10.214  -0.950
 -0.889  -0.757  -0.649  -0.640  -0.580  -0.542  -0.482  -0.478
 -0.464  -0.418  -0.389  -0.369  -0.339  -0.307  -0.274  -0.236
 -0.166
 -- Virtual --
 -0.010   0.078   0.092   0.131   0.141   0.150   0.158   0.165
  0.175   0.214   0.232   0.272   0.294   0.317   0.344   0.400
  0.520   0.522   0.531   0.546   0.560   0.581   0.587   0.596
  0.616   0.622   0.650   0.661   0.678   0.728   0.794   0.807
  0.822   0.837   0.854   0.857   0.884   0.891   0.910   0.932
  0.961   0.986   1.123   1.149   1.175   1.187   1.238   1.342
  1.409   1.441   1.470   1.507   1.560   1.589   1.633   1.658
  1.744   1.765   1.801   1.856   1.880   1.921   1.983   2.052
  2.080   2.108   2.148   2.200   2.255   2.281   2.351   2.406
  2.451   2.487   2.525   2.547   2.580   2.589   2.651   2.674
  2.707   2.766   2.805   3.004   3.195   4.024   4.117   4.162
  4.356   4.412   4.443   4.554
 
 Beta MOs
 -- Occupied --
-14.322 -10.229 -10.216 -10.214 -10.212 -10.212 -10.206  -0.946
 -0.885  -0.748  -0.643  -0.632  -0.571  -0.539  -0.478  -0.472
 -0.461  -0.415  -0.375  -0.364  -0.330  -0.300  -0.264  -0.231
 -- Virtual --
 -0.068   0.005   0.089   0.102   0.134   0.144   0.155   0.163
  0.169   0.181   0.218   0.235   0.278   0.300   0.323   0.350
  0.404   0.525   0.532   0.539   0.560   0.568   0.587   0.592
  0.602   0.628   0.645   0.657   0.665   0.684   0.732   0.796
  0.809   0.826   0.839   0.852   0.859   0.886   0.895   0.915
  0.937   0.966   0.993   1.126   1.152   1.176   1.192   1.239
  1.352   1.419   1.448   1.474   1.515   1.574   1.593   1.646
  1.666   1.750   1.773   1.815   1.863   1.885   1.932   1.992
  2.055   2.087   2.114   2.162   2.211   2.268   2.292   2.364
  2.415   2.460   2.492   2.534   2.556   2.584   2.597   2.655
  2.677   2.712   2.769   2.813   3.007   3.199   4.021   4.128
  4.172   4.366   4.417   4.451   4.556
 --------------------------------------------------------------
 
          Ground-State Mulliken Net Atomic Charges

     Atom                 Charge (a.u.)    Spin (a.u.)
  --------------------------------------------------------
      1 C                     0.060390       0.554636
      2 C                    -0.187137      -0.155691
      3 C                    -0.075493       0.057311
      4 C                    -0.213286      -0.037247
      5 C                     0.085324       0.437705
      6 N                    -0.391948      -0.165779
      7 H                     0.138133      -0.030472
      8 H                     0.150192       0.007670
      9 H                     0.151640      -0.003253
     10 H                     0.145357       0.006231
     11 H                     0.136354      -0.023039
     12 C                    -0.158121       0.363326
     13 H                     0.158594      -0.011398
  --------------------------------------------------------
  Sum of atomic charges =     0.000000
  Sum of spin   charges =     1.000000

 -----------------------------------------------------------------
                    Cartesian Multipole Moments
 -----------------------------------------------------------------
    Charge (ESU x 10^10)
                -0.0000
    Dipole Moment (Debye)
         X      -1.5897      Y      -2.4698      Z       0.0889
       Tot       2.9385
    Quadrupole Moments (Debye-Ang)
        XX     -37.3327     XY      -3.6331     YY     -41.4439
        XZ       0.0005     YZ       0.4633     ZZ     -42.1016
    Octopole Moments (Debye-Ang^2)
       XXX     -11.5083    XXY     -10.8185    XYY     -13.4604
       YYY     -29.6843    XXZ       1.8343    XYZ       2.4109
       YYZ       1.4771    XZZ      -7.7577    YZZ      -9.7721
       ZZZ       4.7801
    Hexadecapole Moments (Debye-Ang^3)
      XXXX    -279.9663   XXXY     -24.9860   XXYY    -109.5994
      XYYY     -42.5218   YYYY    -339.3982   XXXZ      17.4019
      XXYZ       8.0562   XYYZ      10.1631   YYYZ      27.1129
      XXZZ     -70.0039   XYZZ      -3.4053   YYZZ     -72.6103
      XZZZ      14.1440   YZZZ      20.9116   ZZZZ    -103.2551
 -----------------------------------------------------------------
Archival summary:
1\1\c8-73\SP\ProcedureUnspecified\6-31G*\166(2)\hpark21\TueMar119:41:352022TueMar119:41:352022\0\\#,ProcedureUnspecified,6-31G*,\\0,2\N\C,1,1.30554\H,2,1.08908,1,118.217\C,1,1.35376,2,116.554,3,-177.611,0\H,4,1.08931,1,116.986,2,-173.652,0\C,4,1.42858,1,123.243,2,5.20786,0\H,6,1.0915,4,117.11,1,177.338,0\C,6,1.47299,4,122.355,1,15.6859,0\H,8,1.08388,6,127.426,4,135.888,0\C,8,1.45455,6,77.6998,4,-92.5739,0\H,10,1.08317,8,131.216,6,-129.116,0\C,2,1.48385,1,122.681,3,-179.726,0\H,12,1.09359,2,115.991,1,-172.856,0\\\@

 Total job time:  46.79s(wall), 56.63s(cpu) 
 Tue Mar  1 19:41:35 2022

        *************************************************************
        *                                                           *
        *  Thank you very much for using Q-Chem.  Have a nice day.  *
        *                                                           *
        *************************************************************


