13   
Frame   0 IRC: Energy =  -286.8765340000 ; +0.0000 kcal/mol
C        1.6961896235    0.2910913340   -0.2562475246
C        1.1024641072   -0.9098530444   -0.0665970477
C       -0.3442786271   -1.0466614350    0.1650798587
C       -1.1478606630    0.3635609358   -0.0445855575
C       -0.2777981747    1.4737833930   -0.4744290197
N        1.0120695657    1.4853007544   -0.4907189456
H        2.7734389752    0.3636894575   -0.3710690082
H        1.6945118694   -1.8202707958   -0.1091027647
H       -0.8080220960   -1.9768711107   -0.1663343901
H       -2.1439049122    0.3612968415   -0.4906871160
H       -0.7856330212    2.3606255466   -0.8586635118
C       -0.9928474394   -0.3100877597    1.2462344857
H       -1.7783292075   -0.6356041174    1.9171205411
13   
Frame   1 IRC: Energy =  -286.8765230000 ; +0.0069 kcal/mol
C        1.6957176991    0.2910617281   -0.2567709406
C        1.1023963696   -0.9096705594   -0.0668016329
C       -0.3432807829   -1.0463233174    0.1650999388
C       -1.1478734178    0.3647387232   -0.0441189172
C       -0.2776041393    1.4726887924   -0.4754086130
N        1.0120716558    1.4848774331   -0.4899681907
H        2.7724109951    0.3636039431   -0.3718040461
H        1.6941963733   -1.8197921085   -0.1087731754
H       -0.8075182808   -1.9757102110   -0.1650921008
H       -2.1428830728    0.3607264649   -0.4909594263
H       -0.7852921353    2.3600045793   -0.8569752017
C       -0.9937862687   -0.3111584091    1.2447232124
H       -1.7785549955   -0.6350470588    1.9168490936
13   
Frame   2 IRC: Energy =  -286.8765090000 ; +0.0157 kcal/mol
C        1.6952695569    0.2910555421   -0.2570447358
C        1.1024656318   -0.9095131822   -0.0669250330
C       -0.3428113224   -1.0462187095    0.1649776100
C       -1.1478138156    0.3653907124   -0.0437941428
C       -0.2782340875    1.4723607101   -0.4761572736
N        1.0126719048    1.4844807912   -0.4895143633
H        2.7719456892    0.3635867058   -0.3720430146
H        1.6939927956   -1.8195037379   -0.1086106974
H       -0.8072610606   -1.9750124220   -0.1644819194
H       -2.1423258056    0.3604818061   -0.4909498288
H       -0.7850031147    2.3594697326   -0.8561611773
C       -0.9943975618   -0.3118231744    1.2439938177
H       -1.7784988102   -0.6347547743    1.9167107583
13   
Frame   3 IRC: Energy =  -286.8763870000 ; +0.0922 kcal/mol
C        1.6976838126    0.2885790652   -0.2665669857
C        1.1056053313   -0.9099207959   -0.0634643438
C       -0.3415268050   -1.0443029721    0.1751828067
C       -1.1474353041    0.3541168470   -0.0574392721
C       -0.2769857445    1.4750437663   -0.4657808943
N        1.0124371087    1.4873774166   -0.4830639008
H        2.7731188165    0.3594435639   -0.3999580462
H        1.6961811936   -1.8211747089   -0.1091293883
H       -0.8009105009   -1.9809656534   -0.1446862700
H       -2.1353032957    0.3439360891   -0.5215231451
H       -0.7855602842    2.3738847915   -0.8207480701
C       -1.0038617388   -0.3019127287    1.2447426499
H       -1.7934425893   -0.6241046806    1.9124348597
13   
Frame   4 IRC: Energy =  -286.8763810000 ; +0.0960 kcal/mol
C        1.6976660624    0.2886014759   -0.2667848171
C        1.1054909136   -0.9096704160   -0.0633242521
C       -0.3415931695   -1.0445262381    0.1753366446
C       -1.1476325790    0.3537988828   -0.0579182736
C       -0.2769541245    1.4748235341   -0.4652764861
N        1.0126789947    1.4874222906   -0.4829741185
H        2.7732322921    0.3593621553   -0.4006422381
H        1.6963780830   -1.8214445033   -0.1091618438
H       -0.8006992692   -1.9810058835   -0.1442055984
H       -2.1350353769    0.3435421662   -0.5222250337
H       -0.7857154911    2.3745018413   -0.8200265050
C       -1.0038150790   -0.3014600038    1.2447190669
H       -1.7940012567   -0.6239453015    1.9124834548
13   
Frame   5 IRC: Energy =  -286.8761560000 ; +0.2372 kcal/mol
C        1.6983526801    0.2861081502   -0.2750264832
C        1.1082158307   -0.9105801948   -0.0619129192
C       -0.3390744372   -1.0421445649    0.1831895439
C       -1.1471067555    0.3443784902   -0.0713263384
C       -0.2766353051    1.4750028303   -0.4578987010
N        1.0122525236    1.4890263640   -0.4735073308
H        2.7716949214    0.3563490682   -0.4241235762
H        1.6972212097   -1.8225623240   -0.1108843062
H       -0.7954535928   -1.9840993580   -0.1252240781
H       -2.1264630149    0.3259644199   -0.5531061722
H       -0.7865100529    2.3841848580   -0.7830998494
C       -1.0131605814   -0.2934113798    1.2414238868
H       -1.8033334258   -0.6082163594    1.9114963241
13   
Frame   6 IRC: Energy =  -286.8761430000 ; +0.2454 kcal/mol
C        1.6983618879    0.2861546023   -0.2754176556
C        1.1081271969   -0.9103882591   -0.0617887698
C       -0.3390822737   -1.0423499939    0.1834204462
C       -1.1475500429    0.3440626176   -0.0721361733
C       -0.2767844928    1.4745420191   -0.4573954287
N        1.0127095218    1.4890330199   -0.4731280188
H        2.7715842729    0.3562425087   -0.4251025782
H        1.6973792050   -1.8228022375   -0.1109595777
H       -0.7951262339   -1.9839763601   -0.1243592561
H       -2.1257344746    0.3252124572   -0.5542394838
H       -0.7866963765    2.3848696615   -0.7816346719
C       -1.0132032778   -0.2929511874    1.2410613267
H       -1.8039849123   -0.6076488484    1.9116798409
13   
Frame   7 IRC: Energy =  -286.8760580000 ; +0.2987 kcal/mol
C        1.6985341010    0.2852639278   -0.2777400787
C        1.1090851068   -0.9108586059   -0.0614416034
C       -0.3383767536   -1.0414132696    0.1857249370
C       -1.1469451759    0.3409644606   -0.0761356872
C       -0.2766224051    1.4750359525   -0.4551928290
N        1.0121270270    1.4895437859   -0.4701919039
H        2.7712048795    0.3554015233   -0.4319102741
H        1.6975487079   -1.8230739944   -0.1116340005
H       -0.7937523890   -1.9852251904   -0.1189016387
H       -2.1235292192    0.3198728413   -0.5638134926
H       -0.7868653511    2.3874152627   -0.7704572397
C       -1.0161748859   -0.2903825839    1.2402449032
H       -1.8062336425   -0.6025441098    1.9114489076
13   
Frame   8 IRC: Energy =  -286.8760380000 ; +0.3112 kcal/mol
C        1.6986645611    0.2853598795   -0.2782459224
C        1.1089899254   -0.9107929560   -0.0612693318
C       -0.3384314251   -1.0416052494    0.1860775297
C       -1.1474899842    0.3403760308   -0.0773040020
C       -0.2767350525    1.4745861678   -0.4544268184
N        1.0125479121    1.4896177552   -0.4696875215
H        2.7710654115    0.3552550850   -0.4332423817
H        1.6977443587   -1.8233710402   -0.1117814614
H       -0.7933554506   -1.9852135878   -0.1177813145
H       -2.1226161892    0.3188124963   -0.5654906599
H       -0.7870988057    2.3882903872   -0.7683906001
C       -1.0162739429   -0.2896468606    1.2398588523
H       -1.8070113187   -0.6016681077    1.9116836316
13   
Frame   9 IRC: Energy =  -286.8759590000 ; +0.3608 kcal/mol
C        1.6986364913    0.2845322452   -0.2801418588
C        1.1098280541   -0.9111561555   -0.0611067393
C       -0.3376732036   -1.0407682479    0.1879242053
C       -1.1468410536    0.3379463870   -0.0805607993
C       -0.2766352770    1.4749149569   -0.4529054900
N        1.0119804986    1.4899435822   -0.4669874618
H        2.7706222393    0.3545836154   -0.4387624711
H        1.6978066017   -1.8235448916   -0.1124041822
H       -0.7922567448   -1.9861000531   -0.1131907450
H       -2.1207756941    0.3142370904   -0.5736227876
H       -0.7872183634    2.3902176453   -0.7588505857
C       -1.0188871914   -0.2877258998    1.2389362242
H       -1.8085863571   -0.5970802745    1.9116726911
13   
Frame  10 IRC: Energy =  -286.8759330000 ; +0.3771 kcal/mol
C        1.6987351872    0.2845420916   -0.2808563033
C        1.1097176203   -0.9111075339   -0.0609356576
C       -0.3375490139   -1.0409189804    0.1883600222
C       -1.1475149586    0.3374492499   -0.0818860756
C       -0.2766952998    1.4742975138   -0.4523764258
N        1.0123865894    1.4899213434   -0.4661164760
H        2.7703100562    0.3544199332   -0.4403276003
H        1.6979320501   -1.8237320350   -0.1125732156
H       -0.7917505772   -1.9858492232   -0.1116894494
H       -2.1195451679    0.3128753191   -0.5756715312
H       -0.7874892919    2.3911649882   -0.7561441808
C       -1.0191202327   -0.2872309007    1.2381983406
H       -1.8094169613   -0.5958317660    1.9120185529
13   
Frame  11 IRC: Energy =  -286.8758730000 ; +0.4148 kcal/mol
C        1.6987963956    0.2838818058   -0.2819052977
C        1.1104711284   -0.9113906513   -0.0606793572
C       -0.3374310880   -1.0403593413    0.1896173197
C       -1.1468519442    0.3351570660   -0.0844330099
C       -0.2765259234    1.4750096731   -0.4504459815
N        1.0116358384    1.4904009759   -0.4646411857
H        2.7703965069    0.3539708335   -0.4441773135
H        1.6981571694   -1.8241545554   -0.1132015802
H       -0.7911864313   -1.9872067097   -0.1088857233
H       -2.1186859440    0.3096731018   -0.5816711536
H       -0.7876201989    2.3925948762   -0.7496861776
C       -1.0208667156   -0.2849750351    1.2381739686
H       -1.8102887934   -0.5926020394    1.9119354920
13   
Frame  12 IRC: Energy =  -286.8758190000 ; +0.4487 kcal/mol
C        1.6987383896    0.2842015606   -0.2833370783
C        1.1107130780   -0.9112546102   -0.0614837056
C       -0.3356689625   -1.0412714527    0.1920590504
C       -1.1475800808    0.3354562789   -0.0857729197
C       -0.2767931209    1.4739921704   -0.4515178944
N        1.0123595499    1.4906482282   -0.4623846016
H        2.7698196796    0.3534434355   -0.4467953962
H        1.6977178687   -1.8242271261   -0.1130895614
H       -0.7909006347   -1.9863799827   -0.1064113260
H       -2.1171827008    0.3070232743   -0.5857581510
H       -0.7878188795    2.3936285107   -0.7439998306
C       -1.0222922648   -0.2853464880    1.2360368858
H       -1.8111119218   -0.5899137990    1.9124545288
13   
Frame  13 IRC: Energy =  -286.8757750000 ; +0.4763 kcal/mol
C        1.6984970939    0.2840690910   -0.2840733130
C        1.1109035577   -0.9111749677   -0.0622321231
C       -0.3341234936   -1.0416051856    0.1936497017
C       -1.1474527275    0.3364966953   -0.0859020631
C       -0.2759378218    1.4735180567   -0.4531621310
N        1.0114726093    1.4908263500   -0.4609595248
H        2.7695506167    0.3531548589   -0.4477982248
H        1.6971844897   -1.8238946128   -0.1128488335
H       -0.7909269738   -1.9856367797   -0.1052535805
H       -2.1168551981    0.3058281476   -0.5875376875
H       -0.7877470661    2.3936546744   -0.7412508792
C       -1.0234970801   -0.2867092406    1.2348679074
H       -1.8110680062   -0.5885270876    1.9125007515
13   
Frame  14 IRC: Energy =  -286.8753670000 ; +0.7323 kcal/mol
C        1.6986510037    0.2808826573   -0.2898118490
C        1.1127672037   -0.9131135877   -0.0602367786
C       -0.3359854349   -1.0381415306    0.1955701893
C       -1.1468949115    0.3219081212   -0.1038935423
C       -0.2773722063    1.4736983899   -0.4409995586
N        1.0106154692    1.4915339905   -0.4502884726
H        2.7675939505    0.3518134930   -0.4670770998
H        1.6990231190   -1.8266086203   -0.1179394641
H       -0.7864857491   -1.9905843643   -0.0888459640
H       -2.1072535661    0.2862025236   -0.6213503444
H       -0.7900259874    2.4019382208   -0.7039002298
C       -1.0297915872   -0.2736084449    1.2315379919
H       -1.8148413038   -0.5659208485    1.9172351222
13   
Frame  15 IRC: Energy =  -286.8753300000 ; +0.7555 kcal/mol
C        1.6985960599    0.2803025915   -0.2899851860
C        1.1133737881   -0.9133731168   -0.0602110149
C       -0.3361980525   -1.0372495328    0.1956886704
C       -1.1458827071    0.3205399997   -0.1043542587
C       -0.2779381342    1.4746349490   -0.4403645794
N        1.0105279192    1.4915690601   -0.4497290781
H        2.7675322205    0.3517399476   -0.4682121243
H        1.6990094544   -1.8265452838   -0.1182888433
H       -0.7864068185   -1.9914778024   -0.0880403456
H       -2.1073997863    0.2851091658   -0.6236862273
H       -0.7899007820    2.4019779992   -0.7016858012
C       -1.0307341451   -0.2727694107    1.2317789638
H       -1.8145790165   -0.5644585663    1.9170898246
13   
Frame  16 IRC: Energy =  -286.8747980000 ; +1.0894 kcal/mol
C        1.6981013011    0.2786110313   -0.2957692637
C        1.1147253992   -0.9149133286   -0.0608559024
C       -0.3341539163   -1.0375384782    0.2007397903
C       -1.1472278434    0.3109035498   -0.1214298210
C       -0.2785820311    1.4717448760   -0.4339500667
N        1.0092567704    1.4922797532   -0.4360692277
H        2.7649236291    0.3505077947   -0.4844930503
H        1.6994357394   -1.8290615251   -0.1228866394
H       -0.7835493475   -1.9932650560   -0.0735074133
H       -2.0974200777    0.2654444265   -0.6564754455
H       -0.7930074201    2.4079497258   -0.6631147483
C       -1.0372079766   -0.2643120980    1.2235967733
H       -1.8152942264   -0.5383506714    1.9242150146
13   
Frame  17 IRC: Energy =  -286.8747250000 ; +1.1352 kcal/mol
C        1.6979517901    0.2780354928   -0.2963616753
C        1.1152616336   -0.9152909584   -0.0612216224
C       -0.3336235880   -1.0368819303    0.2016407830
C       -1.1463235866    0.3096339418   -0.1222018776
C       -0.2786502187    1.4722968021   -0.4340089558
N        1.0086845661    1.4923956861   -0.4343657840
H        2.7646483188    0.3503505935   -0.4862123267
H        1.6992287563   -1.8289785835   -0.1233342888
H       -0.7834749384   -1.9937757742   -0.0720126449
H       -2.0971837843    0.2633367894   -0.6604641360
H       -0.7930699032    2.4080350230   -0.6587514471
C       -1.0389201262   -0.2639728327    1.2229965572
H       -1.8145289195   -0.5351842495    1.9242974184
13   
Frame  18 IRC: Energy =  -286.8740380000 ; +1.5663 kcal/mol
C        1.6972333561    0.2758781973   -0.3010671519
C        1.1166421314   -0.9173978042   -0.0614727906
C       -0.3335367830   -1.0365420531    0.2038910491
C       -1.1471355001    0.2977326172   -0.1411790814
C       -0.2803361229    1.4695068986   -0.4248863718
N        1.0070525874    1.4924422768   -0.4201521455
H        2.7617447446    0.3499600948   -0.5013288928
H        1.7001562563   -1.8318614883   -0.1292338681
H       -0.7805075714   -1.9970449829   -0.0587567339
H       -2.0866787490    0.2434299309   -0.6943809325
H       -0.7969641040    2.4123085344   -0.6193624629
C       -1.0445078376   -0.2535645119    1.2146754218
H       -1.8131624076   -0.5048477095    1.9332539605
13   
Frame  19 IRC: Energy =  -286.8739570000 ; +1.6171 kcal/mol
C        1.6967215756    0.2743530624   -0.3011435216
C        1.1170647402   -0.9179486087   -0.0616037139
C       -0.3325876904   -1.0361154899    0.2038245127
C       -1.1459008151    0.2968737988   -0.1423531478
C       -0.2801623181    1.4702796120   -0.4243002413
N        1.0053870368    1.4931341944   -0.4189865209
H        2.7620483496    0.3499815731   -0.5027415548
H        1.6998619271   -1.8314983127   -0.1297548342
H       -0.7805031607   -1.9978760071   -0.0577184641
H       -2.0867356009    0.2416847709   -0.6978136540
H       -0.7968091953    2.4118509184   -0.6157862999
C       -1.0456538226   -0.2526006291    1.2145798685
H       -1.8127310260   -0.5021188825    1.9337975712
13   
Frame  20 IRC: Energy =  -286.8732530000 ; +2.0589 kcal/mol
C        1.6963680215    0.2738994238   -0.3052804042
C        1.1181869081   -0.9193050225   -0.0624667959
C       -0.3329129253   -1.0365755586    0.2065161561
C       -1.1476292292    0.2867668131   -0.1584725818
C       -0.2819233353    1.4665319846   -0.4173910677
N        1.0051357308    1.4921043469   -0.4055816885
H        2.7587840169    0.3499016934   -0.5145217762
H        1.7007391094   -1.8345691200   -0.1351510339
H       -0.7780988355   -2.0001492187   -0.0469031544
H       -2.0771736614    0.2248134554   -0.7267664766
H       -0.8012322724    2.4146447309   -0.5809984274
C       -1.0508033484   -0.2450811091    1.2054776159
H       -1.8094401791   -0.4729824194    1.9415396347
13   
Frame  21 IRC: Energy =  -286.8731050000 ; +2.1517 kcal/mol
C        1.6957294117    0.2724845546   -0.3056926736
C        1.1187907993   -0.9203822302   -0.0628735819
C       -0.3318009056   -1.0359963423    0.2070630317
C       -1.1463355423    0.2851845118   -0.1605189764
C       -0.2822583274    1.4677097862   -0.4166706593
N        1.0036371511    1.4924510646   -0.4031190991
H        2.7588775084    0.3499578360   -0.5167364594
H        1.7002745766   -1.8341275413   -0.1360756919
H       -0.7780119408   -2.0011328968   -0.0450948616
H       -2.0767646352    0.2217648615   -0.7326715067
H       -0.8013162261    2.4137225118   -0.5744772469
C       -1.0521673351   -0.2439986347    1.2040588036
H       -1.8086545346   -0.4676374812    1.9428089215
13   
Frame  22 IRC: Energy =  -286.8722980000 ; +2.6581 kcal/mol
C        1.6952228137    0.2716983094   -0.3091597502
C        1.1197257176   -0.9218119869   -0.0635909552
C       -0.3326528860   -1.0365161512    0.2081240328
C       -1.1476650070    0.2748614370   -0.1768244908
C       -0.2841402834    1.4631370821   -0.4088597154
N        1.0026984274    1.4914071134   -0.3900805890
H        2.7556456400    0.3503542038   -0.5272267679
H        1.7013050568   -1.8371217066   -0.1420625263
H       -0.7753789634   -2.0041345232   -0.0350272473
H       -2.0674089184    0.2058419670   -0.7604735790
H       -0.8058657141    2.4153402353   -0.5403927780
C       -1.0573044815   -0.2359332402    1.1951712189
H       -1.8041814018   -0.4371227398    1.9504031473
13   
Frame  23 IRC: Energy =  -286.8712200000 ; +3.3346 kcal/mol
C        1.6941303192    0.2694706435   -0.3127109311
C        1.1213805782   -0.9245079465   -0.0653617212
C       -0.3316743520   -1.0369285322    0.2096578031
C       -1.1476162347    0.2632946852   -0.1950427367
C       -0.2865193827    1.4602958749   -0.4008955286
N        0.9997754685    1.4902758571   -0.3742284455
H        2.7529572623    0.3513888623   -0.5384924899
H        1.7015579304   -1.8395796366   -0.1497073170
H       -0.7728780733   -2.0085247990   -0.0229592436
H       -2.0584179425    0.1880526542   -0.7933251023
H       -0.8109639837    2.4133890907   -0.4991244328
C       -1.0642091566   -0.2277951118    1.1840406779
H       -1.7975224330   -0.3988316420    1.9581494676
13   
Frame  24 IRC: Energy =  -286.8710590000 ; +3.4356 kcal/mol
C        1.6931775231    0.2698267748   -0.3131280218
C        1.1204660705   -0.9238091867   -0.0651564360
C       -0.3315754817   -1.0386562146    0.2093061590
C       -1.1487172877    0.2625279641   -0.1977899116
C       -0.2873480720    1.4579664936   -0.3996676725
N        1.0011770881    1.4899791504   -0.3725064567
H        2.7531176579    0.3516448732   -0.5398006770
H        1.7021224684   -1.8407142172   -0.1505726919
H       -0.7721356390   -2.0078707370   -0.0214026421
H       -2.0565317211    0.1860977597   -0.7963948119
H       -0.8121104578    2.4143005107   -0.4947023212
C       -1.0637937798   -0.2264168124    1.1817070675
H       -1.7978483690   -0.3948763586    1.9601084162
13   
Frame  25 IRC: Energy =  -286.8701060000 ; +4.0336 kcal/mol
C        1.6932467398    0.2673314151   -0.3159753146
C        1.1232329769   -0.9267514405   -0.0676208202
C       -0.3313039852   -1.0367208286    0.2107011059
C       -1.1474711835    0.2523872981   -0.2117581378
C       -0.2889781296    1.4570381423   -0.3927671663
N        0.9970667888    1.4886932680   -0.3596978767
H        2.7503723709    0.3526879154   -0.5478682034
H        1.7017042811   -1.8417882942   -0.1573206357
H       -0.7705070943   -2.0129671631   -0.0109938764
H       -2.0503654981    0.1721427716   -0.8230948382
H       -0.8159289596    2.4101957864   -0.4605301109
C       -1.0706303340   -0.2200804740    1.1732876013
H       -1.7904379731   -0.3621683964    1.9636382730
13   
Frame  26 IRC: Energy =  -286.8697530000 ; +4.2551 kcal/mol
C        1.6926609223    0.2679070445   -0.3171272686
C        1.1223239631   -0.9270933268   -0.0677581901
C       -0.3310347776   -1.0385278166    0.2104491644
C       -1.1489031110    0.2498147475   -0.2177695815
C       -0.2895173481    1.4537703034   -0.3901672362
N        0.9973816867    1.4881141151   -0.3554440273
H        2.7499698994    0.3532139765   -0.5505130325
H        1.7022596374   -1.8432253006   -0.1596335670
H       -0.7693031377   -2.0130404287   -0.0071828246
H       -2.0469838995    0.1675883752   -0.8309900166
H       -0.8181172013    2.4104613113   -0.4492277640
C       -1.0713531149   -0.2174628610    1.1690794736
H       -1.7893835188   -0.3515201397    1.9662848702
13   
Frame  27 IRC: Energy =  -286.8685110000 ; +5.0345 kcal/mol
C        1.6922966087    0.2655586076   -0.3205356524
C        1.1247711026   -0.9297559762   -0.0713343153
C       -0.3304314953   -1.0374724069    0.2112046630
C       -1.1482760876    0.2385023080   -0.2345785491
C       -0.2920250122    1.4509242174   -0.3819969493
N        0.9938734330    1.4859114319   -0.3410522617
H        2.7479170389    0.3551253437   -0.5580187922
H        1.7020101921   -1.8452020178   -0.1681692788
H       -0.7673520373   -2.0180304812    0.0069590019
H       -2.0404392185    0.1525764032   -0.8598662951
H       -0.8233970930    2.4043210752   -0.4088539566
C       -1.0777917033   -0.2093719809    1.1577999532
H       -1.7811557281   -0.3130865242    1.9684424325
13   
Frame  28 IRC: Energy =  -286.8682050000 ; +5.2265 kcal/mol
C        1.6917303716    0.2663718734   -0.3214588389
C        1.1236226919   -0.9298999617   -0.0714492667
C       -0.3300867574   -1.0393120101    0.2107533568
C       -1.1497019263    0.2370327445   -0.2393281411
C       -0.2924767753    1.4471954385   -0.3800435757
N        0.9946374710    1.4854286260   -0.3380389474
H        2.7478865167    0.3556756440   -0.5595734383
H        1.7025539837   -1.8465168885   -0.1699904701
H       -0.7663794655   -2.0176696607    0.0102151892
H       -2.0378811072    0.1494566469   -0.8650549670
H       -0.8254145611    2.4047340734   -0.4004133540
C       -1.0778594133   -0.2072681983    1.1542061007
H       -1.7806310290   -0.3052283275    1.9701763525
13   
Frame  29 IRC: Energy =  -286.8669380000 ; +6.0216 kcal/mol
C        1.6917778811    0.2637488848   -0.3248861514
C        1.1265702985   -0.9324068489   -0.0763381042
C       -0.3294590802   -1.0372468735    0.2110724200
C       -1.1488259599    0.2259145953   -0.2552182813
C       -0.2951446322    1.4451673879   -0.3722219053
N        0.9908946117    1.4826508081   -0.3248546412
H        2.7465709453    0.3579632238   -0.5647468114
H        1.7020264529   -1.8483417510   -0.1785156399
H       -0.7652198356   -2.0222833530    0.0259509015
H       -2.0334212307    0.1361030547   -0.8910871572
H       -0.8304903862    2.3960794572   -0.3610903195
C       -1.0830994195   -0.1985305615    1.1434018399
H       -1.7721796453   -0.2688180238    1.9685338501
13   
Frame  30 IRC: Energy =  -286.8665940000 ; +6.2374 kcal/mol
C        1.6910325405    0.2645270574   -0.3258587183
C        1.1252368382   -0.9324723233   -0.0767206309
C       -0.3288469613   -1.0392491102    0.2104671857
C       -1.1503094381    0.2246717150   -0.2603325738
C       -0.2958714186    1.4409812718   -0.3702950018
N        0.9918573519    1.4820618625   -0.3218021754
H        2.7469051299    0.3586961496   -0.5659347024
H        1.7025897055   -1.8497917925   -0.1804995832
H       -0.7643295022   -2.0216889262    0.0298870864
H       -2.0311011089    0.1330517817   -0.8960814669
H       -0.8326943855    2.3960063154   -0.3519788571
C       -1.0827381029   -0.1961194737    1.1393563785
H       -1.7717306483   -0.2606745275    1.9697930593
13   
Frame  31 IRC: Energy =  -286.8652810000 ; +7.0614 kcal/mol
C        1.6917308489    0.2621570889   -0.3294830448
C        1.1283403628   -0.9352046785   -0.0828557334
C       -0.3282890483   -1.0361909059    0.2099873994
C       -1.1496095052    0.2136023246   -0.2758223637
C       -0.2983003220    1.4387083742   -0.3624438751
N        0.9879165878    1.4786855229   -0.3097357691
H        2.7461594267    0.3612690939   -0.5687796600
H        1.7019354730   -1.8517036907   -0.1886882511
H       -0.7640574810   -2.0253109271    0.0473742130
H       -2.0287085615    0.1210980605   -0.9193797816
H       -0.8379424776    2.3854840694   -0.3135499536
C       -1.0860477599   -0.1858302788    1.1289029002
H       -1.7631275438   -0.2267640536    1.9644739196
13   
Frame  32 IRC: Energy =  -286.8648590000 ; +7.3262 kcal/mol
C        1.6909248659    0.2629061304   -0.3306225142
C        1.1268855515   -0.9354218010   -0.0837849700
C       -0.3273829038   -1.0381356695    0.2091715221
C       -1.1511019433    0.2123740149   -0.2819941164
C       -0.2993688158    1.4340229951   -0.3602308906
N        0.9888022389    1.4778203476   -0.3063129333
H        2.7468710389    0.3622582011   -0.5695696168
H        1.7024973181   -1.8533551583   -0.1909987825
H       -0.7633460651   -2.0245006527    0.0526011571
H       -2.0267328350    0.1177598753   -0.9248061323
H       -0.8404761554    2.3844112647   -0.3025732352
C       -1.0850600156   -0.1826139776    1.1241389283
H       -1.7625122793   -0.2175255699    1.9649815837
13   
Frame  33 IRC: Energy =  -286.8634600000 ; +8.2041 kcal/mol
C        1.6920902033    0.2606557261   -0.3344067339
C        1.1300805705   -0.9382773415   -0.0912607615
C       -0.3267978524   -1.0341410136    0.2075633731
C       -1.1509547385    0.2010897548   -0.2974348373
C       -0.3018619037    1.4310426218   -0.3519971711
N        0.9849619002    1.4737406521   -0.2949973120
H        2.7467539002    0.3650420466   -0.5701755407
H        1.7018415237   -1.8556334182   -0.1984678043
H       -0.7640831643   -2.0264503611    0.0718645283
H       -2.0266566909    0.1070077179   -0.9456956888
H       -0.8461482421    2.3719907790   -0.2647118975
C       -1.0857149714   -0.1698301857    1.1136195520
H       -1.7535105347   -0.1862369781    1.9561002936
13   
Frame  34 IRC: Energy =  -286.8629530000 ; +8.5222 kcal/mol
C        1.6912683232    0.2615270068   -0.3357000808
C        1.1285052278   -0.9387266520   -0.0928525707
C       -0.3256083338   -1.0358297860    0.2064942211
C       -1.1524683972    0.2003222174   -0.3047168430
C       -0.3035195179    1.4257732283   -0.3494357822
N        0.9857735968    1.4724772641   -0.2912515742
H        2.7479375538    0.3662268835   -0.5703559648
H        1.7024305430   -1.8575563813   -0.2008571388
H       -0.7637229999   -2.0252075343    0.0782989641
H       -2.0253781567    0.1035318144   -0.9512360303
H       -0.8489358748    2.3695868730   -0.2522176434
C       -1.0835386014   -0.1655953382    1.1081564213
H       -1.7527433629   -0.1765295955    1.9556740219
13   
Frame  35 IRC: Energy =  -286.8614900000 ; +9.4403 kcal/mol
C        1.6929046191    0.2591473176   -0.3392583932
C        1.1318115052   -0.9416449790   -0.1013130096
C       -0.3250704572   -1.0307230837    0.2034844232
C       -1.1530152841    0.1882932571   -0.3195422552
C       -0.3060516204    1.4221948251   -0.3398019756
N        0.9821725477    1.4677330725   -0.2810285290
H        2.7481894954    0.3688806529   -0.5690757726
H        1.7017568217   -1.8600233957   -0.2068429636
H       -0.7653937459   -2.0249853480    0.0980144729
H       -2.0279815570    0.0942415925   -0.9693849250
H       -0.8549367582    2.3558547120   -0.2168218830
C       -1.0813106271   -0.1498648839    1.0978672355
H       -1.7430749392   -0.1491037393    1.9437035751
13   
Frame  36 IRC: Energy =  -286.8608030000 ; +9.8714 kcal/mol
C        1.6923823072    0.2604766495   -0.3407226127
C        1.1302415425   -0.9427131916   -0.1041173963
C       -0.3237690240   -1.0315615501    0.2017397141
C       -1.1548284721    0.1874528291   -0.3288037450
C       -0.3086773390    1.4155392648   -0.3355820586
N        0.9824505841    1.4657118156   -0.2765242189
H        2.7499456459    0.3702162855   -0.5684991566
H        1.7024823305   -1.8626102054   -0.2093158838
H       -0.7655824982   -2.0231632418    0.1064986083
H       -2.0275460367    0.0902202006   -0.9755433613
H       -0.8582892445    2.3512103317   -0.2013519608
C       -1.0774095453   -0.1427954326    1.0907512368
H       -1.7414002504   -0.1379837553    1.9414708349
13   
Frame  37 IRC: Energy =  -286.8593130000 ; +10.8063 kcal/mol
C        1.6941830885    0.2575638825   -0.3441238147
C        1.1333319777   -0.9453361543   -0.1128293605
C       -0.3227550633   -1.0257252776    0.1978268658
C       -1.1563203215    0.1748481603   -0.3423844903
C       -0.3111855377    1.4114033269   -0.3237217600
N        0.9796390734    1.4602319451   -0.2673413245
H        2.7501957820    0.3723267077   -0.5659773208
H        1.7015772230   -1.8646237859   -0.2131522358
H       -0.7677644592   -2.0199190684    0.1247360128
H       -2.0334727032    0.0826679421   -0.9913478696
H       -0.8643778572    2.3369516052   -0.1706948162
C       -1.0718120434   -0.1250184860    1.0814604124
H       -1.7312391590   -0.1153707976    1.9275497013
13   
Frame  38 IRC: Energy =  -286.8575060000 ; +11.9403 kcal/mol
C        1.6945373238    0.2586185420   -0.3468164900
C        1.1323644529   -0.9480601947   -0.1213854329
C       -0.3205918036   -1.0217587831    0.1918013799
C       -1.1619408925    0.1657524555   -0.3625443132
C       -0.3181919557    1.3955186844   -0.3014062944
N        0.9788418280    1.4530882418   -0.2590351652
H        2.7532897219    0.3739959872   -0.5630214470
H        1.7020580382   -1.8688989662   -0.2160503461
H       -0.7694968789   -2.0135054527    0.1427902583
H       -2.0388884291    0.0747910841   -1.0055001803
H       -0.8714473741    2.3221566865   -0.1397693182
C       -1.0588199601   -0.0983546619    1.0667880541
H       -1.7217140709   -0.0933436228    1.9141492950
13   