13   
Frame   0 IRC: Energy =  -286.8765340000 ; +0.0000 kcal/mol
C       -0.2533320000   -0.0330900000   -0.0000000000
C        0.0987200000    0.0398010000   -0.0000000000
C       -0.1600960000   -0.0222890000    0.0000000000
C       -0.0136960000    0.0262770000   -0.0000000000
C       -0.0574810000   -0.0426310000   -0.0000000000
N       -0.1816790000    0.0141430000   -0.0000000000
H        0.1251450000    0.0007730000   -0.0000000000
H        0.1322470000    0.0033070000   -0.0000000000
H        0.1443830000    0.0178280000   -0.0000000000
H        0.1443600000    0.0214690000   -0.0000000000
H        0.1285730000    0.0050710000   -0.0000000000
C       -0.2558840000    0.9911040000    0.0000000000
H        0.1487380000   -0.0217640000    0.0000000000
13   
Frame   1 IRC: Energy =  -286.8765230000 ; +0.0069 kcal/mol
C       -0.2535050000   -0.0333610000   -0.0000000000
C        0.0994340000    0.0401300000   -0.0000000000
C       -0.1603210000   -0.0223570000    0.0000000000
C       -0.0142000000    0.0267350000   -0.0000000000
C       -0.0572570000   -0.0429940000   -0.0000000000
N       -0.1820120000    0.0143050000   -0.0000000000
H        0.1250130000    0.0007730000   -0.0000000000
H        0.1321890000    0.0032950000   -0.0000000000
H        0.1443480000    0.0178990000   -0.0000000000
H        0.1443710000    0.0215750000   -0.0000000000
H        0.1285080000    0.0050350000   -0.0000000000
C       -0.2552840000    0.9910270000    0.0000000000
H        0.1487150000   -0.0220620000    0.0000000000
13   
Frame   2 IRC: Energy =  -286.8765090000 ; +0.0157 kcal/mol
C       -0.2534740000   -0.0335920000   -0.0000000000
C        0.0997760000    0.0404670000   -0.0000000000
C       -0.1601930000   -0.0226030000    0.0000000000
C       -0.0144800000    0.0269990000   -0.0000000000
C       -0.0573770000   -0.0431240000   -0.0000000000
N       -0.1824480000    0.0143620000   -0.0000000000
H        0.1248950000    0.0007720000   -0.0000000000
H        0.1321490000    0.0032780000   -0.0000000000
H        0.1443270000    0.0179230000   -0.0000000000
H        0.1443550000    0.0216590000   -0.0000000000
H        0.1286440000    0.0049740000   -0.0000000000
C       -0.2548920000    0.9911140000    0.0000000000
H        0.1487180000   -0.0222300000    0.0000000000
13   
Frame   3 IRC: Energy =  -286.8763870000 ; +0.0922 kcal/mol
C       -0.2528220000   -0.0312140000   -0.0000000000
C        0.1088900000    0.0344020000   -0.0000000000
C       -0.1673580000   -0.0196320000    0.0000000000
C       -0.0109010000    0.0224780000   -0.0000000000
C       -0.0610250000   -0.0369300000   -0.0000000000
N       -0.1811810000    0.0120390000   -0.0000000000
H        0.1253670000    0.0007080000   -0.0000000000
H        0.1316900000    0.0034920000   -0.0000000000
H        0.1443380000    0.0186880000   -0.0000000000
H        0.1445040000    0.0205770000   -0.0000000000
H        0.1288700000    0.0051080000   -0.0000000000
C       -0.2591410000    0.9921790000    0.0000000000
H        0.1487670000   -0.0218940000    0.0000000000
13   
Frame   4 IRC: Energy =  -286.8763810000 ; +0.0960 kcal/mol
C       -0.2528670000   -0.0312040000   -0.0000000000
C        0.1092680000    0.0342320000   -0.0000000000
C       -0.1678930000   -0.0194490000    0.0000000000
C       -0.0107750000    0.0224510000   -0.0000000000
C       -0.0614710000   -0.0368150000   -0.0000000000
N       -0.1809810000    0.0119650000   -0.0000000000
H        0.1253710000    0.0007060000   -0.0000000000
H        0.1317110000    0.0035080000   -0.0000000000
H        0.1443830000    0.0186530000   -0.0000000000
H        0.1445550000    0.0204960000   -0.0000000000
H        0.1288730000    0.0051250000   -0.0000000000
C       -0.2589670000    0.9921640000    0.0000000000
H        0.1487920000   -0.0218320000    0.0000000000
13   
Frame   5 IRC: Energy =  -286.8761560000 ; +0.2372 kcal/mol
C       -0.2518930000   -0.0297000000   -0.0000000000
C        0.1185310000    0.0300070000   -0.0000000000
C       -0.1750460000   -0.0178910000    0.0000000000
C       -0.0079360000    0.0179360000   -0.0000000000
C       -0.0652850000   -0.0315810000   -0.0000000000
N       -0.1806290000    0.0102920000   -0.0000000000
H        0.1255400000    0.0006510000   -0.0000000000
H        0.1311850000    0.0036310000   -0.0000000000
H        0.1442690000    0.0196940000   -0.0000000000
H        0.1446410000    0.0199550000   -0.0000000000
H        0.1291010000    0.0051380000   -0.0000000000
C       -0.2612090000    0.9941320000    0.0000000000
H        0.1487320000   -0.0222630000    0.0000000000
13   
Frame   6 IRC: Energy =  -286.8761430000 ; +0.2454 kcal/mol
C       -0.2518810000   -0.0297480000   -0.0000000000
C        0.1191130000    0.0298750000   -0.0000000000
C       -0.1756210000   -0.0177440000    0.0000000000
C       -0.0079360000    0.0179270000   -0.0000000000
C       -0.0660720000   -0.0313770000   -0.0000000000
N       -0.1804670000    0.0101770000   -0.0000000000
H        0.1255200000    0.0006520000   -0.0000000000
H        0.1311830000    0.0036440000   -0.0000000000
H        0.1443150000    0.0196950000   -0.0000000000
H        0.1447110000    0.0198330000   -0.0000000000
H        0.1291320000    0.0051460000   -0.0000000000
C       -0.2607600000    0.9941590000    0.0000000000
H        0.1487630000   -0.0222370000    0.0000000000
13   
Frame   7 IRC: Energy =  -286.8760580000 ; +0.2987 kcal/mol
C       -0.2514570000   -0.0292340000   -0.0000000000
C        0.1216340000    0.0286660000   -0.0000000000
C       -0.1775660000   -0.0174120000    0.0000000000
C       -0.0069210000    0.0163270000   -0.0000000000
C       -0.0667860000   -0.0298540000   -0.0000000000
N       -0.1803890000    0.0098090000   -0.0000000000
H        0.1256100000    0.0006350000   -0.0000000000
H        0.1310220000    0.0036680000   -0.0000000000
H        0.1442390000    0.0200410000   -0.0000000000
H        0.1446870000    0.0197650000   -0.0000000000
H        0.1291980000    0.0051490000   -0.0000000000
C       -0.2619800000    0.9948270000    0.0000000000
H        0.1487090000   -0.0223860000    0.0000000000
13   
Frame   8 IRC: Energy =  -286.8760380000 ; +0.3112 kcal/mol
C       -0.2514030000   -0.0292120000   -0.0000000000
C        0.1223180000    0.0284050000   -0.0000000000
C       -0.1782850000   -0.0172110000    0.0000000000
C       -0.0068320000    0.0161880000   -0.0000000000
C       -0.0677360000   -0.0295450000   -0.0000000000
N       -0.1801450000    0.0096800000   -0.0000000000
H        0.1256040000    0.0006320000   -0.0000000000
H        0.1310120000    0.0036850000   -0.0000000000
H        0.1442860000    0.0200570000   -0.0000000000
H        0.1447640000    0.0196090000   -0.0000000000
H        0.1292200000    0.0051670000   -0.0000000000
C       -0.2615440000    0.9948890000    0.0000000000
H        0.1487400000   -0.0223430000    0.0000000000
13   
Frame   9 IRC: Energy =  -286.8759590000 ; +0.3608 kcal/mol
C       -0.2510090000   -0.0289160000   -0.0000000000
C        0.1244290000    0.0276190000   -0.0000000000
C       -0.1798560000   -0.0170640000    0.0000000000
C       -0.0061210000    0.0148770000   -0.0000000000
C       -0.0681980000   -0.0283800000   -0.0000000000
N       -0.1801600000    0.0094450000   -0.0000000000
H        0.1256640000    0.0006250000   -0.0000000000
H        0.1308750000    0.0036910000   -0.0000000000
H        0.1442100000    0.0203740000   -0.0000000000
H        0.1447340000    0.0196130000   -0.0000000000
H        0.1292850000    0.0051580000   -0.0000000000
C       -0.2625380000    0.9954960000    0.0000000000
H        0.1486830000   -0.0225390000    0.0000000000
13   
Frame  10 IRC: Energy =  -286.8759330000 ; +0.3771 kcal/mol
C       -0.2508810000   -0.0289380000   -0.0000000000
C        0.1252420000    0.0273970000   -0.0000000000
C       -0.1805550000   -0.0168790000    0.0000000000
C       -0.0063480000    0.0147590000   -0.0000000000
C       -0.0691230000   -0.0280550000   -0.0000000000
N       -0.1799670000    0.0093400000   -0.0000000000
H        0.1256520000    0.0006220000   -0.0000000000
H        0.1308410000    0.0037080000   -0.0000000000
H        0.1442490000    0.0204270000   -0.0000000000
H        0.1448110000    0.0194560000   -0.0000000000
H        0.1292990000    0.0051720000   -0.0000000000
C       -0.2619270000    0.9955520000    0.0000000000
H        0.1487080000   -0.0225610000    0.0000000000
13   
Frame  11 IRC: Energy =  -286.8758730000 ; +0.4148 kcal/mol
C       -0.2507630000   -0.0285920000   -0.0000000000
C        0.1267080000    0.0266910000   -0.0000000000
C       -0.1819400000   -0.0167390000    0.0000000000
C       -0.0051610000    0.0135130000   -0.0000000000
C       -0.0694080000   -0.0271330000   -0.0000000000
N       -0.1797630000    0.0091660000   -0.0000000000
H        0.1257500000    0.0006200000   -0.0000000000
H        0.1307840000    0.0037170000   -0.0000000000
H        0.1441990000    0.0206090000   -0.0000000000
H        0.1447850000    0.0194460000   -0.0000000000
H        0.1293120000    0.0051920000   -0.0000000000
C       -0.2631540000    0.9960820000    0.0000000000
H        0.1486500000   -0.0225710000    0.0000000000
13   
Frame  12 IRC: Energy =  -286.8758190000 ; +0.4487 kcal/mol
C       -0.2496210000   -0.0286150000   -0.0000000000
C        0.1270810000    0.0264540000   -0.0000000000
C       -0.1824200000   -0.0165660000    0.0000000000
C       -0.0067360000    0.0134930000   -0.0000000000
C       -0.0704650000   -0.0266560000   -0.0000000000
N       -0.1799280000    0.0090480000   -0.0000000000
H        0.1256960000    0.0006030000   -0.0000000000
H        0.1307250000    0.0037240000   -0.0000000000
H        0.1442820000    0.0209630000   -0.0000000000
H        0.1448920000    0.0194700000   -0.0000000000
H        0.1294440000    0.0051430000   -0.0000000000
C       -0.2615710000    0.9959300000    0.0000000000
H        0.1486220000   -0.0229920000    0.0000000000
13   
Frame  13 IRC: Energy =  -286.8757750000 ; +0.4763 kcal/mol
C       -0.2488850000   -0.0285870000   -0.0000000000
C        0.1267760000    0.0264270000   -0.0000000000
C       -0.1821440000   -0.0164680000    0.0000000000
C       -0.0084910000    0.0135730000   -0.0000000000
C       -0.0695500000   -0.0267410000   -0.0000000000
N       -0.1801330000    0.0091700000   -0.0000000000
H        0.1257300000    0.0005950000   -0.0000000000
H        0.1306860000    0.0037170000   -0.0000000000
H        0.1442630000    0.0212240000   -0.0000000000
H        0.1448960000    0.0196050000   -0.0000000000
H        0.1292860000    0.0051150000   -0.0000000000
C       -0.2609730000    0.9957620000    0.0000000000
H        0.1485390000   -0.0233910000    0.0000000000
13   
Frame  14 IRC: Energy =  -286.8753670000 ; +0.7323 kcal/mol
C       -0.2489410000   -0.0279120000   -0.0000000000
C        0.1372110000    0.0239270000   -0.0000000000
C       -0.1910390000   -0.0167720000    0.0000000000
C       -0.0017090000    0.0069450000   -0.0000000000
C       -0.0760320000   -0.0218130000   -0.0000000000
N       -0.1784170000    0.0084160000   -0.0000000000
H        0.1259700000    0.0006140000   -0.0000000000
H        0.1302380000    0.0037570000   -0.0000000000
H        0.1440550000    0.0220100000   -0.0000000000
H        0.1449940000    0.0189620000   -0.0000000000
H        0.1296750000    0.0052480000   -0.0000000000
C       -0.2645280000    0.9998850000    0.0000000000
H        0.1485220000   -0.0232670000    0.0000000000
13   
Frame  15 IRC: Energy =  -286.8753300000 ; +0.7555 kcal/mol
C       -0.2489680000   -0.0278230000   -0.0000000000
C        0.1377360000    0.0238980000   -0.0000000000
C       -0.1909330000   -0.0171310000    0.0000000000
C       -0.0006330000    0.0062770000   -0.0000000000
C       -0.0758810000   -0.0214010000   -0.0000000000
N       -0.1787240000    0.0083850000   -0.0000000000
H        0.1259830000    0.0006180000   -0.0000000000
H        0.1301880000    0.0037390000   -0.0000000000
H        0.1439700000    0.0221410000   -0.0000000000
H        0.1448790000    0.0191260000   -0.0000000000
H        0.1298580000    0.0052160000   -0.0000000000
C       -0.2659510000    1.0002460000    0.0000000000
H        0.1484750000   -0.0232930000    0.0000000000
13   
Frame  16 IRC: Energy =  -286.8747980000 ; +1.0894 kcal/mol
C       -0.2464190000   -0.0279910000   -0.0000000000
C        0.1446630000    0.0230950000   -0.0000000000
C       -0.1980870000   -0.0179910000    0.0000000000
C        0.0002310000    0.0010850000   -0.0000000000
C       -0.0822190000   -0.0182690000   -0.0000000000
N       -0.1771420000    0.0088470000   -0.0000000000
H        0.1261700000    0.0006430000   -0.0000000000
H        0.1298260000    0.0037250000   -0.0000000000
H        0.1439560000    0.0235210000   -0.0000000000
H        0.1452030000    0.0188170000   -0.0000000000
H        0.1300250000    0.0052990000   -0.0000000000
C       -0.2645120000    1.0035130000    0.0000000000
H        0.1483060000   -0.0242930000    0.0000000000
13   
Frame  17 IRC: Energy =  -286.8747250000 ; +1.1352 kcal/mol
C       -0.2460000000   -0.0279180000   -0.0000000000
C        0.1451270000    0.0231280000   -0.0000000000
C       -0.1980580000   -0.0183800000    0.0000000000
C        0.0005530000    0.0002040000   -0.0000000000
C       -0.0817970000   -0.0178530000   -0.0000000000
N       -0.1773660000    0.0089680000   -0.0000000000
H        0.1262140000    0.0006470000   -0.0000000000
H        0.1297660000    0.0037030000   -0.0000000000
H        0.1438600000    0.0238140000   -0.0000000000
H        0.1450880000    0.0190840000   -0.0000000000
H        0.1301150000    0.0052720000   -0.0000000000
C       -0.2656780000    1.0038960000    0.0000000000
H        0.1481750000   -0.0245650000    0.0000000000
13   
Frame  18 IRC: Energy =  -286.8740380000 ; +1.5663 kcal/mol
C       -0.2442860000   -0.0287730000   -0.0000000000
C        0.1522930000    0.0238410000   -0.0000000000
C       -0.2052000000   -0.0206140000    0.0000000000
C        0.0040410000   -0.0057590000   -0.0000000000
C       -0.0893940000   -0.0157240000   -0.0000000000
N       -0.1753580000    0.0106780000   -0.0000000000
H        0.1264080000    0.0007350000   -0.0000000000
H        0.1293970000    0.0035960000   -0.0000000000
H        0.1437530000    0.0251060000   -0.0000000000
H        0.1453410000    0.0187610000   -0.0000000000
H        0.1304140000    0.0054020000   -0.0000000000
C       -0.2654520000    1.0081150000    0.0000000000
H        0.1480440000   -0.0253630000    0.0000000000
13   
Frame  19 IRC: Energy =  -286.8739570000 ; +1.6171 kcal/mol
C       -0.2446260000   -0.0287500000   -0.0000000000
C        0.1532280000    0.0238460000   -0.0000000000
C       -0.2062770000   -0.0208700000    0.0000000000
C        0.0051650000   -0.0066720000   -0.0000000000
C       -0.0886690000   -0.0156450000   -0.0000000000
N       -0.1754530000    0.0109030000   -0.0000000000
H        0.1265580000    0.0007440000   -0.0000000000
H        0.1293490000    0.0035540000   -0.0000000000
H        0.1436860000    0.0252030000   -0.0000000000
H        0.1452720000    0.0189600000   -0.0000000000
H        0.1303160000    0.0053760000   -0.0000000000
C       -0.2665090000    1.0088250000    0.0000000000
H        0.1479610000   -0.0254740000    0.0000000000
13   
Frame  20 IRC: Energy =  -286.8732530000 ; +2.0589 kcal/mol
C       -0.2422030000   -0.0300930000   -0.0000000000
C        0.1579630000    0.0258960000   -0.0000000000
C       -0.2106400000   -0.0235970000    0.0000000000
C        0.0069850000   -0.0114960000   -0.0000000000
C       -0.0963790000   -0.0147160000   -0.0000000000
N       -0.1734200000    0.0134500000   -0.0000000000
H        0.1265970000    0.0008630000   -0.0000000000
H        0.1290790000    0.0034250000   -0.0000000000
H        0.1435920000    0.0265740000   -0.0000000000
H        0.1454820000    0.0187900000   -0.0000000000
H        0.1307460000    0.0055320000   -0.0000000000
C       -0.2655670000    1.0119270000    0.0000000000
H        0.1477640000   -0.0265550000    0.0000000000
13   
Frame  21 IRC: Energy =  -286.8731050000 ; +2.1517 kcal/mol
C       -0.2419270000   -0.0301480000   -0.0000000000
C        0.1586640000    0.0261660000   -0.0000000000
C       -0.2112760000   -0.0243430000    0.0000000000
C        0.0079880000   -0.0128860000   -0.0000000000
C       -0.0960670000   -0.0144470000   -0.0000000000
N       -0.1736570000    0.0139420000   -0.0000000000
H        0.1267230000    0.0008810000   -0.0000000000
H        0.1289800000    0.0033680000   -0.0000000000
H        0.1434910000    0.0269870000   -0.0000000000
H        0.1453820000    0.0191200000   -0.0000000000
H        0.1308240000    0.0054910000   -0.0000000000
C       -0.2667800000    1.0127150000    0.0000000000
H        0.1476530000   -0.0268460000    0.0000000000
13   
Frame  22 IRC: Energy =  -286.8722980000 ; +2.6581 kcal/mol
C       -0.2405810000   -0.0320170000   -0.0000000000
C        0.1634270000    0.0293640000   -0.0000000000
C       -0.2158190000   -0.0275550000    0.0000000000
C        0.0117640000   -0.0175480000   -0.0000000000
C       -0.1045460000   -0.0149530000   -0.0000000000
N       -0.1710740000    0.0177280000   -0.0000000000
H        0.1267940000    0.0010530000   -0.0000000000
H        0.1287300000    0.0031550000   -0.0000000000
H        0.1433720000    0.0281030000   -0.0000000000
H        0.1455730000    0.0189310000   -0.0000000000
H        0.1311740000    0.0056850000   -0.0000000000
C       -0.2663030000    1.0159090000    0.0000000000
H        0.1474890000   -0.0278550000    0.0000000000
13   
Frame  23 IRC: Energy =  -286.8712200000 ; +3.3346 kcal/mol
C       -0.2388800000   -0.0343740000   -0.0000000000
C        0.1680510000    0.0339460000   -0.0000000000
C       -0.2200600000   -0.0319870000    0.0000000000
C        0.0165210000   -0.0236660000   -0.0000000000
C       -0.1124920000   -0.0161190000   -0.0000000000
N       -0.1688720000    0.0232720000   -0.0000000000
H        0.1270510000    0.0012910000   -0.0000000000
H        0.1284140000    0.0028060000   -0.0000000000
H        0.1431280000    0.0296830000   -0.0000000000
H        0.1455380000    0.0191960000   -0.0000000000
H        0.1316870000    0.0058240000   -0.0000000000
C       -0.2672160000    1.0195050000    0.0000000000
H        0.1471300000   -0.0293760000    0.0000000000
13   
Frame  24 IRC: Energy =  -286.8710590000 ; +3.4356 kcal/mol
C       -0.2389120000   -0.0351080000   -0.0000000000
C        0.1692400000    0.0348570000   -0.0000000000
C       -0.2232040000   -0.0319900000    0.0000000000
C        0.0175970000   -0.0234790000   -0.0000000000
C       -0.1158270000   -0.0168970000   -0.0000000000
N       -0.1678200000    0.0241290000   -0.0000000000
H        0.1269700000    0.0013290000   -0.0000000000
H        0.1284820000    0.0027840000   -0.0000000000
H        0.1433090000    0.0294720000   -0.0000000000
H        0.1457360000    0.0189910000   -0.0000000000
H        0.1318440000    0.0058960000   -0.0000000000
C       -0.2648220000    1.0195000000    0.0000000000
H        0.1474080000   -0.0294850000    0.0000000000
13   
Frame  25 IRC: Energy =  -286.8701060000 ; +4.0336 kcal/mol
C       -0.2379290000   -0.0369150000   -0.0000000000
C        0.1724080000    0.0391750000   -0.0000000000
C       -0.2233630000   -0.0363110000    0.0000000000
C        0.0223440000   -0.0289970000   -0.0000000000
C       -0.1209000000   -0.0183170000   -0.0000000000
N       -0.1665020000    0.0297140000   -0.0000000000
H        0.1272480000    0.0015640000   -0.0000000000
H        0.1281220000    0.0024180000   -0.0000000000
H        0.1428620000    0.0311380000   -0.0000000000
H        0.1454690000    0.0194230000   -0.0000000000
H        0.1322260000    0.0059910000   -0.0000000000
C       -0.2687310000    1.0218890000    0.0000000000
H        0.1467450000   -0.0307740000    0.0000000000
13   
Frame  26 IRC: Energy =  -286.8697530000 ; +4.2551 kcal/mol
C       -0.2377610000   -0.0381370000   -0.0000000000
C        0.1739640000    0.0411580000   -0.0000000000
C       -0.2271180000   -0.0368840000    0.0000000000
C        0.0243250000   -0.0297170000   -0.0000000000
C       -0.1257270000   -0.0198680000   -0.0000000000
N       -0.1645970000    0.0321260000   -0.0000000000
H        0.1272480000    0.0016550000   -0.0000000000
H        0.1281270000    0.0022950000   -0.0000000000
H        0.1429760000    0.0311000000   -0.0000000000
H        0.1456410000    0.0191590000   -0.0000000000
H        0.1322900000    0.0061280000   -0.0000000000
C       -0.2663640000    1.0221240000    0.0000000000
H        0.1469960000   -0.0311390000    0.0000000000
13   
Frame  27 IRC: Energy =  -286.8685110000 ; +5.0345 kcal/mol
C       -0.2373350000   -0.0412080000   -0.0000000000
C        0.1781320000    0.0476710000   -0.0000000000
C       -0.2295920000   -0.0412250000    0.0000000000
C        0.0311950000   -0.0347710000   -0.0000000000
C       -0.1341040000   -0.0232990000   -0.0000000000
N       -0.1621850000    0.0404150000   -0.0000000000
H        0.1274940000    0.0020010000   -0.0000000000
H        0.1278400000    0.0017930000   -0.0000000000
H        0.1426390000    0.0325190000    0.0000000000
H        0.1454080000    0.0193840000   -0.0000000000
H        0.1329200000    0.0063030000   -0.0000000000
C       -0.2688690000    1.0229250000    0.0000000000
H        0.1464580000   -0.0325090000    0.0000000000
13   
Frame  28 IRC: Energy =  -286.8682050000 ; +5.2265 kcal/mol
C       -0.2373790000   -0.0424920000   -0.0000000000
C        0.1795340000    0.0497290000   -0.0000000000
C       -0.2336130000   -0.0413270000    0.0000000000
C        0.0334120000   -0.0347120000   -0.0000000000
C       -0.1391340000   -0.0252510000   -0.0000000000
N       -0.1602080000    0.0428040000   -0.0000000000
H        0.1274580000    0.0020920000   -0.0000000000
H        0.1278830000    0.0016660000   -0.0000000000
H        0.1427900000    0.0322970000    0.0000000000
H        0.1455980000    0.0190480000   -0.0000000000
H        0.1329310000    0.0064510000   -0.0000000000
C       -0.2660990000    1.0224720000    0.0000000000
H        0.1468260000   -0.0327760000    0.0000000000
13   
Frame  29 IRC: Energy =  -286.8669380000 ; +6.0216 kcal/mol
C       -0.2376650000   -0.0459190000   -0.0000000000
C        0.1836750000    0.0569810000   -0.0000000000
C       -0.2355230000   -0.0450930000    0.0000000000
C        0.0405980000   -0.0388720000   -0.0000000000
C       -0.1467700000   -0.0295950000   -0.0000000000
N       -0.1580810000    0.0524040000   -0.0000000000
H        0.1277050000    0.0024760000   -0.0000000000
H        0.1276410000    0.0011020000   -0.0000000000
H        0.1424420000    0.0334780000    0.0000000000
H        0.1452270000    0.0191530000   -0.0000000000
H        0.1337100000    0.0066100000   -0.0000000000
C       -0.2690950000    1.0211150000    0.0000000000
H        0.1461350000   -0.0338400000    0.0000000000
13   
Frame  30 IRC: Energy =  -286.8665940000 ; +6.2374 kcal/mol
C       -0.2378400000   -0.0475910000   -0.0000000000
C        0.1853930000    0.0597070000   -0.0000000000
C       -0.2404300000   -0.0450060000    0.0000000000
C        0.0434150000   -0.0383980000   -0.0000000000
C       -0.1526440000   -0.0322790000   -0.0000000000
N       -0.1559320000    0.0555620000   -0.0000000000
H        0.1276650000    0.0025970000   -0.0000000000
H        0.1277140000    0.0009310000   -0.0000000000
H        0.1426280000    0.0331490000    0.0000000000
H        0.1454170000    0.0187360000   -0.0000000000
H        0.1337710000    0.0067800000   -0.0000000000
C       -0.2657880000    1.0199100000    0.0000000000
H        0.1466310000   -0.0340970000    0.0000000000
13   
Frame  31 IRC: Energy =  -286.8652810000 ; +7.0614 kcal/mol
C       -0.2389930000   -0.0516130000   -0.0000000000
C        0.1896520000    0.0679880000   -0.0000000000
C       -0.2427200000   -0.0478750000    0.0000000000
C        0.0513490000   -0.0413560000   -0.0000000000
C       -0.1602940000   -0.0379280000   -0.0000000000
N       -0.1535080000    0.0668610000   -0.0000000000
H        0.1278910000    0.0030150000   -0.0000000000
H        0.1275190000    0.0002900000   -0.0000000000
H        0.1422910000    0.0339330000    0.0000000000
H        0.1449570000    0.0185730000   -0.0000000000
H        0.1345740000    0.0069640000   -0.0000000000
C       -0.2685150000    1.0158950000    0.0000000000
H        0.1457960000   -0.0347460000    0.0000000000
13   
Frame  32 IRC: Energy =  -286.8648590000 ; +7.3262 kcal/mol
C       -0.2393410000   -0.0539380000   -0.0000000000
C        0.1917680000    0.0718820000   -0.0000000000
C       -0.2485800000   -0.0476610000    0.0000000000
C        0.0550430000   -0.0404050000   -0.0000000000
C       -0.1673250000   -0.0417480000   -0.0000000000
N       -0.1511170000    0.0713980000   -0.0000000000
H        0.1278600000    0.0031850000   -0.0000000000
H        0.1276180000    0.0000380000   -0.0000000000
H        0.1424980000    0.0335290000    0.0000000000
H        0.1451300000    0.0180170000   -0.0000000000
H        0.1347000000    0.0071640000   -0.0000000000
C       -0.2646610000    1.0135060000    0.0000000000
H        0.1464060000   -0.0349670000    0.0000000000
13   
Frame  33 IRC: Energy =  -286.8634600000 ; +8.2041 kcal/mol
C       -0.2416650000   -0.0590150000   -0.0000000000
C        0.1966410000    0.0820270000   -0.0000000000
C       -0.2523350000   -0.0495100000    0.0000000000
C        0.0644560000   -0.0418640000   -0.0000000000
C       -0.1757520000   -0.0494330000   -0.0000000000
N       -0.1482160000    0.0854130000   -0.0000000000
H        0.1280400000    0.0036540000   -0.0000000000
H        0.1274850000   -0.0007170000   -0.0000000000
H        0.1421930000    0.0337660000    0.0000000000
H        0.1445750000    0.0175210000   -0.0000000000
H        0.1356000000    0.0073930000   -0.0000000000
C       -0.2664420000    1.0058920000    0.0000000000
H        0.1454210000   -0.0351270000    0.0000000000
13   
Frame  34 IRC: Energy =  -286.8629530000 ; +8.5222 kcal/mol
C       -0.2421560000   -0.0622820000   -0.0000000000
C        0.1990330000    0.0876750000   -0.0000000000
C       -0.2591540000   -0.0491680000    0.0000000000
C        0.0692970000   -0.0400430000   -0.0000000000
C       -0.1843810000   -0.0548690000   -0.0000000000
N       -0.1456490000    0.0918300000   -0.0000000000
H        0.1280100000    0.0038890000   -0.0000000000
H        0.1276150000   -0.0010750000   -0.0000000000
H        0.1424210000    0.0333160000    0.0000000000
H        0.1447420000    0.0167670000   -0.0000000000
H        0.1358240000    0.0076280000   -0.0000000000
C       -0.2617720000    1.0015760000    0.0000000000
H        0.1461700000   -0.0352440000    0.0000000000
13   
Frame  35 IRC: Energy =  -286.8614900000 ; +9.4403 kcal/mol
C       -0.2464330000   -0.0686910000   -0.0000000000
C        0.2051730000    0.1004730000   -0.0000000000
C       -0.2651400000   -0.0500000000    0.0000000000
C        0.0813730000   -0.0399880000   -0.0000000000
C       -0.1938460000   -0.0651600000   -0.0000000000
N       -0.1422610000    0.1096870000   -0.0000000000
H        0.1281240000    0.0044050000   -0.0000000000
H        0.1275070000   -0.0019760000   -0.0000000000
H        0.1421080000    0.0328550000    0.0000000000
H        0.1440450000    0.0159610000   -0.0000000000
H        0.1368460000    0.0079030000   -0.0000000000
C       -0.2624340000    0.9893380000    0.0000000000
H        0.1449380000   -0.0348070000    0.0000000000
13   
Frame  36 IRC: Energy =  -286.8608030000 ; +9.8714 kcal/mol
C       -0.2477800000   -0.0739770000   -0.0000000000
C        0.2084020000    0.1101940000   -0.0000000000
C       -0.2740000000   -0.0495420000    0.0000000000
C        0.0894440000   -0.0367430000   -0.0000000000
C       -0.2057190000   -0.0738790000   -0.0000000000
N       -0.1390650000    0.1205160000   -0.0000000000
H        0.1280960000    0.0047670000   -0.0000000000
H        0.1276790000   -0.0025690000   -0.0000000000
H        0.1423150000    0.0322710000    0.0000000000
H        0.1441230000    0.0148790000   -0.0000000000
H        0.1372240000    0.0082270000   -0.0000000000
C       -0.2564540000    0.9805230000    0.0000000000
H        0.1457360000   -0.0346680000    0.0000000000
13   
Frame  37 IRC: Energy =  -286.8593130000 ; +10.8063 kcal/mol
C       -0.2540940000   -0.0818500000   -0.0000000000
C        0.2162110000    0.1264620000   -0.0000000000
C       -0.2830150000   -0.0494040000    0.0000000000
C        0.1047060000   -0.0349260000   -0.0000000000
C       -0.2171790000   -0.0870030000   -0.0000000000
N       -0.1352730000    0.1432070000   -0.0000000000
H        0.1281210000    0.0053090000   -0.0000000000
H        0.1275090000   -0.0036400000   -0.0000000000
H        0.1419690000    0.0310410000    0.0000000000
H        0.1433710000    0.0137760000   -0.0000000000
H        0.1383630000    0.0084820000   -0.0000000000
C       -0.2550160000    0.9621490000    0.0000000000
H        0.1443260000   -0.0336040000    0.0000000000
13   
Frame  38 IRC: Energy =  -286.8575060000 ; +11.9403 kcal/mol
C       -0.2658350000   -0.0999110000   -0.0000000000
C        0.2310040000    0.1643590000   -0.0000000000
C       -0.3089990000   -0.0480830000    0.0000000000
C        0.1377120000   -0.0239740000   -0.0000000000
C       -0.2514050000   -0.1162900000   -0.0000000000
N       -0.1266700000    0.1871640000   -0.0000000000
H        0.1278910000    0.0063390000   -0.0000000000
H        0.1275900000   -0.0058370000   -0.0000000000
H        0.1418010000    0.0282900000    0.0000000000
H        0.1426740000    0.0106860000   -0.0000000000
H        0.1398140000    0.0091820000   -0.0000000000
C       -0.2399120000    0.9194860000    0.0000000000
H        0.1443340000   -0.0314110000    0.0000000000
13   