
Running Job 1 of 1 irc_reactant.in
qchem irc_reactant.in_65789.0 ./irc_reactant.d/ 1
/home/leeping/opt/qchem/5.0.2-openmp/exe/qcprog.exe_s irc_reactant.in_65789.0 ./irc_reactant.d/
Check license passed

                  Welcome to Q-Chem
     A Quantum Leap Into The Future Of Chemistry


 Q-Chem 5.0, Q-Chem, Inc., Pleasanton, CA (2017)

 Yihan Shao,  Zhengting Gan,  E. Epifanovsky,  A. T. B. Gilbert,  M. Wormit,  
 J. Kussmann,  A. W. Lange,  A. Behn,  Jia Deng,  Xintian Feng,  D. Ghosh,  
 M. Goldey,  P. R. Horn,  L. D. Jacobson,  I. Kaliman,  T. Kus,  A. Landau,  
 Jie Liu,  E. I. Proynov,  R. M. Richard,  R. P. Steele,  E. J. Sundstrom,  
 H. L. Woodcock III,  P. M. Zimmerman,  D. Zuev,  B. Albrecht,  E. Alguire,  
 S. A. Baeppler,  D. Barton,  Z. Benda,  Y. A. Bernard,  E. J. Berquist,  
 K. B. Bravaya,  H. Burton,  D. Casanova,  Chun-Min Chang,  Yunqing Chen,  
 A. Chien,  K. D. Closser,  M. P. Coons,  S. Dasgupta,  A. L. Dempwolff,  
 M. Diedenhofen,  Hainam Do,  R. G. Edgar,  Po-Tung Fang,  S. Fatehi,  
 Qingguo Feng,  J. Fosso-Tande,  Qinghui Ge,  A. Ghysels,  G. Gidofalvi,  
 J. Gomes,  J. Gonthier,  A. Gunina,  M. W. D. Hanson-Heine,  
 P. H. P. Harbach,  A. W. Hauser,  J. E. Herr,  E. G. Hohenstein,  
 Z. C. Holden,  Kerwin Hui,  T.-C. Jagau,  Hyunjun Ji,  B. Kaduk,  
 K. Khistyaev,  Jaehoon Kim,  P. Klunzinger,  K. Koh,  D. Kosenkov,  
 L. Koulias,  T. Kowalczyk,  C. M. Krauter,  A. Kunitsa,  Ka Un Lao,  
 A. Laurent,  K. V. Lawler,  Joonho Lee,  D. Lefrancois,  S. Lehtola,  
 D. S. Levine,  Yi-Pei Li,  You-Sheng Lin,  Fenglai Liu,  E. Livshits,  
 A. Luenser,  P. Manohar,  E. Mansoor,  S. F. Manzer,  Shan-Ping Mao,  
 Yuezhi Mao,  N. Mardirossian,  A. V. Marenich,  T. Markovich,  
 L. A. Martinez-Martinez,  S. A. Maurer,  N. J. Mayhall,  S. C. McKenzie,  
 J.-M. Mewes,  A. F. Morrison,  J. W. Mullinax,  K. Nanda,  
 T. S. Nguyen-Beck,  R. Olivares-Amaya,  J. A. Parkhill,  T. M. Perrine,  
 F. Plasser,  S. Prager,  A. Prociuk,  E. Ramos,  D. R. Rehn,  F. Rob,  
 M. Schneider,  N. Sergueev,  S. M. Sharada,  S. Sharma,  D. W. Small,  
 T. Stauch,  T. Stein,  Yu-Chuan Su,  A. J. W. Thom,  A. Tkatchenko,  
 T. Tsuchimochi,  L. Vogt,  O. Vydrov,  M. A. Watson,  J. Wenzel,  
 M. de Wergifosse,  T. A. Wesolowski,  A. White,  J. Witte,  A. Yamada,  
 Jun Yang,  K. Yao,  S. Yeganeh,  S. R. Yost,  Zhi-Qiang You,  A. Zech,  
 Igor Ying Zhang,  Xing Zhang,  Yan Zhao,  Ying Zhu,  B. R. Brooks,  
 G. K. L. Chan,  C. J. Cramer,  M. S. Gordon,  W. J. Hehre,  A. Klamt,  
 M. W. Schmidt,  C. D. Sherrill,  D. G. Truhlar,  A. Aspuru-Guzik,  R. Baer,  
 A. T. Bell,  N. A. Besley,  Jeng-Da Chai,  R. A. DiStasio Jr.,  A. Dreuw,  
 B. D. Dunietz,  T. R. Furlani,  Chao-Ping Hsu,  Yousung Jung,  Jing Kong,  
 D. S. Lambrecht,  WanZhen Liang,  C. Ochsenfeld,  V. A. Rassolov,  
 L. V. Slipchenko,  J. E. Subotnik,  T. Van Voorhis,  J. M. Herbert,  
 A. I. Krylov,  P. M. W. Gill,  M. Head-Gordon

 Contributors to earlier versions of Q-Chem not listed above: 
 R. D. Adamson,  B. Austin,  J. Baker,  G. J. O. Beran,  K. Brandhorst,  
 S. T. Brown,  E. F. C. Byrd,  A. K. Chakraborty,  C.-L. Cheng,  
 Siu Hung Chien,  D. M. Chipman,  D. L. Crittenden,  H. Dachsel,  
 R. J. Doerksen,  A. D. Dutoi,  L. Fusti-Molnar,  W. A. Goddard III,  
 A. Golubeva-Zadorozhnaya,  S. R. Gwaltney,  G. Hawkins,  A. Heyden,  
 S. Hirata,  G. Kedziora,  F. J. Keil,  C. Kelley,  Jihan Kim,  R. A. King,  
 R. Z. Khaliullin,  P. P. Korambath,  W. Kurlancheek,  A. M. Lee,  M. S. Lee,  
 S. V. Levchenko,  Ching Yeh Lin,  D. Liotard,  R. C. Lochan,  I. Lotan,  
 P. E. Maslen,  N. Nair,  D. P. O'Neill,  D. Neuhauser,  E. Neuscamman,  
 C. M. Oana,  R. Olson,  B. Peters,  R. Peverati,  P. A. Pieniazek,  
 Y. M. Rhee,  J. Ritchie,  M. A. Rohrdanz,  E. Rosta,  N. J. Russ,  
 H. F. Schaefer III,  N. E. Schultz,  N. Shenvi,  A. C. Simmonett,  A. Sodt,  
 D. Stuck,  K. S. Thanthiriwatte,  V. Vanovschi,  Tao Wang,  A. Warshel,  
 C. F. Williams,  Q. Wu,  X. Xu,  W. Zhang

 Please cite Q-Chem as follows:
 Y. Shao et al., Mol. Phys. 113, 184-215 (2015)
 DOI: 10.1080/00268976.2014.952696

 Q-Chem 5.0.2 for Intel X86 EM64T Linux

 Parts of Q-Chem use Armadillo 5.200.1 (Boston Tea Smuggler).
 http://arma.sourceforge.net/

 Q-Chem begins on Tue Mar  1 22:02:46 2022  

Host: 
0

     Scratch files written to ./irc_reactant.d//
 Dec517 15110_ 26548  26544 5633   
Processing $rem in /home/leeping/opt/qchem/5.0.2-openmp/config/preferences.
 MEM_STATIC 2000
 MEM_TOTAL  8000
 SYMMETRY   OFF
 SYM_IGNORE TRUE 

Checking the input file for inconsistencies... 	...done.

--------------------------------------------------------------
User input:
--------------------------------------------------------------
$molecule
0 2
C        1.6961896235    0.2910913340   -0.2562475246
C        1.1024641072   -0.9098530444   -0.0665970477
C       -0.3442786271   -1.0466614350    0.1650798587
C       -1.1478606630    0.3635609358   -0.0445855575
C       -0.2777981747    1.4737833930   -0.4744290197
N        1.0120695657    1.4853007544   -0.4907189456
H        2.7734389752    0.3636894575   -0.3710690082
H        1.6945118694   -1.8202707958   -0.1091027647
H       -0.8080220960   -1.9768711107   -0.1663343901
H       -2.1439049122    0.3612968415   -0.4906871160
H       -0.7856330212    2.3606255466   -0.8586635118
C       -0.9928474394   -0.3100877597    1.2462344857
H       -1.7783292075   -0.6356041174    1.9171205411
$end

$rem
method                b3lyp
basis                 6-31+g(d,p)
unrestricted          true
symmetry              off
sym_ignore            true
incdft                false
incfock               0
scf_convergence       8
thresh                14
jobtype               sp
scf_guess             read
scf_algorithm         diis
max_scf_cycles        100
scf_final_print       1
$end

--------------------------------------------------------------
 ----------------------------------------------------------------
             Standard Nuclear Orientation (Angstroms)
    I     Atom           X                Y                Z
 ----------------------------------------------------------------
    1      C       1.6961896235     0.2910913340    -0.2562475246
    2      C       1.1024641072    -0.9098530444    -0.0665970477
    3      C      -0.3442786271    -1.0466614350     0.1650798587
    4      C      -1.1478606630     0.3635609358    -0.0445855575
    5      C      -0.2777981747     1.4737833930    -0.4744290197
    6      N       1.0120695657     1.4853007544    -0.4907189456
    7      H       2.7734389752     0.3636894575    -0.3710690082
    8      H       1.6945118694    -1.8202707958    -0.1091027647
    9      H      -0.8080220960    -1.9768711107    -0.1663343901
   10      H      -2.1439049122     0.3612968415    -0.4906871160
   11      H      -0.7856330212     2.3606255466    -0.8586635118
   12      C      -0.9928474394    -0.3100877597     1.2462344857
   13      H      -1.7783292075    -0.6356041174     1.9171205411
 ----------------------------------------------------------------
 Nuclear Repulsion Energy =   268.8869632014 hartrees
 There are       25 alpha and       24 beta electrons
 Requested basis set is 6-31+G(d,p)
 There are 53 shells and 163 basis functions

 Total QAlloc Memory Limit   8000 MB
 Mega-Array Size      1956 MB
 MEM_STATIC part      2000 MB

                       Distance Matrix (Angstroms)
             C (  1)   C (  2)   C (  3)   C (  4)   C (  5)   N (  6)
   C (  2)  1.353050
   C (  3)  2.476007  1.471549
   C (  4)  2.852836  2.585736  1.636591
   C (  5)  2.311491  2.784452  2.601160  1.474574
   N (  6)  1.396114  2.434094  2.946283  2.474396  1.290022
   H (  7)  1.085781  2.122916  3.463626  3.934868  3.248544  2.091590
   H (  8)  2.116484  1.086825  2.197798  3.585020  3.856717  3.396787
   H (  9)  3.379765  2.190532  1.090955  2.368108  3.504722  3.924869
   H ( 10)  3.847885  3.512063  2.377190  1.091383  2.172612  3.350158
   H ( 11)  3.287145  3.858537  3.585031  2.186824  1.091797  2.033055
   C ( 12)  3.138437  2.544322  1.460164  1.464257  2.579569  3.203142
   H ( 13)  4.201735  3.508464  2.301112  2.290003  3.524290  4.252323
             H (  7)   H (  8)   H (  9)   H ( 10)   H ( 11)   C ( 12)
   H (  8)  2.449978
   H (  9)  4.283340  2.508082
   H ( 10)  4.918799  4.431511  2.712345
   H ( 11)  4.110048  4.918623  4.392459  2.444918
   C ( 12)  4.153861  3.367416  2.192642  2.189198  3.406794
   H ( 13)  5.191627  4.191616  2.661067  2.631538  4.203310  1.083065

 
 A cutoff of  1.0D-14 yielded   1381 shell pairs
 There are     13449 function pairs
 
 -------------------------------------------------------
 OpenMP Integral Computing Module                       
 Release: version 1.0, May 2013, Q-Chem Inc. Pittsburgh 
 -------------------------------------------------------
 Integral Job Info:
 Integral job number is                      11
 Integral operator is                         1
 short-range coefficients                     0
 long-range coefficients              100000000
 Omega coefficients                           0
 if combine SR and LR in K                    0
 Integral screening is                        0
 Integral computing path is                   2
 max size of driver memory is            800000
 size of driver memory is                593474
 size of scratch memory is              2361544
 max col of scratch BK array               1296
 max len of scratch array in speh3          155
 max len of scratch index in speh4           18
 max int batch size is                      520
 min int batch size is                       52
 fixed nKL is                                52
 max L of basis functions is                  2
 order of int derivative is                   0
 number of shells is                         53
 number of basis is                         163
 number of cartesian basis is               163
 number of contracted shell pairs          1381
 number of primitive shell pairs           4679
 maxK2 (contraction) of shell pair           36
 max number of K2 of shell pair               1
 max number of CS2 of shell pair            128
 max number of PS2 of shell pair            684
 mem total for path MDJ                  535308
 -------------------------------------------------------
 Smallest overlap matrix eigenvalue = 2.85E-05

 Scale SEOQF with 1.000000e-01/1.000000e-01/1.000000e-01

 Standard Electronic Orientation quadrupole field applied
 Nucleus-field energy     =     0.0000000044 hartrees
 Guess MOs from SCF MO coefficient file
 Reading MOs from coefficient file
 Reading MOs from coefficient file
 An unrestricted hybrid HF-DFT SCF calculation will be
 performed using Pulay DIIS extrapolation
 Exchange:     0.2000 Hartree-Fock + 0.0800 Slater + 0.7200 B88
 Correlation:  0.1900 VWN1RPA + 0.8100 LYP
 Using SG-1 standard quadrature grid
 SCF converges when DIIS error is below 1.0E-08
Using Q-Chem read-in guess as SCF_GUESS READ specified.

 using 4 threads for integral computing
 -------------------------------------------------------
 OpenMP Integral computing Module                
 Release: version 1.0, May 2013, Q-Chem Inc. Pittsburgh 
 -------------------------------------------------------
 -------------------------------------------------------
 OpenMP BLAS3 based DFT computing Module                
 Release: version 1.0, May 2013, Q-Chem Inc. Pittsburgh 
 -------------------------------------------------------
 ---------------------------------------
  Cycle       Energy         DIIS Error
 ---------------------------------------
    1    -286.8765339763      8.98E-10
    2    -286.8765339763      1.50E-09 Convergence criterion met
 ---------------------------------------
 One-Electron    Energy =  -918.0203006665
 Total Coulomb   Energy =   403.8702734682
 Alpha Exchange  Energy =    -4.0191445638
 Beta  Exchange  Energy =    -3.9268553682
 DFT   Exchange  Energy =   -31.5640596160
 DFT Correlation Energy =    -2.1034104359
 Nuclear Repu.   Energy =   268.8869632058
 Nuclear Attr.   Energy = -1202.1071856852
 Kinetic         Energy =   284.0868850187
 <S^2> = 0.7534
 SCF time:  CPU 10.51 s  wall 6.40 s
 Final Alpha MO Eigenvalues
            1           2           3           4           5           6
    1 -14.3366749 -10.2406011 -10.2348569 -10.2316189 -10.2302542 -10.2171059
            7           8           9          10          11          12
    1 -10.2059449  -0.9456717  -0.8784921  -0.7761149  -0.6772951  -0.6511408
           13          14          15          16          17          18
    1  -0.5791506  -0.5401006  -0.4999999  -0.4920724  -0.4602139  -0.4342880
           19          20          21          22          23          24
    1  -0.3857775  -0.3832353  -0.3699298  -0.3100962  -0.2667436  -0.2398051
           25          26          27          28          29          30
    1  -0.2297749  -0.0485153  -0.0014465   0.0150580   0.0229564   0.0258534
 Final Beta MO Eigenvalues
            1           2           3           4           5           6
    1 -14.3366858 -10.2398616 -10.2349447 -10.2316358 -10.2172881 -10.2163238
            7           8           9          10          11          12
    1 -10.2049635  -0.9438513  -0.8687325  -0.7740687  -0.6695823  -0.6489655
           13          14          15          16          17          18
    1  -0.5649113  -0.5350807  -0.4970419  -0.4825617  -0.4561032  -0.4312724
           19          20          21          22          23          24
    1  -0.3845939  -0.3804912  -0.3622264  -0.3007027  -0.2614465  -0.2366896
           25          26          27          28          29
    1  -0.0907295  -0.0460754   0.0008021   0.0150053   0.0243120
 SCF   energy in the final basis set = -286.87653398
 Total energy in the final basis set = -286.87653398
 
 --------------------------------------------------------------
 
                    Orbital Energies (a.u.)
 --------------------------------------------------------------
 
 Alpha MOs
 -- Occupied --
-14.337 -10.241 -10.235 -10.232 -10.230 -10.217 -10.206  -0.946
 -0.878  -0.776  -0.677  -0.651  -0.579  -0.540  -0.500  -0.492
 -0.460  -0.434  -0.386  -0.383  -0.370  -0.310  -0.267  -0.240
 -0.230
 -- Virtual --
 -0.049  -0.001   0.015   0.023   0.026   0.032   0.047   0.050
  0.068   0.073   0.075   0.092   0.099   0.112   0.116   0.121
  0.124   0.130   0.138   0.147   0.168   0.176   0.180   0.184
  0.192   0.197   0.202   0.212   0.226   0.233   0.252   0.260
  0.269   0.283   0.288   0.302   0.310   0.321   0.329   0.336
  0.352   0.384   0.463   0.507   0.591   0.629   0.649   0.665
  0.681   0.707   0.713   0.724   0.737   0.750   0.770   0.777
  0.826   0.835   0.883   0.895   0.928   0.934   0.949   0.988
  0.993   1.016   1.060   1.087   1.098   1.107   1.136   1.151
  1.182   1.204   1.240   1.311   1.349   1.369   1.445   1.477
  1.502   1.525   1.554   1.644   1.687   1.756   1.798   1.808
  1.865   1.881   1.904   1.959   1.985   2.005   2.082   2.091
  2.125   2.148   2.190   2.229   2.270   2.289   2.369   2.390
  2.405   2.417   2.435   2.453   2.476   2.504   2.521   2.529
  2.559   2.596   2.626   2.667   2.702   2.715   2.740   2.811
  2.867   2.937   3.010   3.181   3.217   3.279   3.293   3.372
  3.438   3.559   3.710   4.197   4.298   4.341   4.477   4.500
  4.576   4.735
 
 Beta MOs
 -- Occupied --
-14.337 -10.240 -10.235 -10.232 -10.217 -10.216 -10.205  -0.944
 -0.869  -0.774  -0.670  -0.649  -0.565  -0.535  -0.497  -0.483
 -0.456  -0.431  -0.385  -0.380  -0.362  -0.301  -0.261  -0.237
 -- Virtual --
 -0.091  -0.046   0.001   0.015   0.024   0.027   0.033   0.048
  0.050   0.072   0.074   0.077   0.094   0.099   0.113   0.116
  0.122   0.125   0.131   0.138   0.149   0.168   0.177   0.183
  0.187   0.192   0.201   0.206   0.213   0.229   0.235   0.256
  0.261   0.270   0.285   0.292   0.303   0.312   0.325   0.336
  0.342   0.360   0.391   0.464   0.508   0.597   0.633   0.663
  0.675   0.693   0.708   0.715   0.727   0.743   0.751   0.780
  0.790   0.831   0.841   0.885   0.897   0.930   0.937   0.951
  0.992   0.997   1.016   1.069   1.089   1.099   1.112   1.142
  1.153   1.186   1.208   1.244   1.315   1.351   1.372   1.453
  1.480   1.505   1.528   1.561   1.650   1.693   1.773   1.802
  1.818   1.882   1.889   1.909   1.967   1.989   2.010   2.091
  2.099   2.126   2.166   2.195   2.233   2.273   2.295   2.371
  2.394   2.406   2.421   2.438   2.456   2.480   2.506   2.524
  2.534   2.563   2.610   2.628   2.670   2.710   2.722   2.746
  2.818   2.874   2.941   3.014   3.182   3.218   3.284   3.294
  3.375   3.441   3.568   3.711   4.197   4.303   4.342   4.499
  4.509   4.578   4.736
 --------------------------------------------------------------
 
          Ground-State Mulliken Net Atomic Charges

     Atom                 Charge (a.u.)    Spin (a.u.)
  --------------------------------------------------------
      1 C                    -0.253332      -0.033072
      2 C                     0.098720       0.039780
      3 C                    -0.160096      -0.022285
      4 C                    -0.013695       0.026275
      5 C                    -0.057481      -0.042628
      6 N                    -0.181679       0.014142
      7 H                     0.125145       0.000772
      8 H                     0.132247       0.003309
      9 H                     0.144383       0.017828
     10 H                     0.144360       0.021469
     11 H                     0.128573       0.005071
     12 C                    -0.255884       0.991103
     13 H                     0.148738      -0.021764
  --------------------------------------------------------
  Sum of atomic charges =    -0.000000
  Sum of spin   charges =     1.000000

 -----------------------------------------------------------------
                    Cartesian Multipole Moments
 -----------------------------------------------------------------
    Charge (ESU x 10^10)
                -0.0000
    Dipole Moment (Debye)
         X      -2.2385      Y      -2.1829      Z       0.1155
       Tot       3.1288
    Quadrupole Moments (Debye-Ang)
        XX     -38.2013     XY      -3.4651     YY     -42.6762
        XZ       0.1724     YZ       0.0349     ZZ     -44.0303
    Octopole Moments (Debye-Ang^2)
       XXX     -15.5364    XXY     -11.9596    XYY     -13.9824
       YYY     -30.6770    XXZ       0.8687    XYZ       4.5148
       YYZ      -0.1364    XZZ     -10.9514    YZZ      -7.8693
       ZZZ       0.8768
    Hexadecapole Moments (Debye-Ang^3)
      XXXX    -342.9091   XXXY     -13.7522   XXYY    -120.6180
      XYYY     -34.4825   YYYY    -322.8854   XXXZ      35.0653
      XXYZ      12.1385   XYYZ      20.5669   YYYZ      41.9651
      XXZZ     -85.1092   XYZZ      -2.8138   YYZZ     -80.7523
      XZZZ      36.3333   YZZZ      37.7458   ZZZZ    -144.6459
 -----------------------------------------------------------------
 Mayer SCF Bond Order, atomic valence on the diagonal:

            1           2           3           4           5           6
    1   4.0359559   1.7185634   0.1098155  -0.0149798   0.0749357   1.1333911
    2   1.7185634   3.7212871   1.0694669   0.0032172   0.0367163  -0.1205991
    3   0.1098155   1.0694669   4.0248375   0.7210122   0.1154523   0.0622804
    4  -0.0149798   0.0032172   0.7210122   3.6291126   0.9803567  -0.0571429
    5   0.0749357   0.0367163   0.1154523   0.9803567   3.8290023   1.6488487
    6   1.1333911  -0.1205991   0.0622804  -0.0571429   1.6488487   2.6817577
    7   0.9745091  -0.0269684   0.0297922  -0.0039996   0.0091436  -0.0390636
    8   0.0436400   0.8643218   0.0104864   0.0108737   0.0011307   0.0117043
    9  -0.0033305   0.0404023   0.7903974   0.0729399  -0.0157000   0.0029585
   10  -0.0007675  -0.0008583   0.0483250   0.8164018   0.0172463   0.0120185
   11   0.0122914  -0.0021104   0.0186868  -0.0495103   0.9858363  -0.0340868
   12  -0.0161634   0.1340283   1.0206273   1.1275161  -0.0366654   0.0578776
   13   0.0040508   0.0051073   0.0284952   0.0224278   0.0117010   0.0035710
            7           8           9          10          11          12
    1   0.9745091   0.0436400  -0.0033305  -0.0007675   0.0122914  -0.0161634
    2  -0.0269684   0.8643218   0.0404023  -0.0008583  -0.0021104   0.1340283
    3   0.0297922   0.0104864   0.7903974   0.0483250   0.0186868   1.0206273
    4  -0.0039996   0.0108737   0.0729399   0.8164018  -0.0495103   1.1275161
    5   0.0091436   0.0011307  -0.0157000   0.0172463   0.9858363  -0.0366654
    6  -0.0390636   0.0117043   0.0029585   0.0120185  -0.0340868   0.0578776
    7   0.9467022   0.0007123   0.0016109   0.0000535   0.0013707  -0.0005530
    8   0.0007123   0.9542794   0.0004703   0.0009814   0.0001621   0.0095960
    9   0.0016109   0.0004703   0.9466913   0.0010889   0.0009770   0.0541785
   10   0.0000535   0.0009814   0.0010889   0.9490900   0.0000787   0.0536752
   11   0.0013707   0.0001621   0.0009770   0.0000787   0.9421841   0.0083018
   12  -0.0005530   0.0095960   0.0541785   0.0536752   0.0083018   3.2898684
   13   0.0000946   0.0002004   0.0006981   0.0008465   0.0001868   0.8774496
           13
    1   0.0040508
    2   0.0051073
    3   0.0284952
    4   0.0224278
    5   0.0117010
    6   0.0035710
    7   0.0000946
    8   0.0002004
    9   0.0006981
   10   0.0008465
   11   0.0001868
   12   0.8774496
   13   0.9548293


Archival summary:
1\1\c8-89\SP\ProcedureUnspecified\6-31+G**\166(2)\hpark21\TueMar122:02:592022TueMar122:02:592022\0\\#,ProcedureUnspecified,6-31+G**,\\0,2\N\C,1,1.29002\H,2,1.0918,1,116.961\C,1,1.39611,2,118.699,3,-167.784,0\H,4,1.08578,1,114.281,2,174.975,0\C,4,1.35305,1,124.593,2,3.02682,0\H,6,1.08682,4,119.934,1,166.474,0\C,6,1.47155,4,122.411,1,-11.8751,0\H,8,1.09096,6,116.703,4,151.042,0\C,8,1.46016,6,120.422,4,-54.7212,0\H,10,1.08307,8,128.989,6,-140.865,0\C,10,1.46426,8,68.0602,6,98.0284,0\H,12,1.09138,10,117.129,8,109.241,0\\\@

 Total job time:  12.70s(wall), 12.49s(cpu) 
 Tue Mar  1 22:02:59 2022

        *************************************************************
        *                                                           *
        *  Thank you very much for using Q-Chem.  Have a nice day.  *
        *                                                           *
        *************************************************************


