
Running Job 1 of 1 irc_product.in
qchem irc_product.in_66150.0 ./irc_product.d/ 1
/home/leeping/opt/qchem/5.0.2-openmp/exe/qcprog.exe_s irc_product.in_66150.0 ./irc_product.d/
Check license passed

                  Welcome to Q-Chem
     A Quantum Leap Into The Future Of Chemistry


 Q-Chem 5.0, Q-Chem, Inc., Pleasanton, CA (2017)

 Yihan Shao,  Zhengting Gan,  E. Epifanovsky,  A. T. B. Gilbert,  M. Wormit,  
 J. Kussmann,  A. W. Lange,  A. Behn,  Jia Deng,  Xintian Feng,  D. Ghosh,  
 M. Goldey,  P. R. Horn,  L. D. Jacobson,  I. Kaliman,  T. Kus,  A. Landau,  
 Jie Liu,  E. I. Proynov,  R. M. Richard,  R. P. Steele,  E. J. Sundstrom,  
 H. L. Woodcock III,  P. M. Zimmerman,  D. Zuev,  B. Albrecht,  E. Alguire,  
 S. A. Baeppler,  D. Barton,  Z. Benda,  Y. A. Bernard,  E. J. Berquist,  
 K. B. Bravaya,  H. Burton,  D. Casanova,  Chun-Min Chang,  Yunqing Chen,  
 A. Chien,  K. D. Closser,  M. P. Coons,  S. Dasgupta,  A. L. Dempwolff,  
 M. Diedenhofen,  Hainam Do,  R. G. Edgar,  Po-Tung Fang,  S. Fatehi,  
 Qingguo Feng,  J. Fosso-Tande,  Qinghui Ge,  A. Ghysels,  G. Gidofalvi,  
 J. Gomes,  J. Gonthier,  A. Gunina,  M. W. D. Hanson-Heine,  
 P. H. P. Harbach,  A. W. Hauser,  J. E. Herr,  E. G. Hohenstein,  
 Z. C. Holden,  Kerwin Hui,  T.-C. Jagau,  Hyunjun Ji,  B. Kaduk,  
 K. Khistyaev,  Jaehoon Kim,  P. Klunzinger,  K. Koh,  D. Kosenkov,  
 L. Koulias,  T. Kowalczyk,  C. M. Krauter,  A. Kunitsa,  Ka Un Lao,  
 A. Laurent,  K. V. Lawler,  Joonho Lee,  D. Lefrancois,  S. Lehtola,  
 D. S. Levine,  Yi-Pei Li,  You-Sheng Lin,  Fenglai Liu,  E. Livshits,  
 A. Luenser,  P. Manohar,  E. Mansoor,  S. F. Manzer,  Shan-Ping Mao,  
 Yuezhi Mao,  N. Mardirossian,  A. V. Marenich,  T. Markovich,  
 L. A. Martinez-Martinez,  S. A. Maurer,  N. J. Mayhall,  S. C. McKenzie,  
 J.-M. Mewes,  A. F. Morrison,  J. W. Mullinax,  K. Nanda,  
 T. S. Nguyen-Beck,  R. Olivares-Amaya,  J. A. Parkhill,  T. M. Perrine,  
 F. Plasser,  S. Prager,  A. Prociuk,  E. Ramos,  D. R. Rehn,  F. Rob,  
 M. Schneider,  N. Sergueev,  S. M. Sharada,  S. Sharma,  D. W. Small,  
 T. Stauch,  T. Stein,  Yu-Chuan Su,  A. J. W. Thom,  A. Tkatchenko,  
 T. Tsuchimochi,  L. Vogt,  O. Vydrov,  M. A. Watson,  J. Wenzel,  
 M. de Wergifosse,  T. A. Wesolowski,  A. White,  J. Witte,  A. Yamada,  
 Jun Yang,  K. Yao,  S. Yeganeh,  S. R. Yost,  Zhi-Qiang You,  A. Zech,  
 Igor Ying Zhang,  Xing Zhang,  Yan Zhao,  Ying Zhu,  B. R. Brooks,  
 G. K. L. Chan,  C. J. Cramer,  M. S. Gordon,  W. J. Hehre,  A. Klamt,  
 M. W. Schmidt,  C. D. Sherrill,  D. G. Truhlar,  A. Aspuru-Guzik,  R. Baer,  
 A. T. Bell,  N. A. Besley,  Jeng-Da Chai,  R. A. DiStasio Jr.,  A. Dreuw,  
 B. D. Dunietz,  T. R. Furlani,  Chao-Ping Hsu,  Yousung Jung,  Jing Kong,  
 D. S. Lambrecht,  WanZhen Liang,  C. Ochsenfeld,  V. A. Rassolov,  
 L. V. Slipchenko,  J. E. Subotnik,  T. Van Voorhis,  J. M. Herbert,  
 A. I. Krylov,  P. M. W. Gill,  M. Head-Gordon

 Contributors to earlier versions of Q-Chem not listed above: 
 R. D. Adamson,  B. Austin,  J. Baker,  G. J. O. Beran,  K. Brandhorst,  
 S. T. Brown,  E. F. C. Byrd,  A. K. Chakraborty,  C.-L. Cheng,  
 Siu Hung Chien,  D. M. Chipman,  D. L. Crittenden,  H. Dachsel,  
 R. J. Doerksen,  A. D. Dutoi,  L. Fusti-Molnar,  W. A. Goddard III,  
 A. Golubeva-Zadorozhnaya,  S. R. Gwaltney,  G. Hawkins,  A. Heyden,  
 S. Hirata,  G. Kedziora,  F. J. Keil,  C. Kelley,  Jihan Kim,  R. A. King,  
 R. Z. Khaliullin,  P. P. Korambath,  W. Kurlancheek,  A. M. Lee,  M. S. Lee,  
 S. V. Levchenko,  Ching Yeh Lin,  D. Liotard,  R. C. Lochan,  I. Lotan,  
 P. E. Maslen,  N. Nair,  D. P. O'Neill,  D. Neuhauser,  E. Neuscamman,  
 C. M. Oana,  R. Olson,  B. Peters,  R. Peverati,  P. A. Pieniazek,  
 Y. M. Rhee,  J. Ritchie,  M. A. Rohrdanz,  E. Rosta,  N. J. Russ,  
 H. F. Schaefer III,  N. E. Schultz,  N. Shenvi,  A. C. Simmonett,  A. Sodt,  
 D. Stuck,  K. S. Thanthiriwatte,  V. Vanovschi,  Tao Wang,  A. Warshel,  
 C. F. Williams,  Q. Wu,  X. Xu,  W. Zhang

 Please cite Q-Chem as follows:
 Y. Shao et al., Mol. Phys. 113, 184-215 (2015)
 DOI: 10.1080/00268976.2014.952696

 Q-Chem 5.0.2 for Intel X86 EM64T Linux

 Parts of Q-Chem use Armadillo 5.200.1 (Boston Tea Smuggler).
 http://arma.sourceforge.net/

 Q-Chem begins on Tue Mar  1 22:09:43 2022  

Host: 
0

     Scratch files written to ./irc_product.d//
 Dec517 15110_ 26548  26544 5633   
Processing $rem in /home/leeping/opt/qchem/5.0.2-openmp/config/preferences.
 MEM_STATIC 2000
 MEM_TOTAL  8000
 SYMMETRY   OFF
 SYM_IGNORE TRUE 

Checking the input file for inconsistencies... 	...done.

--------------------------------------------------------------
User input:
--------------------------------------------------------------
$molecule
0 2
C        1.6972968151    0.2857779795   -0.3293902075
C        1.1156163233   -0.9746863696   -0.1579400852
C       -0.3344249395   -1.0124754746    0.1093224141
C       -1.1935581559    0.0708540174   -0.5278534516
C       -0.4017701500    1.2410499860    0.0194188745
N        0.9971024879    1.4088652819   -0.2503268309
H        2.7616493263    0.3843098740   -0.5399281754
H        1.6985142330   -1.8883326426   -0.2169491222
H       -0.7991976302   -1.9874999512    0.2381869846
H       -2.1047485443    0.0151375592   -1.1073357752
H       -0.9309030126    2.1898026368    0.0673017701
C       -0.9292891026    0.1350830954    0.9143360449
H       -1.5762876505    0.1321140076    1.7811575598
$end

$rem
method                b3lyp
basis                 6-31+g(d,p)
unrestricted          true
symmetry              off
sym_ignore            true
incdft                false
incfock               0
scf_convergence       8
thresh                14
jobtype               sp
scf_guess             read
scf_algorithm         diis
max_scf_cycles        100
scf_final_print       1
$end

--------------------------------------------------------------
 ----------------------------------------------------------------
             Standard Nuclear Orientation (Angstroms)
    I     Atom           X                Y                Z
 ----------------------------------------------------------------
    1      C       1.6972968151     0.2857779795    -0.3293902075
    2      C       1.1156163233    -0.9746863696    -0.1579400852
    3      C      -0.3344249395    -1.0124754746     0.1093224141
    4      C      -1.1935581559     0.0708540174    -0.5278534516
    5      C      -0.4017701500     1.2410499860     0.0194188745
    6      N       0.9971024879     1.4088652819    -0.2503268309
    7      H       2.7616493263     0.3843098740    -0.5399281754
    8      H       1.6985142330    -1.8883326426    -0.2169491222
    9      H      -0.7991976302    -1.9874999512     0.2381869846
   10      H      -2.1047485443     0.0151375592    -1.1073357752
   11      H      -0.9309030126     2.1898026368     0.0673017701
   12      C      -0.9292891026     0.1350830954     0.9143360449
   13      H      -1.5762876505     0.1321140076     1.7811575598
 ----------------------------------------------------------------
 Nuclear Repulsion Energy =   277.2221242054 hartrees
 There are       25 alpha and       24 beta electrons
 Requested basis set is 6-31+G(d,p)
 There are 53 shells and 163 basis functions

 Total QAlloc Memory Limit   8000 MB
 Mega-Array Size      1956 MB
 MEM_STATIC part      2000 MB

                       Distance Matrix (Angstroms)
             C (  1)   C (  2)   C (  3)   C (  4)   C (  5)   N (  6)
   C (  2)  1.398756
   C (  3)  2.450678  1.474950
   C (  4)  2.905619  2.561694  1.522401
   C (  5)  2.332444  2.691358  2.256323  1.515188
   N (  6)  1.325839  2.388284  2.786612  2.581916  1.434493
   H (  7)  1.089441  2.168458  3.458065  3.967627  3.324770  2.060876
   H (  8)  2.177017  1.085358  2.237503  3.507015  3.776255  3.371143
   H (  9)  3.423802  2.202095  1.087792  2.231403  3.260267  3.873066
   H ( 10)  3.890243  3.500265  2.381237  1.081283  2.381716  3.506910
   H ( 11)  3.269573  3.775310  3.257628  2.216561  1.087385  2.104271
   C ( 12)  2.910072  2.561836  1.522761  1.467608  1.517338  2.586493
   H ( 13)  3.897997  3.497350  2.376413  2.341317  2.390179  3.518431
             H (  7)   H (  8)   H (  9)   H ( 10)   H ( 11)   C ( 12)
   H (  8)  2.529719
   H (  9)  4.348629  2.540777
   H ( 10)  4.913254  4.345204  2.743256
   H ( 11)  4.154934  4.860640  4.182870  2.736212
   C ( 12)  3.974925  3.504193  2.231470  2.341634  2.222463
   H ( 13)  4.926331  4.335777  2.734482  2.938766  2.754615  1.081663

 
 A cutoff of  1.0D-14 yielded   1390 shell pairs
 There are     13464 function pairs
 
 -------------------------------------------------------
 OpenMP Integral Computing Module                       
 Release: version 1.0, May 2013, Q-Chem Inc. Pittsburgh 
 -------------------------------------------------------
 Integral Job Info:
 Integral job number is                      11
 Integral operator is                         1
 short-range coefficients                     0
 long-range coefficients              100000000
 Omega coefficients                           0
 if combine SR and LR in K                    0
 Integral screening is                        0
 Integral computing path is                   2
 max size of driver memory is            800000
 size of driver memory is                593474
 size of scratch memory is              2361544
 max col of scratch BK array               1296
 max len of scratch array in speh3          155
 max len of scratch index in speh4           18
 max int batch size is                      520
 min int batch size is                       52
 fixed nKL is                                52
 max L of basis functions is                  2
 order of int derivative is                   0
 number of shells is                         53
 number of basis is                         163
 number of cartesian basis is               163
 number of contracted shell pairs          1390
 number of primitive shell pairs           4752
 maxK2 (contraction) of shell pair           36
 max number of K2 of shell pair               1
 max number of CS2 of shell pair            126
 max number of PS2 of shell pair            684
 mem total for path MDJ                  535308
 -------------------------------------------------------
 Smallest overlap matrix eigenvalue = 2.08E-05

 Scale SEOQF with 1.000000e-01/1.000000e-01/1.000000e-01

 Standard Electronic Orientation quadrupole field applied
 Nucleus-field energy     =     0.0000000044 hartrees
 Guess MOs from SCF MO coefficient file
 Reading MOs from coefficient file
 Reading MOs from coefficient file
 An unrestricted hybrid HF-DFT SCF calculation will be
 performed using Pulay DIIS extrapolation
 Exchange:     0.2000 Hartree-Fock + 0.0800 Slater + 0.7200 B88
 Correlation:  0.1900 VWN1RPA + 0.8100 LYP
 Using SG-1 standard quadrature grid
 SCF converges when DIIS error is below 1.0E-08
Using Q-Chem read-in guess as SCF_GUESS READ specified.

 using 4 threads for integral computing
 -------------------------------------------------------
 OpenMP Integral computing Module                
 Release: version 1.0, May 2013, Q-Chem Inc. Pittsburgh 
 -------------------------------------------------------
 -------------------------------------------------------
 OpenMP BLAS3 based DFT computing Module                
 Release: version 1.0, May 2013, Q-Chem Inc. Pittsburgh 
 -------------------------------------------------------
 ---------------------------------------
  Cycle       Energy         DIIS Error
 ---------------------------------------
    1    -286.8794406664      4.69E-10
    2    -286.8794406664      8.78E-10 Convergence criterion met
 ---------------------------------------
 One-Electron    Energy =  -934.7078044923
 Total Coulomb   Energy =   412.2595105666
 Alpha Exchange  Energy =    -4.0302516809
 Beta  Exchange  Energy =    -3.9231743417
 DFT   Exchange  Energy =   -31.5868853786
 DFT Correlation Energy =    -2.1129595494
 Nuclear Repu.   Energy =   277.2221242098
 Nuclear Attr.   Energy = -1218.8303169074
 Kinetic         Energy =   284.1225124151
 <S^2> = 0.7746
 SCF time:  CPU 10.21 s  wall 4.79 s
 Final Alpha MO Eigenvalues
            1           2           3           4           5           6
    1 -14.3355000 -10.2389643 -10.2300972 -10.2236083 -10.2231207 -10.2187621
            7           8           9          10          11          12
    1 -10.2137261  -0.9725051  -0.8876126  -0.7778116  -0.6562494  -0.6374306
           13          14          15          16          17          18
    1  -0.5967298  -0.5505513  -0.4989719  -0.4799153  -0.4650012  -0.4047557
           19          20          21          22          23          24
    1  -0.4007672  -0.3876299  -0.3561342  -0.3052185  -0.2957618  -0.2511148
           25          26          27          28          29          30
    1  -0.2053318  -0.0005232  -0.0002715   0.0162763   0.0235672   0.0247690
 Final Beta MO Eigenvalues
            1           2           3           4           5           6
    1 -14.3259934 -10.2395458 -10.2306032 -10.2218908 -10.2215304 -10.2214065
            7           8           9          10          11          12
    1 -10.2053251  -0.9660051  -0.8754227  -0.7646997  -0.6446918  -0.6359184
           13          14          15          16          17          18
    1  -0.5914330  -0.5485472  -0.4978375  -0.4736719  -0.4590642  -0.3990451
           19          20          21          22          23          24
    1  -0.3855600  -0.3848831  -0.3378651  -0.2987091  -0.2819280  -0.2423880
           25          26          27          28          29
    1  -0.1005688  -0.0000186   0.0077608   0.0166354   0.0237587
 SCF   energy in the final basis set = -286.87944067
 Total energy in the final basis set = -286.87944067
 
 --------------------------------------------------------------
 
                    Orbital Energies (a.u.)
 --------------------------------------------------------------
 
 Alpha MOs
 -- Occupied --
-14.336 -10.239 -10.230 -10.224 -10.223 -10.219 -10.214  -0.973
 -0.888  -0.778  -0.656  -0.637  -0.597  -0.551  -0.499  -0.480
 -0.465  -0.405  -0.401  -0.388  -0.356  -0.305  -0.296  -0.251
 -0.205
 -- Virtual --
 -0.001  -0.000   0.016   0.024   0.025   0.045   0.048   0.065
  0.074   0.081   0.083   0.093   0.098   0.111   0.118   0.119
  0.127   0.146   0.152   0.156   0.166   0.172   0.176   0.186
  0.186   0.199   0.206   0.222   0.222   0.240   0.254   0.257
  0.271   0.272   0.287   0.300   0.306   0.315   0.337   0.341
  0.359   0.370   0.449   0.473   0.631   0.638   0.659   0.668
  0.694   0.708   0.728   0.735   0.737   0.745   0.783   0.788
  0.813   0.820   0.854   0.900   0.929   0.937   0.958   0.985
  0.996   1.014   1.065   1.083   1.090   1.123   1.183   1.192
  1.209   1.214   1.298   1.328   1.352   1.397   1.421   1.552
  1.586   1.596   1.618   1.659   1.723   1.761   1.783   1.812
  1.853   1.901   1.951   2.003   2.022   2.031   2.099   2.100
  2.149   2.197   2.209   2.263   2.334   2.356   2.364   2.391
  2.407   2.425   2.446   2.479   2.496   2.514   2.554   2.568
  2.579   2.598   2.619   2.642   2.719   2.720   2.744   2.902
  2.922   2.932   2.965   3.097   3.189   3.276   3.286   3.441
  3.500   3.563   3.700   4.198   4.301   4.511   4.555   4.597
  4.674   4.749
 
 Beta MOs
 -- Occupied --
-14.326 -10.240 -10.231 -10.222 -10.222 -10.221 -10.205  -0.966
 -0.875  -0.765  -0.645  -0.636  -0.591  -0.549  -0.498  -0.474
 -0.459  -0.399  -0.386  -0.385  -0.338  -0.299  -0.282  -0.242
 -- Virtual --
 -0.101  -0.000   0.008   0.017   0.024   0.032   0.045   0.049
  0.065   0.075   0.081   0.090   0.094   0.098   0.113   0.119
  0.121   0.131   0.146   0.155   0.156   0.167   0.173   0.178
  0.187   0.192   0.199   0.208   0.223   0.230   0.243   0.258
  0.266   0.272   0.278   0.288   0.301   0.308   0.316   0.338
  0.343   0.363   0.373   0.455   0.478   0.634   0.644   0.668
  0.670   0.696   0.713   0.729   0.739   0.746   0.754   0.787
  0.791   0.819   0.822   0.857   0.903   0.929   0.938   0.959
  0.987   1.009   1.014   1.086   1.091   1.095   1.127   1.185
  1.195   1.212   1.215   1.304   1.341   1.357   1.405   1.430
  1.562   1.594   1.607   1.624   1.667   1.729   1.766   1.788
  1.815   1.861   1.906   1.959   2.015   2.024   2.033   2.111
  2.112   2.151   2.206   2.209   2.265   2.334   2.361   2.368
  2.395   2.410   2.430   2.449   2.479   2.502   2.522   2.556
  2.577   2.583   2.609   2.624   2.644   2.724   2.727   2.750
  2.904   2.925   2.936   2.970   3.102   3.191   3.278   3.287
  3.441   3.500   3.564   3.702   4.212   4.312   4.511   4.557
  4.601   4.682   4.751
 --------------------------------------------------------------
 
          Ground-State Mulliken Net Atomic Charges

     Atom                 Charge (a.u.)    Spin (a.u.)
  --------------------------------------------------------
      1 C                    -0.319749      -0.240949
      2 C                     0.266167       0.708582
      3 C                    -0.423909      -0.070454
      4 C                     0.183405       0.093638
      5 C                    -0.622921      -0.037838
      6 N                    -0.069786       0.484437
      7 H                     0.124856       0.007421
      8 H                     0.131400      -0.032355
      9 H                     0.132788       0.000192
     10 H                     0.139813      -0.003940
     11 H                     0.140239       0.000210
     12 C                     0.177894       0.095065
     13 H                     0.139802      -0.004008
  --------------------------------------------------------
  Sum of atomic charges =     0.000000
  Sum of spin   charges =     1.000000

 -----------------------------------------------------------------
                    Cartesian Multipole Moments
 -----------------------------------------------------------------
    Charge (ESU x 10^10)
                -0.0000
    Dipole Moment (Debye)
         X      -1.8506      Y      -2.3200      Z       0.4422
       Tot       3.0005
    Quadrupole Moments (Debye-Ang)
        XX     -37.9490     XY      -4.0657     YY     -43.0354
        XZ      -0.7145     YZ       0.7217     ZZ     -42.7161
    Octopole Moments (Debye-Ang^2)
       XXX     -12.5195    XXY     -10.0327    XYY     -13.0707
       YYY     -29.6062    XXZ      -1.1014    XYZ       0.9857
       YYZ       3.2500    XZZ      -9.7558    YZZ      -5.7768
       ZZZ       6.2677
    Hexadecapole Moments (Debye-Ang^3)
      XXXX    -344.6826   XXXY      -7.1834   XXYY    -113.2128
      XYYY     -25.7281   YYYY    -286.7646   XXXZ      22.3882
      XXYZ       2.6574   XYYZ       9.4076   YYYZ       8.5168
      XXZZ     -76.4610   XYZZ      -1.1045   YYZZ     -71.1880
      XZZZ      22.9682   YZZZ       5.5160   ZZZZ    -111.6071
 -----------------------------------------------------------------
 Mayer SCF Bond Order, atomic valence on the diagonal:

            1           2           3           4           5           6
    1   4.0717857   1.2965674   0.1428021  -0.0265852   0.1915571   1.4569891
    2   1.2965674   2.8968906   0.8697664   0.0553510  -0.2220597  -0.0230004
    3   0.1428021   0.8697664   4.4988676   1.1373550   0.2369526   0.0073829
    4  -0.0265852   0.0553510   1.1373550   3.4197077   0.8719110  -0.0532285
    5   0.1915571  -0.2220597   0.2369526   0.8719110   4.1317305   1.1113138
    6   1.4569891  -0.0230004   0.0073829  -0.0532285   1.1113138   2.3986906
    7   1.0014962  -0.0521179   0.0126329   0.0005306   0.0112610  -0.0348450
    8   0.0260215   0.8996290  -0.0061705   0.0109263  -0.0011011   0.0105619
    9  -0.0087100   0.0304483   0.8354356   0.0375510   0.0128661   0.0018185
   10   0.0038992  -0.0047489   0.0429947   0.8412905   0.0391665   0.0008523
   11   0.0083093  -0.0029494   0.0391910  -0.0235099   0.9645459  -0.0282387
   12  -0.0242224   0.0542895   1.1389256   0.5342828   0.8759870  -0.0517215
   13   0.0036612  -0.0042847   0.0415992   0.0338331   0.0393303   0.0008062
            7           8           9          10          11          12
    1   1.0014962   0.0260215  -0.0087100   0.0038992   0.0083093  -0.0242224
    2  -0.0521179   0.8996290   0.0304483  -0.0047489  -0.0029494   0.0542895
    3   0.0126329  -0.0061705   0.8354356   0.0429947   0.0391910   1.1389256
    4   0.0005306   0.0109263   0.0375510   0.8412905  -0.0235099   0.5342828
    5   0.0112610  -0.0011011   0.0128661   0.0391665   0.9645459   0.8759870
    6  -0.0348450   0.0105619   0.0018185   0.0008523  -0.0282387  -0.0517215
    7   0.9435424   0.0005097   0.0016724   0.0000767   0.0016886   0.0005575
    8   0.0005097   0.9522260   0.0005552   0.0001342   0.0000529   0.0109758
    9   0.0016724   0.0005552   0.9534207   0.0001012   0.0041810   0.0374106
   10   0.0000767   0.0001342   0.0001012   0.9585867   0.0000428   0.0333390
   11   0.0016886   0.0000529   0.0041810   0.0000428   0.9401369  -0.0232328
   12   0.0005575   0.0109758   0.0374106   0.0333390  -0.0232328   3.4285022
   13   0.0000796   0.0001311   0.0000907   0.0014384   0.0000562   0.8419111
           13
    1   0.0036612
    2  -0.0042847
    3   0.0415992
    4   0.0338331
    5   0.0393303
    6   0.0008062
    7   0.0000796
    8   0.0001311
    9   0.0000907
   10   0.0014384
   11   0.0000562
   12   0.8419111
   13   0.9586524


Archival summary:
1\1\c8-89\SP\ProcedureUnspecified\6-31+G**\166(2)\hpark21\TueMar122:09:522022TueMar122:09:522022\0\\#,ProcedureUnspecified,6-31+G**,\\0,2\N\C,1,1.32584\H,2,1.08944,1,116.799\C,2,1.39876,1,122.439,3,-179.81,0\H,4,1.08536,2,121.909,1,-179.522,0\C,1,1.43449,2,115.285,3,179.615,0\H,6,1.08738,1,112.379,2,-179.596,0\C,4,1.47495,2,117.009,1,0.446857,0\H,8,1.08779,4,117.676,2,179.622,0\C,6,1.51519,1,122.142,2,-35.0189,0\H,10,1.08128,6,132.356,1,-126.09,0\C,10,1.46761,6,61.1294,1,110.605,0\H,12,1.08166,10,132.818,6,123.38,0\\\@

 Total job time:  9.33s(wall), 12.17s(cpu) 
 Tue Mar  1 22:09:52 2022

        *************************************************************
        *                                                           *
        *  Thank you very much for using Q-Chem.  Have a nice day.  *
        *                                                           *
        *************************************************************


