
Running Job 1 of 1 qcts1.in
qchem qcts1.in_42840.0 ./qcts1.d/ 1
/home/leeping/opt/qchem/5.0.2-openmp/exe/qcprog.exe_s qcts1.in_42840.0 ./qcts1.d/
Check license passed

                  Welcome to Q-Chem
     A Quantum Leap Into The Future Of Chemistry


 Q-Chem 5.0, Q-Chem, Inc., Pleasanton, CA (2017)

 Yihan Shao,  Zhengting Gan,  E. Epifanovsky,  A. T. B. Gilbert,  M. Wormit,  
 J. Kussmann,  A. W. Lange,  A. Behn,  Jia Deng,  Xintian Feng,  D. Ghosh,  
 M. Goldey,  P. R. Horn,  L. D. Jacobson,  I. Kaliman,  T. Kus,  A. Landau,  
 Jie Liu,  E. I. Proynov,  R. M. Richard,  R. P. Steele,  E. J. Sundstrom,  
 H. L. Woodcock III,  P. M. Zimmerman,  D. Zuev,  B. Albrecht,  E. Alguire,  
 S. A. Baeppler,  D. Barton,  Z. Benda,  Y. A. Bernard,  E. J. Berquist,  
 K. B. Bravaya,  H. Burton,  D. Casanova,  Chun-Min Chang,  Yunqing Chen,  
 A. Chien,  K. D. Closser,  M. P. Coons,  S. Dasgupta,  A. L. Dempwolff,  
 M. Diedenhofen,  Hainam Do,  R. G. Edgar,  Po-Tung Fang,  S. Fatehi,  
 Qingguo Feng,  J. Fosso-Tande,  Qinghui Ge,  A. Ghysels,  G. Gidofalvi,  
 J. Gomes,  J. Gonthier,  A. Gunina,  M. W. D. Hanson-Heine,  
 P. H. P. Harbach,  A. W. Hauser,  J. E. Herr,  E. G. Hohenstein,  
 Z. C. Holden,  Kerwin Hui,  T.-C. Jagau,  Hyunjun Ji,  B. Kaduk,  
 K. Khistyaev,  Jaehoon Kim,  P. Klunzinger,  K. Koh,  D. Kosenkov,  
 L. Koulias,  T. Kowalczyk,  C. M. Krauter,  A. Kunitsa,  Ka Un Lao,  
 A. Laurent,  K. V. Lawler,  Joonho Lee,  D. Lefrancois,  S. Lehtola,  
 D. S. Levine,  Yi-Pei Li,  You-Sheng Lin,  Fenglai Liu,  E. Livshits,  
 A. Luenser,  P. Manohar,  E. Mansoor,  S. F. Manzer,  Shan-Ping Mao,  
 Yuezhi Mao,  N. Mardirossian,  A. V. Marenich,  T. Markovich,  
 L. A. Martinez-Martinez,  S. A. Maurer,  N. J. Mayhall,  S. C. McKenzie,  
 J.-M. Mewes,  A. F. Morrison,  J. W. Mullinax,  K. Nanda,  
 T. S. Nguyen-Beck,  R. Olivares-Amaya,  J. A. Parkhill,  T. M. Perrine,  
 F. Plasser,  S. Prager,  A. Prociuk,  E. Ramos,  D. R. Rehn,  F. Rob,  
 M. Schneider,  N. Sergueev,  S. M. Sharada,  S. Sharma,  D. W. Small,  
 T. Stauch,  T. Stein,  Yu-Chuan Su,  A. J. W. Thom,  A. Tkatchenko,  
 T. Tsuchimochi,  L. Vogt,  O. Vydrov,  M. A. Watson,  J. Wenzel,  
 M. de Wergifosse,  T. A. Wesolowski,  A. White,  J. Witte,  A. Yamada,  
 Jun Yang,  K. Yao,  S. Yeganeh,  S. R. Yost,  Zhi-Qiang You,  A. Zech,  
 Igor Ying Zhang,  Xing Zhang,  Yan Zhao,  Ying Zhu,  B. R. Brooks,  
 G. K. L. Chan,  C. J. Cramer,  M. S. Gordon,  W. J. Hehre,  A. Klamt,  
 M. W. Schmidt,  C. D. Sherrill,  D. G. Truhlar,  A. Aspuru-Guzik,  R. Baer,  
 A. T. Bell,  N. A. Besley,  Jeng-Da Chai,  R. A. DiStasio Jr.,  A. Dreuw,  
 B. D. Dunietz,  T. R. Furlani,  Chao-Ping Hsu,  Yousung Jung,  Jing Kong,  
 D. S. Lambrecht,  WanZhen Liang,  C. Ochsenfeld,  V. A. Rassolov,  
 L. V. Slipchenko,  J. E. Subotnik,  T. Van Voorhis,  J. M. Herbert,  
 A. I. Krylov,  P. M. W. Gill,  M. Head-Gordon

 Contributors to earlier versions of Q-Chem not listed above: 
 R. D. Adamson,  B. Austin,  J. Baker,  G. J. O. Beran,  K. Brandhorst,  
 S. T. Brown,  E. F. C. Byrd,  A. K. Chakraborty,  C.-L. Cheng,  
 Siu Hung Chien,  D. M. Chipman,  D. L. Crittenden,  H. Dachsel,  
 R. J. Doerksen,  A. D. Dutoi,  L. Fusti-Molnar,  W. A. Goddard III,  
 A. Golubeva-Zadorozhnaya,  S. R. Gwaltney,  G. Hawkins,  A. Heyden,  
 S. Hirata,  G. Kedziora,  F. J. Keil,  C. Kelley,  Jihan Kim,  R. A. King,  
 R. Z. Khaliullin,  P. P. Korambath,  W. Kurlancheek,  A. M. Lee,  M. S. Lee,  
 S. V. Levchenko,  Ching Yeh Lin,  D. Liotard,  R. C. Lochan,  I. Lotan,  
 P. E. Maslen,  N. Nair,  D. P. O'Neill,  D. Neuhauser,  E. Neuscamman,  
 C. M. Oana,  R. Olson,  B. Peters,  R. Peverati,  P. A. Pieniazek,  
 Y. M. Rhee,  J. Ritchie,  M. A. Rohrdanz,  E. Rosta,  N. J. Russ,  
 H. F. Schaefer III,  N. E. Schultz,  N. Shenvi,  A. C. Simmonett,  A. Sodt,  
 D. Stuck,  K. S. Thanthiriwatte,  V. Vanovschi,  Tao Wang,  A. Warshel,  
 C. F. Williams,  Q. Wu,  X. Xu,  W. Zhang

 Please cite Q-Chem as follows:
 Y. Shao et al., Mol. Phys. 113, 184-215 (2015)
 DOI: 10.1080/00268976.2014.952696

 Q-Chem 5.0.2 for Intel X86 EM64T Linux

 Parts of Q-Chem use Armadillo 5.200.1 (Boston Tea Smuggler).
 http://arma.sourceforge.net/

 Q-Chem begins on Tue Mar  1 17:36:44 2022  

Host: 
0

     Scratch files written to ./qcts1.d//
 Dec517 15110_ 26548  26544 5633   
Processing $rem in /home/leeping/opt/qchem/5.0.2-openmp/config/preferences.
 MEM_STATIC 2000
 MEM_TOTAL  8000
 SYMMETRY   OFF
 SYM_IGNORE TRUE 

Checking the input file for inconsistencies... 	...done.

--------------------------------------------------------------
User input:
--------------------------------------------------------------
$molecule
0 2
C        1.6917362522    0.2657981114   -0.3552222209
C        1.1310675780   -0.9498175329   -0.1313621591
C       -0.3164614713   -1.0122227948    0.1827681099
C       -1.1777378607    0.1323401459   -0.3993666369
C       -0.3419715029    1.3532873916   -0.2298621949
N        0.9807019667    1.4392645318   -0.2699596230
H        2.7529700091    0.3783008357   -0.5659769162
H        1.7044984842   -1.8683434564   -0.2121174089
H       -0.7692949242   -2.0045250748    0.1675772202
H       -2.0550863674    0.0500067362   -1.0371879099
H       -0.8853429597    2.2914317079   -0.1162371464
C       -1.0295971159   -0.0240665924    1.0325937935
H       -1.7047179366   -0.0616957599    1.8761375256
$end

$rem
method                b3lyp
basis                 6-31g(d)
unrestricted          true
symmetry              off
sym_ignore            true
incdft                false
incfock               0
scf_convergence       6
thresh                14
jobtype               sp
scf_guess             read
scf_algorithm         diis
max_scf_cycles        100
stability_analysis    true
max_cis_cycles        100
cis_n_roots           4
$end

--------------------------------------------------------------
 ----------------------------------------------------------------
             Standard Nuclear Orientation (Angstroms)
    I     Atom           X                Y                Z
 ----------------------------------------------------------------
    1      C       1.6917362522     0.2657981114    -0.3552222209
    2      C       1.1310675780    -0.9498175329    -0.1313621591
    3      C      -0.3164614713    -1.0122227948     0.1827681099
    4      C      -1.1777378607     0.1323401459    -0.3993666369
    5      C      -0.3419715029     1.3532873916    -0.2298621949
    6      N       0.9807019667     1.4392645318    -0.2699596230
    7      H       2.7529700091     0.3783008357    -0.5659769162
    8      H       1.7044984842    -1.8683434564    -0.2121174089
    9      H      -0.7692949242    -2.0045250748     0.1675772202
   10      H      -2.0550863674     0.0500067362    -1.0371879099
   11      H      -0.8853429597     2.2914317079    -0.1162371464
   12      C      -1.0295971159    -0.0240665924     1.0325937935
   13      H      -1.7047179366    -0.0616957599     1.8761375256
 ----------------------------------------------------------------
 Nuclear Repulsion Energy =   273.7415561426 hartrees
 There are       25 alpha and       24 beta electrons
 Requested basis set is 6-31G(d)
 There are 40 shells and 117 basis functions

 Total QAlloc Memory Limit   8000 MB
 Mega-Array Size      1956 MB
 MEM_STATIC part      2000 MB

                       Distance Matrix (Angstroms)
             C (  1)   C (  2)   C (  3)   C (  4)   C (  5)   N (  6)
   C (  2)  1.357271
   C (  3)  2.440416  1.482536
   C (  4)  2.872915  2.563879  1.546190
   C (  5)  2.309614  2.735661  2.401365  1.489278
   N (  6)  1.374723  2.397818  2.810229  2.526591  1.326071
   H (  7)  1.087792  2.140877  3.451896  3.941918  3.262244  2.086673
   H (  8)  2.138972  1.085833  2.230057  3.513557  3.816708  3.386369
   H (  9)  3.388858  2.193889  1.090850  2.248209  3.408147  3.887623
   H ( 10)  3.814489  3.460021  2.374751  1.087812  2.298930  3.425593
   H ( 11)  3.286585  3.817308  3.365585  2.197119  1.090082  2.057169
   C ( 12)  3.068503  2.623029  1.485671  1.448074  1.990911  2.807007
   H ( 13)  4.077023  3.586153  2.387102  2.343774  2.880016  3.751013
             H (  7)   H (  8)   H (  9)   H ( 10)   H ( 11)   C ( 12)
   H (  8)  2.504380
   H (  9)  4.315358  2.506465
   H ( 10)  4.842233  4.300615  2.706625
   H ( 11)  4.135173  4.901041  4.306885  2.690806
   C ( 12)  4.126153  3.525045  2.176747  2.311084  2.588852
   H ( 13)  5.101814  4.387202  2.751142  2.936444  3.190320  1.081097

 
 A cutoff of  1.0D-14 yielded    807 shell pairs
 There are      7079 function pairs
 Smallest overlap matrix eigenvalue = 1.20E-03

 Scale SEOQF with 1.000000e-01/1.000000e-01/1.000000e-01

 Standard Electronic Orientation quadrupole field applied
 Nucleus-field energy     =     0.0000000045 hartrees
 Guess MOs from SCF MO coefficient file
 Reading MOs from coefficient file
 Reading MOs from coefficient file
 An unrestricted hybrid HF-DFT SCF calculation will be
 performed using Pulay DIIS extrapolation
 Exchange:     0.2000 Hartree-Fock + 0.0800 Slater + 0.7200 B88
 Correlation:  0.1900 VWN1RPA + 0.8100 LYP
 Using SG-1 standard quadrature grid
 SCF converges when DIIS error is below 1.0E-06
Using Q-Chem read-in guess as SCF_GUESS READ specified.

 -------------------------------------------------------
 OpenMP BLAS3 based DFT computing Module                
 -------------------------------------------------------
 ---------------------------------------
  Cycle       Energy         DIIS Error
 ---------------------------------------
    1    -286.8326738321      8.34E-10
    2    -286.8326738321      1.17E-09 Convergence criterion met
 ---------------------------------------
 <S^2> = 0.7920
 SCF time:  CPU 3.22 s  wall 6.11 s
 SCF   energy in the final basis set = -286.83267383
 Total energy in the final basis set = -286.83267383
 
 Direct TDDFT/TDA calculation will be performed
 Exchange:     0.2000 Hartree-Fock + 0.0800 Slater + 0.7200 B88
 Correlation:  0.1900 VWN1RPA + 0.8100 LYP
 Using SG-1 standard quadrature grid
 CIS energy converged when residual is below 10e- 6
 ---------------------------------------------------
 Iter    Rts Conv    Rts Left    Ttl Dev     Max Dev
 ---------------------------------------------------
   1         0           4      0.005828    0.002199
   2         0           4      0.001581    0.000505
   3         0           4      0.000645    0.000237
   4         0           4      0.000331    0.000143
   5         0           4      0.000495    0.000403
   6         1           3      0.000333    0.000297
   7         2           2      0.000087    0.000078
   8         2           2      0.000021    0.000019
   9         3           1      0.000005    0.000004
  10         4           0      0.000002    0.000001    Roots Converged
 ---------------------------------------------------
 
 ---------------------------------------------------
         TDDFT/TDA Excitation Energies              
 ---------------------------------------------------

 Excited state   1: excitation energy (eV) =    2.3122
 Total energy for state  1:                  -286.74770120 au
    <S**2>     :  0.8295
    Trans. Mom.: -0.3594 X   0.1113 Y   0.0868 Z
    Strength   :     0.0084445609
    S(  1) --> V(  1) amplitude =  0.3414 alpha
    D( 24) --> S(  1) amplitude =  0.9216 beta

 Excited state   2: excitation energy (eV) =    3.0343
 Total energy for state  2:                  -286.72116664 au
    <S**2>     :  0.8946
    Trans. Mom.: -0.1062 X   0.0612 Y   0.0402 Z
    Strength   :     0.0012367110
    S(  1) --> V(  1) amplitude =  0.4387 alpha
    D( 23) --> S(  1) amplitude =  0.8817 beta

 Excited state   3: excitation energy (eV) =    3.5863
 Total energy for state  3:                  -286.70088092 au
    <S**2>     :  0.9643
    Trans. Mom.:  0.4966 X  -0.2477 Y  -0.3002 Z
    Strength   :     0.0349767392
    S(  1) --> V(  1) amplitude =  0.7785 alpha
    D( 21) --> S(  1) amplitude =  0.1742 beta
    D( 23) --> S(  1) amplitude = -0.4107 beta
    D( 24) --> S(  1) amplitude = -0.3228 beta
    D( 24) --> V(  1) amplitude = -0.1586 beta

 Excited state   4: excitation energy (eV) =    4.0842
 Total energy for state  4:                  -286.68258042 au
    <S**2>     :  2.2405
    Trans. Mom.: -0.1325 X   0.1725 Y   0.0612 Z
    Strength   :     0.0051111621
    D( 23) --> V(  1) amplitude =  0.2446 alpha
    D( 24) --> V(  1) amplitude = -0.5203 alpha
    S(  1) --> V(  1) amplitude = -0.2198 alpha
    S(  1) --> V(  2) amplitude =  0.1828 alpha
    D( 22) --> S(  1) amplitude =  0.2415 beta
    D( 24) --> V(  1) amplitude = -0.6850 beta
 
 ---------------------------------------------------

 Stability analysis will be performed
 ---------------------------------------------------
 Iter    Rts Conv    Rts Left    Ttl Dev     Max Dev
 ---------------------------------------------------
   1         0           8      0.006253    0.001015
   2         0           8      0.002402    0.000505
   3         0           8      0.000990    0.000258
   4         2           6      0.000465    0.000194
   5         3           5      0.000306    0.000204
   6         4           4      0.000157    0.000119
   7         4           4      0.000068    0.000052
   8         5           3      0.000019    0.000014
   9         7           1      0.000008    0.000004
  10         7           1      0.000005    0.000001
  11         8           0      0.000004    0.000001    Roots Converged
 UKS-> UKS   stable,    smallest eigenvalue:      0.0692332
 UKS->CUKS   stable,    smallest eigenvalue:      0.0867388
 ---------------------------------------------------
  SETman timing summary (seconds)
  CPU time                81.32s
  System time              0.00s
  Wall time              117.22s
 
 --------------------------------------------------------------
 
                    Orbital Energies (a.u.)
 --------------------------------------------------------------
 
 Alpha MOs
 -- Occupied --
-14.324 -10.242 -10.221 -10.219 -10.216 -10.205 -10.193  -0.948
 -0.874  -0.767  -0.651  -0.636  -0.583  -0.536  -0.498  -0.480
 -0.452  -0.412  -0.388  -0.372  -0.349  -0.302  -0.261  -0.243
 -0.185
 -- Virtual --
 -0.013   0.071   0.095   0.132   0.136   0.143   0.155   0.166
  0.181   0.220   0.242   0.249   0.295   0.325   0.404   0.436
  0.499   0.507   0.527   0.543   0.553   0.582   0.595   0.599
  0.631   0.640   0.648   0.666   0.682   0.715   0.757   0.801
  0.821   0.840   0.850   0.864   0.877   0.896   0.920   0.935
  0.971   1.031   1.074   1.089   1.159   1.201   1.269   1.314
  1.364   1.428   1.502   1.512   1.583   1.613   1.633   1.673
  1.724   1.746   1.825   1.853   1.887   1.950   1.972   2.049
  2.079   2.115   2.149   2.217   2.265   2.301   2.319   2.340
  2.424   2.480   2.515   2.538   2.592   2.611   2.638   2.700
  2.747   2.758   2.835   2.989   3.226   4.009   4.100   4.242
  4.322   4.340   4.443   4.600
 
 Beta MOs
 -- Occupied --
-14.317 -10.244 -10.221 -10.216 -10.209 -10.207 -10.189  -0.940
 -0.863  -0.762  -0.643  -0.634  -0.568  -0.532  -0.496  -0.473
 -0.449  -0.408  -0.385  -0.359  -0.337  -0.291  -0.253  -0.222
 -- Virtual --
 -0.083  -0.001   0.087   0.098   0.134   0.143   0.145   0.160
  0.169   0.185   0.222   0.246   0.252   0.302   0.329   0.408
  0.438   0.503   0.518   0.531   0.550   0.562   0.586   0.600
  0.605   0.634   0.645   0.653   0.674   0.688   0.719   0.767
  0.804   0.822   0.847   0.851   0.871   0.880   0.903   0.926
  0.938   0.977   1.036   1.077   1.094   1.165   1.206   1.275
  1.318   1.375   1.434   1.507   1.516   1.593   1.617   1.647
  1.679   1.732   1.755   1.838   1.857   1.900   1.960   1.983
  2.053   2.083   2.114   2.160   2.228   2.278   2.310   2.326
  2.348   2.429   2.485   2.521   2.548   2.599   2.625   2.644
  2.707   2.750   2.762   2.843   2.991   3.228   4.019   4.107
  4.241   4.320   4.359   4.448   4.603
 --------------------------------------------------------------
 
          Ground-State Mulliken Net Atomic Charges

     Atom                 Charge (a.u.)    Spin (a.u.)
  --------------------------------------------------------
      1 C                     0.000272      -0.147391
      2 C                    -0.070309       0.310682
      3 C                    -0.187969      -0.032467
      4 C                    -0.125800       0.039031
      5 C                     0.027016      -0.173336
      6 N                    -0.374622       0.342122
      7 H                     0.136895       0.008600
      8 H                     0.133492      -0.014335
      9 H                     0.151415       0.017033
     10 H                     0.152872       0.001859
     11 H                     0.153355       0.010074
     12 C                    -0.154645       0.661298
     13 H                     0.158027      -0.023171
  --------------------------------------------------------
  Sum of atomic charges =     0.000000
  Sum of spin   charges =     1.000000

 -----------------------------------------------------------------
                    Cartesian Multipole Moments
 -----------------------------------------------------------------
    Charge (ESU x 10^10)
                 0.0000
    Dipole Moment (Debye)
         X      -1.9498      Y      -1.8744      Z      -0.0710
       Tot       2.7056
    Quadrupole Moments (Debye-Ang)
        XX     -37.2580     XY      -3.4299     YY     -41.2438
        XZ      -0.8912     YZ      -0.0595     ZZ     -41.5177
    Octopole Moments (Debye-Ang^2)
       XXX     -11.3335    XXY      -9.1547    XYY     -11.6633
       YYY     -26.8308    XXZ      -0.5176    XYZ       1.0665
       YYZ       1.1741    XZZ      -9.2683    YZZ      -5.7407
       ZZZ       4.4856
    Hexadecapole Moments (Debye-Ang^3)
      XXXX    -335.2563   XXXY      -6.3136   XXYY    -109.6368
      XYYY     -23.8010   YYYY    -279.3362   XXXZ      25.4992
      XXYZ       5.0718   XYYZ      11.6000   YYYZ      17.6121
      XXZZ     -72.7491   XYZZ      -0.6501   YYZZ     -69.3456
      XZZZ      26.8624   YZZZ      15.0110   ZZZZ    -107.4130
 -----------------------------------------------------------------
Archival summary:
1\1\c8-89\SP\ProcedureUnspecified\6-31G*\166(2)\hpark21\TueMar117:38:522022TueMar117:38:522022\0\\#,ProcedureUnspecified,6-31G*,\\0,2\N\C,1,1.32607\H,2,1.09008,1,116.394\C,1,1.37472,2,117.544,3,177.287,0\H,4,1.08779,1,115.361,2,169.418,0\C,4,1.35727,1,122.726,2,-13.5715,0\H,6,1.08583,4,121.817,1,179.4,0\C,6,1.48254,4,118.423,1,1.65323,0\H,8,1.09085,6,116.146,4,168.699,0\C,8,1.48567,6,124.186,4,-38.3517,0\H,10,1.0811,8,136.297,6,-130.386,0\C,10,1.44807,8,63.5956,6,100.552,0\H,12,1.08781,10,130.855,8,115.561,0\\\@

 Total job time:  128.19s(wall), 84.74s(cpu) 
 Tue Mar  1 17:38:52 2022

        *************************************************************
        *                                                           *
        *  Thank you very much for using Q-Chem.  Have a nice day.  *
        *                                                           *
        *************************************************************


