
Running Job 1 of 1 qcts2.in
qchem qcts2.in_44949.0 ./qcts2.d/ 1
/home/leeping/opt/qchem/5.0.2-openmp/exe/qcprog.exe_s qcts2.in_44949.0 ./qcts2.d/
Check license passed

                  Welcome to Q-Chem
     A Quantum Leap Into The Future Of Chemistry


 Q-Chem 5.0, Q-Chem, Inc., Pleasanton, CA (2017)

 Yihan Shao,  Zhengting Gan,  E. Epifanovsky,  A. T. B. Gilbert,  M. Wormit,  
 J. Kussmann,  A. W. Lange,  A. Behn,  Jia Deng,  Xintian Feng,  D. Ghosh,  
 M. Goldey,  P. R. Horn,  L. D. Jacobson,  I. Kaliman,  T. Kus,  A. Landau,  
 Jie Liu,  E. I. Proynov,  R. M. Richard,  R. P. Steele,  E. J. Sundstrom,  
 H. L. Woodcock III,  P. M. Zimmerman,  D. Zuev,  B. Albrecht,  E. Alguire,  
 S. A. Baeppler,  D. Barton,  Z. Benda,  Y. A. Bernard,  E. J. Berquist,  
 K. B. Bravaya,  H. Burton,  D. Casanova,  Chun-Min Chang,  Yunqing Chen,  
 A. Chien,  K. D. Closser,  M. P. Coons,  S. Dasgupta,  A. L. Dempwolff,  
 M. Diedenhofen,  Hainam Do,  R. G. Edgar,  Po-Tung Fang,  S. Fatehi,  
 Qingguo Feng,  J. Fosso-Tande,  Qinghui Ge,  A. Ghysels,  G. Gidofalvi,  
 J. Gomes,  J. Gonthier,  A. Gunina,  M. W. D. Hanson-Heine,  
 P. H. P. Harbach,  A. W. Hauser,  J. E. Herr,  E. G. Hohenstein,  
 Z. C. Holden,  Kerwin Hui,  T.-C. Jagau,  Hyunjun Ji,  B. Kaduk,  
 K. Khistyaev,  Jaehoon Kim,  P. Klunzinger,  K. Koh,  D. Kosenkov,  
 L. Koulias,  T. Kowalczyk,  C. M. Krauter,  A. Kunitsa,  Ka Un Lao,  
 A. Laurent,  K. V. Lawler,  Joonho Lee,  D. Lefrancois,  S. Lehtola,  
 D. S. Levine,  Yi-Pei Li,  You-Sheng Lin,  Fenglai Liu,  E. Livshits,  
 A. Luenser,  P. Manohar,  E. Mansoor,  S. F. Manzer,  Shan-Ping Mao,  
 Yuezhi Mao,  N. Mardirossian,  A. V. Marenich,  T. Markovich,  
 L. A. Martinez-Martinez,  S. A. Maurer,  N. J. Mayhall,  S. C. McKenzie,  
 J.-M. Mewes,  A. F. Morrison,  J. W. Mullinax,  K. Nanda,  
 T. S. Nguyen-Beck,  R. Olivares-Amaya,  J. A. Parkhill,  T. M. Perrine,  
 F. Plasser,  S. Prager,  A. Prociuk,  E. Ramos,  D. R. Rehn,  F. Rob,  
 M. Schneider,  N. Sergueev,  S. M. Sharada,  S. Sharma,  D. W. Small,  
 T. Stauch,  T. Stein,  Yu-Chuan Su,  A. J. W. Thom,  A. Tkatchenko,  
 T. Tsuchimochi,  L. Vogt,  O. Vydrov,  M. A. Watson,  J. Wenzel,  
 M. de Wergifosse,  T. A. Wesolowski,  A. White,  J. Witte,  A. Yamada,  
 Jun Yang,  K. Yao,  S. Yeganeh,  S. R. Yost,  Zhi-Qiang You,  A. Zech,  
 Igor Ying Zhang,  Xing Zhang,  Yan Zhao,  Ying Zhu,  B. R. Brooks,  
 G. K. L. Chan,  C. J. Cramer,  M. S. Gordon,  W. J. Hehre,  A. Klamt,  
 M. W. Schmidt,  C. D. Sherrill,  D. G. Truhlar,  A. Aspuru-Guzik,  R. Baer,  
 A. T. Bell,  N. A. Besley,  Jeng-Da Chai,  R. A. DiStasio Jr.,  A. Dreuw,  
 B. D. Dunietz,  T. R. Furlani,  Chao-Ping Hsu,  Yousung Jung,  Jing Kong,  
 D. S. Lambrecht,  WanZhen Liang,  C. Ochsenfeld,  V. A. Rassolov,  
 L. V. Slipchenko,  J. E. Subotnik,  T. Van Voorhis,  J. M. Herbert,  
 A. I. Krylov,  P. M. W. Gill,  M. Head-Gordon

 Contributors to earlier versions of Q-Chem not listed above: 
 R. D. Adamson,  B. Austin,  J. Baker,  G. J. O. Beran,  K. Brandhorst,  
 S. T. Brown,  E. F. C. Byrd,  A. K. Chakraborty,  C.-L. Cheng,  
 Siu Hung Chien,  D. M. Chipman,  D. L. Crittenden,  H. Dachsel,  
 R. J. Doerksen,  A. D. Dutoi,  L. Fusti-Molnar,  W. A. Goddard III,  
 A. Golubeva-Zadorozhnaya,  S. R. Gwaltney,  G. Hawkins,  A. Heyden,  
 S. Hirata,  G. Kedziora,  F. J. Keil,  C. Kelley,  Jihan Kim,  R. A. King,  
 R. Z. Khaliullin,  P. P. Korambath,  W. Kurlancheek,  A. M. Lee,  M. S. Lee,  
 S. V. Levchenko,  Ching Yeh Lin,  D. Liotard,  R. C. Lochan,  I. Lotan,  
 P. E. Maslen,  N. Nair,  D. P. O'Neill,  D. Neuhauser,  E. Neuscamman,  
 C. M. Oana,  R. Olson,  B. Peters,  R. Peverati,  P. A. Pieniazek,  
 Y. M. Rhee,  J. Ritchie,  M. A. Rohrdanz,  E. Rosta,  N. J. Russ,  
 H. F. Schaefer III,  N. E. Schultz,  N. Shenvi,  A. C. Simmonett,  A. Sodt,  
 D. Stuck,  K. S. Thanthiriwatte,  V. Vanovschi,  Tao Wang,  A. Warshel,  
 C. F. Williams,  Q. Wu,  X. Xu,  W. Zhang

 Please cite Q-Chem as follows:
 Y. Shao et al., Mol. Phys. 113, 184-215 (2015)
 DOI: 10.1080/00268976.2014.952696

 Q-Chem 5.0.2 for Intel X86 EM64T Linux

 Parts of Q-Chem use Armadillo 5.200.1 (Boston Tea Smuggler).
 http://arma.sourceforge.net/

 Q-Chem begins on Tue Mar  1 18:07:55 2022  

Host: 
0

     Scratch files written to ./qcts2.d//
 Dec517 15110_ 26548  26544 5633   
Processing $rem in /home/leeping/opt/qchem/5.0.2-openmp/config/preferences.
 MEM_STATIC 2000
 MEM_TOTAL  8000
 SYMMETRY   OFF
 SYM_IGNORE TRUE 

Checking the input file for inconsistencies... 	...done.

--------------------------------------------------------------
User input:
--------------------------------------------------------------
$molecule
0 2
C        1.6938957894    0.2660909727   -0.3538030989
C        1.1307323895   -0.9510392602   -0.1316972878
C       -0.3167689383   -1.0136228440    0.1807953053
C       -1.1773990072    0.1328831816   -0.4012493205
C       -0.3447813373    1.3545632668   -0.2285506059
N        0.9794062511    1.4381447031   -0.2701773977
H        2.7541612582    0.3788786313   -0.5629708865
H        1.7043792282   -1.8689478140   -0.2132695345
H       -0.7690426668   -2.0057932664    0.1672737923
H       -2.0561554264    0.0516551002   -1.0359150173
H       -0.8866513194    2.2931595328   -0.1199171232
C       -1.0298266650   -0.0274535433    1.0326789054
H       -1.7011854043   -0.0587604114    1.8785867022
$end

$rem
method                b3lyp
basis                 6-31+g(d,p)
unrestricted          true
symmetry              off
sym_ignore            true
incdft                false
incfock               0
scf_convergence       8
thresh                14
jobtype               freq
scf_guess             read
scf_algorithm         diis
max_scf_cycles        100
$end

--------------------------------------------------------------
 ----------------------------------------------------------------
             Standard Nuclear Orientation (Angstroms)
    I     Atom           X                Y                Z
 ----------------------------------------------------------------
    1      C       1.6938957894     0.2660909727    -0.3538030989
    2      C       1.1307323895    -0.9510392602    -0.1316972878
    3      C      -0.3167689383    -1.0136228440     0.1807953053
    4      C      -1.1773990072     0.1328831816    -0.4012493205
    5      C      -0.3447813373     1.3545632668    -0.2285506059
    6      N       0.9794062511     1.4381447031    -0.2701773977
    7      H       2.7541612582     0.3788786313    -0.5629708865
    8      H       1.7043792282    -1.8689478140    -0.2132695345
    9      H      -0.7690426668    -2.0057932664     0.1672737923
   10      H      -2.0561554264     0.0516551002    -1.0359150173
   11      H      -0.8866513194     2.2931595328    -0.1199171232
   12      C      -1.0298266650    -0.0274535433     1.0326789054
   13      H      -1.7011854043    -0.0587604114     1.8785867022
 ----------------------------------------------------------------
 Nuclear Repulsion Energy =   273.6296583106 hartrees
 There are       25 alpha and       24 beta electrons
 Requested basis set is 6-31+G(d,p)
 There are 53 shells and 163 basis functions

 Total QAlloc Memory Limit   8000 MB
 Mega-Array Size      1956 MB
 MEM_STATIC part      2000 MB

                       Distance Matrix (Angstroms)
             C (  1)   C (  2)   C (  3)   C (  4)   C (  5)   N (  6)
   C (  2)  1.359371
   C (  3)  2.442588  1.482170
   C (  4)  2.874775  2.564180  1.547235
   C (  5)  2.314447  2.739037  2.403467  1.488482
   N (  6)  1.375209  2.397973  2.809735  2.524420  1.327476
   H (  7)  1.086570  2.142475  3.452950  3.942567  3.266075  2.087469
   H (  8)  2.139685  1.085486  2.229778  3.513874  3.819727  3.386102
   H (  9)  3.391024  2.193407  1.090475  2.250313  3.410084  3.887048
   H ( 10)  3.817610  3.461107  2.375009  1.087019  2.297435  3.423937
   H ( 11)  3.289823  3.820314  3.368977  2.197834  1.089214  2.058106
   C ( 12)  3.070369  2.622365  1.485492  1.450392  1.992475  2.807567
   H ( 13)  4.076232  3.585688  2.389742  2.347069  2.877037  3.747464
             H (  7)   H (  8)   H (  9)   H ( 10)   H ( 11)   C ( 12)
   H (  8)  2.505406
   H (  9)  4.316582  2.506263
   H ( 10)  4.844574  4.301986  2.708767
   H ( 11)  4.137183  4.903600  4.310140  2.689077
   C ( 12)  4.126714  3.524113  2.175032  2.310560  2.595038
   H ( 13)  5.099299  4.387540  2.754708  2.938114  3.192023  1.080399

 
 A cutoff of  1.0D-14 yielded   1386 shell pairs
 There are     13458 function pairs
 Smallest overlap matrix eigenvalue = 2.39E-05
 Guess MOs from SCF MO coefficient file
 Reading MOs from coefficient file
 Reading MOs from coefficient file
 An unrestricted hybrid HF-DFT SCF calculation will be
 performed using Pulay DIIS extrapolation
 Exchange:     0.2000 Hartree-Fock + 0.0800 Slater + 0.7200 B88
 Correlation:  0.1900 VWN1RPA + 0.8100 LYP
 Using SG-1 standard quadrature grid
 SCF converges when DIIS error is below 1.0E-08
Using Q-Chem read-in guess as SCF_GUESS READ specified.

 -------------------------------------------------------
 OpenMP BLAS3 based DFT computing Module                
 -------------------------------------------------------
 ---------------------------------------
  Cycle       Energy         DIIS Error
 ---------------------------------------
    1    -286.8546796440      1.86E-10
    2    -286.8546796441      2.94E-10 Convergence criterion met
 ---------------------------------------
 <S^2> = 0.7899
 SCF time:  CPU 6.72 s  wall 13.20 s
 SCF   energy in the final basis set = -286.85467964
 Total energy in the final basis set = -286.85467964
 
 --------------------------------------------------------------
 
                    Orbital Energies (a.u.)
 --------------------------------------------------------------
 
 Alpha MOs
 -- Occupied --
-14.338 -10.252 -10.232 -10.230 -10.227 -10.216 -10.204  -0.960
 -0.885  -0.777  -0.661  -0.646  -0.591  -0.544  -0.506  -0.491
 -0.461  -0.422  -0.397  -0.382  -0.360  -0.312  -0.272  -0.254
 -0.197
 -- Virtual --
 -0.033   0.000   0.016   0.022   0.025   0.039   0.048   0.057
  0.070   0.075   0.084   0.094   0.097   0.100   0.112   0.118
  0.125   0.130   0.147   0.151   0.157   0.174   0.178   0.182
  0.189   0.194   0.202   0.211   0.230   0.244   0.250   0.255
  0.271   0.274   0.279   0.302   0.306   0.319   0.326   0.339
  0.359   0.376   0.465   0.499   0.624   0.636   0.655   0.668
  0.680   0.713   0.728   0.741   0.743   0.764   0.773   0.801
  0.811   0.849   0.873   0.902   0.929   0.939   0.957   0.997
  1.004   1.010   1.044   1.065   1.093   1.109   1.120   1.187
  1.193   1.219   1.263   1.300   1.364   1.381   1.417   1.477
  1.522   1.596   1.615   1.681   1.684   1.713   1.798   1.831
  1.852   1.913   1.924   1.983   2.028   2.050   2.077   2.098
  2.148   2.171   2.200   2.260   2.276   2.312   2.351   2.397
  2.406   2.446   2.454   2.469   2.504   2.508   2.526   2.540
  2.559   2.606   2.622   2.664   2.678   2.704   2.739   2.828
  2.919   2.948   2.967   3.161   3.193   3.284   3.288   3.422
  3.438   3.590   3.719   4.211   4.301   4.460   4.518   4.594
  4.642   4.736
 
 Beta MOs
 -- Occupied --
-14.331 -10.254 -10.232 -10.226 -10.221 -10.218 -10.200  -0.952
 -0.874  -0.773  -0.653  -0.644  -0.577  -0.540  -0.504  -0.484
 -0.457  -0.418  -0.394  -0.370  -0.348  -0.302  -0.265  -0.233
 -- Virtual --
 -0.098  -0.023   0.001   0.016   0.024   0.027   0.041   0.049
  0.061   0.075   0.078   0.085   0.095   0.097   0.104   0.113
  0.119   0.127   0.133   0.149   0.153   0.158   0.176   0.181
  0.184   0.190   0.197   0.203   0.213   0.232   0.245   0.251
  0.259   0.275   0.278   0.282   0.306   0.307   0.320   0.331
  0.342   0.363   0.380   0.469   0.502   0.627   0.641   0.663
  0.674   0.692   0.718   0.724   0.747   0.751   0.766   0.778
  0.807   0.815   0.852   0.875   0.903   0.930   0.940   0.959
  1.002   1.008   1.018   1.058   1.071   1.098   1.112   1.125
  1.189   1.199   1.222   1.269   1.305   1.374   1.384   1.418
  1.486   1.531   1.602   1.628   1.688   1.690   1.723   1.807
  1.842   1.855   1.920   1.931   1.988   2.030   2.057   2.086
  2.109   2.152   2.179   2.206   2.262   2.281   2.315   2.358
  2.400   2.410   2.452   2.456   2.474   2.508   2.512   2.532
  2.541   2.561   2.613   2.628   2.670   2.685   2.709   2.742
  2.838   2.923   2.953   2.970   3.165   3.195   3.286   3.290
  3.424   3.439   3.596   3.720   4.222   4.307   4.458   4.517
  4.610   4.648   4.739
 --------------------------------------------------------------
 
          Ground-State Mulliken Net Atomic Charges

     Atom                 Charge (a.u.)    Spin (a.u.)
  --------------------------------------------------------
      1 C                    -0.306302      -0.163645
      2 C                     0.280598       0.333536
      3 C                    -0.389285      -0.049349
      4 C                     0.240384       0.022495
      5 C                    -0.362586      -0.180949
      6 N                    -0.101801       0.342340
      7 H                     0.126907       0.008491
      8 H                     0.127751      -0.014554
      9 H                     0.140119       0.017523
     10 H                     0.138954       0.002210
     11 H                     0.143943       0.009395
     12 C                    -0.181972       0.694628
     13 H                     0.143291      -0.022122
  --------------------------------------------------------
  Sum of atomic charges =     0.000000
  Sum of spin   charges =     1.000000

 -----------------------------------------------------------------
                    Cartesian Multipole Moments
 -----------------------------------------------------------------
    Charge (ESU x 10^10)
                 0.0000
    Dipole Moment (Debye)
         X      -2.1457      Y      -2.0318      Z      -0.0644
       Tot       2.9558
    Quadrupole Moments (Debye-Ang)
        XX     -38.2945     XY      -3.8174     YY     -42.6825
        XZ      -0.8754     YZ      -0.1650     ZZ     -43.0448
    Octopole Moments (Debye-Ang^2)
       XXX     -12.1037    XXY      -9.6467    XYY     -13.2677
       YYY     -29.1456    XXZ      -0.8748    XYZ       1.2178
       YYZ       1.2951    XZZ     -10.3672    YZZ      -6.0811
       ZZZ       4.7988
    Hexadecapole Moments (Debye-Ang^3)
      XXXX    -349.7244   XXXY      -7.3655   XXYY    -115.9943
      XYYY     -28.0893   YYYY    -296.2351   XXXZ      25.6334
      XXYZ       5.2512   XYYZ      12.2258   YYYZ      17.7850
      XXZZ     -78.1760   XYZZ      -0.8255   YYZZ     -75.4426
      XZZZ      27.9736   YZZZ      14.5195   ZZZZ    -120.1844
 -----------------------------------------------------------------
 Calculating MO derivatives via CPSCF
   1         3          39      0.291102    0.058843
   2         3          39      0.039182    0.007426
   3         3          39      0.005466    0.001171
   4         3          39      0.000681    0.000162
   5        24          18      0.000062    0.000017
   6        41           1      0.000002    0.000002
   7        42           0      0.000000    0.000000    Roots Converged
 Time for AOints: 19.4 s (CPU) 23.7 s (wall)
 ------------------------------------------------------------------------------
                     AOints        : Timing summary (seconds)
 ------------------------------------------------------------------------------
     job step          cpu (% of tot)      sys (% of tot)     wall (% of tot)
 ------------------------------------------------------------------------------
  cpscf_lag         0.1174E+03 (28.1)   0.4000E-04 (33.9)   0.1277E+03 (27.3)
  iterzp            0.2800E+03 (67.1)   0.7400E-04 (62.7)   0.3156E+03 (67.5)
  make_fx           0.0000E+00 ( 0.0)   0.0000E+00 ( 0.0)   0.0000E+00 ( 0.0)
  AOints            0.1941E+02 ( 4.7)   0.2000E-05 ( 1.7)   0.2367E+02 ( 5.1)
 ------------------------------------------------------------------------------
   Grand Totals     0.4172E+03          0.1180E-03          0.4676E+03
 ------------------------------------------------------------------------------
 Calculating analytic Hessian of the SCF energy
 Polarizability Matrix (a.u.)
            1           2           3
    1 -85.0889134   1.4347598   9.3881342
    2   1.4347598 -77.4794685   3.0306422
    3   9.3881342   3.0306422 -57.9568609
 
 Direct stationary perturbation theory relativistic correction:
 
 rels  =       0.069358707532
 relv  =      -0.338905585617
 rel2e =       0.156651956980
 E_rel =      -0.112894921105
 
 Hessian of the SCF Energy
            1           2           3           4           5           6
    1   0.7254938   0.0788895  -0.1205525  -0.1815534  -0.1456045   0.0364172
    2   0.0788895   0.6130554  -0.0549785  -0.0952197  -0.3331396   0.0504089
    3  -0.1205525  -0.0549785   0.1647021   0.0381431   0.0538615  -0.0706424
    4  -0.1815534  -0.0952197   0.0381431   0.5581439  -0.0034521  -0.1018800
    5  -0.1456045  -0.3331396   0.0538615  -0.0034521   0.7749994  -0.0422574
    6   0.0364172   0.0504089  -0.0706424  -0.1018800  -0.0422574   0.1455934
    7  -0.0212471  -0.0363732   0.0054753  -0.2112617  -0.0015897   0.0386032
    8  -0.0257010   0.0084401   0.0098411  -0.0299859  -0.0926194   0.0027056
    9   0.0133595  -0.0017559   0.0005991   0.0350723  -0.0011184  -0.0599293
   10   0.0032732   0.0082483   0.0035833  -0.0298601   0.0147577  -0.0131642
   11   0.0036368  -0.0064807   0.0013089   0.0190239   0.0000011  -0.0007692
   12  -0.0075378   0.0145899  -0.0039730   0.0054219  -0.0085241  -0.0013022
   13  -0.0606661   0.0822738   0.0029925  -0.0184040  -0.0417941   0.0064473
   14   0.0346359   0.0207723   0.0017119  -0.0080249  -0.0182429  -0.0004471
   15   0.0094724  -0.0557637  -0.0030960   0.0175426   0.0230651  -0.0074074
   16  -0.1480875   0.0255517   0.0122290   0.0469972   0.0571477  -0.0072241
   17   0.0744320  -0.1949566  -0.0129131  -0.0039382  -0.0852658   0.0054082
   18   0.0144336   0.0136753  -0.0589591  -0.0109252  -0.0069071   0.0184772
   19  -0.3188840  -0.0389178   0.0568509  -0.0082590   0.0013579   0.0024160
   20  -0.0396340  -0.0614490   0.0074207  -0.0280946   0.0026537   0.0056917
   21   0.0553976   0.0020695  -0.0498526   0.0067305   0.0030407   0.0040348
   22   0.0107562  -0.0118092  -0.0003218  -0.1358342   0.1293820   0.0162622
   23   0.0193589  -0.0161026  -0.0031122   0.1264797  -0.2618586  -0.0172722
   24  -0.0047041   0.0062857   0.0039206   0.0178222  -0.0177331  -0.0316981
   25  -0.0062140   0.0011932   0.0014673  -0.0093495  -0.0295366   0.0001189
   26  -0.0000550   0.0022324  -0.0007682   0.0003966   0.0016036   0.0000659
   27   0.0025887  -0.0013914   0.0014038   0.0028609   0.0065698   0.0002661
   28  -0.0010018  -0.0013905   0.0003160   0.0007359   0.0004831  -0.0017531
   29   0.0014376   0.0037354  -0.0019894  -0.0034079  -0.0020059   0.0014750
   30   0.0001363   0.0036724   0.0000569  -0.0020342  -0.0026480   0.0025386
   31  -0.0035198  -0.0007428   0.0009716  -0.0011805   0.0003810  -0.0001331
   32  -0.0014145   0.0032899  -0.0012963  -0.0008199   0.0005323   0.0000422
   33  -0.0009078  -0.0023104   0.0105704  -0.0010729   0.0000964  -0.0004361
   34   0.0033303  -0.0121423  -0.0014635  -0.0095865   0.0186566   0.0214312
   35  -0.0012451  -0.0377119   0.0012701   0.0307955   0.0128371  -0.0030134
   36   0.0027006   0.0225534   0.0049241  -0.0050517  -0.0074605  -0.0008330
   37  -0.0016800   0.0004390   0.0003087  -0.0005881  -0.0001890   0.0024586
   38   0.0012635  -0.0016851  -0.0003564  -0.0037524   0.0005050  -0.0020383
   39  -0.0008038   0.0029449   0.0003461  -0.0026295   0.0000150   0.0013383
            7           8           9          10          11          12
    1  -0.0212471  -0.0257010   0.0133595   0.0032732   0.0036368  -0.0075378
    2  -0.0363732   0.0084401  -0.0017559   0.0082483  -0.0064807   0.0145899
    3   0.0054753   0.0098411   0.0005991   0.0035833   0.0013089  -0.0039730
    4  -0.2112617  -0.0299859   0.0350723  -0.0298601   0.0190239   0.0054219
    5  -0.0015897  -0.0926194  -0.0011184   0.0147577   0.0000011  -0.0085241
    6   0.0386032   0.0027056  -0.0599293  -0.0131642  -0.0007692  -0.0013022
    7   0.5098237   0.0464051  -0.0736616  -0.0794581   0.0335696  -0.0638610
    8   0.0464051   0.6258883   0.0345613   0.0251167  -0.1106024   0.0560678
    9  -0.0736616   0.0345613   0.2023442  -0.0302457  -0.0007592  -0.0352297
   10  -0.0794581   0.0251167  -0.0302457   0.5114272   0.0537837   0.2311787
   11   0.0335696  -0.1106024  -0.0007592   0.0537837   0.3588499  -0.0379268
   12  -0.0638610   0.0560678  -0.0352297   0.2311787  -0.0379268   0.4863563
   13   0.0250441   0.0301433  -0.0024649  -0.1400342  -0.0694469  -0.0729548
   14  -0.0055534  -0.0399772   0.0095575  -0.0685115  -0.1835771  -0.0449594
   15  -0.0089136   0.0003600   0.0156747   0.0042113   0.0059770  -0.0174237
   16  -0.0202728   0.0028449  -0.0021357  -0.0093145  -0.0126301   0.0325623
   17   0.0154164   0.0024372  -0.0008009  -0.0349242   0.0007913  -0.0084386
   18   0.0019584  -0.0028212  -0.0099940  -0.0171959  -0.0076556   0.0152573
   19   0.0018384  -0.0022199   0.0009826   0.0006382   0.0002327   0.0002257
   20  -0.0004537  -0.0047633   0.0013236   0.0008029  -0.0000232  -0.0002207
   21   0.0020403   0.0019605   0.0078155   0.0017170   0.0002022   0.0002570
   22  -0.0085911   0.0218047   0.0037525  -0.0032869   0.0017782   0.0009493
   23  -0.0037123   0.0049162   0.0019445  -0.0006711   0.0014705  -0.0005605
   24   0.0010723  -0.0069432   0.0049513  -0.0003348   0.0027363  -0.0002104
   25  -0.1005675  -0.1056928  -0.0009969   0.0078532   0.0126189   0.0043614
   26  -0.1058979  -0.2732686   0.0019999  -0.0066765  -0.0094739  -0.0053157
   27  -0.0038020  -0.0063218  -0.0367733   0.0119370   0.0168335   0.0020358
   28  -0.0065850  -0.0047494  -0.0028595  -0.2359926  -0.0190355  -0.1417597
   29   0.0141841   0.0062476   0.0110405  -0.0215577  -0.0502681  -0.0103165
   30   0.0070252   0.0010941  -0.0055498  -0.1397984  -0.0112328  -0.1314732
   31  -0.0018611  -0.0046125   0.0000531   0.0088118  -0.0162655   0.0016914
   32  -0.0044573  -0.0042268  -0.0017994   0.0085268  -0.0220322   0.0008667
   33   0.0040472   0.0008462   0.0023386   0.0057930   0.0004635  -0.0020429
   34  -0.0829641   0.0543386   0.0581388  -0.0444023  -0.0098771   0.0219068
   35   0.0354446  -0.1243930  -0.0446447   0.0270322   0.0227751   0.0404598
   36   0.0915280  -0.0913258  -0.0836536  -0.0735597   0.0290574  -0.2999138
   37  -0.0038977  -0.0076919   0.0010053   0.0103450   0.0026115  -0.0121841
   38   0.0130177   0.0019212  -0.0095488  -0.0059272  -0.0014303   0.0042780
   39  -0.0015118  -0.0000247  -0.0025937   0.0158783   0.0017647  -0.0123375
           13          14          15          16          17          18
    1  -0.0606661   0.0346359   0.0094724  -0.1480875   0.0744320   0.0144336
    2   0.0822738   0.0207723  -0.0557637   0.0255517  -0.1949566   0.0136753
    3   0.0029925   0.0017119  -0.0030960   0.0122290  -0.0129131  -0.0589591
    4  -0.0184040  -0.0080249   0.0175426   0.0469972  -0.0039382  -0.0109252
    5  -0.0417941  -0.0182429   0.0230651   0.0571477  -0.0852658  -0.0069071
    6   0.0064473  -0.0004471  -0.0074074  -0.0072241   0.0054082   0.0184772
    7   0.0250441  -0.0055534  -0.0089136  -0.0202728   0.0154164   0.0019584
    8   0.0301433  -0.0399772   0.0003600   0.0028449   0.0024372  -0.0028212
    9  -0.0024649   0.0095575   0.0156747  -0.0021357  -0.0008009  -0.0099940
   10  -0.1400342  -0.0685115   0.0042113  -0.0093145  -0.0349242  -0.0171959
   11  -0.0694469  -0.1835771   0.0059770  -0.0126301   0.0007913  -0.0076556
   12  -0.0729548  -0.0449594  -0.0174237   0.0325623  -0.0084386   0.0152573
   13   0.6096645  -0.1373980   0.0804023  -0.3195901  -0.0181162  -0.0092494
   14  -0.1373980   0.5791037   0.1007500   0.0311719  -0.1117441  -0.0171760
   15   0.0804023   0.1007500   0.0506050  -0.0872023   0.0224309  -0.0243576
   16  -0.3195901   0.0311719  -0.0872023   0.5408616  -0.0667158  -0.0010470
   17  -0.0181162  -0.1117441   0.0224309  -0.0667158   0.3734362   0.0029454
   18  -0.0092494  -0.0171760  -0.0243576  -0.0010470   0.0029454   0.0735959
   19   0.0015160   0.0028133   0.0007956  -0.0185244   0.0071294   0.0017437
   20   0.0043401  -0.0035350  -0.0009099   0.0329125   0.0005039  -0.0060282
   21   0.0022094   0.0020682   0.0021873  -0.0021307   0.0002710  -0.0002907
   22  -0.0005008  -0.0013460  -0.0003552   0.0008423  -0.0028565   0.0022243
   23  -0.0021000  -0.0004080   0.0001702  -0.0023500  -0.0041883   0.0017238
   24  -0.0005314  -0.0021499   0.0001077   0.0044782   0.0022666   0.0081419
   25  -0.0053749   0.0030293   0.0009573   0.0009526   0.0005454   0.0001107
   26   0.0047482  -0.0019626  -0.0013061   0.0001951   0.0000200  -0.0004202
   27  -0.0037939   0.0022909   0.0002677  -0.0002688  -0.0002332  -0.0005734
   28  -0.0070579   0.0020507  -0.0062847  -0.0022025  -0.0003222  -0.0005710
   29  -0.0235087   0.0022419  -0.0052395   0.0054653  -0.0050938  -0.0011103
   30   0.0025401  -0.0039190   0.0053988   0.0053692  -0.0001154  -0.0010923
   31  -0.1101482   0.1126330   0.0152511  -0.0299895   0.0292486   0.0026699
   32   0.1170255  -0.2655634  -0.0204320   0.0023930   0.0072288  -0.0005082
   33   0.0108874  -0.0338898  -0.0444462   0.0017182   0.0025050  -0.0026856
   34   0.0271032   0.0353546  -0.0233721  -0.0412395  -0.0005348   0.0141497
   35   0.0449957   0.0160769  -0.0655609  -0.0685326   0.0159256   0.0235645
   36  -0.0117458  -0.0097651   0.0240272   0.0404488  -0.0118086  -0.0186301
   37  -0.0015516  -0.0008548  -0.0025049  -0.0004330   0.0006362   0.0016982
   38   0.0088373   0.0068154  -0.0035411  -0.0074538   0.0009056   0.0007177
   39  -0.0047390  -0.0040722  -0.0015374   0.0032029  -0.0015173   0.0011105
           19          20          21          22          23          24
    1  -0.3188840  -0.0396340   0.0553976   0.0107562   0.0193589  -0.0047041
    2  -0.0389178  -0.0614490   0.0020695  -0.0118092  -0.0161026   0.0062857
    3   0.0568509   0.0074207  -0.0498526  -0.0003218  -0.0031122   0.0039206
    4  -0.0082590  -0.0280946   0.0067305  -0.1358342   0.1264797   0.0178222
    5   0.0013579   0.0026537   0.0030407   0.1293820  -0.2618586  -0.0177331
    6   0.0024160   0.0056917   0.0040348   0.0162622  -0.0172722  -0.0316981
    7   0.0018384  -0.0004537   0.0020403  -0.0085911  -0.0037123   0.0010723
    8  -0.0022199  -0.0047633   0.0019605   0.0218047   0.0049162  -0.0069432
    9   0.0009826   0.0013236   0.0078155   0.0037525   0.0019445   0.0049513
   10   0.0006382   0.0008029   0.0017170  -0.0032869  -0.0006711  -0.0003348
   11   0.0002327  -0.0000232   0.0002022   0.0017782   0.0014705   0.0027363
   12   0.0002257  -0.0002207   0.0002570   0.0009493  -0.0005605  -0.0002104
   13   0.0015160   0.0043401   0.0022094  -0.0005008  -0.0021000  -0.0005314
   14   0.0028133  -0.0035350   0.0020682  -0.0013460  -0.0004080  -0.0021499
   15   0.0007956  -0.0009099   0.0021873  -0.0003552   0.0001702   0.0001077
   16  -0.0185244   0.0329125  -0.0021307   0.0008423  -0.0023500   0.0044782
   17   0.0071294   0.0005039   0.0002710  -0.0028565  -0.0041883   0.0022666
   18   0.0017437  -0.0060282  -0.0002907   0.0022243   0.0017238   0.0081419
   19   0.3427047   0.0303326  -0.0628056   0.0004028  -0.0003739  -0.0007740
   20   0.0303326   0.0663940  -0.0079200   0.0004414   0.0006579  -0.0004694
   21  -0.0628056  -0.0079200   0.0381367  -0.0012251  -0.0001204  -0.0044229
   22   0.0004028   0.0004414  -0.0012251   0.1376921  -0.1370893  -0.0198526
   23  -0.0003739   0.0006579  -0.0001204  -0.1370893   0.2745445   0.0174558
   24  -0.0007740  -0.0004694  -0.0044229  -0.0198526   0.0174558   0.0226409
   25  -0.0004878  -0.0014864   0.0004171   0.0011575   0.0004682  -0.0001093
   26   0.0000894  -0.0000670  -0.0001094  -0.0002068   0.0007183   0.0003604
   27   0.0000288   0.0003884  -0.0000614  -0.0001103  -0.0001948  -0.0003746
   28   0.0000289  -0.0000017   0.0002281  -0.0003068  -0.0000672  -0.0002931
   29  -0.0000038   0.0002058   0.0004973   0.0005309   0.0001277   0.0002543
   30   0.0000344   0.0000475  -0.0000108   0.0003846   0.0000370  -0.0000597
   31  -0.0005657   0.0011075   0.0001698   0.0001813   0.0002644  -0.0002178
   32  -0.0000696   0.0000575   0.0000706   0.0000838   0.0000465   0.0000893
   33   0.0000409   0.0002694   0.0001362  -0.0004859  -0.0003677  -0.0016142
   34  -0.0002896  -0.0001611  -0.0021979  -0.0022124  -0.0001702   0.0034860
   35  -0.0003237  -0.0007888  -0.0021701  -0.0009811   0.0000076  -0.0017476
   36   0.0005082   0.0003824   0.0021929  -0.0010037   0.0003541  -0.0012297
   37  -0.0001185  -0.0001055  -0.0005506  -0.0003000  -0.0000373  -0.0000415
   38  -0.0000466   0.0001533   0.0001398   0.0002680   0.0000683  -0.0004053
   39  -0.0000472   0.0000244  -0.0001221  -0.0002184  -0.0000576  -0.0001528
           25          26          27          28          29          30
    1  -0.0062140  -0.0000550   0.0025887  -0.0010018   0.0014376   0.0001363
    2   0.0011932   0.0022324  -0.0013914  -0.0013905   0.0037354   0.0036724
    3   0.0014673  -0.0007682   0.0014038   0.0003160  -0.0019894   0.0000569
    4  -0.0093495   0.0003966   0.0028609   0.0007359  -0.0034079  -0.0020342
    5  -0.0295366   0.0016036   0.0065698   0.0004831  -0.0020059  -0.0026480
    6   0.0001189   0.0000659   0.0002661  -0.0017531   0.0014750   0.0025386
    7  -0.1005675  -0.1058979  -0.0038020  -0.0065850   0.0141841   0.0070252
    8  -0.1056928  -0.2732686  -0.0063218  -0.0047494   0.0062476   0.0010941
    9  -0.0009969   0.0019999  -0.0367733  -0.0028595   0.0110405  -0.0055498
   10   0.0078532  -0.0066765   0.0119370  -0.2359926  -0.0215577  -0.1397984
   11   0.0126189  -0.0094739   0.0168335  -0.0190355  -0.0502681  -0.0112328
   12   0.0043614  -0.0053157   0.0020358  -0.1417597  -0.0103165  -0.1314732
   13  -0.0053749   0.0047482  -0.0037939  -0.0070579  -0.0235087   0.0025401
   14   0.0030293  -0.0019626   0.0022909   0.0020507   0.0022419  -0.0039190
   15   0.0009573  -0.0013061   0.0002677  -0.0062847  -0.0052395   0.0053988
   16   0.0009526   0.0001951  -0.0002688  -0.0022025   0.0054653   0.0053692
   17   0.0005454   0.0000200  -0.0002332  -0.0003222  -0.0050938  -0.0001154
   18   0.0001107  -0.0004202  -0.0005734  -0.0005710  -0.0011103  -0.0010923
   19  -0.0004878   0.0000894   0.0000288   0.0000289  -0.0000038   0.0000344
   20  -0.0014864  -0.0000670   0.0003884  -0.0000017   0.0002058   0.0000475
   21   0.0004171  -0.0001094  -0.0000614   0.0002281   0.0004973  -0.0000108
   22   0.0011575  -0.0002068  -0.0001103  -0.0003068   0.0005309   0.0003846
   23   0.0004682   0.0007183  -0.0001948  -0.0000672   0.0001277   0.0000370
   24  -0.0001093   0.0003604  -0.0003746  -0.0002931   0.0002543  -0.0000597
   25   0.1063787   0.1088584  -0.0030645   0.0007809  -0.0006388  -0.0005514
   26   0.1088584   0.2964545   0.0046772  -0.0000242   0.0004012   0.0000485
   27  -0.0030645   0.0046772   0.0341622   0.0003926  -0.0009772  -0.0001714
   28   0.0007809  -0.0000242   0.0003926   0.2418715   0.0229401   0.1509362
   29  -0.0006388   0.0004012  -0.0009772   0.0229401   0.0427014   0.0088365
   30  -0.0005514   0.0000485  -0.0001714   0.1509362   0.0088365   0.1413230
   31   0.0008632  -0.0009713   0.0008603   0.0002503   0.0008444  -0.0003742
   32   0.0012232  -0.0006931   0.0010711  -0.0002365  -0.0000220  -0.0002501
   33  -0.0009781   0.0010639   0.0006508  -0.0000332   0.0002548   0.0000452
   34   0.0034576  -0.0007975  -0.0068604   0.0086040   0.0040938  -0.0250358
   35   0.0091936  -0.0166957  -0.0243280  -0.0001615   0.0005139   0.0050210
   36  -0.0023089  -0.0002530  -0.0009668   0.0024059  -0.0028752  -0.0136064
   37   0.0005499   0.0003415  -0.0007684   0.0008751  -0.0003791   0.0013680
   38   0.0002244   0.0007309   0.0016155   0.0005148   0.0012149  -0.0005917
   39   0.0005765  -0.0000433   0.0001345  -0.0007245   0.0001496   0.0026011
           31          32          33          34          35          36
    1  -0.0035198  -0.0014145  -0.0009078   0.0033303  -0.0012451   0.0027006
    2  -0.0007428   0.0032899  -0.0023104  -0.0121423  -0.0377119   0.0225534
    3   0.0009716  -0.0012963   0.0105704  -0.0014635   0.0012701   0.0049241
    4  -0.0011805  -0.0008199  -0.0010729  -0.0095865   0.0307955  -0.0050517
    5   0.0003810   0.0005323   0.0000964   0.0186566   0.0128371  -0.0074605
    6  -0.0001331   0.0000422  -0.0004361   0.0214312  -0.0030134  -0.0008330
    7  -0.0018611  -0.0044573   0.0040472  -0.0829641   0.0354446   0.0915280
    8  -0.0046125  -0.0042268   0.0008462   0.0543386  -0.1243930  -0.0913258
    9   0.0000531  -0.0017994   0.0023386   0.0581388  -0.0446447  -0.0836536
   10   0.0088118   0.0085268   0.0057930  -0.0444023   0.0270322  -0.0735597
   11  -0.0162655  -0.0220322   0.0004635  -0.0098771   0.0227751   0.0290574
   12   0.0016914   0.0008667  -0.0020429   0.0219068   0.0404598  -0.2999138
   13  -0.1101482   0.1170255   0.0108874   0.0271032   0.0449957  -0.0117458
   14   0.1126330  -0.2655634  -0.0338898   0.0353546   0.0160769  -0.0097651
   15   0.0152511  -0.0204320  -0.0444462  -0.0233721  -0.0655609   0.0240272
   16  -0.0299895   0.0023930   0.0017182  -0.0412395  -0.0685326   0.0404488
   17   0.0292486   0.0072288   0.0025050  -0.0005348   0.0159256  -0.0118086
   18   0.0026699  -0.0005082  -0.0026856   0.0141497   0.0235645  -0.0186301
   19  -0.0005657  -0.0000696   0.0000409  -0.0002896  -0.0003237   0.0005082
   20   0.0011075   0.0000575   0.0002694  -0.0001611  -0.0007888   0.0003824
   21   0.0001698   0.0000706   0.0001362  -0.0021979  -0.0021701   0.0021929
   22   0.0001813   0.0000838  -0.0004859  -0.0022124  -0.0009811  -0.0010037
   23   0.0002644   0.0000465  -0.0003677  -0.0001702   0.0000076   0.0003541
   24  -0.0002178   0.0000893  -0.0016142   0.0034860  -0.0017476  -0.0012297
   25   0.0008632   0.0012232  -0.0009781   0.0034576   0.0091936  -0.0023089
   26  -0.0009713  -0.0006931   0.0010639  -0.0007975  -0.0166957  -0.0002530
   27   0.0008603   0.0010711   0.0006508  -0.0068604  -0.0243280  -0.0009668
   28   0.0002503  -0.0002365  -0.0000332   0.0086040  -0.0001615   0.0024059
   29   0.0008444  -0.0000220   0.0002548   0.0040938   0.0005139  -0.0028752
   30  -0.0003742  -0.0002501   0.0000452  -0.0250358   0.0050210  -0.0136064
   31   0.1357556  -0.1229401  -0.0162592   0.0012510   0.0008935  -0.0048015
   32  -0.1229401   0.2785087   0.0277843   0.0007303   0.0031332  -0.0059512
   33  -0.0162592   0.0277843   0.0303436  -0.0026984   0.0032848   0.0075958
   34   0.0012510   0.0007303  -0.0026984   0.2927192  -0.0856982  -0.2189498
   35   0.0008935   0.0031332   0.0032848  -0.0856982   0.1367784   0.0562421
   36  -0.0048015  -0.0059512   0.0075958  -0.2189498   0.0562421   0.6067476
   37   0.0001516  -0.0000449  -0.0000512  -0.1557709   0.0085870   0.1798295
   38   0.0001599  -0.0002595  -0.0000003  -0.0037927  -0.0284583   0.0208500
   39   0.0001186   0.0003130  -0.0004557   0.1614655   0.0116226  -0.2266541
           37          38          39
    1  -0.0016800   0.0012635  -0.0008038
    2   0.0004390  -0.0016851   0.0029449
    3   0.0003087  -0.0003564   0.0003461
    4  -0.0005881  -0.0037524  -0.0026295
    5  -0.0001890   0.0005050   0.0000150
    6   0.0024586  -0.0020383   0.0013383
    7  -0.0038977   0.0130177  -0.0015118
    8  -0.0076919   0.0019212  -0.0000247
    9   0.0010053  -0.0095488  -0.0025937
   10   0.0103450  -0.0059272   0.0158783
   11   0.0026115  -0.0014303   0.0017647
   12  -0.0121841   0.0042780  -0.0123375
   13  -0.0015516   0.0088373  -0.0047390
   14  -0.0008548   0.0068154  -0.0040722
   15  -0.0025049  -0.0035411  -0.0015374
   16  -0.0004330  -0.0074538   0.0032029
   17   0.0006362   0.0009056  -0.0015173
   18   0.0016982   0.0007177   0.0011105
   19  -0.0001185  -0.0000466  -0.0000472
   20  -0.0001055   0.0001533   0.0000244
   21  -0.0005506   0.0001398  -0.0001221
   22  -0.0003000   0.0002680  -0.0002184
   23  -0.0000373   0.0000683  -0.0000576
   24  -0.0000415  -0.0004053  -0.0001528
   25   0.0005499   0.0002244   0.0005765
   26   0.0003415   0.0007309  -0.0000433
   27  -0.0007684   0.0016155   0.0001345
   28   0.0008751   0.0005148  -0.0007245
   29  -0.0003791   0.0012149   0.0001496
   30   0.0013680  -0.0005917   0.0026011
   31   0.0001516   0.0001599   0.0001186
   32  -0.0000449  -0.0002595   0.0003130
   33  -0.0000512  -0.0000003  -0.0004557
   34  -0.1557709  -0.0037927   0.1614655
   35   0.0085870  -0.0284583   0.0116226
   36   0.1798295   0.0208500  -0.2266541
   37   0.1524183  -0.0033127  -0.1705675
   38  -0.0033127   0.0195187  -0.0111191
   39  -0.1705675  -0.0111191   0.2383228
 Gradient time:  CPU 547.90 s  wall 607.41 s
 **********************************************************************
 **                                                                  **
 **                       VIBRATIONAL ANALYSIS                       **
 **                       --------------------                       **
 **                                                                  **
 **        VIBRATIONAL FREQUENCIES (CM**-1) AND NORMAL MODES         **
 **     FORCE CONSTANTS (mDYN/ANGSTROM) AND REDUCED MASSES (AMU)     **
 **                  INFRARED INTENSITIES (KM/MOL)                   **
 **                                                                  **
 **********************************************************************
 

 Mode:                 1                      2                      3
 Frequency:      -597.91                 307.18                 350.61
 Force Cnst:      1.1472                 0.1728                 0.2018
 Red. Mass:       5.4466                 3.1080                 2.7863
 IR Active:          YES                    YES                    YES
 IR Intens:        7.456                  2.583                 17.150
 Raman Active:       YES                    YES                    YES
               X      Y      Z        X      Y      Z        X      Y      Z
 C          0.002  0.055  0.002   -0.014  0.004  0.181   -0.037 -0.003 -0.143
 C         -0.016 -0.021 -0.015   -0.044 -0.039 -0.169   -0.021  0.002 -0.099
 C          0.010  0.018 -0.027   -0.007 -0.015 -0.009    0.044  0.013  0.203
 C         -0.065 -0.130 -0.160   -0.040 -0.039  0.001    0.109 -0.068 -0.068
 C         -0.130 -0.191  0.378   -0.049 -0.025 -0.198    0.023 -0.015 -0.026
 N          0.047 -0.052 -0.031   -0.041  0.001  0.152    0.020  0.015  0.193
 H          0.023  0.024  0.070    0.015  0.043  0.347   -0.093 -0.021 -0.437
 H          0.008 -0.008  0.018   -0.081 -0.041 -0.398   -0.105 -0.020 -0.449
 H         -0.013  0.029  0.210   -0.055  0.007  0.147    0.071 -0.000  0.313
 H         -0.026 -0.183 -0.191   -0.189 -0.056  0.211    0.193 -0.159 -0.169
 H         -0.102 -0.187  0.363   -0.084 -0.012 -0.454   -0.033 -0.042 -0.090
 C          0.137  0.316 -0.173    0.205  0.094  0.019   -0.111  0.080 -0.004
 H          0.211  0.494 -0.099    0.337  0.270  0.127   -0.407 -0.067 -0.239
 TransDip   0.047 -0.050  0.054   -0.051  0.001 -0.003   -0.024 -0.016 -0.129

 Mode:                 4                      5                      6
 Frequency:       520.40                 548.99                 553.95
 Force Cnst:      0.2956                 0.4773                 0.8857
 Red. Mass:       1.8528                 2.6880                 4.8991
 IR Active:          YES                    YES                    YES
 IR Intens:       21.244                 13.955                  9.419
 Raman Active:       YES                    YES                    YES
               X      Y      Z        X      Y      Z        X      Y      Z
 C         -0.027 -0.044 -0.110   -0.127 -0.063 -0.055   -0.216  0.043  0.010
 C          0.084 -0.037  0.089    0.029 -0.097  0.109   -0.180  0.010  0.081
 C          0.034  0.020 -0.006    0.022  0.025 -0.086   -0.128 -0.252  0.057
 C         -0.022  0.047 -0.036    0.116  0.040 -0.050    0.233 -0.050 -0.066
 C         -0.040  0.059 -0.037   -0.081  0.081 -0.006    0.086  0.044  0.032
 N         -0.057 -0.050  0.131   -0.099 -0.029  0.058    0.069  0.249 -0.056
 H         -0.068  0.038 -0.272   -0.146  0.002 -0.108   -0.208 -0.194 -0.063
 H          0.090 -0.041  0.177    0.106 -0.067  0.324   -0.006  0.131 -0.053
 H          0.014  0.025 -0.106   -0.115  0.090 -0.051   -0.215 -0.213 -0.103
 H          0.010 -0.011 -0.078   -0.030  0.055  0.163    0.212  0.045 -0.049
 H         -0.001  0.071  0.084   -0.088  0.076  0.006   -0.124 -0.081  0.069
 C         -0.010 -0.044 -0.068    0.212  0.077  0.031    0.128 -0.104 -0.041
 H          0.529  0.600  0.369   -0.390 -0.519 -0.455    0.292  0.529  0.101
 TransDip  -0.021  0.100  0.107   -0.027 -0.004 -0.117   -0.077 -0.018  0.059

 Mode:                 7                      8                      9
 Frequency:       674.81                 718.64                 755.66
 Force Cnst:      1.1373                 0.6170                 0.5197
 Red. Mass:       4.2390                 2.0278                 1.5449
 IR Active:          YES                    YES                    YES
 IR Intens:        1.403                  6.538                 55.248
 Raman Active:       YES                    YES                    YES
               X      Y      Z        X      Y      Z        X      Y      Z
 C          0.078  0.051 -0.188   -0.005 -0.013 -0.029   -0.033 -0.006 -0.035
 C         -0.081  0.190  0.106   -0.017 -0.021 -0.130   -0.027 -0.029 -0.115
 C         -0.155 -0.018 -0.148   -0.028  0.076 -0.084    0.044 -0.056  0.095
 C         -0.121 -0.125  0.019    0.154 -0.087  0.054   -0.060  0.024 -0.023
 C          0.100 -0.174 -0.112   -0.012 -0.008  0.006    0.021  0.069 -0.018
 N          0.114  0.050  0.182   -0.033 -0.007  0.008    0.019  0.022  0.022
 H          0.091 -0.073 -0.185    0.059  0.046  0.334    0.055 -0.010  0.412
 H         -0.004  0.194  0.609    0.105 -0.005  0.541    0.186  0.036  0.645
 H          0.024 -0.096  0.017   -0.123  0.121 -0.265    0.093 -0.085  0.398
 H         -0.313  0.052  0.265    0.353 -0.283 -0.196   -0.084  0.022  0.007
 H          0.050 -0.220 -0.019   -0.071 -0.037 -0.053    0.049  0.052  0.285
 C          0.065  0.041  0.057   -0.075  0.047  0.131    0.000 -0.010 -0.076
 H         -0.083 -0.126 -0.063   -0.063  0.326  0.153    0.104 -0.219 -0.002
 TransDip  -0.001 -0.026 -0.028    0.065  0.018  0.047    0.037 -0.015  0.235

 Mode:                10                     11                     12
 Frequency:       810.50                 879.53                 902.73
 Force Cnst:      0.5395                 2.0785                 0.6194
 Red. Mass:       1.3939                 4.5604                 1.2901
 IR Active:          YES                    YES                    YES
 IR Intens:       12.975                  4.198                  2.088
 Raman Active:       YES                    YES                    YES
               X      Y      Z        X      Y      Z        X      Y      Z
 C          0.027  0.023 -0.009   -0.086 -0.060  0.022    0.030 -0.018  0.016
 C          0.101 -0.041 -0.039    0.165 -0.229  0.030   -0.006  0.008  0.030
 C         -0.023 -0.117  0.006    0.030 -0.058 -0.175   -0.017 -0.000 -0.022
 C          0.002  0.026  0.042   -0.157 -0.123  0.125   -0.015 -0.075  0.016
 C         -0.001 -0.001 -0.003    0.032  0.083  0.013   -0.003  0.090 -0.084
 N         -0.016  0.003 -0.002    0.114  0.256  0.017    0.002 -0.001 -0.004
 H          0.027  0.116  0.027   -0.143 -0.097 -0.287    0.041 -0.032  0.064
 H          0.220  0.023  0.028    0.313 -0.132 -0.123   -0.100 -0.026 -0.255
 H         -0.042 -0.106 -0.112   -0.113  0.003  0.255    0.012 -0.013 -0.074
 H         -0.264  0.273  0.383    0.054 -0.230 -0.176   -0.004 -0.420  0.045
 H         -0.010 -0.011  0.055   -0.108  0.039 -0.319    0.063  0.024  0.827
 C         -0.044  0.036 -0.002   -0.130  0.152  0.002    0.014  0.029  0.004
 H         -0.443  0.544 -0.299    0.132 -0.329  0.209   -0.088  0.075 -0.072
 TransDip  -0.078  0.085 -0.006   -0.008 -0.038 -0.053    0.041  0.018 -0.010

 Mode:                13                     14                     15
 Frequency:       957.85                 964.12                 985.26
 Force Cnst:      0.7555                 0.8139                 1.2454
 Red. Mass:       1.3977                 1.4861                 2.1775
 IR Active:          YES                    YES                    YES
 IR Intens:        1.646                  7.238                 35.140
 Raman Active:       YES                    YES                    YES
               X      Y      Z        X      Y      Z        X      Y      Z
 C         -0.038  0.013 -0.140    0.013  0.015  0.061   -0.001 -0.081 -0.012
 C          0.054 -0.017  0.080    0.056 -0.020 -0.026    0.002 -0.063  0.005
 C         -0.030 -0.015 -0.002   -0.081  0.011 -0.031    0.040  0.199 -0.005
 C          0.011  0.023  0.003    0.078 -0.005 -0.041    0.044 -0.063 -0.094
 C          0.009 -0.037 -0.008    0.039 -0.066 -0.050   -0.026 -0.035  0.024
 N         -0.007  0.000  0.012   -0.074 -0.006 -0.015    0.027  0.137 -0.014
 H          0.145  0.105  0.818   -0.064  0.132 -0.261    0.042 -0.144  0.181
 H          0.007 -0.003 -0.433    0.112  0.011 -0.006   -0.310 -0.257  0.015
 H         -0.080  0.007  0.058   -0.069 -0.001  0.413    0.173  0.138  0.210
 H          0.071  0.162 -0.101    0.057  0.562 -0.084   -0.428  0.153  0.536
 H         -0.016 -0.053 -0.001   -0.060 -0.181  0.445   -0.157 -0.118  0.078
 C         -0.014  0.022  0.018   -0.033  0.042  0.043   -0.028 -0.115  0.013
 H          0.066 -0.102  0.080    0.198 -0.174  0.222   -0.052  0.212 -0.006
 TransDip   0.025 -0.022  0.024    0.036  0.035  0.070   -0.113 -0.058  0.141

 Mode:                16                     17                     18
 Frequency:      1016.87                1027.13                1058.15
 Force Cnst:      2.1966                 1.2229                 0.9891
 Red. Mass:       3.6055                 1.9674                 1.4994
 IR Active:          YES                    YES                    YES
 IR Intens:        1.682                  6.263                  2.646
 Raman Active:       YES                    YES                    YES
               X      Y      Z        X      Y      Z        X      Y      Z
 C          0.289 -0.007 -0.057    0.010 -0.013 -0.011   -0.021 -0.003  0.001
 C          0.070 -0.041 -0.015   -0.050  0.082  0.031   -0.019  0.031 -0.002
 C         -0.240 -0.074  0.096    0.011 -0.046 -0.145    0.030 -0.024  0.037
 C          0.020 -0.041 -0.129    0.070 -0.080  0.025    0.083 -0.081 -0.002
 C         -0.114  0.156  0.073    0.019  0.151  0.063    0.024  0.038  0.012
 N         -0.023  0.056 -0.002   -0.031 -0.098 -0.006   -0.009 -0.041  0.000
 H          0.276  0.209 -0.072    0.024 -0.032  0.060   -0.016 -0.025  0.025
 H         -0.133 -0.195  0.074   -0.085  0.080 -0.123    0.051  0.079 -0.024
 H         -0.503  0.033  0.085    0.313 -0.189  0.755   -0.046  0.021 -0.506
 H         -0.087 -0.238  0.044   -0.044  0.022  0.174   -0.309  0.098  0.521
 H         -0.161  0.182 -0.302    0.024  0.195 -0.278   -0.003  0.026 -0.039
 C          0.041 -0.036  0.039   -0.041  0.001 -0.007   -0.087  0.102 -0.065
 H          0.142 -0.259  0.115   -0.009  0.164  0.020    0.327 -0.376  0.243
 TransDip   0.001 -0.036  0.021   -0.006  0.054  0.059    0.012  0.045  0.022

 Mode:                19                     20                     21
 Frequency:      1105.39                1185.10                1212.13
 Force Cnst:      1.3464                 1.4443                 1.1858
 Red. Mass:       1.8703                 1.7455                 1.3699
 IR Active:          YES                    YES                    YES
 IR Intens:        4.195                  4.745                  8.728
 Raman Active:       YES                    YES                    YES
               X      Y      Z        X      Y      Z        X      Y      Z
 C         -0.124  0.069  0.027    0.002 -0.080  0.008   -0.053  0.078  0.001
 C          0.073 -0.002 -0.017    0.012  0.041 -0.013    0.007 -0.056  0.003
 C         -0.087  0.086  0.016    0.010 -0.010  0.029   -0.003 -0.015  0.009
 C         -0.021 -0.023 -0.103   -0.070 -0.072 -0.131   -0.042 -0.064 -0.062
 C          0.065  0.002  0.022   -0.051  0.072  0.010    0.066  0.034  0.005
 N          0.063 -0.077 -0.015    0.019  0.008 -0.004    0.016 -0.020 -0.007
 H         -0.134  0.094 -0.014    0.049 -0.440  0.055   -0.111  0.592 -0.009
 H          0.529  0.294 -0.119    0.322  0.243 -0.091   -0.442 -0.349  0.123
 H         -0.294  0.173  0.169    0.388 -0.180 -0.295    0.287 -0.148 -0.188
 H         -0.206 -0.380  0.196   -0.023  0.426 -0.284   -0.041  0.136 -0.102
 H          0.337  0.160 -0.058    0.002  0.112  0.004    0.271  0.155 -0.032
 C          0.003 -0.073  0.054    0.021  0.021  0.145    0.012  0.012  0.065
 H         -0.025  0.029  0.038   -0.082  0.048  0.089   -0.028  0.017  0.045
 TransDip  -0.010  0.052  0.038    0.030  0.017 -0.061    0.042  0.076 -0.037

 Mode:                22                     23                     24
 Frequency:      1292.04                1344.22                1368.84
 Force Cnst:      1.7447                 3.9991                 1.6657
 Red. Mass:       1.7738                 3.7564                 1.5088
 IR Active:          YES                    YES                    YES
 IR Intens:        7.541                  3.492                  6.969
 Raman Active:       YES                    YES                    YES
               X      Y      Z        X      Y      Z        X      Y      Z
 C          0.005 -0.010  0.004    0.010 -0.192  0.009    0.018 -0.013 -0.002
 C          0.004 -0.027  0.001    0.050  0.037 -0.024    0.032  0.029 -0.007
 C         -0.034 -0.061 -0.035   -0.161  0.111  0.067    0.039 -0.048 -0.015
 C          0.048  0.187 -0.086   -0.052 -0.047  0.059    0.002  0.010 -0.033
 C         -0.022 -0.071 -0.001    0.266  0.018  0.080    0.045 -0.071  0.022
 N          0.004  0.020 -0.003   -0.210  0.065 -0.006   -0.140  0.073  0.005
 H         -0.003  0.019 -0.022   -0.050  0.311  0.067    0.064 -0.421  0.028
 H          0.044 -0.007 -0.006    0.260  0.173 -0.084   -0.188 -0.114  0.035
 H          0.582 -0.348  0.024    0.527 -0.195 -0.208   -0.172  0.048  0.052
 H         -0.103 -0.573  0.221    0.072 -0.214 -0.080   -0.029 -0.097  0.023
 H         -0.096 -0.121  0.017   -0.148 -0.189 -0.171    0.753  0.337 -0.012
 C         -0.047  0.054  0.084    0.077  0.004 -0.126   -0.009  0.027  0.016
 H          0.074 -0.108  0.194   -0.003  0.024 -0.217    0.003  0.007  0.032
 TransDip   0.020 -0.086 -0.001    0.057  0.010 -0.016    0.039 -0.072  0.020

 Mode:                25                     26                     27
 Frequency:      1438.26                1455.83                1591.27
 Force Cnst:      2.1681                 2.7414                 6.9439
 Red. Mass:       1.7789                 2.1953                 4.6544
 IR Active:          YES                    YES                    YES
 IR Intens:        0.358                  1.573                 19.941
 Raman Active:       YES                    YES                    YES
               X      Y      Z        X      Y      Z        X      Y      Z
 C          0.083 -0.117 -0.013   -0.006 -0.031  0.005    0.145  0.320 -0.053
 C         -0.164 -0.033  0.037   -0.007  0.061  0.002   -0.220 -0.317  0.072
 C          0.101 -0.013 -0.022    0.147 -0.082 -0.026    0.035  0.071 -0.006
 C          0.003  0.006 -0.027   -0.083  0.032 -0.125   -0.025 -0.029 -0.012
 C         -0.037 -0.036 -0.003    0.172  0.045  0.031    0.144  0.039  0.002
 N         -0.009  0.064  0.000   -0.067 -0.021 -0.007   -0.131 -0.024  0.014
 H         -0.012  0.725 -0.026   -0.021  0.027  0.022    0.281 -0.514 -0.061
 H          0.381  0.325 -0.118   -0.190 -0.045  0.027    0.462  0.076 -0.110
 H         -0.123  0.096  0.041   -0.523  0.222  0.037    0.230 -0.016 -0.085
 H         -0.037  0.047  0.018   -0.165 -0.164 -0.029   -0.054  0.017  0.009
 H          0.287  0.148  0.036   -0.560 -0.369 -0.005   -0.113 -0.107 -0.046
 C         -0.015  0.003  0.028   -0.014  0.020  0.109    0.008 -0.014  0.006
 H         -0.019  0.041  0.035   -0.088  0.082  0.090   -0.015  0.053 -0.012
 TransDip   0.018  0.001 -0.006    0.009  0.006 -0.039    0.122  0.061 -0.043

 Mode:                28                     29                     30
 Frequency:      3128.46                3158.93                3165.92
 Force Cnst:      6.2647                 6.3993                 6.4480
 Red. Mass:       1.0864                 1.0884                 1.0919
 IR Active:          YES                    YES                    YES
 IR Intens:       13.647                 13.891                 27.267
 Raman Active:       YES                    YES                    YES
               X      Y      Z        X      Y      Z        X      Y      Z
 C          0.000  0.001 -0.000    0.003  0.002 -0.001   -0.001 -0.001  0.000
 C         -0.002  0.006  0.000   -0.000  0.000  0.000   -0.001  0.001  0.000
 C         -0.036 -0.076  0.000   -0.001 -0.004 -0.001    0.000 -0.006  0.000
 C          0.005  0.001  0.003   -0.028 -0.003 -0.021   -0.064 -0.006 -0.046
 C         -0.002  0.003  0.000    0.039 -0.067 -0.007   -0.015  0.032  0.003
 N          0.000 -0.000 -0.000    0.000 -0.000 -0.000   -0.000  0.000 -0.000
 H         -0.008 -0.002  0.001   -0.050 -0.006  0.010    0.018  0.002 -0.003
 H          0.045 -0.076 -0.005    0.005 -0.009 -0.001    0.009 -0.015 -0.002
 H          0.410  0.900  0.011    0.021  0.049  0.000    0.019  0.049 -0.002
 H         -0.058 -0.008 -0.045    0.327  0.027  0.237    0.733  0.071  0.524
 H          0.013 -0.023 -0.002   -0.449  0.783  0.091    0.199 -0.353 -0.042
 C          0.001 -0.001 -0.001    0.000  0.001 -0.000    0.003 -0.001 -0.003
 H         -0.010 -0.000  0.018   -0.010 -0.001  0.016   -0.047 -0.000  0.066
 TransDip  -0.055 -0.105  0.004    0.030 -0.112 -0.030   -0.139  0.034 -0.087

 Mode:                31                     32                     33
 Frequency:      3184.21                3208.35                3255.89
 Force Cnst:      6.4938                 6.6521                 6.8522
 Red. Mass:       1.0870                 1.0968                 1.0971
 IR Active:          YES                    YES                    YES
 IR Intens:        9.992                 22.710                  0.093
 Raman Active:       YES                    YES                    YES
               X      Y      Z        X      Y      Z        X      Y      Z
 C         -0.074 -0.010  0.015    0.041  0.009 -0.009    0.000 -0.000 -0.000
 C          0.021 -0.030 -0.003    0.038 -0.069 -0.005   -0.001  0.002  0.000
 C         -0.002 -0.004 -0.000   -0.005 -0.006  0.001   -0.002  0.005  0.001
 C         -0.001  0.000 -0.000   -0.001  0.000 -0.000    0.007 -0.000  0.008
 C          0.003 -0.004 -0.000   -0.001  0.002  0.000    0.000 -0.001 -0.001
 N         -0.001  0.001 -0.000   -0.001  0.000  0.000   -0.000 -0.000  0.000
 H          0.865  0.096 -0.172   -0.436 -0.053  0.087    0.000  0.000 -0.000
 H         -0.239  0.378  0.035   -0.465  0.751  0.066    0.009 -0.015 -0.001
 H          0.020  0.043 -0.000    0.034  0.065 -0.001   -0.008 -0.024  0.001
 H          0.007 -0.001  0.005    0.007  0.001  0.005   -0.061 -0.003 -0.040
 H         -0.023  0.040  0.005    0.012 -0.020 -0.003   -0.006  0.015 -0.001
 C          0.000  0.000 -0.001    0.001 -0.000 -0.001    0.053 -0.001 -0.072
 H         -0.005 -0.001  0.008   -0.012 -0.001  0.015   -0.613 -0.022  0.780
 TransDip  -0.096 -0.022  0.022    0.126 -0.084 -0.022   -0.005 -0.005 -0.007

 STANDARD THERMODYNAMIC QUANTITIES AT   298.15 K  AND     1.00 ATM

   This Molecule has  1 Imaginary Frequencies
   Zero point vibrational energy:       63.083 kcal/mol

   Atom    1 Element C  Has Mass   12.00000
   Atom    2 Element C  Has Mass   12.00000
   Atom    3 Element C  Has Mass   12.00000
   Atom    4 Element C  Has Mass   12.00000
   Atom    5 Element C  Has Mass   12.00000
   Atom    6 Element N  Has Mass   14.00307
   Atom    7 Element H  Has Mass    1.00783
   Atom    8 Element H  Has Mass    1.00783
   Atom    9 Element H  Has Mass    1.00783
   Atom   10 Element H  Has Mass    1.00783
   Atom   11 Element H  Has Mass    1.00783
   Atom   12 Element C  Has Mass   12.00000
   Atom   13 Element H  Has Mass    1.00783
   Molecular Mass:    92.050050 amu
   Principal axes and moments of inertia in amu*Bohr^2:
                             1           2           3
    Eigenvalues --      365.24095   485.20657   732.47649
          X               0.94781    -0.23469     0.21581
          Y               0.20368     0.96645     0.15648
          Z              -0.24530    -0.10435     0.96382
   Rotational Symmetry Number is   1
   The Molecule is an Asymmetric Top
   Translational Enthalpy:        0.889 kcal/mol
   Rotational Enthalpy:           0.889 kcal/mol
   Vibrational Enthalpy:         64.458 kcal/mol
   gas constant (RT):             0.592 kcal/mol
   Translational Entropy:        39.471  cal/mol.K
   Rotational Entropy:           26.365  cal/mol.K
   Vibrational Entropy:           6.406  cal/mol.K

   Total Enthalpy:               66.828 kcal/mol
   Total Entropy:                72.242  cal/mol.K
Archival summary:
1\1\c8-89\FREQ\ProcedureUnspecified\6-31+G**\166(2)\hpark21\TueMar118:18:262022TueMar118:18:262022\0\\#,FREQ,ProcedureUnspecified,6-31+G**,\\0,2\N\C,1,1.32748\H,2,1.08921,1,116.431\C,1,1.37521,2,117.808,3,177.495,0\H,4,1.08657,1,115.481,2,169.556,0\C,4,1.35937,1,122.542,2,-13.2828,0\H,6,1.08549,4,121.73,1,179.232,0\C,6,1.48217,4,118.48,1,1.48241,0\H,8,1.09048,6,116.158,4,168.909,0\C,8,1.48549,6,124.171,4,-38.434,0\H,10,1.0804,8,136.723,6,-129.956,0\C,10,1.45039,8,63.5939,6,100.579,0\H,12,1.08702,10,130.634,8,115.557,0\\\@

 Total job time:  630.83s(wall), 554.88s(cpu) 
 Tue Mar  1 18:18:26 2022

        *************************************************************
        *                                                           *
        *  Thank you very much for using Q-Chem.  Have a nice day.  *
        *                                                           *
        *************************************************************


