
Running Job 1 of 1 qcts1.in
qchem qcts1.in_41556.0 ./qcts1.d/ 1
/home/leeping/opt/qchem/5.0.2-openmp/exe/qcprog.exe_s qcts1.in_41556.0 ./qcts1.d/
Check license passed

                  Welcome to Q-Chem
     A Quantum Leap Into The Future Of Chemistry


 Q-Chem 5.0, Q-Chem, Inc., Pleasanton, CA (2017)

 Yihan Shao,  Zhengting Gan,  E. Epifanovsky,  A. T. B. Gilbert,  M. Wormit,  
 J. Kussmann,  A. W. Lange,  A. Behn,  Jia Deng,  Xintian Feng,  D. Ghosh,  
 M. Goldey,  P. R. Horn,  L. D. Jacobson,  I. Kaliman,  T. Kus,  A. Landau,  
 Jie Liu,  E. I. Proynov,  R. M. Richard,  R. P. Steele,  E. J. Sundstrom,  
 H. L. Woodcock III,  P. M. Zimmerman,  D. Zuev,  B. Albrecht,  E. Alguire,  
 S. A. Baeppler,  D. Barton,  Z. Benda,  Y. A. Bernard,  E. J. Berquist,  
 K. B. Bravaya,  H. Burton,  D. Casanova,  Chun-Min Chang,  Yunqing Chen,  
 A. Chien,  K. D. Closser,  M. P. Coons,  S. Dasgupta,  A. L. Dempwolff,  
 M. Diedenhofen,  Hainam Do,  R. G. Edgar,  Po-Tung Fang,  S. Fatehi,  
 Qingguo Feng,  J. Fosso-Tande,  Qinghui Ge,  A. Ghysels,  G. Gidofalvi,  
 J. Gomes,  J. Gonthier,  A. Gunina,  M. W. D. Hanson-Heine,  
 P. H. P. Harbach,  A. W. Hauser,  J. E. Herr,  E. G. Hohenstein,  
 Z. C. Holden,  Kerwin Hui,  T.-C. Jagau,  Hyunjun Ji,  B. Kaduk,  
 K. Khistyaev,  Jaehoon Kim,  P. Klunzinger,  K. Koh,  D. Kosenkov,  
 L. Koulias,  T. Kowalczyk,  C. M. Krauter,  A. Kunitsa,  Ka Un Lao,  
 A. Laurent,  K. V. Lawler,  Joonho Lee,  D. Lefrancois,  S. Lehtola,  
 D. S. Levine,  Yi-Pei Li,  You-Sheng Lin,  Fenglai Liu,  E. Livshits,  
 A. Luenser,  P. Manohar,  E. Mansoor,  S. F. Manzer,  Shan-Ping Mao,  
 Yuezhi Mao,  N. Mardirossian,  A. V. Marenich,  T. Markovich,  
 L. A. Martinez-Martinez,  S. A. Maurer,  N. J. Mayhall,  S. C. McKenzie,  
 J.-M. Mewes,  A. F. Morrison,  J. W. Mullinax,  K. Nanda,  
 T. S. Nguyen-Beck,  R. Olivares-Amaya,  J. A. Parkhill,  T. M. Perrine,  
 F. Plasser,  S. Prager,  A. Prociuk,  E. Ramos,  D. R. Rehn,  F. Rob,  
 M. Schneider,  N. Sergueev,  S. M. Sharada,  S. Sharma,  D. W. Small,  
 T. Stauch,  T. Stein,  Yu-Chuan Su,  A. J. W. Thom,  A. Tkatchenko,  
 T. Tsuchimochi,  L. Vogt,  O. Vydrov,  M. A. Watson,  J. Wenzel,  
 M. de Wergifosse,  T. A. Wesolowski,  A. White,  J. Witte,  A. Yamada,  
 Jun Yang,  K. Yao,  S. Yeganeh,  S. R. Yost,  Zhi-Qiang You,  A. Zech,  
 Igor Ying Zhang,  Xing Zhang,  Yan Zhao,  Ying Zhu,  B. R. Brooks,  
 G. K. L. Chan,  C. J. Cramer,  M. S. Gordon,  W. J. Hehre,  A. Klamt,  
 M. W. Schmidt,  C. D. Sherrill,  D. G. Truhlar,  A. Aspuru-Guzik,  R. Baer,  
 A. T. Bell,  N. A. Besley,  Jeng-Da Chai,  R. A. DiStasio Jr.,  A. Dreuw,  
 B. D. Dunietz,  T. R. Furlani,  Chao-Ping Hsu,  Yousung Jung,  Jing Kong,  
 D. S. Lambrecht,  WanZhen Liang,  C. Ochsenfeld,  V. A. Rassolov,  
 L. V. Slipchenko,  J. E. Subotnik,  T. Van Voorhis,  J. M. Herbert,  
 A. I. Krylov,  P. M. W. Gill,  M. Head-Gordon

 Contributors to earlier versions of Q-Chem not listed above: 
 R. D. Adamson,  B. Austin,  J. Baker,  G. J. O. Beran,  K. Brandhorst,  
 S. T. Brown,  E. F. C. Byrd,  A. K. Chakraborty,  C.-L. Cheng,  
 Siu Hung Chien,  D. M. Chipman,  D. L. Crittenden,  H. Dachsel,  
 R. J. Doerksen,  A. D. Dutoi,  L. Fusti-Molnar,  W. A. Goddard III,  
 A. Golubeva-Zadorozhnaya,  S. R. Gwaltney,  G. Hawkins,  A. Heyden,  
 S. Hirata,  G. Kedziora,  F. J. Keil,  C. Kelley,  Jihan Kim,  R. A. King,  
 R. Z. Khaliullin,  P. P. Korambath,  W. Kurlancheek,  A. M. Lee,  M. S. Lee,  
 S. V. Levchenko,  Ching Yeh Lin,  D. Liotard,  R. C. Lochan,  I. Lotan,  
 P. E. Maslen,  N. Nair,  D. P. O'Neill,  D. Neuhauser,  E. Neuscamman,  
 C. M. Oana,  R. Olson,  B. Peters,  R. Peverati,  P. A. Pieniazek,  
 Y. M. Rhee,  J. Ritchie,  M. A. Rohrdanz,  E. Rosta,  N. J. Russ,  
 H. F. Schaefer III,  N. E. Schultz,  N. Shenvi,  A. C. Simmonett,  A. Sodt,  
 D. Stuck,  K. S. Thanthiriwatte,  V. Vanovschi,  Tao Wang,  A. Warshel,  
 C. F. Williams,  Q. Wu,  X. Xu,  W. Zhang

 Please cite Q-Chem as follows:
 Y. Shao et al., Mol. Phys. 113, 184-215 (2015)
 DOI: 10.1080/00268976.2014.952696

 Q-Chem 5.0.2 for Intel X86 EM64T Linux

 Parts of Q-Chem use Armadillo 5.200.1 (Boston Tea Smuggler).
 http://arma.sourceforge.net/

 Q-Chem begins on Tue Mar  1 17:18:25 2022  

Host: 
0

     Scratch files written to ./qcts1.d//
 Dec517 15110_ 26548  26544 5633   
Processing $rem in /home/leeping/opt/qchem/5.0.2-openmp/config/preferences.
 MEM_STATIC 2000
 MEM_TOTAL  8000
 SYMMETRY   OFF
 SYM_IGNORE TRUE 

Checking the input file for inconsistencies... 	...done.

--------------------------------------------------------------
User input:
--------------------------------------------------------------
$molecule
0 2
C        1.6927699040    0.2588535677   -0.2991790499
C        1.1312906710   -0.9537918318   -0.1373054878
C       -0.3221313649   -1.0826897546    0.1334254348
C       -1.1721837208    0.1004379750   -0.3303298763
C       -0.3178723563    1.4206300636   -0.2916302864
N        0.9814877577    1.4530614821   -0.2498698001
H        2.7614700359    0.3676429660   -0.4659432616
H        1.7305500778   -1.8474385820   -0.3062396812
H       -0.7066697084   -2.0876506513   -0.0752902777
H       -2.1530331945   -0.1426144045   -0.7528279630
H       -0.8003756700    2.4069987973   -0.2119196833
C       -1.0304595856   -0.0652618429    1.1042055834
H       -1.8140786945    0.1615804647    1.8246887820
$end

$rem
method                b3lyp
basis                 6-31g(d)
unrestricted          true
symmetry              off
sym_ignore            true
incdft                false
incfock               0
scf_convergence       8
thresh                14
jobtype               freq
scf_guess             read
scf_algorithm         diis
max_scf_cycles        100
$end

--------------------------------------------------------------
 ----------------------------------------------------------------
             Standard Nuclear Orientation (Angstroms)
    I     Atom           X                Y                Z
 ----------------------------------------------------------------
    1      C       1.6927699040     0.2588535677    -0.2991790499
    2      C       1.1312906710    -0.9537918318    -0.1373054878
    3      C      -0.3221313649    -1.0826897546     0.1334254348
    4      C      -1.1721837208     0.1004379750    -0.3303298763
    5      C      -0.3178723563     1.4206300636    -0.2916302864
    6      N       0.9814877577     1.4530614821    -0.2498698001
    7      H       2.7614700359     0.3676429660    -0.4659432616
    8      H       1.7305500778    -1.8474385820    -0.3062396812
    9      H      -0.7066697084    -2.0876506513    -0.0752902777
   10      H      -2.1530331945    -0.1426144045    -0.7528279630
   11      H      -0.8003756700     2.4069987973    -0.2119196833
   12      C      -1.0304595856    -0.0652618429     1.1042055834
   13      H      -1.8140786945     0.1615804647     1.8246887820
 ----------------------------------------------------------------
 Nuclear Repulsion Energy =   270.3485392803 hartrees
 There are       25 alpha and       24 beta electrons
 Requested basis set is 6-31G(d)
 There are 40 shells and 117 basis functions

 Total QAlloc Memory Limit   8000 MB
 Mega-Array Size      1956 MB
 MEM_STATIC part      2000 MB

                       Distance Matrix (Angstroms)
             C (  1)   C (  2)   C (  3)   C (  4)   C (  5)   N (  6)
   C (  2)  1.346095
   C (  3)  2.459006  1.484030
   C (  4)  2.869499  2.540601  1.528872
   C (  5)  2.322168  2.785995  2.539154  1.572976
   N (  6)  1.390858  2.414136  2.876869  2.544477  1.300435
   H (  7)  1.087090  2.124071  3.459957  3.945050  3.259067  2.095986
   H (  8)  2.106643  1.089153  2.234199  3.495807  3.857009  3.384904
   H (  9)  3.363557  2.160458  1.096074  2.251551  3.536382  3.926448
   H ( 10)  3.893222  3.438555  2.240845  1.095283  2.454435  3.553079
   H ( 11)  3.292099  3.877089  3.539196  2.339334  1.100948  2.021503
   C ( 12)  3.080668  2.646507  1.574580  1.451011  2.159633  2.861251
   H ( 13)  4.101008  3.710617  2.575750  2.249416  2.881431  3.713073
             H (  7)   H (  8)   H (  9)   H ( 10)   H ( 11)   C ( 12)
   H (  8)  2.448446
   H (  9)  4.267209  2.459894
   H ( 10)  4.949243  4.264749  2.516782
   H ( 11)  4.112207  4.951234  4.497702  2.936459
   C ( 12)  4.126924  3.576127  2.363495  2.171343  2.810195
   H ( 13)  5.121045  4.597979  3.145682  2.617445  3.196447  1.088399

 
 A cutoff of  1.0D-14 yielded    807 shell pairs
 There are      7079 function pairs
 Smallest overlap matrix eigenvalue = 1.22E-03
 Guess MOs from SCF MO coefficient file
 Reading MOs from coefficient file
 Reading MOs from coefficient file
 An unrestricted hybrid HF-DFT SCF calculation will be
 performed using Pulay DIIS extrapolation
 Exchange:     0.2000 Hartree-Fock + 0.0800 Slater + 0.7200 B88
 Correlation:  0.1900 VWN1RPA + 0.8100 LYP
 Using SG-1 standard quadrature grid
 SCF converges when DIIS error is below 1.0E-08
Using Q-Chem read-in guess as SCF_GUESS READ specified.

 -------------------------------------------------------
 OpenMP BLAS3 based DFT computing Module                
 -------------------------------------------------------
 ---------------------------------------
  Cycle       Energy         DIIS Error
 ---------------------------------------
    1    -286.8132222035      5.97E-10
    2    -286.8132222035      1.06E-09 Convergence criterion met
 ---------------------------------------
 <S^2> = 0.7794
 SCF time:  CPU 3.32 s  wall 10.50 s
 SCF   energy in the final basis set = -286.81322220
 Total energy in the final basis set = -286.81322220
 
 --------------------------------------------------------------
 
                    Orbital Energies (a.u.)
 --------------------------------------------------------------
 
 Alpha MOs
 -- Occupied --
-14.326 -10.249 -10.231 -10.218 -10.216 -10.204 -10.192  -0.940
 -0.866  -0.766  -0.650  -0.627  -0.577  -0.531  -0.496  -0.483
 -0.446  -0.418  -0.384  -0.371  -0.336  -0.303  -0.257  -0.240
 -0.191
 -- Virtual --
 -0.029   0.060   0.087   0.112   0.127   0.139   0.152   0.164
  0.185   0.211   0.234   0.248   0.278   0.328   0.397   0.439
  0.502   0.512   0.533   0.546   0.560   0.576   0.597   0.610
  0.631   0.649   0.652   0.667   0.690   0.709   0.750   0.797
  0.819   0.846   0.856   0.856   0.876   0.893   0.917   0.926
  0.966   0.993   1.052   1.093   1.129   1.192   1.261   1.282
  1.405   1.468   1.485   1.517   1.528   1.593   1.621   1.687
  1.703   1.760   1.799   1.819   1.892   1.931   1.950   2.019
  2.070   2.095   2.142   2.187   2.242   2.244   2.295   2.317
  2.421   2.468   2.476   2.540   2.560   2.608   2.620   2.663
  2.720   2.753   2.807   2.999   3.220   4.004   4.093   4.202
  4.272   4.341   4.430   4.603
 
 Beta MOs
 -- Occupied --
-14.321 -10.251 -10.232 -10.216 -10.206 -10.205 -10.190  -0.934
 -0.855  -0.763  -0.646  -0.623  -0.559  -0.526  -0.495  -0.477
 -0.443  -0.414  -0.380  -0.363  -0.327  -0.296  -0.252  -0.217
 -- Virtual --
 -0.076  -0.017   0.071   0.092   0.119   0.129   0.141   0.154
  0.171   0.188   0.213   0.237   0.251   0.287   0.331   0.401
  0.440   0.513   0.519   0.535   0.553   0.577   0.581   0.601
  0.612   0.634   0.652   0.659   0.674   0.696   0.715   0.757
  0.799   0.822   0.849   0.857   0.863   0.880   0.900   0.921
  0.929   0.972   0.999   1.054   1.097   1.132   1.203   1.267
  1.285   1.415   1.470   1.493   1.519   1.535   1.598   1.627
  1.702   1.711   1.768   1.805   1.832   1.911   1.943   1.961
  2.024   2.071   2.098   2.151   2.193   2.253   2.259   2.298
  2.325   2.430   2.475   2.481   2.544   2.567   2.618   2.631
  2.668   2.723   2.757   2.813   3.001   3.222   4.010   4.101
  4.201   4.279   4.356   4.432   4.605
 --------------------------------------------------------------
 
          Ground-State Mulliken Net Atomic Charges

     Atom                 Charge (a.u.)    Spin (a.u.)
  --------------------------------------------------------
      1 C                    -0.001841      -0.099454
      2 C                    -0.072131       0.174335
      3 C                    -0.184721      -0.040718
      4 C                    -0.158632      -0.013863
      5 C                     0.052823      -0.124444
      6 N                    -0.375638       0.219166
      7 H                     0.138148       0.005628
      8 H                     0.134118      -0.007134
      9 H                     0.153947       0.019980
     10 H                     0.158489       0.013975
     11 H                     0.156914       0.010354
     12 C                    -0.164199       0.871127
     13 H                     0.162724      -0.028952
  --------------------------------------------------------
  Sum of atomic charges =     0.000000
  Sum of spin   charges =     1.000000

 -----------------------------------------------------------------
                    Cartesian Multipole Moments
 -----------------------------------------------------------------
    Charge (ESU x 10^10)
                 0.0000
    Dipole Moment (Debye)
         X      -2.0038      Y      -1.5779      Z      -0.3603
       Tot       2.5758
    Quadrupole Moments (Debye-Ang)
        XX     -36.8467     XY      -3.5771     YY     -40.5449
        XZ      -1.0961     YZ       1.0905     ZZ     -42.7833
    Octopole Moments (Debye-Ang^2)
       XXX     -13.1781    XXY      -8.7622    XYY     -11.9119
       YYY     -24.4073    XXZ       0.1900    XYZ      -0.1136
       YYZ      -0.9891    XZZ      -8.1426    YZZ      -4.2972
       ZZZ       1.6635
    Hexadecapole Moments (Debye-Ang^3)
      XXXX    -331.8082   XXXY      -8.0342   XXYY    -113.2687
      XYYY     -26.4211   YYYY    -288.0618   XXXZ      24.4553
      XXYZ       7.6623   XYYZ      12.2378   YYYZ      17.9254
      XXZZ     -75.2730   XYZZ      -2.9682   YYZZ     -72.0047
      XZZZ      28.0650   YZZZ      16.4296   ZZZZ    -112.6783
 -----------------------------------------------------------------
 Calculating MO derivatives via CPSCF
   1         3          39      0.272126    0.060682
   2         3          39      0.031141    0.006184
   3         3          39      0.004838    0.001102
   4         3          39      0.000544    0.000133
   5        29          13      0.000039    0.000011
   6        41           1      0.000001    0.000001
   7        42           0      0.000000    0.000000    Roots Converged
 Time for AOints: 5.8 s (CPU) 8.2 s (wall)
 ------------------------------------------------------------------------------
                     AOints        : Timing summary (seconds)
 ------------------------------------------------------------------------------
     job step          cpu (% of tot)      sys (% of tot)     wall (% of tot)
 ------------------------------------------------------------------------------
  cpscf_lag         0.5567E+02 (28.8)   0.3600E-04 (41.4)   0.6117E+02 (27.8)
  iterzp            0.1319E+03 (68.2)   0.4900E-04 (56.3)   0.1507E+03 (68.4)
  make_fx           0.0000E+00 ( 0.0)   0.0000E+00 ( 0.0)   0.0000E+00 ( 0.0)
  AOints            0.5772E+01 ( 3.0)   0.2000E-05 ( 2.3)   0.8181E+01 ( 3.7)
 ------------------------------------------------------------------------------
   Grand Totals     0.1935E+03          0.8700E-04          0.2202E+03
 ------------------------------------------------------------------------------
 Calculating analytic Hessian of the SCF energy
 Polarizability Matrix (a.u.)
            1           2           3
    1 -74.6084474   2.2812164   9.0027804
    2   2.2812164 -68.4172059   1.6817052
    3   9.0027804   1.6817052 -42.1359485
 
 Direct stationary perturbation theory relativistic correction:
 
 rels  =       0.069278616267
 relv  =      -0.337659877462
 rel2e =       0.155575717625
 E_rel =      -0.112805543570
 
 Hessian of the SCF Energy
            1           2           3           4           5           6
    1   0.7249820   0.1013269  -0.0971471  -0.1869803  -0.1599235   0.0331858
    2   0.1013269   0.6829371  -0.0487467  -0.1241774  -0.3941283   0.0418091
    3  -0.0971471  -0.0487467   0.1527991   0.0344578   0.0455795  -0.0625786
    4  -0.1869803  -0.1241774   0.0344578   0.5800349   0.0326956  -0.1025345
    5  -0.1599235  -0.3941283   0.0455795   0.0326956   0.8060075  -0.0101359
    6   0.0331858   0.0418091  -0.0625786  -0.1025345  -0.0101359   0.1444264
    7  -0.0223418  -0.0370998   0.0037512  -0.2128974  -0.0052184   0.0380332
    8  -0.0255997   0.0047596   0.0077057  -0.0352001  -0.0918392   0.0022375
    9   0.0094759  -0.0027534   0.0012919   0.0258104  -0.0045485  -0.0582644
   10   0.0050919   0.0091923   0.0027161  -0.0315976   0.0159633  -0.0150814
   11   0.0020307  -0.0056003  -0.0010188   0.0163342   0.0012542  -0.0050842
   12  -0.0082879   0.0080402  -0.0059790   0.0100171  -0.0053524  -0.0011692
   13  -0.0605323   0.0643394   0.0015099  -0.0087632  -0.0354118   0.0020426
   14   0.0360040   0.0032217   0.0041541   0.0002666  -0.0124477  -0.0011760
   15   0.0044725  -0.0282348   0.0001988   0.0086169   0.0127210  -0.0009684
   16  -0.1372265   0.0395793   0.0082540   0.0345073   0.0446665  -0.0044028
   17   0.0649480  -0.1952069  -0.0085171   0.0015769  -0.0715158   0.0013015
   18   0.0115435   0.0087029  -0.0616199  -0.0083941  -0.0031748   0.0134098
   19  -0.3245768  -0.0382793   0.0466211  -0.0093930   0.0006771   0.0022287
   20  -0.0388191  -0.0611261   0.0055364  -0.0293974   0.0017681   0.0055481
   21   0.0443161   0.0008148  -0.0448560   0.0063954   0.0028417   0.0037586
   22   0.0107844  -0.0113799  -0.0010374  -0.1416425   0.1262057   0.0273754
   23   0.0206669  -0.0194081  -0.0038411   0.1231694  -0.2451950  -0.0359146
   24  -0.0027657   0.0075650   0.0029465   0.0287135  -0.0395473  -0.0380813
   25  -0.0066708   0.0020252   0.0011406  -0.0103688  -0.0319077  -0.0037500
   26  -0.0004555   0.0020867  -0.0009212  -0.0006209  -0.0006300   0.0006293
   27   0.0015579  -0.0023804   0.0014450   0.0036074   0.0062518   0.0018224
   28  -0.0005320  -0.0007506   0.0004839   0.0006668   0.0012958  -0.0017960
   29   0.0025038   0.0004898  -0.0017501  -0.0014674  -0.0020238   0.0027266
   30  -0.0005750   0.0043878   0.0002303  -0.0014869  -0.0036874   0.0013321
   31  -0.0026361   0.0004504  -0.0002569  -0.0016272   0.0005643   0.0001159
   32  -0.0007769   0.0030455  -0.0014807  -0.0009025   0.0007145  -0.0001008
   33  -0.0012455  -0.0033030   0.0132487  -0.0012675   0.0001557  -0.0006724
   34   0.0016393  -0.0060600  -0.0009108  -0.0104145   0.0108341   0.0222093
   35  -0.0041304  -0.0186176   0.0031146   0.0195422   0.0064593   0.0005592
   36   0.0065952   0.0103013   0.0023557  -0.0016567  -0.0010691  -0.0050693
   37  -0.0010008   0.0008334   0.0004175  -0.0015245  -0.0004410   0.0023738
   38   0.0022248  -0.0024529   0.0001854  -0.0018193   0.0015764  -0.0023998
   39  -0.0011257   0.0037970   0.0005175  -0.0022789  -0.0000343   0.0020544
            7           8           9          10          11          12
    1  -0.0223418  -0.0255997   0.0094759   0.0050919   0.0020307  -0.0082879
    2  -0.0370998   0.0047596  -0.0027534   0.0091923  -0.0056003   0.0080402
    3   0.0037512   0.0077057   0.0012919   0.0027161  -0.0010188  -0.0059790
    4  -0.2128974  -0.0352001   0.0258104  -0.0315976   0.0163342   0.0100171
    5  -0.0052184  -0.0918392  -0.0045485   0.0159633   0.0012542  -0.0053524
    6   0.0380332   0.0022375  -0.0582644  -0.0150814  -0.0050842  -0.0011692
    7   0.4870801   0.0549518  -0.0090160  -0.0875484   0.0468809  -0.0643509
    8   0.0549518   0.5862676   0.0436564   0.0504545  -0.1276557   0.0658749
    9  -0.0090160   0.0436564   0.1697807  -0.0321308   0.0031933  -0.0296221
   10  -0.0875484   0.0504545  -0.0321308   0.5271599   0.0140863   0.1715238
   11   0.0468809  -0.1276557   0.0031933   0.0140863   0.3229850  -0.0427234
   12  -0.0643509   0.0658749  -0.0296221   0.1715238  -0.0427234   0.4114582
   13   0.0281433   0.0285400   0.0029702  -0.1102393  -0.0117694  -0.0429983
   14  -0.0012375  -0.0219418   0.0074902  -0.0120382  -0.1190911  -0.0231789
   15  -0.0133759  -0.0104341   0.0073528   0.0130889   0.0172840  -0.0305018
   16  -0.0223887  -0.0043189  -0.0031867  -0.0112855  -0.0125551   0.0196075
   17   0.0159262   0.0042965   0.0020737  -0.0395525   0.0029466  -0.0076957
   18   0.0025308   0.0006513  -0.0098187  -0.0120972  -0.0082361   0.0214678
   19   0.0014413  -0.0023264   0.0007238   0.0005176   0.0002981   0.0000764
   20  -0.0005442  -0.0048021   0.0007104   0.0009425   0.0000368  -0.0004276
   21   0.0004441   0.0013707   0.0090260   0.0023580   0.0008678  -0.0006712
   22  -0.0103313   0.0215059   0.0042976  -0.0030590   0.0011848   0.0008574
   23  -0.0039031   0.0056248   0.0019384  -0.0007314   0.0015740  -0.0003480
   24   0.0016924  -0.0057476   0.0039034  -0.0008371   0.0032162   0.0001493
   25  -0.0872237  -0.0897942  -0.0147491   0.0048210   0.0139900   0.0033246
   26  -0.0921821  -0.2720649  -0.0424199  -0.0076113  -0.0140201  -0.0042003
   27  -0.0231078  -0.0534347  -0.0462707   0.0136809   0.0174421   0.0039343
   28  -0.0116064  -0.0050156  -0.0055643  -0.2656546  -0.0486455  -0.1008177
   29   0.0205701   0.0052542   0.0096637  -0.0593480  -0.0641233  -0.0212912
   30   0.0077570   0.0039234  -0.0042078  -0.0984460  -0.0210235  -0.0698615
   31  -0.0023440  -0.0035411  -0.0003033   0.0087612  -0.0144231   0.0002726
   32  -0.0039523  -0.0022552  -0.0015258   0.0080106  -0.0150902  -0.0010633
   33   0.0048030  -0.0010057   0.0036121   0.0031838   0.0078906  -0.0011151
   34  -0.0576026   0.0185599   0.0284279  -0.0455584  -0.0084403   0.0219110
   35  -0.0000424  -0.0851014  -0.0189370   0.0284267   0.0134910   0.0261079
   36   0.0570979  -0.0573006  -0.0408678  -0.0687765   0.0316069  -0.2746987
   37  -0.0023804  -0.0082163  -0.0067555   0.0085913   0.0010282  -0.0111357
   38   0.0058507  -0.0005422   0.0014586  -0.0077947   0.0032932   0.0062579
   39  -0.0062591   0.0025029  -0.0059153   0.0208173  -0.0034149  -0.0233910
           13          14          15          16          17          18
    1  -0.0605323   0.0360040   0.0044725  -0.1372265   0.0649480   0.0115435
    2   0.0643394   0.0032217  -0.0282348   0.0395793  -0.1952069   0.0087029
    3   0.0015099   0.0041541   0.0001988   0.0082540  -0.0085171  -0.0616199
    4  -0.0087632   0.0002666   0.0086169   0.0345073   0.0015769  -0.0083941
    5  -0.0354118  -0.0124477   0.0127210   0.0446665  -0.0715158  -0.0031748
    6   0.0020426  -0.0011760  -0.0009684  -0.0044028   0.0013015   0.0134098
    7   0.0281433  -0.0012375  -0.0133759  -0.0223887   0.0159262   0.0025308
    8   0.0285400  -0.0219418  -0.0104341  -0.0043189   0.0042965   0.0006513
    9   0.0029702   0.0074902   0.0073528  -0.0031867   0.0020737  -0.0098187
   10  -0.1102393  -0.0120382   0.0130889  -0.0112855  -0.0395525  -0.0120972
   11  -0.0117694  -0.1190911   0.0172840  -0.0125551   0.0029466  -0.0082361
   12  -0.0429983  -0.0231789  -0.0305018   0.0196075  -0.0076957   0.0214678
   13   0.6638030  -0.1603960   0.0479226  -0.4310502   0.0025204  -0.0234374
   14  -0.1603960   0.5137852   0.0416190   0.0262698  -0.1081715  -0.0096089
   15   0.0479226   0.0416190   0.1079780  -0.0673283   0.0131836  -0.0432853
   16  -0.4310502   0.0262698  -0.0673283   0.6417792  -0.0834055   0.0180527
   17   0.0025204  -0.1081715   0.0131836  -0.0834055   0.3623110   0.0031324
   18  -0.0234374  -0.0096089  -0.0432853   0.0180527   0.0031324   0.0817688
   19   0.0012966   0.0020421   0.0008381  -0.0172447   0.0077940   0.0012722
   20   0.0035761  -0.0038274  -0.0004970   0.0341217  -0.0004939  -0.0053528
   21   0.0015224   0.0006830   0.0014560  -0.0014509   0.0009537   0.0006083
   22  -0.0015669  -0.0019696  -0.0003462   0.0016582  -0.0025074   0.0029459
   23  -0.0025120  -0.0003223  -0.0001832  -0.0027002  -0.0042117   0.0008292
   24  -0.0019048  -0.0023700   0.0003943   0.0049967   0.0011277   0.0100364
   25  -0.0055387   0.0005205   0.0026350   0.0019589   0.0002873  -0.0003978
   26   0.0045815  -0.0000172  -0.0018436  -0.0004095  -0.0001411   0.0001089
   27  -0.0016878   0.0041875  -0.0014688  -0.0022871   0.0005954  -0.0000454
   28  -0.0022977   0.0026425  -0.0003786  -0.0014643  -0.0004723  -0.0013108
   29  -0.0132256   0.0078641  -0.0058129  -0.0013068  -0.0053519   0.0011862
   30   0.0039014  -0.0061164   0.0041138   0.0076735   0.0001323  -0.0005371
   31  -0.0909922   0.0903932   0.0096911  -0.0334680   0.0317833   0.0011549
   32   0.1002175  -0.2688156  -0.0148112   0.0051962   0.0062731   0.0003322
   33   0.0091993  -0.0243636  -0.0443645  -0.0026153   0.0045896  -0.0033008
   34   0.0181666   0.0182396  -0.0048944  -0.0253939   0.0008578   0.0074369
   35   0.0140132   0.0049492  -0.0217268  -0.0396264   0.0087639   0.0113831
   36   0.0070998   0.0137960  -0.0016959   0.0176521  -0.0085509  -0.0091336
   37  -0.0004289  -0.0007369  -0.0009417  -0.0003819   0.0002439   0.0007003
   38   0.0055266   0.0048145  -0.0012640  -0.0055110   0.0005020   0.0000465
   39  -0.0061399  -0.0051160   0.0007911   0.0050346  -0.0023260   0.0004497
           19          20          21          22          23          24
    1  -0.3245768  -0.0388191   0.0443161   0.0107844   0.0206669  -0.0027657
    2  -0.0382793  -0.0611261   0.0008148  -0.0113799  -0.0194081   0.0075650
    3   0.0466211   0.0055364  -0.0448560  -0.0010374  -0.0038411   0.0029465
    4  -0.0093930  -0.0293974   0.0063954  -0.1416425   0.1231694   0.0287135
    5   0.0006771   0.0017681   0.0028417   0.1262057  -0.2451950  -0.0395473
    6   0.0022287   0.0055481   0.0037586   0.0273754  -0.0359146  -0.0380813
    7   0.0014413  -0.0005442   0.0004441  -0.0103313  -0.0039031   0.0016924
    8  -0.0023264  -0.0048021   0.0013707   0.0215059   0.0056248  -0.0057476
    9   0.0007238   0.0007104   0.0090260   0.0042976   0.0019384   0.0039034
   10   0.0005176   0.0009425   0.0023580  -0.0030590  -0.0007314  -0.0008371
   11   0.0002981   0.0000368   0.0008678   0.0011848   0.0015740   0.0032162
   12   0.0000764  -0.0004276  -0.0006712   0.0008574  -0.0003480   0.0001493
   13   0.0012966   0.0035761   0.0015224  -0.0015669  -0.0025120  -0.0019048
   14   0.0020421  -0.0038274   0.0006830  -0.0019696  -0.0003223  -0.0023700
   15   0.0008381  -0.0004970   0.0014560  -0.0003462  -0.0001832   0.0003943
   16  -0.0172447   0.0341217  -0.0014509   0.0016582  -0.0027002   0.0049967
   17   0.0077940  -0.0004939   0.0009537  -0.0025074  -0.0042117   0.0011277
   18   0.0012722  -0.0053528   0.0006083   0.0029459   0.0008292   0.0100364
   19   0.3485584   0.0304037  -0.0512775   0.0006115  -0.0003130  -0.0007597
   20   0.0304037   0.0681057  -0.0064778   0.0002412   0.0007192  -0.0002982
   21  -0.0512775  -0.0064778   0.0331113  -0.0014038   0.0003793  -0.0048425
   22   0.0006115   0.0002412  -0.0014038   0.1444919  -0.1338095  -0.0316972
   23  -0.0003130   0.0007192   0.0003793  -0.1338095   0.2600527   0.0369886
   24  -0.0007597  -0.0002982  -0.0048425  -0.0316972   0.0369886   0.0293600
   25  -0.0005157  -0.0014823   0.0007507   0.0010507   0.0004218  -0.0001244
   26  -0.0000050  -0.0001950  -0.0001739   0.0000546   0.0008985   0.0004816
   27   0.0000967   0.0002686  -0.0002218  -0.0001687  -0.0000152  -0.0001403
   28   0.0000352  -0.0000124   0.0002662  -0.0004297  -0.0001144  -0.0002789
   29  -0.0001689   0.0002178   0.0000372   0.0007434   0.0001790   0.0001333
   30   0.0000488   0.0000413   0.0001131   0.0005001   0.0000037  -0.0002408
   31  -0.0005522   0.0010513   0.0001403   0.0003124   0.0004108  -0.0000695
   32  -0.0000321  -0.0000316   0.0000269   0.0001289   0.0000229   0.0001044
   33  -0.0000615   0.0005031   0.0003394  -0.0005836  -0.0002012  -0.0018495
   34  -0.0000822   0.0000082  -0.0016210  -0.0015749  -0.0005530   0.0030521
   35  -0.0000282  -0.0005532  -0.0015125  -0.0005859  -0.0001263  -0.0009705
   36   0.0002135   0.0004709   0.0022291  -0.0002946   0.0004628  -0.0016106
   37  -0.0000960  -0.0000892  -0.0004400  -0.0003047  -0.0000324  -0.0000174
   38  -0.0000620   0.0001819   0.0001892   0.0001878   0.0001923  -0.0006831
   39  -0.0000207  -0.0000254  -0.0000501  -0.0004447  -0.0000987  -0.0000248
           25          26          27          28          29          30
    1  -0.0066708  -0.0004555   0.0015579  -0.0005320   0.0025038  -0.0005750
    2   0.0020252   0.0020867  -0.0023804  -0.0007506   0.0004898   0.0043878
    3   0.0011406  -0.0009212   0.0014450   0.0004839  -0.0017501   0.0002303
    4  -0.0103688  -0.0006209   0.0036074   0.0006668  -0.0014674  -0.0014869
    5  -0.0319077  -0.0006300   0.0062518   0.0012958  -0.0020238  -0.0036874
    6  -0.0037500   0.0006293   0.0018224  -0.0017960   0.0027266   0.0013321
    7  -0.0872237  -0.0921821  -0.0231078  -0.0116064   0.0205701   0.0077570
    8  -0.0897942  -0.2720649  -0.0534347  -0.0050156   0.0052542   0.0039234
    9  -0.0147491  -0.0424199  -0.0462707  -0.0055643   0.0096637  -0.0042078
   10   0.0048210  -0.0076113   0.0136809  -0.2656546  -0.0593480  -0.0984460
   11   0.0139900  -0.0140201   0.0174421  -0.0486455  -0.0641233  -0.0210235
   12   0.0033246  -0.0042003   0.0039343  -0.1008177  -0.0212912  -0.0698615
   13  -0.0055387   0.0045815  -0.0016878  -0.0022977  -0.0132256   0.0039014
   14   0.0005205  -0.0000172   0.0041875   0.0026425   0.0078641  -0.0061164
   15   0.0026350  -0.0018436  -0.0014688  -0.0003786  -0.0058129   0.0041138
   16   0.0019589  -0.0004095  -0.0022871  -0.0014643  -0.0013068   0.0076735
   17   0.0002873  -0.0001411   0.0005954  -0.0004723  -0.0053519   0.0001323
   18  -0.0003978   0.0001089  -0.0000454  -0.0013108   0.0011862  -0.0005371
   19  -0.0005157  -0.0000050   0.0000967   0.0000352  -0.0001689   0.0000488
   20  -0.0014823  -0.0001950   0.0002686  -0.0000124   0.0002178   0.0000413
   21   0.0007507  -0.0001739  -0.0002218   0.0002662   0.0000372   0.0001131
   22   0.0010507   0.0000546  -0.0001687  -0.0004297   0.0007434   0.0005001
   23   0.0004218   0.0008985  -0.0000152  -0.0001144   0.0001790   0.0000037
   24  -0.0001244   0.0004816  -0.0001403  -0.0002789   0.0001333  -0.0002408
   25   0.0969427   0.0958469   0.0148038   0.0011046  -0.0002653  -0.0009181
   26   0.0958469   0.2900025   0.0472977  -0.0001502   0.0010533   0.0000440
   27   0.0148038   0.0472977   0.0438051   0.0004408  -0.0012101   0.0006096
   28   0.0011046  -0.0001502   0.0004408   0.2749192   0.0505792   0.1114162
   29  -0.0002653   0.0010533  -0.0012101   0.0505792   0.0548667   0.0174116
   30  -0.0009181   0.0000440   0.0006096   0.1114162   0.0174116   0.0870443
   31   0.0006868  -0.0007362   0.0008105  -0.0001437   0.0003992  -0.0004365
   32   0.0007011  -0.0004298   0.0011040  -0.0003196  -0.0006976  -0.0000691
   33  -0.0007379   0.0004733   0.0002068  -0.0003923  -0.0004298   0.0004733
   34   0.0031352   0.0015299  -0.0069449   0.0042191   0.0009887  -0.0308182
   35   0.0093128  -0.0068566  -0.0197010   0.0006048   0.0007311   0.0051227
   36  -0.0023657   0.0006315  -0.0043610  -0.0016042  -0.0012668  -0.0219809
   37   0.0006179   0.0001578  -0.0008018   0.0011834  -0.0000023   0.0013838
   38   0.0003438   0.0003138  -0.0004056   0.0003583   0.0015406  -0.0001703
   39   0.0003883  -0.0001074   0.0006849  -0.0004642   0.0006025   0.0029115
           31          32          33          34          35          36
    1  -0.0026361  -0.0007769  -0.0012455   0.0016393  -0.0041304   0.0065952
    2   0.0004504   0.0030455  -0.0033030  -0.0060600  -0.0186176   0.0103013
    3  -0.0002569  -0.0014807   0.0132487  -0.0009108   0.0031146   0.0023557
    4  -0.0016272  -0.0009025  -0.0012675  -0.0104145   0.0195422  -0.0016567
    5   0.0005643   0.0007145   0.0001557   0.0108341   0.0064593  -0.0010691
    6   0.0001159  -0.0001008  -0.0006724   0.0222093   0.0005592  -0.0050693
    7  -0.0023440  -0.0039523   0.0048030  -0.0576026  -0.0000424   0.0570979
    8  -0.0035411  -0.0022552  -0.0010057   0.0185599  -0.0851014  -0.0573006
    9  -0.0003033  -0.0015258   0.0036121   0.0284279  -0.0189370  -0.0408678
   10   0.0087612   0.0080106   0.0031838  -0.0455584   0.0284267  -0.0687765
   11  -0.0144231  -0.0150902   0.0078906  -0.0084403   0.0134910   0.0316069
   12   0.0002726  -0.0010633  -0.0011151   0.0219110   0.0261079  -0.2746987
   13  -0.0909922   0.1002175   0.0091993   0.0181666   0.0140132   0.0070998
   14   0.0903932  -0.2688156  -0.0243636   0.0182396   0.0049492   0.0137960
   15   0.0096911  -0.0148112  -0.0443645  -0.0048944  -0.0217268  -0.0016959
   16  -0.0334680   0.0051962  -0.0026153  -0.0253939  -0.0396264   0.0176521
   17   0.0317833   0.0062731   0.0045896   0.0008578   0.0087639  -0.0085509
   18   0.0011549   0.0003322  -0.0033008   0.0074369   0.0113831  -0.0091336
   19  -0.0005522  -0.0000321  -0.0000615  -0.0000822  -0.0000282   0.0002135
   20   0.0010513  -0.0000316   0.0005031   0.0000082  -0.0005532   0.0004709
   21   0.0001403   0.0000269   0.0003394  -0.0016210  -0.0015125   0.0022291
   22   0.0003124   0.0001289  -0.0005836  -0.0015749  -0.0005859  -0.0002946
   23   0.0004108   0.0000229  -0.0002012  -0.0005530  -0.0001263   0.0004628
   24  -0.0000695   0.0001044  -0.0018495   0.0030521  -0.0009705  -0.0016106
   25   0.0006868   0.0007011  -0.0007379   0.0031352   0.0093128  -0.0023657
   26  -0.0007362  -0.0004298   0.0004733   0.0015299  -0.0068566   0.0006315
   27   0.0008105   0.0011040   0.0002068  -0.0069449  -0.0197010  -0.0043610
   28  -0.0001437  -0.0003196  -0.0003923   0.0042191   0.0006048  -0.0016042
   29   0.0003992  -0.0006976  -0.0004298   0.0009887   0.0007311  -0.0012668
   30  -0.0004365  -0.0000691   0.0004733  -0.0308182   0.0051227  -0.0219809
   31   0.1210052  -0.1086293  -0.0082110   0.0008570   0.0022416  -0.0030494
   32  -0.1086293   0.2740949   0.0195422   0.0005706   0.0035447  -0.0023284
   33  -0.0082110   0.0195422   0.0276101  -0.0022313  -0.0034623   0.0059826
   34   0.0008570   0.0005706  -0.0022313   0.3007716  -0.0913880  -0.1876598
   35   0.0022416   0.0035447  -0.0034623  -0.0913880   0.1101814   0.0536900
   36  -0.0030494  -0.0023284   0.0059826  -0.1876598   0.0536900   0.5054036
   37   0.0001409  -0.0002122   0.0001599  -0.1881624   0.0616600   0.1767484
   38   0.0000358  -0.0003755  -0.0003889   0.0548523  -0.0368653  -0.0404436
   39   0.0001413   0.0002697  -0.0001706   0.1520432  -0.0336672  -0.1565531
           37          38          39
    1  -0.0010008   0.0022248  -0.0011257
    2   0.0008334  -0.0024529   0.0037970
    3   0.0004175   0.0001854   0.0005175
    4  -0.0015245  -0.0018193  -0.0022789
    5  -0.0004410   0.0015764  -0.0000343
    6   0.0023738  -0.0023998   0.0020544
    7  -0.0023804   0.0058507  -0.0062591
    8  -0.0082163  -0.0005422   0.0025029
    9  -0.0067555   0.0014586  -0.0059153
   10   0.0085913  -0.0077947   0.0208173
   11   0.0010282   0.0032932  -0.0034149
   12  -0.0111357   0.0062579  -0.0233910
   13  -0.0004289   0.0055266  -0.0061399
   14  -0.0007369   0.0048145  -0.0051160
   15  -0.0009417  -0.0012640   0.0007911
   16  -0.0003819  -0.0055110   0.0050346
   17   0.0002439   0.0005020  -0.0023260
   18   0.0007003   0.0000465   0.0004497
   19  -0.0000960  -0.0000620  -0.0000207
   20  -0.0000892   0.0001819  -0.0000254
   21  -0.0004400   0.0001892  -0.0000501
   22  -0.0003047   0.0001878  -0.0004447
   23  -0.0000324   0.0001923  -0.0000987
   24  -0.0000174  -0.0006831  -0.0000248
   25   0.0006179   0.0003438   0.0003883
   26   0.0001578   0.0003138  -0.0001074
   27  -0.0008018  -0.0004056   0.0006849
   28   0.0011834   0.0003583  -0.0004642
   29  -0.0000023   0.0015406   0.0006025
   30   0.0013838  -0.0001703   0.0029115
   31   0.0001409   0.0000358   0.0001413
   32  -0.0002122  -0.0003755   0.0002697
   33   0.0001599  -0.0003889  -0.0001706
   34  -0.1881624   0.0548523   0.1520432
   35   0.0616600  -0.0368653  -0.0336672
   36   0.1767484  -0.0404436  -0.1565531
   37   0.1837461  -0.0541931  -0.1616916
   38  -0.0541931   0.0278210   0.0376177
   39  -0.1616916   0.0376177   0.1786958
 Gradient time:  CPU 257.41 s  wall 288.26 s
 **********************************************************************
 **                                                                  **
 **                       VIBRATIONAL ANALYSIS                       **
 **                       --------------------                       **
 **                                                                  **
 **        VIBRATIONAL FREQUENCIES (CM**-1) AND NORMAL MODES         **
 **     FORCE CONSTANTS (mDYN/ANGSTROM) AND REDUCED MASSES (AMU)     **
 **                  INFRARED INTENSITIES (KM/MOL)                   **
 **                                                                  **
 **********************************************************************
 

 Mode:                 1                      2                      3
 Frequency:      -337.73                 300.61                 370.01
 Force Cnst:      0.2568                 0.1354                 0.1725
 Red. Mass:       3.8218                 2.5423                 2.1390
 IR Active:          YES                    YES                    YES
 IR Intens:        1.672                  3.876                 29.283
 Raman Active:       YES                    YES                    YES
               X      Y      Z        X      Y      Z        X      Y      Z
 C          0.016  0.018 -0.039   -0.014 -0.001  0.191   -0.025  0.001 -0.037
 C          0.015 -0.009 -0.046   -0.029 -0.032 -0.113   -0.032 -0.006 -0.125
 C          0.035  0.049 -0.004   -0.008 -0.007 -0.047    0.019  0.001  0.143
 C         -0.068 -0.148 -0.138   -0.055  0.005  0.004    0.081 -0.037 -0.038
 C         -0.073 -0.146  0.259   -0.054 -0.019 -0.151    0.014 -0.029 -0.093
 N          0.009 -0.058  0.043   -0.056 -0.015  0.090    0.000  0.012  0.167
 H          0.022  0.026 -0.010    0.010  0.042  0.373   -0.057 -0.002 -0.239
 H          0.006 -0.016 -0.029   -0.044 -0.022 -0.221   -0.112  0.003 -0.468
 H          0.015  0.002  0.289   -0.062 -0.002  0.037    0.008 -0.013  0.245
 H         -0.025 -0.201 -0.198   -0.139 -0.012  0.195    0.080 -0.060 -0.010
 H         -0.098 -0.184  0.488   -0.048  0.005 -0.385   -0.032 -0.042 -0.236
 C          0.059  0.290 -0.120    0.204  0.040 -0.009   -0.007  0.096  0.042
 H          0.150  0.517 -0.090    0.524  0.361  0.230   -0.486 -0.378 -0.319
 TransDip  -0.003 -0.035  0.022   -0.028  0.003  0.057   -0.026 -0.036 -0.168

 Mode:                 4                      5                      6
 Frequency:       412.84                 508.77                 546.67
 Force Cnst:      0.1766                 0.8139                 1.2080
 Red. Mass:       1.7582                 5.3365                 6.8604
 IR Active:          YES                    YES                    YES
 IR Intens:       17.379                  4.940                  8.812
 Raman Active:       YES                    YES                    YES
               X      Y      Z        X      Y      Z        X      Y      Z
 C         -0.013 -0.001 -0.087   -0.237 -0.062 -0.135   -0.128  0.108  0.120
 C          0.012  0.006 -0.003   -0.020 -0.104  0.247   -0.277  0.110 -0.059
 C          0.018 -0.013  0.118   -0.034 -0.060  0.011   -0.168 -0.283  0.080
 C          0.007 -0.005 -0.022    0.212  0.095 -0.166    0.134 -0.183 -0.039
 C          0.031  0.040 -0.039   -0.086  0.106  0.019    0.163 -0.040  0.087
 N          0.013  0.020  0.102   -0.108  0.038  0.109    0.191  0.308 -0.160
 H         -0.043 -0.007 -0.288   -0.278 -0.064 -0.390   -0.073 -0.234  0.259
 H         -0.020  0.011 -0.151    0.084 -0.050  0.345   -0.124  0.231 -0.169
 H          0.041 -0.017  0.067   -0.164  0.013 -0.119   -0.110 -0.317  0.135
 H          0.102 -0.094 -0.203    0.074  0.161  0.134    0.068  0.042 -0.003
 H          0.027  0.040 -0.032   -0.134  0.072  0.188   -0.091 -0.177  0.122
 C         -0.121 -0.096 -0.067    0.314 -0.028 -0.094    0.073 -0.052 -0.022
 H          0.494  0.615  0.364    0.141 -0.032 -0.281    0.081  0.249 -0.104
 TransDip   0.000  0.068  0.115   -0.070  0.009 -0.007   -0.065 -0.049  0.049

 Mode:                 7                      8                      9
 Frequency:       623.85                 670.37                 719.02
 Force Cnst:      0.6056                 1.1926                 0.9925
 Red. Mass:       2.6411                 4.5041                 3.2582
 IR Active:          YES                    YES                    YES
 IR Intens:       24.212                  1.339                 10.073
 Raman Active:       YES                    YES                    YES
               X      Y      Z        X      Y      Z        X      Y      Z
 C         -0.042 -0.003 -0.050   -0.098 -0.039  0.179   -0.071 -0.057 -0.022
 C          0.039 -0.036 -0.010    0.061 -0.180 -0.158    0.052 -0.127 -0.082
 C         -0.008 -0.065 -0.198    0.122  0.016  0.136    0.081 -0.131 -0.014
 C          0.153 -0.057  0.098    0.227  0.126 -0.006   -0.110 -0.124  0.047
 C         -0.003 -0.042 -0.053   -0.108  0.082  0.149    0.037  0.305 -0.037
 N         -0.029  0.035  0.060   -0.104 -0.026 -0.205    0.015  0.058  0.035
 H         -0.043  0.034 -0.029   -0.089  0.069  0.306   -0.025 -0.017  0.309
 H          0.142 -0.000  0.176    0.058 -0.132 -0.434    0.275 -0.068  0.403
 H         -0.052 -0.016 -0.350   -0.128  0.145 -0.027    0.062 -0.173  0.225
 H          0.158 -0.011  0.060    0.390  0.067 -0.327   -0.050 -0.365  0.005
 H         -0.094 -0.085 -0.087   -0.088  0.111 -0.033    0.093  0.316  0.243
 C         -0.095  0.106  0.174   -0.091 -0.014 -0.014   -0.034  0.113 -0.039
 H         -0.233  0.740 -0.134   -0.050  0.222 -0.039   -0.030 -0.249  0.084
 TransDip   0.007  0.055 -0.148   -0.007  0.023  0.028    0.074  0.040  0.056

 Mode:                10                     11                     12
 Frequency:       781.66                 859.50                 885.41
 Force Cnst:      0.5777                 0.7118                 0.9381
 Red. Mass:       1.6049                 1.6354                 2.0311
 IR Active:          YES                    YES                    YES
 IR Intens:       30.984                  7.657                 11.720
 Raman Active:       YES                    YES                    YES
               X      Y      Z        X      Y      Z        X      Y      Z
 C          0.003  0.005 -0.078   -0.071 -0.042  0.016    0.065 -0.015  0.046
 C         -0.067  0.042 -0.129   -0.078 -0.009  0.040   -0.078  0.081  0.004
 C         -0.016  0.068  0.068    0.044  0.143 -0.077   -0.017  0.089  0.010
 C          0.075  0.021 -0.027    0.024 -0.079  0.015    0.044 -0.108 -0.052
 C         -0.002 -0.049 -0.024    0.011 -0.012  0.004   -0.013  0.146 -0.034
 N         -0.018 -0.028  0.037    0.027  0.047 -0.002   -0.027 -0.100 -0.028
 H          0.096  0.020  0.528   -0.080 -0.144 -0.083    0.052 -0.039 -0.048
 H          0.069 -0.028  0.770   -0.163 -0.051 -0.012   -0.268 -0.009 -0.173
 H         -0.028  0.064  0.116   -0.024  0.182 -0.119    0.113  0.059 -0.099
 H          0.107  0.023 -0.084    0.325 -0.441 -0.477   -0.004 -0.453  0.221
 H         -0.024 -0.072  0.120   -0.036 -0.027 -0.168    0.112  0.176  0.437
 C          0.007 -0.053  0.023    0.019  0.014  0.049    0.046 -0.086  0.059
 H          0.034 -0.015  0.033    0.201 -0.343  0.342   -0.194  0.375 -0.329
 TransDip   0.029 -0.034  0.173    0.016 -0.063 -0.060    0.078  0.067 -0.039

 Mode:                13                     14                     15
 Frequency:       926.48                 948.17                 959.24
 Force Cnst:      0.8299                 1.1927                 0.7387
 Red. Mass:       1.6409                 2.2517                 1.3626
 IR Active:          YES                    YES                    YES
 IR Intens:        3.408                 10.063                  0.316
 Raman Active:       YES                    YES                    YES
               X      Y      Z        X      Y      Z        X      Y      Z
 C          0.005  0.038 -0.003    0.017 -0.047 -0.006   -0.036  0.005 -0.141
 C         -0.026  0.061  0.034    0.109 -0.138  0.021    0.004  0.009  0.090
 C         -0.016 -0.098  0.015   -0.059  0.121 -0.000    0.017 -0.000 -0.005
 C          0.052  0.038  0.057   -0.026 -0.017 -0.039   -0.009 -0.003  0.004
 C          0.008 -0.017 -0.109   -0.016 -0.057 -0.109    0.001  0.012  0.036
 N         -0.042 -0.089  0.002    0.023  0.177 -0.003    0.016 -0.016  0.012
 H          0.027  0.056  0.154    0.049  0.007  0.220    0.113  0.018  0.801
 H          0.004  0.133 -0.258   -0.051 -0.201 -0.255   -0.112  0.030 -0.458
 H         -0.025 -0.045 -0.261   -0.152  0.116  0.232    0.027 -0.002 -0.011
 H          0.197  0.056 -0.264   -0.112  0.103  0.096   -0.004 -0.074  0.022
 H          0.016 -0.076  0.688   -0.182 -0.208  0.730    0.038  0.054 -0.261
 C         -0.007  0.094 -0.023   -0.012 -0.055  0.050    0.004 -0.012  0.000
 H          0.171 -0.261  0.271   -0.028  0.021  0.011   -0.043  0.063 -0.071
 TransDip   0.053  0.023  0.012   -0.036 -0.073  0.061   -0.015  0.007 -0.008

 Mode:                16                     17                     18
 Frequency:      1000.69                1039.55                1075.80
 Force Cnst:      1.1502                 1.0872                 1.2728
 Red. Mass:       1.9494                 1.7075                 1.8666
 IR Active:          YES                    YES                    YES
 IR Intens:        0.258                  3.068                  7.633
 Raman Active:       YES                    YES                    YES
               X      Y      Z        X      Y      Z        X      Y      Z
 C         -0.174  0.016  0.036    0.104  0.011 -0.013   -0.108  0.096  0.015
 C         -0.048  0.031  0.015    0.025  0.011  0.021    0.100 -0.019 -0.019
 C          0.141  0.050 -0.097   -0.128 -0.036 -0.086   -0.106  0.016  0.038
 C         -0.018  0.044  0.035    0.059 -0.026 -0.052   -0.092  0.013 -0.027
 C          0.058 -0.039 -0.045   -0.019  0.077  0.028    0.063 -0.024 -0.011
 N          0.027 -0.064 -0.004   -0.056 -0.032 -0.007    0.052 -0.067 -0.008
 H         -0.175 -0.113 -0.018    0.089  0.151 -0.042   -0.123  0.205 -0.026
 H          0.062  0.130 -0.059   -0.036 -0.016 -0.084    0.495  0.246 -0.040
 H          0.388 -0.189  0.682   -0.100 -0.206  0.753   -0.399  0.147 -0.067
 H         -0.030  0.267 -0.039    0.162  0.195 -0.370    0.121 -0.276 -0.365
 H          0.128 -0.030  0.246   -0.050  0.081 -0.144    0.282  0.081  0.008
 C         -0.015 -0.046  0.003    0.012 -0.010  0.086    0.061 -0.046  0.069
 H         -0.082  0.148 -0.123    0.084 -0.080  0.182   -0.132  0.121 -0.176
 TransDip   0.012  0.007  0.008    0.054 -0.017  0.000    0.007  0.046 -0.076

 Mode:                19                     20                     21
 Frequency:      1094.57                1200.11                1234.64
 Force Cnst:      1.2837                 1.3973                 1.1104
 Red. Mass:       1.8185                 1.6467                 1.2364
 IR Active:          YES                    YES                    YES
 IR Intens:       21.900                  3.943                  4.591
 Raman Active:       YES                    YES                    YES
               X      Y      Z        X      Y      Z        X      Y      Z
 C         -0.090  0.026  0.015   -0.013 -0.028  0.003   -0.037  0.077 -0.000
 C          0.044  0.014 -0.008    0.008 -0.003 -0.011    0.005 -0.049  0.004
 C         -0.042  0.073 -0.006    0.029 -0.019  0.054   -0.005  0.009  0.004
 C          0.099 -0.114 -0.110   -0.080 -0.033 -0.137   -0.001 -0.051  0.046
 C          0.069  0.017  0.023   -0.017  0.025 -0.001    0.067 -0.005 -0.003
 N         -0.003 -0.066 -0.014    0.005  0.013 -0.005   -0.004 -0.016 -0.004
 H         -0.096  0.098  0.033   -0.001 -0.085  0.041   -0.104  0.672 -0.024
 H          0.204  0.139 -0.084   -0.047 -0.046  0.018   -0.517 -0.416  0.115
 H         -0.048  0.092 -0.076    0.514 -0.134 -0.420    0.032  0.007 -0.067
 H         -0.297  0.226  0.599   -0.079  0.522 -0.410    0.006  0.165 -0.070
 H          0.090  0.028 -0.055    0.070  0.076  0.004    0.143  0.033 -0.008
 C         -0.085  0.034  0.031    0.033  0.010  0.155    0.013 -0.002 -0.036
 H          0.227 -0.261  0.439   -0.042  0.063  0.083   -0.002  0.007 -0.062
 TransDip  -0.006  0.092  0.118    0.010  0.021 -0.059    0.020  0.062 -0.022

 Mode:                22                     23                     24
 Frequency:      1277.69                1346.37                1405.23
 Force Cnst:      1.6908                 1.6115                 1.6765
 Red. Mass:       1.7579                 1.5088                 1.4409
 IR Active:          YES                    YES                    YES
 IR Intens:        8.941                  6.558                  5.660
 Raman Active:       YES                    YES                    YES
               X      Y      Z        X      Y      Z        X      Y      Z
 C          0.009 -0.031 -0.004   -0.014 -0.071  0.005    0.004 -0.027  0.000
 C          0.007  0.033  0.001    0.023 -0.012 -0.014    0.042 -0.000 -0.012
 C          0.008  0.074  0.021   -0.132  0.072  0.019   -0.087  0.033  0.003
 C         -0.000 -0.170  0.130    0.009  0.006  0.066    0.040 -0.022  0.053
 C          0.002  0.055 -0.011    0.078  0.027  0.018   -0.012 -0.071  0.009
 N         -0.026 -0.015  0.010   -0.022 -0.011 -0.006   -0.087  0.069  0.002
 H          0.033 -0.243  0.009   -0.050  0.251  0.020    0.027 -0.219  0.021
 H          0.154  0.144 -0.043    0.259  0.151 -0.062    0.037 -0.007 -0.015
 H         -0.345  0.243 -0.075    0.645 -0.222 -0.101    0.315 -0.130  0.001
 H         -0.002  0.707 -0.271    0.084 -0.120 -0.035    0.075 -0.036  0.005
 H         -0.112  0.010 -0.053   -0.472 -0.247 -0.069    0.815  0.349  0.013
 C          0.032 -0.021 -0.093    0.022  0.006 -0.058    0.007  0.014 -0.055
 H         -0.039  0.064 -0.216    0.005  0.008 -0.091    0.030 -0.029 -0.033
 TransDip   0.020  0.077 -0.053    0.059  0.055 -0.018    0.045 -0.053  0.031

 Mode:                25                     26                     27
 Frequency:      1447.69                1502.94                1659.32
 Force Cnst:      2.0474                 7.7946                 8.7153
 Red. Mass:       1.6581                 5.8568                 5.3725
 IR Active:          YES                    YES                    YES
 IR Intens:        1.898                 18.939                 17.887
 Raman Active:       YES                    YES                    YES
               X      Y      Z        X      Y      Z        X      Y      Z
 C          0.073 -0.129 -0.010   -0.007 -0.120  0.012    0.148  0.371 -0.044
 C         -0.149 -0.024  0.028    0.074  0.118 -0.012   -0.237 -0.362  0.057
 C          0.081  0.003 -0.004    0.093 -0.056  0.006    0.034  0.066 -0.002
 C         -0.010 -0.003 -0.023   -0.095  0.051 -0.088   -0.009 -0.012 -0.005
 C          0.005 -0.027  0.002    0.440 -0.025  0.061    0.134  0.012  0.000
 N         -0.031  0.058 -0.002   -0.379  0.064 -0.021   -0.129 -0.024  0.007
 H         -0.025  0.735 -0.016   -0.007 -0.311  0.068    0.291 -0.470 -0.069
 H          0.400  0.368 -0.095   -0.288 -0.115 -0.003    0.451  0.061 -0.071
 H         -0.112  0.087  0.013   -0.437  0.158  0.028    0.254 -0.010 -0.083
 H         -0.038  0.067  0.004   -0.074 -0.179 -0.066   -0.040  0.034  0.032
 H          0.241  0.094  0.038   -0.116 -0.312 -0.002   -0.031 -0.078 -0.033
 C         -0.002 -0.003  0.015    0.021  0.013  0.049    0.003 -0.009  0.004
 H         -0.014  0.031 -0.003   -0.073  0.105 -0.048    0.004  0.013 -0.003
 TransDip   0.043  0.002 -0.008    0.137 -0.002 -0.024    0.120  0.055 -0.031

 Mode:                28                     29                     30
 Frequency:      3066.99                3087.97                3096.10
 Force Cnst:      6.0386                 6.1066                 6.1507
 Red. Mass:       1.0896                 1.0869                 1.0890
 IR Active:          YES                    YES                    YES
 IR Intens:       18.762                 13.084                 24.167
 Raman Active:       YES                    YES                    YES
               X      Y      Z        X      Y      Z        X      Y      Z
 C         -0.000  0.001 -0.000   -0.000 -0.000  0.000   -0.000  0.000 -0.000
 C          0.000 -0.001 -0.000    0.001 -0.003 -0.000   -0.002  0.004  0.001
 C          0.001  0.003 -0.000    0.020  0.045  0.007   -0.025 -0.063 -0.011
 C         -0.007 -0.001 -0.003   -0.061 -0.013 -0.027   -0.046 -0.009 -0.021
 C          0.040 -0.076 -0.005   -0.002  0.007  0.001   -0.000  0.004  0.000
 N          0.000 -0.000 -0.000    0.000  0.000  0.000    0.001 -0.000 -0.000
 H         -0.013 -0.002  0.002    0.003  0.001  0.000   -0.003 -0.001  0.000
 H         -0.005  0.006  0.001   -0.023  0.037  0.005    0.037 -0.059 -0.010
 H         -0.010 -0.023 -0.004   -0.221 -0.537 -0.103    0.296  0.730  0.133
 H          0.079  0.011  0.040    0.711  0.153  0.326    0.526  0.110  0.238
 H         -0.449  0.881  0.070    0.037 -0.079 -0.007    0.013 -0.028 -0.003
 C         -0.001  0.001  0.000    0.000 -0.001 -0.002    0.003 -0.001 -0.002
 H          0.003 -0.002 -0.002   -0.019  0.007  0.019   -0.036  0.013  0.039
 TransDip   0.051 -0.129  0.008   -0.069  0.067 -0.065   -0.123 -0.079 -0.058

 Mode:                31                     32                     33
 Frequency:      3171.06                3185.44                3200.05
 Force Cnst:      6.4393                 6.5386                 6.6148
 Red. Mass:       1.0869                 1.0937                 1.0964
 IR Active:          YES                    YES                    YES
 IR Intens:        5.934                  1.228                 38.668
 Raman Active:       YES                    YES                    YES
               X      Y      Z        X      Y      Z        X      Y      Z
 C         -0.031 -0.002  0.005   -0.003 -0.000  0.000   -0.079 -0.014  0.013
 C          0.042 -0.065 -0.011    0.002 -0.003 -0.001   -0.016  0.033  0.004
 C         -0.004 -0.006 -0.000    0.001 -0.006 -0.002    0.002  0.002 -0.000
 C         -0.000  0.000  0.000   -0.006  0.001 -0.004    0.000 -0.000  0.000
 C          0.001  0.000 -0.000    0.000  0.001 -0.000    0.002 -0.002  0.000
 N         -0.001  0.001 -0.000   -0.000  0.000 -0.000   -0.000  0.001 -0.000
 H          0.386  0.039 -0.061    0.031  0.003 -0.005    0.900  0.101 -0.143
 H         -0.499  0.751  0.135   -0.021  0.032  0.005    0.209 -0.322 -0.056
 H          0.031  0.067  0.012    0.010  0.027  0.001   -0.013 -0.025 -0.004
 H          0.002 -0.001  0.000    0.046  0.007  0.019   -0.002 -0.001 -0.001
 H          0.000 -0.001 -0.001    0.002 -0.008  0.002   -0.007  0.011  0.002
 C          0.003 -0.001 -0.003   -0.060  0.018  0.061    0.001 -0.000 -0.001
 H         -0.035  0.009  0.034    0.703 -0.195 -0.674   -0.009  0.002  0.009
 TransDip   0.013 -0.077 -0.006    0.006 -0.011  0.033   -0.190  0.050  0.030

 STANDARD THERMODYNAMIC QUANTITIES AT   298.15 K  AND     1.00 ATM

   This Molecule has  1 Imaginary Frequencies
   Zero point vibrational energy:       62.336 kcal/mol

   Atom    1 Element C  Has Mass   12.00000
   Atom    2 Element C  Has Mass   12.00000
   Atom    3 Element C  Has Mass   12.00000
   Atom    4 Element C  Has Mass   12.00000
   Atom    5 Element C  Has Mass   12.00000
   Atom    6 Element N  Has Mass   14.00307
   Atom    7 Element H  Has Mass    1.00783
   Atom    8 Element H  Has Mass    1.00783
   Atom    9 Element H  Has Mass    1.00783
   Atom   10 Element H  Has Mass    1.00783
   Atom   11 Element H  Has Mass    1.00783
   Atom   12 Element C  Has Mass   12.00000
   Atom   13 Element H  Has Mass    1.00783
   Molecular Mass:    92.050050 amu
   Principal axes and moments of inertia in amu*Bohr^2:
                             1           2           3
    Eigenvalues --      381.21305   491.68156   753.51399
          X               0.92769    -0.30045     0.22163
          Y               0.27583     0.95161     0.13549
          Z              -0.25162    -0.06456     0.96567
   Rotational Symmetry Number is   1
   The Molecule is an Asymmetric Top
   Translational Enthalpy:        0.889 kcal/mol
   Rotational Enthalpy:           0.889 kcal/mol
   Vibrational Enthalpy:         63.829 kcal/mol
   gas constant (RT):             0.592 kcal/mol
   Translational Entropy:        39.471  cal/mol.K
   Rotational Entropy:           26.449  cal/mol.K
   Vibrational Entropy:           7.006  cal/mol.K

   Total Enthalpy:               66.199 kcal/mol
   Total Entropy:                72.926  cal/mol.K
Archival summary:
1\1\c8-89\FREQ\ProcedureUnspecified\6-31G*\166(2)\hpark21\TueMar117:23:312022TueMar117:23:312022\0\\#,FREQ,ProcedureUnspecified,6-31G*,\\0,2\N\C,1,1.30044\H,2,1.10095,1,114.408\C,1,1.39086,2,119.237,3,177.96,0\H,4,1.08709,1,114.977,2,167.961,0\C,4,1.34609,1,123.774,2,-12.949,0\H,6,1.08915,4,119.406,1,172.785,0\C,6,1.48403,4,120.577,1,-1.03465,0\H,8,1.09607,6,112.861,4,161.379,0\C,8,1.52887,6,114.96,4,23.3968,0\H,10,1.09528,8,116.308,6,141.83,0\C,10,1.45101,8,63.7324,6,-110.249,0\H,12,1.0884,10,124.078,8,-145.048,0\\\@

 Total job time:  306.69s(wall), 260.93s(cpu) 
 Tue Mar  1 17:23:31 2022

        *************************************************************
        *                                                           *
        *  Thank you very much for using Q-Chem.  Have a nice day.  *
        *                                                           *
        *************************************************************


