
Running Job 1 of 1 qcts2.in
qchem qcts2.in_44620.0 ./qcts2.d/ 1
/home/leeping/opt/qchem/5.0.2-openmp/exe/qcprog.exe_s qcts2.in_44620.0 ./qcts2.d/
Check license passed

                  Welcome to Q-Chem
     A Quantum Leap Into The Future Of Chemistry


 Q-Chem 5.0, Q-Chem, Inc., Pleasanton, CA (2017)

 Yihan Shao,  Zhengting Gan,  E. Epifanovsky,  A. T. B. Gilbert,  M. Wormit,  
 J. Kussmann,  A. W. Lange,  A. Behn,  Jia Deng,  Xintian Feng,  D. Ghosh,  
 M. Goldey,  P. R. Horn,  L. D. Jacobson,  I. Kaliman,  T. Kus,  A. Landau,  
 Jie Liu,  E. I. Proynov,  R. M. Richard,  R. P. Steele,  E. J. Sundstrom,  
 H. L. Woodcock III,  P. M. Zimmerman,  D. Zuev,  B. Albrecht,  E. Alguire,  
 S. A. Baeppler,  D. Barton,  Z. Benda,  Y. A. Bernard,  E. J. Berquist,  
 K. B. Bravaya,  H. Burton,  D. Casanova,  Chun-Min Chang,  Yunqing Chen,  
 A. Chien,  K. D. Closser,  M. P. Coons,  S. Dasgupta,  A. L. Dempwolff,  
 M. Diedenhofen,  Hainam Do,  R. G. Edgar,  Po-Tung Fang,  S. Fatehi,  
 Qingguo Feng,  J. Fosso-Tande,  Qinghui Ge,  A. Ghysels,  G. Gidofalvi,  
 J. Gomes,  J. Gonthier,  A. Gunina,  M. W. D. Hanson-Heine,  
 P. H. P. Harbach,  A. W. Hauser,  J. E. Herr,  E. G. Hohenstein,  
 Z. C. Holden,  Kerwin Hui,  T.-C. Jagau,  Hyunjun Ji,  B. Kaduk,  
 K. Khistyaev,  Jaehoon Kim,  P. Klunzinger,  K. Koh,  D. Kosenkov,  
 L. Koulias,  T. Kowalczyk,  C. M. Krauter,  A. Kunitsa,  Ka Un Lao,  
 A. Laurent,  K. V. Lawler,  Joonho Lee,  D. Lefrancois,  S. Lehtola,  
 D. S. Levine,  Yi-Pei Li,  You-Sheng Lin,  Fenglai Liu,  E. Livshits,  
 A. Luenser,  P. Manohar,  E. Mansoor,  S. F. Manzer,  Shan-Ping Mao,  
 Yuezhi Mao,  N. Mardirossian,  A. V. Marenich,  T. Markovich,  
 L. A. Martinez-Martinez,  S. A. Maurer,  N. J. Mayhall,  S. C. McKenzie,  
 J.-M. Mewes,  A. F. Morrison,  J. W. Mullinax,  K. Nanda,  
 T. S. Nguyen-Beck,  R. Olivares-Amaya,  J. A. Parkhill,  T. M. Perrine,  
 F. Plasser,  S. Prager,  A. Prociuk,  E. Ramos,  D. R. Rehn,  F. Rob,  
 M. Schneider,  N. Sergueev,  S. M. Sharada,  S. Sharma,  D. W. Small,  
 T. Stauch,  T. Stein,  Yu-Chuan Su,  A. J. W. Thom,  A. Tkatchenko,  
 T. Tsuchimochi,  L. Vogt,  O. Vydrov,  M. A. Watson,  J. Wenzel,  
 M. de Wergifosse,  T. A. Wesolowski,  A. White,  J. Witte,  A. Yamada,  
 Jun Yang,  K. Yao,  S. Yeganeh,  S. R. Yost,  Zhi-Qiang You,  A. Zech,  
 Igor Ying Zhang,  Xing Zhang,  Yan Zhao,  Ying Zhu,  B. R. Brooks,  
 G. K. L. Chan,  C. J. Cramer,  M. S. Gordon,  W. J. Hehre,  A. Klamt,  
 M. W. Schmidt,  C. D. Sherrill,  D. G. Truhlar,  A. Aspuru-Guzik,  R. Baer,  
 A. T. Bell,  N. A. Besley,  Jeng-Da Chai,  R. A. DiStasio Jr.,  A. Dreuw,  
 B. D. Dunietz,  T. R. Furlani,  Chao-Ping Hsu,  Yousung Jung,  Jing Kong,  
 D. S. Lambrecht,  WanZhen Liang,  C. Ochsenfeld,  V. A. Rassolov,  
 L. V. Slipchenko,  J. E. Subotnik,  T. Van Voorhis,  J. M. Herbert,  
 A. I. Krylov,  P. M. W. Gill,  M. Head-Gordon

 Contributors to earlier versions of Q-Chem not listed above: 
 R. D. Adamson,  B. Austin,  J. Baker,  G. J. O. Beran,  K. Brandhorst,  
 S. T. Brown,  E. F. C. Byrd,  A. K. Chakraborty,  C.-L. Cheng,  
 Siu Hung Chien,  D. M. Chipman,  D. L. Crittenden,  H. Dachsel,  
 R. J. Doerksen,  A. D. Dutoi,  L. Fusti-Molnar,  W. A. Goddard III,  
 A. Golubeva-Zadorozhnaya,  S. R. Gwaltney,  G. Hawkins,  A. Heyden,  
 S. Hirata,  G. Kedziora,  F. J. Keil,  C. Kelley,  Jihan Kim,  R. A. King,  
 R. Z. Khaliullin,  P. P. Korambath,  W. Kurlancheek,  A. M. Lee,  M. S. Lee,  
 S. V. Levchenko,  Ching Yeh Lin,  D. Liotard,  R. C. Lochan,  I. Lotan,  
 P. E. Maslen,  N. Nair,  D. P. O'Neill,  D. Neuhauser,  E. Neuscamman,  
 C. M. Oana,  R. Olson,  B. Peters,  R. Peverati,  P. A. Pieniazek,  
 Y. M. Rhee,  J. Ritchie,  M. A. Rohrdanz,  E. Rosta,  N. J. Russ,  
 H. F. Schaefer III,  N. E. Schultz,  N. Shenvi,  A. C. Simmonett,  A. Sodt,  
 D. Stuck,  K. S. Thanthiriwatte,  V. Vanovschi,  Tao Wang,  A. Warshel,  
 C. F. Williams,  Q. Wu,  X. Xu,  W. Zhang

 Please cite Q-Chem as follows:
 Y. Shao et al., Mol. Phys. 113, 184-215 (2015)
 DOI: 10.1080/00268976.2014.952696

 Q-Chem 5.0.2 for Intel X86 EM64T Linux

 Parts of Q-Chem use Armadillo 5.200.1 (Boston Tea Smuggler).
 http://arma.sourceforge.net/

 Q-Chem begins on Tue Mar  1 18:02:07 2022  

Host: 
0

     Scratch files written to ./qcts2.d//
 Dec517 15110_ 26548  26544 5633   
Processing $rem in /home/leeping/opt/qchem/5.0.2-openmp/config/preferences.
 MEM_STATIC 2000
 MEM_TOTAL  8000
 SYMMETRY   OFF
 SYM_IGNORE TRUE 

Checking the input file for inconsistencies... 	...done.

--------------------------------------------------------------
User input:
--------------------------------------------------------------
$molecule
0 2
C        1.6938957894    0.2660909727   -0.3538030989
C        1.1307323895   -0.9510392602   -0.1316972878
C       -0.3167689383   -1.0136228440    0.1807953053
C       -1.1773990072    0.1328831816   -0.4012493205
C       -0.3447813373    1.3545632668   -0.2285506059
N        0.9794062511    1.4381447031   -0.2701773977
H        2.7541612582    0.3788786313   -0.5629708865
H        1.7043792282   -1.8689478140   -0.2132695345
H       -0.7690426668   -2.0057932664    0.1672737923
H       -2.0561554264    0.0516551002   -1.0359150173
H       -0.8866513194    2.2931595328   -0.1199171232
C       -1.0298266650   -0.0274535433    1.0326789054
H       -1.7011854043   -0.0587604114    1.8785867022
$end

$rem
method                b3lyp
basis                 6-31+g(d,p)
unrestricted          true
symmetry              off
sym_ignore            true
incdft                false
incfock               0
scf_convergence       6
thresh                14
jobtype               sp
scf_guess             read
scf_algorithm         diis
max_scf_cycles        100
stability_analysis    true
max_cis_cycles        100
cis_n_roots           4
$end

--------------------------------------------------------------
 ----------------------------------------------------------------
             Standard Nuclear Orientation (Angstroms)
    I     Atom           X                Y                Z
 ----------------------------------------------------------------
    1      C       1.6938957894     0.2660909727    -0.3538030989
    2      C       1.1307323895    -0.9510392602    -0.1316972878
    3      C      -0.3167689383    -1.0136228440     0.1807953053
    4      C      -1.1773990072     0.1328831816    -0.4012493205
    5      C      -0.3447813373     1.3545632668    -0.2285506059
    6      N       0.9794062511     1.4381447031    -0.2701773977
    7      H       2.7541612582     0.3788786313    -0.5629708865
    8      H       1.7043792282    -1.8689478140    -0.2132695345
    9      H      -0.7690426668    -2.0057932664     0.1672737923
   10      H      -2.0561554264     0.0516551002    -1.0359150173
   11      H      -0.8866513194     2.2931595328    -0.1199171232
   12      C      -1.0298266650    -0.0274535433     1.0326789054
   13      H      -1.7011854043    -0.0587604114     1.8785867022
 ----------------------------------------------------------------
 Nuclear Repulsion Energy =   273.6296583106 hartrees
 There are       25 alpha and       24 beta electrons
 Requested basis set is 6-31+G(d,p)
 There are 53 shells and 163 basis functions

 Total QAlloc Memory Limit   8000 MB
 Mega-Array Size      1956 MB
 MEM_STATIC part      2000 MB

                       Distance Matrix (Angstroms)
             C (  1)   C (  2)   C (  3)   C (  4)   C (  5)   N (  6)
   C (  2)  1.359371
   C (  3)  2.442588  1.482170
   C (  4)  2.874775  2.564180  1.547235
   C (  5)  2.314447  2.739037  2.403467  1.488482
   N (  6)  1.375209  2.397973  2.809735  2.524420  1.327476
   H (  7)  1.086570  2.142475  3.452950  3.942567  3.266075  2.087469
   H (  8)  2.139685  1.085486  2.229778  3.513874  3.819727  3.386102
   H (  9)  3.391024  2.193407  1.090475  2.250313  3.410084  3.887048
   H ( 10)  3.817610  3.461107  2.375009  1.087019  2.297435  3.423937
   H ( 11)  3.289823  3.820314  3.368977  2.197834  1.089214  2.058106
   C ( 12)  3.070369  2.622365  1.485492  1.450392  1.992475  2.807567
   H ( 13)  4.076232  3.585688  2.389742  2.347069  2.877037  3.747464
             H (  7)   H (  8)   H (  9)   H ( 10)   H ( 11)   C ( 12)
   H (  8)  2.505406
   H (  9)  4.316582  2.506263
   H ( 10)  4.844574  4.301986  2.708767
   H ( 11)  4.137183  4.903600  4.310140  2.689077
   C ( 12)  4.126714  3.524113  2.175032  2.310560  2.595038
   H ( 13)  5.099299  4.387540  2.754708  2.938114  3.192023  1.080399

 
 A cutoff of  1.0D-14 yielded   1386 shell pairs
 There are     13458 function pairs
 Smallest overlap matrix eigenvalue = 2.39E-05

 Scale SEOQF with 1.000000e-01/1.000000e-01/1.000000e-01

 Standard Electronic Orientation quadrupole field applied
 Nucleus-field energy     =     0.0000000045 hartrees
 Guess MOs from SCF MO coefficient file
 Reading MOs from coefficient file
 Reading MOs from coefficient file
 An unrestricted hybrid HF-DFT SCF calculation will be
 performed using Pulay DIIS extrapolation
 Exchange:     0.2000 Hartree-Fock + 0.0800 Slater + 0.7200 B88
 Correlation:  0.1900 VWN1RPA + 0.8100 LYP
 Using SG-1 standard quadrature grid
 SCF converges when DIIS error is below 1.0E-06
Using Q-Chem read-in guess as SCF_GUESS READ specified.

 -------------------------------------------------------
 OpenMP BLAS3 based DFT computing Module                
 -------------------------------------------------------
 ---------------------------------------
  Cycle       Energy         DIIS Error
 ---------------------------------------
    1    -286.8546796440      5.75E-10
    2    -286.8546796440      9.67E-10 Convergence criterion met
 ---------------------------------------
 <S^2> = 0.7899
 SCF time:  CPU 6.75 s  wall 17.21 s
 SCF   energy in the final basis set = -286.85467964
 Total energy in the final basis set = -286.85467964
 
 Direct TDDFT/TDA calculation will be performed
 Exchange:     0.2000 Hartree-Fock + 0.0800 Slater + 0.7200 B88
 Correlation:  0.1900 VWN1RPA + 0.8100 LYP
 Using SG-1 standard quadrature grid
 CIS energy converged when residual is below 10e- 6
 ---------------------------------------------------
 Iter    Rts Conv    Rts Left    Ttl Dev     Max Dev
 ---------------------------------------------------
   1         0           4      0.003403    0.001688
   2         0           4      0.001057    0.000314
   3         0           4      0.000492    0.000142
   4         0           4      0.000616    0.000478
   5         0           4      0.000250    0.000200
   6         0           4      0.000097    0.000083
   7         1           3      0.000066    0.000062
   8         3           1      0.000041    0.000039
   9         3           1      0.000015    0.000014
  10         3           1      0.000004    0.000004
  11         3           1      0.000002    0.000001
  12         4           0      0.000001    0.000000    Roots Converged
 ---------------------------------------------------
 
 ---------------------------------------------------
         TDDFT/TDA Excitation Energies              
 ---------------------------------------------------

 Excited state   1: excitation energy (eV) =    2.2556
 Total energy for state  1:                  -286.77178810 au
    <S**2>     :  0.8233
    Trans. Mom.: -0.3873 X   0.1282 Y   0.0977 Z
    Strength   :     0.0097244114
    S(  1) --> V(  1) amplitude =  0.3403 alpha
    D( 24) --> S(  1) amplitude =  0.9208 beta

 Excited state   2: excitation energy (eV) =    2.9671
 Total energy for state  2:                  -286.74563943 au
    <S**2>     :  0.8847
    Trans. Mom.: -0.0723 X   0.0553 Y   0.0403 Z
    Strength   :     0.0007206453
    S(  1) --> V(  1) amplitude =  0.4598 alpha
    D( 23) --> S(  1) amplitude =  0.8686 beta

 Excited state   3: excitation energy (eV) =    3.4279
 Total energy for state  3:                  -286.72870691 au
    <S**2>     :  0.9041
    Trans. Mom.:  0.5435 X  -0.2392 Y  -0.2968 Z
    Strength   :     0.0370095287
    S(  1) --> V(  1) amplitude =  0.7815 alpha
    D( 21) --> S(  1) amplitude =  0.1539 beta
    D( 23) --> S(  1) amplitude = -0.4428 beta
    D( 24) --> S(  1) amplitude = -0.3256 beta

 Excited state   4: excitation energy (eV) =    3.9631
 Total energy for state  4:                  -286.70903895 au
    <S**2>     :  2.3248
    Trans. Mom.: -0.1124 X   0.1627 Y   0.0391 Z
    Strength   :     0.0039464893
    D( 23) --> V(  1) amplitude =  0.2143 alpha
    D( 24) --> V(  1) amplitude = -0.5241 alpha
    S(  1) --> V(  1) amplitude = -0.1707 alpha
    D( 22) --> S(  1) amplitude =  0.2104 beta
    D( 24) --> V(  1) amplitude = -0.7024 beta
 
 ---------------------------------------------------

 Stability analysis will be performed
 ---------------------------------------------------
 Iter    Rts Conv    Rts Left    Ttl Dev     Max Dev
 ---------------------------------------------------
   1         0           8      0.004922    0.000770
   2         0           8      0.001932    0.000400
   3         0           8      0.000799    0.000180
   4         2           6      0.000359    0.000116
   5         3           5      0.000202    0.000109
   6         3           5      0.000106    0.000070
   7         3           5      0.000045    0.000030
   8         5           3      0.000014    0.000009
   9         7           1      0.000006    0.000003
  10         8           0      0.000003    0.000001    Roots Converged
 UKS-> UKS   stable,    smallest eigenvalue:      0.0676936
 UKS->CUKS   stable,    smallest eigenvalue:      0.0846835
 ---------------------------------------------------
  SETman timing summary (seconds)
  CPU time               195.10s
  System time              0.00s
  Wall time              268.57s
 
 --------------------------------------------------------------
 
                    Orbital Energies (a.u.)
 --------------------------------------------------------------
 
 Alpha MOs
 -- Occupied --
-14.338 -10.252 -10.232 -10.230 -10.227 -10.216 -10.204  -0.960
 -0.885  -0.777  -0.661  -0.646  -0.591  -0.544  -0.506  -0.491
 -0.461  -0.422  -0.397  -0.382  -0.360  -0.312  -0.272  -0.254
 -0.197
 -- Virtual --
 -0.033   0.000   0.016   0.022   0.025   0.039   0.048   0.057
  0.070   0.075   0.084   0.094   0.097   0.100   0.112   0.118
  0.125   0.130   0.147   0.151   0.157   0.174   0.178   0.182
  0.189   0.194   0.202   0.211   0.230   0.244   0.250   0.255
  0.271   0.274   0.279   0.302   0.306   0.319   0.326   0.339
  0.359   0.376   0.465   0.499   0.624   0.636   0.655   0.668
  0.680   0.713   0.728   0.741   0.743   0.764   0.773   0.801
  0.811   0.849   0.873   0.902   0.929   0.939   0.957   0.997
  1.004   1.010   1.044   1.065   1.093   1.109   1.120   1.187
  1.193   1.219   1.263   1.300   1.364   1.381   1.417   1.477
  1.522   1.596   1.615   1.681   1.684   1.713   1.798   1.831
  1.852   1.913   1.924   1.983   2.028   2.050   2.077   2.098
  2.148   2.171   2.200   2.260   2.276   2.312   2.351   2.397
  2.406   2.446   2.454   2.469   2.504   2.508   2.526   2.540
  2.559   2.606   2.622   2.664   2.678   2.704   2.739   2.828
  2.919   2.948   2.967   3.161   3.193   3.284   3.288   3.422
  3.438   3.590   3.719   4.211   4.301   4.460   4.518   4.594
  4.642   4.736
 
 Beta MOs
 -- Occupied --
-14.331 -10.254 -10.232 -10.226 -10.221 -10.218 -10.200  -0.952
 -0.874  -0.773  -0.653  -0.644  -0.577  -0.540  -0.504  -0.484
 -0.457  -0.418  -0.394  -0.370  -0.348  -0.302  -0.265  -0.233
 -- Virtual --
 -0.098  -0.023   0.001   0.016   0.024   0.027   0.041   0.049
  0.061   0.075   0.078   0.085   0.095   0.097   0.104   0.113
  0.119   0.127   0.133   0.149   0.153   0.158   0.176   0.181
  0.184   0.190   0.197   0.203   0.213   0.232   0.245   0.251
  0.259   0.275   0.278   0.282   0.306   0.307   0.320   0.331
  0.342   0.363   0.380   0.469   0.502   0.627   0.641   0.663
  0.674   0.692   0.718   0.724   0.747   0.751   0.766   0.778
  0.807   0.815   0.852   0.875   0.903   0.930   0.940   0.959
  1.002   1.008   1.018   1.058   1.071   1.098   1.112   1.125
  1.189   1.199   1.222   1.269   1.305   1.374   1.384   1.418
  1.486   1.531   1.602   1.628   1.688   1.690   1.723   1.807
  1.842   1.855   1.920   1.931   1.988   2.030   2.057   2.086
  2.109   2.152   2.179   2.206   2.262   2.281   2.315   2.358
  2.400   2.410   2.452   2.456   2.474   2.508   2.512   2.532
  2.541   2.561   2.613   2.628   2.670   2.685   2.709   2.742
  2.838   2.923   2.953   2.970   3.165   3.195   3.286   3.290
  3.424   3.439   3.596   3.720   4.222   4.307   4.458   4.517
  4.610   4.648   4.739
 --------------------------------------------------------------
 
          Ground-State Mulliken Net Atomic Charges

     Atom                 Charge (a.u.)    Spin (a.u.)
  --------------------------------------------------------
      1 C                    -0.306302      -0.163644
      2 C                     0.280598       0.333536
      3 C                    -0.389285      -0.049349
      4 C                     0.240384       0.022495
      5 C                    -0.362586      -0.180949
      6 N                    -0.101801       0.342340
      7 H                     0.126907       0.008491
      8 H                     0.127751      -0.014554
      9 H                     0.140119       0.017523
     10 H                     0.138954       0.002210
     11 H                     0.143943       0.009395
     12 C                    -0.181972       0.694628
     13 H                     0.143291      -0.022122
  --------------------------------------------------------
  Sum of atomic charges =     0.000000
  Sum of spin   charges =     1.000000

 -----------------------------------------------------------------
                    Cartesian Multipole Moments
 -----------------------------------------------------------------
    Charge (ESU x 10^10)
                 0.0000
    Dipole Moment (Debye)
         X      -2.1457      Y      -2.0318      Z      -0.0644
       Tot       2.9558
    Quadrupole Moments (Debye-Ang)
        XX     -38.2945     XY      -3.8174     YY     -42.6825
        XZ      -0.8754     YZ      -0.1650     ZZ     -43.0448
    Octopole Moments (Debye-Ang^2)
       XXX     -12.1037    XXY      -9.6467    XYY     -13.2677
       YYY     -29.1456    XXZ      -0.8748    XYZ       1.2178
       YYZ       1.2951    XZZ     -10.3672    YZZ      -6.0811
       ZZZ       4.7988
    Hexadecapole Moments (Debye-Ang^3)
      XXXX    -349.7244   XXXY      -7.3655   XXYY    -115.9943
      XYYY     -28.0893   YYYY    -296.2351   XXXZ      25.6334
      XXYZ       5.2512   XYYZ      12.2258   YYYZ      17.7850
      XXZZ     -78.1760   XYZZ      -0.8255   YYZZ     -75.4426
      XZZZ      27.9736   YZZZ      14.5195   ZZZZ    -120.1844
 -----------------------------------------------------------------
Archival summary:
1\1\c8-89\SP\ProcedureUnspecified\6-31+G**\166(2)\hpark21\TueMar118:07:022022TueMar118:07:022022\0\\#,ProcedureUnspecified,6-31+G**,\\0,2\N\C,1,1.32748\H,2,1.08921,1,116.431\C,1,1.37521,2,117.808,3,177.495,0\H,4,1.08657,1,115.481,2,169.556,0\C,4,1.35937,1,122.542,2,-13.2828,0\H,6,1.08549,4,121.73,1,179.232,0\C,6,1.48217,4,118.48,1,1.48241,0\H,8,1.09048,6,116.158,4,168.909,0\C,8,1.48549,6,124.171,4,-38.434,0\H,10,1.0804,8,136.723,6,-129.956,0\C,10,1.45039,8,63.5939,6,100.579,0\H,12,1.08702,10,130.634,8,115.557,0\\\@

 Total job time:  294.84s(wall), 202.10s(cpu) 
 Tue Mar  1 18:07:02 2022

        *************************************************************
        *                                                           *
        *  Thank you very much for using Q-Chem.  Have a nice day.  *
        *                                                           *
        *************************************************************


