
Running Job 1 of 1 qcts1.in
qchem qcts1.in_41819.0 ./qcts1.d/ 1
/home/leeping/opt/qchem/5.0.2-openmp/exe/qcprog.exe_s qcts1.in_41819.0 ./qcts1.d/
Check license passed

                  Welcome to Q-Chem
     A Quantum Leap Into The Future Of Chemistry


 Q-Chem 5.0, Q-Chem, Inc., Pleasanton, CA (2017)

 Yihan Shao,  Zhengting Gan,  E. Epifanovsky,  A. T. B. Gilbert,  M. Wormit,  
 J. Kussmann,  A. W. Lange,  A. Behn,  Jia Deng,  Xintian Feng,  D. Ghosh,  
 M. Goldey,  P. R. Horn,  L. D. Jacobson,  I. Kaliman,  T. Kus,  A. Landau,  
 Jie Liu,  E. I. Proynov,  R. M. Richard,  R. P. Steele,  E. J. Sundstrom,  
 H. L. Woodcock III,  P. M. Zimmerman,  D. Zuev,  B. Albrecht,  E. Alguire,  
 S. A. Baeppler,  D. Barton,  Z. Benda,  Y. A. Bernard,  E. J. Berquist,  
 K. B. Bravaya,  H. Burton,  D. Casanova,  Chun-Min Chang,  Yunqing Chen,  
 A. Chien,  K. D. Closser,  M. P. Coons,  S. Dasgupta,  A. L. Dempwolff,  
 M. Diedenhofen,  Hainam Do,  R. G. Edgar,  Po-Tung Fang,  S. Fatehi,  
 Qingguo Feng,  J. Fosso-Tande,  Qinghui Ge,  A. Ghysels,  G. Gidofalvi,  
 J. Gomes,  J. Gonthier,  A. Gunina,  M. W. D. Hanson-Heine,  
 P. H. P. Harbach,  A. W. Hauser,  J. E. Herr,  E. G. Hohenstein,  
 Z. C. Holden,  Kerwin Hui,  T.-C. Jagau,  Hyunjun Ji,  B. Kaduk,  
 K. Khistyaev,  Jaehoon Kim,  P. Klunzinger,  K. Koh,  D. Kosenkov,  
 L. Koulias,  T. Kowalczyk,  C. M. Krauter,  A. Kunitsa,  Ka Un Lao,  
 A. Laurent,  K. V. Lawler,  Joonho Lee,  D. Lefrancois,  S. Lehtola,  
 D. S. Levine,  Yi-Pei Li,  You-Sheng Lin,  Fenglai Liu,  E. Livshits,  
 A. Luenser,  P. Manohar,  E. Mansoor,  S. F. Manzer,  Shan-Ping Mao,  
 Yuezhi Mao,  N. Mardirossian,  A. V. Marenich,  T. Markovich,  
 L. A. Martinez-Martinez,  S. A. Maurer,  N. J. Mayhall,  S. C. McKenzie,  
 J.-M. Mewes,  A. F. Morrison,  J. W. Mullinax,  K. Nanda,  
 T. S. Nguyen-Beck,  R. Olivares-Amaya,  J. A. Parkhill,  T. M. Perrine,  
 F. Plasser,  S. Prager,  A. Prociuk,  E. Ramos,  D. R. Rehn,  F. Rob,  
 M. Schneider,  N. Sergueev,  S. M. Sharada,  S. Sharma,  D. W. Small,  
 T. Stauch,  T. Stein,  Yu-Chuan Su,  A. J. W. Thom,  A. Tkatchenko,  
 T. Tsuchimochi,  L. Vogt,  O. Vydrov,  M. A. Watson,  J. Wenzel,  
 M. de Wergifosse,  T. A. Wesolowski,  A. White,  J. Witte,  A. Yamada,  
 Jun Yang,  K. Yao,  S. Yeganeh,  S. R. Yost,  Zhi-Qiang You,  A. Zech,  
 Igor Ying Zhang,  Xing Zhang,  Yan Zhao,  Ying Zhu,  B. R. Brooks,  
 G. K. L. Chan,  C. J. Cramer,  M. S. Gordon,  W. J. Hehre,  A. Klamt,  
 M. W. Schmidt,  C. D. Sherrill,  D. G. Truhlar,  A. Aspuru-Guzik,  R. Baer,  
 A. T. Bell,  N. A. Besley,  Jeng-Da Chai,  R. A. DiStasio Jr.,  A. Dreuw,  
 B. D. Dunietz,  T. R. Furlani,  Chao-Ping Hsu,  Yousung Jung,  Jing Kong,  
 D. S. Lambrecht,  WanZhen Liang,  C. Ochsenfeld,  V. A. Rassolov,  
 L. V. Slipchenko,  J. E. Subotnik,  T. Van Voorhis,  J. M. Herbert,  
 A. I. Krylov,  P. M. W. Gill,  M. Head-Gordon

 Contributors to earlier versions of Q-Chem not listed above: 
 R. D. Adamson,  B. Austin,  J. Baker,  G. J. O. Beran,  K. Brandhorst,  
 S. T. Brown,  E. F. C. Byrd,  A. K. Chakraborty,  C.-L. Cheng,  
 Siu Hung Chien,  D. M. Chipman,  D. L. Crittenden,  H. Dachsel,  
 R. J. Doerksen,  A. D. Dutoi,  L. Fusti-Molnar,  W. A. Goddard III,  
 A. Golubeva-Zadorozhnaya,  S. R. Gwaltney,  G. Hawkins,  A. Heyden,  
 S. Hirata,  G. Kedziora,  F. J. Keil,  C. Kelley,  Jihan Kim,  R. A. King,  
 R. Z. Khaliullin,  P. P. Korambath,  W. Kurlancheek,  A. M. Lee,  M. S. Lee,  
 S. V. Levchenko,  Ching Yeh Lin,  D. Liotard,  R. C. Lochan,  I. Lotan,  
 P. E. Maslen,  N. Nair,  D. P. O'Neill,  D. Neuhauser,  E. Neuscamman,  
 C. M. Oana,  R. Olson,  B. Peters,  R. Peverati,  P. A. Pieniazek,  
 Y. M. Rhee,  J. Ritchie,  M. A. Rohrdanz,  E. Rosta,  N. J. Russ,  
 H. F. Schaefer III,  N. E. Schultz,  N. Shenvi,  A. C. Simmonett,  A. Sodt,  
 D. Stuck,  K. S. Thanthiriwatte,  V. Vanovschi,  Tao Wang,  A. Warshel,  
 C. F. Williams,  Q. Wu,  X. Xu,  W. Zhang

 Please cite Q-Chem as follows:
 Y. Shao et al., Mol. Phys. 113, 184-215 (2015)
 DOI: 10.1080/00268976.2014.952696

 Q-Chem 5.0.2 for Intel X86 EM64T Linux

 Parts of Q-Chem use Armadillo 5.200.1 (Boston Tea Smuggler).
 http://arma.sourceforge.net/

 Q-Chem begins on Tue Mar  1 17:24:19 2022  

Host: 
0

     Scratch files written to ./qcts1.d//
 Dec517 15110_ 26548  26544 5633   
Processing $rem in /home/leeping/opt/qchem/5.0.2-openmp/config/preferences.
 MEM_STATIC 2000
 MEM_TOTAL  8000
 SYMMETRY   OFF
 SYM_IGNORE TRUE 

Checking the input file for inconsistencies... 	...done.

--------------------------------------------------------------
User input:
--------------------------------------------------------------
$molecule
0 2
C        1.6927699040    0.2588535677   -0.2991790499
C        1.1312906710   -0.9537918318   -0.1373054878
C       -0.3221313649   -1.0826897546    0.1334254348
C       -1.1721837208    0.1004379750   -0.3303298763
C       -0.3178723563    1.4206300636   -0.2916302864
N        0.9814877577    1.4530614821   -0.2498698001
H        2.7614700359    0.3676429660   -0.4659432616
H        1.7305500778   -1.8474385820   -0.3062396812
H       -0.7066697084   -2.0876506513   -0.0752902777
H       -2.1530331945   -0.1426144045   -0.7528279630
H       -0.8003756700    2.4069987973   -0.2119196833
C       -1.0304595856   -0.0652618429    1.1042055834
H       -1.8140786945    0.1615804647    1.8246887820
$end

$rem
method                b3lyp
basis                 6-31g(d)
unrestricted          true
symmetry              off
sym_ignore            true
incdft                false
incfock               0
scf_convergence       8
thresh                14
jobtype               ts
scf_guess             read
scf_algorithm         diis
max_scf_cycles        100
geom_opt_max_cycles   500
geom_opt_dmax         100
geom_opt_tol_gradient 10
geom_opt_hessian      read
$end

--------------------------------------------------------------
 ----------------------------------------------------------------
             Standard Nuclear Orientation (Angstroms)
    I     Atom           X                Y                Z
 ----------------------------------------------------------------
    1      C       1.6927699040     0.2588535677    -0.2991790499
    2      C       1.1312906710    -0.9537918318    -0.1373054878
    3      C      -0.3221313649    -1.0826897546     0.1334254348
    4      C      -1.1721837208     0.1004379750    -0.3303298763
    5      C      -0.3178723563     1.4206300636    -0.2916302864
    6      N       0.9814877577     1.4530614821    -0.2498698001
    7      H       2.7614700359     0.3676429660    -0.4659432616
    8      H       1.7305500778    -1.8474385820    -0.3062396812
    9      H      -0.7066697084    -2.0876506513    -0.0752902777
   10      H      -2.1530331945    -0.1426144045    -0.7528279630
   11      H      -0.8003756700     2.4069987973    -0.2119196833
   12      C      -1.0304595856    -0.0652618429     1.1042055834
   13      H      -1.8140786945     0.1615804647     1.8246887820
 ----------------------------------------------------------------
 Nuclear Repulsion Energy =   270.3485392803 hartrees
 There are       25 alpha and       24 beta electrons
 Requested basis set is 6-31G(d)
 There are 40 shells and 117 basis functions

 Total QAlloc Memory Limit   8000 MB
 Mega-Array Size      1956 MB
 MEM_STATIC part      2000 MB
 A cutoff of  1.0D-14 yielded    807 shell pairs
 There are      7079 function pairs
 
 -------------------------------------------------------
 OpenMP Integral Computing Module                       
 Release: version 1.0, May 2013, Q-Chem Inc. Pittsburgh 
 -------------------------------------------------------
 Integral Job Info:
 Integral job number is                      11
 Integral operator is                         1
 short-range coefficients                     0
 long-range coefficients              100000000
 Omega coefficients                           0
 if combine SR and LR in K                    0
 Integral screening is                        0
 Integral computing path is                   2
 max size of driver memory is            800000
 size of driver memory is                593474
 size of scratch memory is              2361544
 max col of scratch BK array               1296
 max len of scratch array in speh3          155
 max len of scratch index in speh4           18
 max int batch size is                      520
 min int batch size is                       52
 fixed nKL is                                52
 max L of basis functions is                  2
 order of int derivative is                   0
 number of shells is                         40
 number of basis is                         117
 number of cartesian basis is               117
 number of contracted shell pairs           807
 number of primitive shell pairs           3497
 maxK2 (contraction) of shell pair           36
 max number of K2 of shell pair               1
 max number of CS2 of shell pair             86
 max number of PS2 of shell pair            408
 mem total for path MDJ                  535308
 -------------------------------------------------------
 Smallest overlap matrix eigenvalue = 1.22E-03

 Scale SEOQF with 1.000000e-01/1.000000e-01/1.000000e-01

 Standard Electronic Orientation quadrupole field applied
 Nucleus-field energy     =     0.0000000047 hartrees
 Guess MOs from SCF MO coefficient file
 Reading MOs from coefficient file
 Reading MOs from coefficient file
 An unrestricted hybrid HF-DFT SCF calculation will be
 performed using Pulay DIIS extrapolation
 Exchange:     0.2000 Hartree-Fock + 0.0800 Slater + 0.7200 B88
 Correlation:  0.1900 VWN1RPA + 0.8100 LYP
 Using SG-1 standard quadrature grid
 SCF converges when DIIS error is below 1.0E-08
Using Q-Chem read-in guess as SCF_GUESS READ specified.

 using 4 threads for integral computing
 -------------------------------------------------------
 OpenMP Integral computing Module                
 Release: version 1.0, May 2013, Q-Chem Inc. Pittsburgh 
 -------------------------------------------------------
 -------------------------------------------------------
 OpenMP BLAS3 based DFT computing Module                
 Release: version 1.0, May 2013, Q-Chem Inc. Pittsburgh 
 -------------------------------------------------------
 ---------------------------------------
  Cycle       Energy         DIIS Error
 ---------------------------------------
    1    -286.8132222034      1.98E-10
    2    -286.8132222034      2.51E-10 Convergence criterion met
 ---------------------------------------
 <S^2> = 0.7794
 SCF time:  CPU 5.48 s  wall 4.53 s
 SCF   energy in the final basis set = -286.81322220
 Total energy in the final basis set = -286.81322220
 
 --------------------------------------------------------------
 
                    Orbital Energies (a.u.)
 --------------------------------------------------------------
 
 Alpha MOs
 -- Occupied --
-14.326 -10.249 -10.231 -10.218 -10.216 -10.204 -10.192  -0.940
 -0.866  -0.766  -0.650  -0.627  -0.577  -0.531  -0.496  -0.483
 -0.446  -0.418  -0.384  -0.371  -0.336  -0.303  -0.257  -0.240
 -0.191
 -- Virtual --
 -0.029   0.060   0.087   0.112   0.127   0.139   0.152   0.164
  0.185   0.211   0.234   0.248   0.278   0.328   0.397   0.439
  0.502   0.512   0.533   0.546   0.560   0.576   0.597   0.610
  0.631   0.649   0.652   0.667   0.690   0.709   0.750   0.797
  0.819   0.846   0.856   0.856   0.876   0.893   0.917   0.926
  0.966   0.993   1.052   1.093   1.129   1.192   1.261   1.282
  1.405   1.468   1.485   1.517   1.528   1.593   1.621   1.687
  1.703   1.760   1.799   1.819   1.892   1.931   1.950   2.019
  2.070   2.095   2.142   2.187   2.242   2.244   2.295   2.317
  2.421   2.468   2.476   2.540   2.560   2.608   2.620   2.663
  2.720   2.753   2.807   2.999   3.220   4.004   4.093   4.202
  4.272   4.341   4.430   4.603
 
 Beta MOs
 -- Occupied --
-14.321 -10.251 -10.232 -10.216 -10.206 -10.205 -10.190  -0.934
 -0.855  -0.763  -0.646  -0.623  -0.559  -0.526  -0.495  -0.477
 -0.443  -0.414  -0.380  -0.363  -0.327  -0.296  -0.252  -0.217
 -- Virtual --
 -0.076  -0.017   0.071   0.092   0.119   0.129   0.141   0.154
  0.171   0.188   0.213   0.237   0.251   0.287   0.331   0.401
  0.440   0.513   0.519   0.535   0.553   0.577   0.581   0.601
  0.612   0.634   0.652   0.659   0.674   0.696   0.715   0.757
  0.799   0.822   0.849   0.857   0.863   0.880   0.900   0.921
  0.929   0.972   0.999   1.054   1.097   1.132   1.203   1.267
  1.285   1.415   1.470   1.493   1.519   1.535   1.598   1.627
  1.702   1.711   1.768   1.805   1.832   1.911   1.943   1.961
  2.024   2.071   2.098   2.151   2.193   2.253   2.259   2.298
  2.325   2.430   2.475   2.481   2.544   2.567   2.618   2.631
  2.668   2.723   2.757   2.813   3.001   3.222   4.010   4.101
  4.201   4.279   4.356   4.432   4.605
 --------------------------------------------------------------
 
          Ground-State Mulliken Net Atomic Charges

     Atom                 Charge (a.u.)    Spin (a.u.)
  --------------------------------------------------------
      1 C                    -0.001841      -0.099454
      2 C                    -0.072131       0.174335
      3 C                    -0.184721      -0.040718
      4 C                    -0.158632      -0.013863
      5 C                     0.052823      -0.124444
      6 N                    -0.375638       0.219166
      7 H                     0.138148       0.005628
      8 H                     0.134118      -0.007134
      9 H                     0.153947       0.019980
     10 H                     0.158489       0.013975
     11 H                     0.156914       0.010354
     12 C                    -0.164199       0.871127
     13 H                     0.162724      -0.028952
  --------------------------------------------------------
  Sum of atomic charges =     0.000000
  Sum of spin   charges =     1.000000

 -----------------------------------------------------------------
                    Cartesian Multipole Moments
 -----------------------------------------------------------------
    Charge (ESU x 10^10)
                -0.0000
    Dipole Moment (Debye)
         X      -2.0038      Y      -1.5779      Z      -0.3603
       Tot       2.5758
    Quadrupole Moments (Debye-Ang)
        XX     -36.8467     XY      -3.5771     YY     -40.5449
        XZ      -1.0961     YZ       1.0905     ZZ     -42.7833
    Octopole Moments (Debye-Ang^2)
       XXX     -13.1781    XXY      -8.7622    XYY     -11.9119
       YYY     -24.4073    XXZ       0.1900    XYZ      -0.1136
       YYZ      -0.9891    XZZ      -8.1426    YZZ      -4.2972
       ZZZ       1.6635
    Hexadecapole Moments (Debye-Ang^3)
      XXXX    -331.8082   XXXY      -8.0342   XXYY    -113.2687
      XYYY     -26.4211   YYYY    -288.0618   XXXZ      24.4553
      XXYZ       7.6623   XYYZ      12.2378   YYYZ      17.9254
      XXZZ     -75.2730   XYZZ      -2.9682   YYZZ     -72.0047
      XZZZ      28.0650   YZZZ      16.4296   ZZZZ    -112.6783
 -----------------------------------------------------------------
 Calculating analytic gradient of the SCF energy
 Gradient of SCF Energy
            1           2           3           4           5           6
    1  -0.0002187  -0.0038892   0.0041696  -0.0076523   0.0061974   0.0028663
    2   0.0004402   0.0010151  -0.0221854  -0.0260572   0.0191706  -0.0017851
    3   0.0029792   0.0015799  -0.0189534  -0.0031660   0.0151360  -0.0024703
            7           8           9          10          11          12
    1   0.0002544   0.0020621   0.0068245  -0.0051581   0.0058304  -0.0040441
    2  -0.0007036   0.0001830  -0.0062916  -0.0168846   0.0111292   0.0277745
    3   0.0014345  -0.0045977  -0.0100886   0.0120138   0.0015465   0.0098432
           13
    1  -0.0072423
    2   0.0141949
    3  -0.0052570
 Max gradient component =       2.777E-02
 RMS gradient           =       1.049E-02
 Gradient time:  CPU 7.73 s  wall 2.50 s
 Geometry Optimization Parameters
   NAtoms,    NIC,     NZ,  NCons,   NDum,   NFix, NCnnct, MaxDiis
       13     103       0       0       0       0       0       0

 Cartesian Hessian read from HESS file


** GEOMETRY OPTIMIZATION IN DELOCALIZED INTERNAL COORDINATES **
   Searching for a Transition State

   Optimization Cycle:   1

                       Coordinates (Angstroms)
     ATOM                X               Y               Z
      1  C         1.6927699040    0.2588535677   -0.2991790499
      2  C         1.1312906710   -0.9537918318   -0.1373054878
      3  C        -0.3221313649   -1.0826897546    0.1334254348
      4  C        -1.1721837208    0.1004379750   -0.3303298763
      5  C        -0.3178723563    1.4206300636   -0.2916302864
      6  N         0.9814877577    1.4530614821   -0.2498698001
      7  H         2.7614700359    0.3676429660   -0.4659432616
      8  H         1.7305500778   -1.8474385820   -0.3062396812
      9  H        -0.7066697084   -2.0876506513   -0.0752902777
     10  H        -2.1530331945   -0.1426144045   -0.7528279630
     11  H        -0.8003756700    2.4069987973   -0.2119196833
     12  C        -1.0304595856   -0.0652618429    1.1042055834
     13  H        -1.8140786945    0.1615804647    1.8246887820
   Point Group: c1    Number of degrees of freedom:    33


   Energy is   -286.813222203


 Attempting to Generate Delocalized Internal Coordinates

 Transforming Cartesian Hessian to Internal Coordinates
 Hessian Transformation does not Include Derivative of B-matrix

 33 Hessian modes will be used to form the next step
  Hessian Eigenvalues:
    -0.026932    0.002770    0.009264    0.009896    0.012701    0.017343
     0.020003    0.022556    0.027655    0.032219    0.041362    0.047631
     0.056251    0.079491    0.095590    0.116726    0.118260    0.128396
     0.140691    0.156542    0.206283    0.211992    0.255045    0.303988
     0.330617    0.337979    0.339723    0.341126    0.356064    0.357214
     0.368636    0.545298    0.564022

 Transition State Search - Taking P-RFO Step
 Searching for Lamda that Maximizes Along the Lowest mode
 Value Taken    Lamda =   0.01272883
 Searching for Lamda that Minimizes Along All other modes
 Value Taken    Lamda =  -0.03293720
 Calculated Step too Large.  Step scaled by  0.123733
 Step Taken.  Stepsize is  0.100000

                             Maximum     Tolerance    Cnvgd?
         Gradient           0.033404      0.000010      NO
         Displacement       0.043033      0.001200      NO
         Energy change     *********      0.000001      NO


 New Cartesian Coordinates Obtained by Inverse Iteration

 Displacement from previous Coordinates is:  0.107823
 ----------------------------------------------------------------
             Standard Nuclear Orientation (Angstroms)
    I     Atom           X                Y                Z
 ----------------------------------------------------------------
    1      C       1.6933930844     0.2596108870    -0.3032436153
    2      C       1.1326269274    -0.9543426700    -0.1389793557
    3      C      -0.3211125530    -1.0755966257     0.1364732518
    4      C      -1.1712112753     0.0997709213    -0.3423642451
    5      C      -0.3234184537     1.4070807624    -0.2816550502
    6      N       0.9799014401     1.4491800124    -0.2458951129
    7      H       2.7618101715     0.3706774089    -0.4709782865
    8      H       1.7282162987    -1.8507083849    -0.3036940552
    9      H      -0.7123911453    -2.0803169504    -0.0544246576
   10      H      -2.1487196821    -0.1309259758    -0.7753173043
   11      H      -0.8142476253     2.3867364824    -0.1915544364
   12      C      -1.0223578201    -0.0581615142     1.0947370078
   13      H      -1.8017252158     0.1667538959     1.8186802924
 ----------------------------------------------------------------
 Nuclear Repulsion Energy =   270.9488589568 hartrees
 There are       25 alpha and       24 beta electrons
 Applying Cartesian multipole field
    Component          Value
    ---------          -----
     (2,0,0)        1.00000E-11
     (0,2,0)        2.00000E-11
     (0,0,2)       -3.00000E-11
 Nucleus-field energy     =     0.0000000047 hartrees
 Requested basis set is 6-31G(d)
 There are 40 shells and 117 basis functions
 A cutoff of  1.0D-14 yielded    807 shell pairs
 There are      7079 function pairs
 Smallest overlap matrix eigenvalue = 1.20E-03
 Guess MOs from SCF MO coefficient file
 Reading MOs from coefficient file
 Reading MOs from coefficient file
 An unrestricted hybrid HF-DFT SCF calculation will be
 performed using Pulay DIIS extrapolation
 Exchange:     0.2000 Hartree-Fock + 0.0800 Slater + 0.7200 B88
 Correlation:  0.1900 VWN1RPA + 0.8100 LYP
 Using SG-1 standard quadrature grid
 SCF converges when DIIS error is below 1.0E-08
 Geometry optimization detected.  Setting ReadMinima to 0
 Setting SaveMinima to 0
Using Q-Chem read-in guess as SCF_GUESS READ specified.

 using 4 threads for integral computing
 -------------------------------------------------------
 OpenMP Integral computing Module                
 Release: version 1.0, May 2013, Q-Chem Inc. Pittsburgh 
 -------------------------------------------------------
 -------------------------------------------------------
 OpenMP BLAS3 based DFT computing Module                
 Release: version 1.0, May 2013, Q-Chem Inc. Pittsburgh 
 -------------------------------------------------------
 ---------------------------------------
  Cycle       Energy         DIIS Error
 ---------------------------------------
    1    -286.8250200944      7.21E-04
    2    -286.8155490979      1.54E-04
    3    -286.8154737632      2.82E-04
    4    -286.8156301871      3.80E-05
    5    -286.8156356795      1.70E-05
    6    -286.8156389801      6.49E-06
    7    -286.8156411315      4.72E-06
    8    -286.8156418089      2.15E-06
    9    -286.8156421144      1.11E-06
   10    -286.8156421928      5.16E-07
   11    -286.8156422275      1.93E-07
   12    -286.8156422467      1.28E-07
   13    -286.8156422537      4.50E-08
   14    -286.8156422546      2.65E-08
   15    -286.8156422547      7.61E-09 Convergence criterion met
 ---------------------------------------
 <S^2> = 0.7833
 SCF time:  CPU 39.38 s  wall 27.82 s
 SCF   energy in the final basis set = -286.81564225
 Total energy in the final basis set = -286.81564225
 
 --------------------------------------------------------------
 
                    Orbital Energies (a.u.)
 --------------------------------------------------------------
 
 Alpha MOs
 -- Occupied --
-14.325 -10.249 -10.231 -10.218 -10.215 -10.204 -10.192  -0.941
 -0.867  -0.766  -0.649  -0.629  -0.579  -0.532  -0.497  -0.483
 -0.446  -0.417  -0.384  -0.371  -0.338  -0.302  -0.257  -0.240
 -0.190
 -- Virtual --
 -0.027   0.062   0.087   0.113   0.129   0.139   0.152   0.164
  0.184   0.211   0.236   0.249   0.279   0.328   0.399   0.439
  0.502   0.510   0.533   0.546   0.561   0.576   0.596   0.609
  0.632   0.647   0.650   0.667   0.691   0.711   0.747   0.798
  0.819   0.846   0.855   0.856   0.876   0.893   0.918   0.929
  0.972   0.993   1.055   1.092   1.129   1.197   1.262   1.283
  1.406   1.468   1.487   1.516   1.531   1.595   1.625   1.688
  1.709   1.758   1.802   1.819   1.889   1.938   1.952   2.022
  2.079   2.097   2.139   2.190   2.246   2.255   2.299   2.315
  2.422   2.471   2.478   2.545   2.562   2.609   2.620   2.665
  2.724   2.755   2.809   2.999   3.222   4.005   4.096   4.208
  4.278   4.343   4.432   4.603
 
 Beta MOs
 -- Occupied --
-14.320 -10.250 -10.231 -10.215 -10.206 -10.206 -10.189  -0.934
 -0.857  -0.763  -0.645  -0.625  -0.560  -0.527  -0.495  -0.477
 -0.443  -0.414  -0.381  -0.362  -0.329  -0.295  -0.252  -0.217
 -- Virtual --
 -0.077  -0.014   0.074   0.092   0.121   0.131   0.141   0.154
  0.171   0.187   0.213   0.240   0.251   0.288   0.330   0.403
  0.440   0.512   0.517   0.535   0.554   0.578   0.579   0.600
  0.611   0.635   0.651   0.656   0.674   0.696   0.717   0.755
  0.800   0.821   0.849   0.857   0.863   0.879   0.900   0.922
  0.932   0.977   0.998   1.057   1.096   1.132   1.206   1.268
  1.286   1.416   1.470   1.495   1.518   1.537   1.601   1.631
  1.703   1.717   1.766   1.809   1.832   1.908   1.951   1.962
  2.026   2.079   2.101   2.149   2.196   2.257   2.270   2.302
  2.323   2.430   2.477   2.484   2.550   2.570   2.620   2.629
  2.671   2.726   2.759   2.816   3.000   3.224   4.012   4.103
  4.207   4.285   4.358   4.434   4.606
 --------------------------------------------------------------
 
          Ground-State Mulliken Net Atomic Charges

     Atom                 Charge (a.u.)    Spin (a.u.)
  --------------------------------------------------------
      1 C                    -0.001035      -0.110033
      2 C                    -0.072108       0.197531
      3 C                    -0.186439      -0.040680
      4 C                    -0.151996      -0.007496
      5 C                     0.048133      -0.138803
      6 N                    -0.376174       0.245023
      7 H                     0.137957       0.006295
      8 H                     0.133893      -0.008416
      9 H                     0.154066       0.019761
     10 H                     0.158098       0.012368
     11 H                     0.156585       0.010451
     12 C                    -0.164047       0.842595
     13 H                     0.163065      -0.028595
  --------------------------------------------------------
  Sum of atomic charges =     0.000000
  Sum of spin   charges =     1.000000

 -----------------------------------------------------------------
                    Cartesian Multipole Moments
 -----------------------------------------------------------------
    Charge (ESU x 10^10)
                 0.0000
    Dipole Moment (Debye)
         X      -2.0268      Y      -1.6161      Z      -0.3345
       Tot       2.6137
    Quadrupole Moments (Debye-Ang)
        XX     -36.8193     XY      -3.5705     YY     -40.6109
        XZ      -1.1045     YZ       1.0182     ZZ     -42.7160
    Octopole Moments (Debye-Ang^2)
       XXX     -13.2370    XXY      -8.6691    XYY     -11.9597
       YYY     -24.6622    XXZ       0.1384    XYZ      -0.1081
       YYZ      -0.7748    XZZ      -8.2425    YZZ      -4.3492
       ZZZ       1.8922
    Hexadecapole Moments (Debye-Ang^3)
      XXXX    -331.2280   XXXY      -7.6502   XXYY    -112.5780
      XYYY     -25.8255   YYYY    -286.3294   XXXZ      24.1716
      XXYZ       7.3549   XYYZ      11.9012   YYYZ      17.3055
      XXZZ     -74.9520   XYZZ      -2.7632   YYZZ     -71.4418
      XZZZ      27.5867   YZZZ      15.7524   ZZZZ    -111.8609
 -----------------------------------------------------------------
 Calculating analytic gradient of the SCF energy
 Gradient of SCF Energy
            1           2           3           4           5           6
    1  -0.0001026  -0.0035189   0.0031439  -0.0067702   0.0057983   0.0022544
    2   0.0003382   0.0011638  -0.0201678  -0.0230656   0.0172723  -0.0016242
    3   0.0026355   0.0017514  -0.0175162  -0.0033850   0.0133592  -0.0019726
            7           8           9          10          11          12
    1   0.0002479   0.0018209   0.0063684  -0.0047446   0.0052751  -0.0029551
    2  -0.0006467   0.0001793  -0.0055610  -0.0154633   0.0098835   0.0241668
    3   0.0013979  -0.0042091  -0.0095452   0.0112836   0.0014692   0.0100860
           13
    1  -0.0068177
    2   0.0135247
    3  -0.0053547
 Max gradient component =       2.417E-02
 RMS gradient           =       9.492E-03
 Gradient time:  CPU 7.82 s  wall 4.57 s
 Geometry Optimization Parameters
   NAtoms,    NIC,     NZ,  NCons,   NDum,   NFix, NCnnct, MaxDiis
       13     103       0       0       0       0       0       0

 Cartesian Hessian Update
 Hessian Updated using Powell/Murtagh-Sargent Update
  Mixing factors:     0.978226 Powell
                      0.021774 Murtagh-Sargent


** GEOMETRY OPTIMIZATION IN DELOCALIZED INTERNAL COORDINATES **
   Searching for a Transition State

   Optimization Cycle:   2

                       Coordinates (Angstroms)
     ATOM                X               Y               Z
      1  C         1.6933930844    0.2596108870   -0.3032436153
      2  C         1.1326269274   -0.9543426700   -0.1389793557
      3  C        -0.3211125530   -1.0755966257    0.1364732518
      4  C        -1.1712112753    0.0997709213   -0.3423642451
      5  C        -0.3234184537    1.4070807624   -0.2816550502
      6  N         0.9799014401    1.4491800124   -0.2458951129
      7  H         2.7618101715    0.3706774089   -0.4709782865
      8  H         1.7282162987   -1.8507083849   -0.3036940552
      9  H        -0.7123911453   -2.0803169504   -0.0544246576
     10  H        -2.1487196821   -0.1309259758   -0.7753173043
     11  H        -0.8142476253    2.3867364824   -0.1915544364
     12  C        -1.0223578201   -0.0581615142    1.0947370078
     13  H        -1.8017252158    0.1667538959    1.8186802924
   Point Group: c1    Number of degrees of freedom:    33


   Energy is   -286.815642255

 Hessian Updated using Powell/Murtagh-Sargent Update
  Mixing factors:     0.803661 Powell
                      0.196339 Murtagh-Sargent

 33 Hessian modes will be used to form the next step
  Hessian Eigenvalues:
    -0.034475    0.002795    0.009159    0.009819    0.012822    0.017579
     0.020008    0.022427    0.027624    0.032163    0.041011    0.048073
     0.056262    0.080556    0.095055    0.116770    0.117974    0.128427
     0.140586    0.156143    0.206311    0.212050    0.254995    0.303989
     0.330620    0.337849    0.339664    0.340829    0.356061    0.357207
     0.368624    0.545224    0.563970

 Transition State Search - Taking P-RFO Step
 Searching for Lamda that Maximizes Along the Lowest mode
 Value Taken    Lamda =   0.00822218
 Searching for Lamda that Minimizes Along All other modes
 Value Taken    Lamda =  -0.02918333
 Calculated Step too Large.  Step scaled by  0.139273
 Step Taken.  Stepsize is  0.100000

                             Maximum     Tolerance    Cnvgd?
         Gradient           0.030745      0.000010      NO
         Displacement       0.041541      0.001200      NO
         Energy change     -0.002420      0.000001      NO


 New Cartesian Coordinates Obtained by Inverse Iteration

 Displacement from previous Coordinates is:  0.104249
 ----------------------------------------------------------------
             Standard Nuclear Orientation (Angstroms)
    I     Atom           X                Y                Z
 ----------------------------------------------------------------
    1      C       1.6937351968     0.2605636414    -0.3079654890
    2      C       1.1335852573    -0.9543140702    -0.1390744321
    3      C      -0.3205530368    -1.0687534971     0.1411804532
    4      C      -1.1689704401     0.1021604610    -0.3535039127
    5      C      -0.3275589278     1.3953721080    -0.2730054522
    6      N       0.9791768912     1.4466418593    -0.2434658069
    7      H       2.7615835209     0.3730396294    -0.4789239611
    8      H       1.7256696807    -1.8534782770    -0.2986385476
    9      H      -0.7188045197    -2.0731424458    -0.0317561867
   10      H      -2.1433119507    -0.1155055968    -0.7975008702
   11      H      -0.8271661316     2.3682963223    -0.1746665976
   12      C      -1.0149173498    -0.0534807118     1.0856618206
   13      H      -1.7917040388     0.1623588267     1.8134434151
 ----------------------------------------------------------------
 Nuclear Repulsion Energy =   271.5151851335 hartrees
 There are       25 alpha and       24 beta electrons
 Applying Cartesian multipole field
    Component          Value
    ---------          -----
     (2,0,0)        1.00000E-11
     (0,2,0)        2.00000E-11
     (0,0,2)       -3.00000E-11
 Nucleus-field energy     =     0.0000000047 hartrees
 Requested basis set is 6-31G(d)
 There are 40 shells and 117 basis functions
 A cutoff of  1.0D-14 yielded    807 shell pairs
 There are      7079 function pairs
 Smallest overlap matrix eigenvalue = 1.18E-03
 Guess MOs from SCF MO coefficient file
 Reading MOs from coefficient file
 Reading MOs from coefficient file
 An unrestricted hybrid HF-DFT SCF calculation will be
 performed using Pulay DIIS extrapolation
 Exchange:     0.2000 Hartree-Fock + 0.0800 Slater + 0.7200 B88
 Correlation:  0.1900 VWN1RPA + 0.8100 LYP
 Using SG-1 standard quadrature grid
 SCF converges when DIIS error is below 1.0E-08
 Geometry optimization detected.  Setting ReadMinima to 0
 Setting SaveMinima to 0
Using Q-Chem read-in guess as SCF_GUESS READ specified.

 using 4 threads for integral computing
 -------------------------------------------------------
 OpenMP Integral computing Module                
 Release: version 1.0, May 2013, Q-Chem Inc. Pittsburgh 
 -------------------------------------------------------
 -------------------------------------------------------
 OpenMP BLAS3 based DFT computing Module                
 Release: version 1.0, May 2013, Q-Chem Inc. Pittsburgh 
 -------------------------------------------------------
 ---------------------------------------
  Cycle       Energy         DIIS Error
 ---------------------------------------
    1    -286.8282457730      7.27E-04
    2    -286.8183388829      1.68E-04
    3    -286.8182386521      3.04E-04
    4    -286.8184220949      3.97E-05
    5    -286.8184266189      1.75E-05
    6    -286.8184288520      6.60E-06
    7    -286.8184302413      4.55E-06
    8    -286.8184308492      2.04E-06
    9    -286.8184310724      1.19E-06
   10    -286.8184311397      4.66E-07
   11    -286.8184311601      1.79E-07
   12    -286.8184311699      1.08E-07
   13    -286.8184311751      3.62E-08
   14    -286.8184311759      2.08E-08
   15    -286.8184311759      7.22E-09 Convergence criterion met
 ---------------------------------------
 <S^2> = 0.7859
 SCF time:  CPU 39.82 s  wall 24.25 s
 SCF   energy in the final basis set = -286.81843118
 Total energy in the final basis set = -286.81843118
 
 --------------------------------------------------------------
 
                    Orbital Energies (a.u.)
 --------------------------------------------------------------
 
 Alpha MOs
 -- Occupied --
-14.325 -10.248 -10.230 -10.218 -10.215 -10.204 -10.192  -0.942
 -0.868  -0.766  -0.648  -0.632  -0.579  -0.533  -0.497  -0.483
 -0.447  -0.417  -0.384  -0.371  -0.341  -0.301  -0.258  -0.241
 -0.189
 -- Virtual --
 -0.024   0.064   0.087   0.115   0.132   0.139   0.152   0.165
  0.184   0.212   0.239   0.249   0.281   0.327   0.401   0.439
  0.501   0.509   0.532   0.546   0.561   0.576   0.595   0.607
  0.633   0.645   0.649   0.667   0.690   0.713   0.745   0.798
  0.819   0.846   0.855   0.856   0.875   0.893   0.919   0.931
  0.977   0.994   1.058   1.091   1.129   1.200   1.263   1.285
  1.406   1.467   1.489   1.515   1.533   1.597   1.628   1.690
  1.715   1.757   1.805   1.821   1.887   1.944   1.954   2.025
  2.085   2.101   2.137   2.193   2.250   2.264   2.304   2.314
  2.424   2.473   2.482   2.548   2.565   2.609   2.621   2.669
  2.727   2.757   2.812   2.998   3.223   4.006   4.098   4.214
  4.286   4.344   4.434   4.604
 
 Beta MOs
 -- Occupied --
-14.319 -10.250 -10.231 -10.215 -10.207 -10.206 -10.189  -0.935
 -0.858  -0.763  -0.644  -0.627  -0.562  -0.528  -0.495  -0.477
 -0.444  -0.414  -0.381  -0.362  -0.331  -0.293  -0.252  -0.217
 -- Virtual --
 -0.078  -0.012   0.077   0.092   0.122   0.133   0.142   0.155
  0.170   0.187   0.214   0.243   0.251   0.290   0.330   0.405
  0.440   0.512   0.516   0.535   0.554   0.577   0.580   0.600
  0.610   0.636   0.649   0.654   0.674   0.695   0.719   0.753
  0.800   0.821   0.849   0.856   0.863   0.879   0.900   0.922
  0.935   0.982   0.998   1.060   1.095   1.133   1.209   1.270
  1.287   1.416   1.469   1.496   1.517   1.540   1.603   1.635
  1.703   1.724   1.765   1.813   1.832   1.905   1.958   1.963
  2.029   2.085   2.104   2.147   2.200   2.261   2.280   2.307
  2.322   2.430   2.477   2.490   2.553   2.573   2.621   2.629
  2.676   2.729   2.761   2.819   2.999   3.225   4.014   4.106
  4.213   4.291   4.359   4.436   4.606
 --------------------------------------------------------------
 
          Ground-State Mulliken Net Atomic Charges

     Atom                 Charge (a.u.)    Spin (a.u.)
  --------------------------------------------------------
      1 C                    -0.000653      -0.118170
      2 C                    -0.071964       0.217093
      3 C                    -0.188222      -0.040276
      4 C                    -0.146310      -0.001476
      5 C                     0.044159      -0.149101
      6 N                    -0.376699       0.265886
      7 H                     0.137779       0.006856
      8 H                     0.133662      -0.009466
      9 H                     0.154137       0.019770
     10 H                     0.157749       0.010812
     11 H                     0.156085       0.010463
     12 C                    -0.162875       0.815645
     13 H                     0.163152      -0.028034
  --------------------------------------------------------
  Sum of atomic charges =    -0.000000
  Sum of spin   charges =     1.000000

 -----------------------------------------------------------------
                    Cartesian Multipole Moments
 -----------------------------------------------------------------
    Charge (ESU x 10^10)
                -0.0000
    Dipole Moment (Debye)
         X      -2.0486      Y      -1.6550      Z      -0.3050
       Tot       2.6512
    Quadrupole Moments (Debye-Ang)
        XX     -36.8023     XY      -3.5608     YY     -40.6861
        XZ      -1.1130     YZ       0.9258     ZZ     -42.6377
    Octopole Moments (Debye-Ang^2)
       XXX     -13.3393    XXY      -8.6229    XYY     -12.0117
       YYY     -24.9624    XXZ       0.0820    XYZ      -0.0680
       YYZ      -0.5585    XZZ      -8.3533    YZZ      -4.4301
       ZZZ       2.1200
    Hexadecapole Moments (Debye-Ang^3)
      XXXX    -330.6604   XXXY      -7.3750   XXYY    -111.9891
      XYYY     -25.3599   YYYY    -284.9588   XXXZ      23.9170
      XXYZ       7.0790   XYYZ      11.6361   YYYZ      16.9304
      XXZZ     -74.6171   XYZZ      -2.5608   YYZZ     -70.9656
      XZZZ      27.1930   YZZZ      15.3124   ZZZZ    -111.1313
 -----------------------------------------------------------------
 Calculating analytic gradient of the SCF energy
 Gradient of SCF Energy
            1           2           3           4           5           6
    1  -0.0000168  -0.0030746   0.0020328  -0.0054135   0.0054512   0.0015117
    2   0.0001854   0.0014653  -0.0180622  -0.0189656   0.0147675  -0.0013457
    3   0.0022034   0.0019167  -0.0156061  -0.0036570   0.0115511  -0.0015088
            7           8           9          10          11          12
    1   0.0002286   0.0015729   0.0057942  -0.0045571   0.0045617  -0.0017057
    2  -0.0005739   0.0001443  -0.0050079  -0.0141106   0.0086059   0.0201475
    3   0.0012909  -0.0037659  -0.0087393   0.0104049   0.0014258   0.0098212
           13
    1  -0.0063855
    2   0.0127501
    3  -0.0053369
 Max gradient component =       2.015E-02
 RMS gradient           =       8.320E-03
 Gradient time:  CPU 7.91 s  wall 6.35 s
 Geometry Optimization Parameters
   NAtoms,    NIC,     NZ,  NCons,   NDum,   NFix, NCnnct, MaxDiis
       13     103       0       0       0       0       0       0

 Cartesian Hessian Update
 Hessian Updated using Powell/Murtagh-Sargent Update
  Mixing factors:     0.999296 Powell
                      0.000704 Murtagh-Sargent


** GEOMETRY OPTIMIZATION IN DELOCALIZED INTERNAL COORDINATES **
   Searching for a Transition State

   Optimization Cycle:   3

                       Coordinates (Angstroms)
     ATOM                X               Y               Z
      1  C         1.6937351968    0.2605636414   -0.3079654890
      2  C         1.1335852573   -0.9543140702   -0.1390744321
      3  C        -0.3205530368   -1.0687534971    0.1411804532
      4  C        -1.1689704401    0.1021604610   -0.3535039127
      5  C        -0.3275589278    1.3953721080   -0.2730054522
      6  N         0.9791768912    1.4466418593   -0.2434658069
      7  H         2.7615835209    0.3730396294   -0.4789239611
      8  H         1.7256696807   -1.8534782770   -0.2986385476
      9  H        -0.7188045197   -2.0731424458   -0.0317561867
     10  H        -2.1433119507   -0.1155055968   -0.7975008702
     11  H        -0.8271661316    2.3682963223   -0.1746665976
     12  C        -1.0149173498   -0.0534807118    1.0856618206
     13  H        -1.7917040388    0.1623588267    1.8134434151
   Point Group: c1    Number of degrees of freedom:    33


   Energy is   -286.818431176

 Hessian Updated using Powell/Murtagh-Sargent Update
  Mixing factors:     0.989109 Powell
                      0.010891 Murtagh-Sargent

 33 Hessian modes will be used to form the next step
  Hessian Eigenvalues:
    -0.039749    0.002794    0.008793    0.009659    0.012921    0.017406
     0.020028    0.022442    0.027608    0.032225    0.042722    0.047963
     0.056301    0.081344    0.097420    0.116869    0.117974    0.128464
     0.140592    0.158014    0.206565    0.212292    0.254990    0.304011
     0.330634    0.337849    0.339659    0.340834    0.356077    0.357215
     0.368632    0.545256    0.564183

 Transition State Search - Taking P-RFO Step
 Searching for Lamda that Maximizes Along the Lowest mode
 Value Taken    Lamda =   0.00542613
 Searching for Lamda that Minimizes Along All other modes
 Value Taken    Lamda =  -0.02391656
 Calculated Step too Large.  Step scaled by  0.154507
 Step Taken.  Stepsize is  0.100000

                             Maximum     Tolerance    Cnvgd?
         Gradient           0.027352      0.000010      NO
         Displacement       0.040647      0.001200      NO
         Energy change     -0.002789      0.000001      NO


 New Cartesian Coordinates Obtained by Inverse Iteration

 Displacement from previous Coordinates is:  0.098136
 ----------------------------------------------------------------
             Standard Nuclear Orientation (Angstroms)
    I     Atom           X                Y                Z
 ----------------------------------------------------------------
    1      C       1.6939118113     0.2615227158    -0.3124863155
    2      C       1.1341834378    -0.9541172573    -0.1387200620
    3      C      -0.3201307559    -1.0621511513     0.1465006898
    4      C      -1.1669248628     0.1055045721    -0.3627877065
    5      C      -0.3307869939     1.3860336631    -0.2662400487
    6      N       0.9789941876     1.4449522395    -0.2424779448
    7      H       2.7611770020     0.3749118759    -0.4869999779
    8      H       1.7229846452    -1.8559634983    -0.2928044830
    9      H      -0.7250954532    -2.0659172241    -0.0091847019
   10      H      -2.1373943974    -0.0980313710    -0.8191688116
   11      H      -0.8382430853     2.3529909634    -0.1629794898
   12      C      -1.0088587549    -0.0502541401     1.0778991215
   13      H      -1.7830526290     0.1502768618     1.8112341633
 ----------------------------------------------------------------
 Nuclear Repulsion Energy =   271.9950929122 hartrees
 There are       25 alpha and       24 beta electrons
 Applying Cartesian multipole field
    Component          Value
    ---------          -----
     (2,0,0)        1.00000E-11
     (0,2,0)        2.00000E-11
     (0,0,2)       -3.00000E-11
 Nucleus-field energy     =     0.0000000046 hartrees
 Requested basis set is 6-31G(d)
 There are 40 shells and 117 basis functions
 A cutoff of  1.0D-14 yielded    807 shell pairs
 There are      7079 function pairs
 Smallest overlap matrix eigenvalue = 1.17E-03
 Guess MOs from SCF MO coefficient file
 Reading MOs from coefficient file
 Reading MOs from coefficient file
 An unrestricted hybrid HF-DFT SCF calculation will be
 performed using Pulay DIIS extrapolation
 Exchange:     0.2000 Hartree-Fock + 0.0800 Slater + 0.7200 B88
 Correlation:  0.1900 VWN1RPA + 0.8100 LYP
 Using SG-1 standard quadrature grid
 SCF converges when DIIS error is below 1.0E-08
 Geometry optimization detected.  Setting ReadMinima to 0
 Setting SaveMinima to 0
Using Q-Chem read-in guess as SCF_GUESS READ specified.

 using 4 threads for integral computing
 -------------------------------------------------------
 OpenMP Integral computing Module                
 Release: version 1.0, May 2013, Q-Chem Inc. Pittsburgh 
 -------------------------------------------------------
 -------------------------------------------------------
 OpenMP BLAS3 based DFT computing Module                
 Release: version 1.0, May 2013, Q-Chem Inc. Pittsburgh 
 -------------------------------------------------------
 ---------------------------------------
  Cycle       Energy         DIIS Error
 ---------------------------------------
    1    -286.8304126820      6.64E-04
    2    -286.8210543623      1.67E-04
    3    -286.8209517557      2.99E-04
    4    -286.8211313045      3.81E-05
    5    -286.8211348066      1.69E-05
    6    -286.8211363745      6.17E-06
    7    -286.8211372508      3.88E-06
    8    -286.8211376845      1.84E-06
    9    -286.8211378327      1.08E-06
   10    -286.8211378805      3.98E-07
   11    -286.8211378925      1.51E-07
   12    -286.8211378977      8.55E-08
   13    -286.8211379005      3.15E-08
   14    -286.8211379010      1.91E-08
   15    -286.8211379010      6.67E-09 Convergence criterion met
 ---------------------------------------
 <S^2> = 0.7877
 SCF time:  CPU 39.28 s  wall 34.21 s
 SCF   energy in the final basis set = -286.82113790
 Total energy in the final basis set = -286.82113790
 
 --------------------------------------------------------------
 
                    Orbital Energies (a.u.)
 --------------------------------------------------------------
 
 Alpha MOs
 -- Occupied --
-14.324 -10.247 -10.230 -10.219 -10.215 -10.204 -10.192  -0.943
 -0.869  -0.766  -0.647  -0.633  -0.580  -0.534  -0.497  -0.483
 -0.447  -0.417  -0.385  -0.371  -0.343  -0.300  -0.259  -0.241
 -0.189
 -- Virtual --
 -0.022   0.065   0.088   0.117   0.134   0.140   0.153   0.165
  0.183   0.212   0.241   0.248   0.283   0.327   0.402   0.438
  0.501   0.509   0.532   0.547   0.560   0.576   0.595   0.606
  0.633   0.644   0.648   0.667   0.690   0.715   0.743   0.799
  0.819   0.846   0.854   0.856   0.875   0.893   0.919   0.932
  0.980   0.996   1.061   1.090   1.130   1.202   1.265   1.286
  1.404   1.464   1.490   1.514   1.537   1.599   1.630   1.690
  1.721   1.756   1.808   1.824   1.885   1.947   1.958   2.028
  2.089   2.104   2.136   2.196   2.254   2.273   2.309   2.314
  2.425   2.474   2.486   2.549   2.569   2.609   2.623   2.673
  2.729   2.759   2.815   2.997   3.225   4.008   4.100   4.219
  4.292   4.344   4.436   4.604
 
 Beta MOs
 -- Occupied --
-14.319 -10.249 -10.230 -10.215 -10.207 -10.206 -10.189  -0.936
 -0.859  -0.763  -0.643  -0.629  -0.563  -0.529  -0.495  -0.477
 -0.444  -0.414  -0.381  -0.361  -0.332  -0.292  -0.253  -0.218
 -- Virtual --
 -0.079  -0.010   0.079   0.092   0.124   0.136   0.143   0.155
  0.170   0.186   0.214   0.245   0.251   0.291   0.330   0.406
  0.440   0.510   0.516   0.535   0.554   0.574   0.582   0.600
  0.608   0.637   0.648   0.653   0.674   0.695   0.721   0.751
  0.801   0.821   0.849   0.855   0.864   0.879   0.901   0.923
  0.937   0.987   1.000   1.063   1.095   1.134   1.210   1.272
  1.289   1.415   1.467   1.498   1.517   1.544   1.605   1.638
  1.702   1.729   1.764   1.817   1.833   1.903   1.963   1.966
  2.031   2.089   2.106   2.146   2.204   2.265   2.289   2.312
  2.322   2.431   2.478   2.495   2.555   2.577   2.622   2.629
  2.680   2.731   2.763   2.822   2.999   3.227   4.015   4.108
  4.218   4.297   4.360   4.438   4.606
 --------------------------------------------------------------
 
          Ground-State Mulliken Net Atomic Charges

     Atom                 Charge (a.u.)    Spin (a.u.)
  --------------------------------------------------------
      1 C                    -0.000493      -0.124273
      2 C                    -0.071735       0.233063
      3 C                    -0.189654      -0.039641
      4 C                    -0.141747       0.003856
      5 C                     0.040987      -0.156197
      6 N                    -0.377166       0.281938
      7 H                     0.137619       0.007308
      8 H                     0.133490      -0.010300
      9 H                     0.154115       0.019836
     10 H                     0.157377       0.009376
     11 H                     0.155616       0.010447
     12 C                    -0.161386       0.791962
     13 H                     0.162979      -0.027373
  --------------------------------------------------------
  Sum of atomic charges =    -0.000000
  Sum of spin   charges =     1.000000

 -----------------------------------------------------------------
                    Cartesian Multipole Moments
 -----------------------------------------------------------------
    Charge (ESU x 10^10)
                -0.0000
    Dipole Moment (Debye)
         X      -2.0650      Y      -1.6901      Z      -0.2763
       Tot       2.6827
    Quadrupole Moments (Debye-Ang)
        XX     -36.7971     XY      -3.5511     YY     -40.7588
        XZ      -1.1142     YZ       0.8235     ZZ     -42.5493
    Octopole Moments (Debye-Ang^2)
       XXX     -13.4211    XXY      -8.6117    XYY     -12.0515
       YYY     -25.2447    XXZ       0.0260    XYZ       0.0051
       YYZ      -0.3640    XZZ      -8.4725    YZZ      -4.5304
       ZZZ       2.3454
    Hexadecapole Moments (Debye-Ang^3)
      XXXX    -330.2437   XXXY      -7.1787   XXYY    -111.5123
      XYYY     -25.0215   YYYY    -283.8755   XXXZ      23.7564
      XXYZ       6.8341   XYYZ      11.4518   YYYZ      16.7315
      XXZZ     -74.3011   XYZZ      -2.3658   YYZZ     -70.5903
      XZZZ      26.8802   YZZZ      15.0578   ZZZZ    -110.5305
 -----------------------------------------------------------------
 Calculating analytic gradient of the SCF energy
 Gradient of SCF Energy
            1           2           3           4           5           6
    1   0.0000338  -0.0026438   0.0009581  -0.0041605   0.0047569   0.0010916
    2   0.0001338   0.0016182  -0.0157677  -0.0151959   0.0123721  -0.0011348
    3   0.0017894   0.0019894  -0.0134970  -0.0039314   0.0098704  -0.0011185
            7           8           9          10          11          12
    1   0.0002091   0.0013294   0.0052141  -0.0042931   0.0038719  -0.0004298
    2  -0.0004963   0.0001092  -0.0044484  -0.0126616   0.0073613   0.0162579
    3   0.0011728  -0.0033217  -0.0078385   0.0094667   0.0013367   0.0092496
           13
    1  -0.0059376
    2   0.0118523
    3  -0.0051679
 Max gradient component =       1.626E-02
 RMS gradient           =       7.168E-03
 Gradient time:  CPU 7.58 s  wall 3.64 s
 Geometry Optimization Parameters
   NAtoms,    NIC,     NZ,  NCons,   NDum,   NFix, NCnnct, MaxDiis
       13     103       0       0       0       0       0       0

 Cartesian Hessian Update
 Hessian Updated using Powell/Murtagh-Sargent Update
  Mixing factors:     0.995805 Powell
                      0.004195 Murtagh-Sargent


** GEOMETRY OPTIMIZATION IN DELOCALIZED INTERNAL COORDINATES **
   Searching for a Transition State

   Optimization Cycle:   4

                       Coordinates (Angstroms)
     ATOM                X               Y               Z
      1  C         1.6939118113    0.2615227158   -0.3124863155
      2  C         1.1341834378   -0.9541172573   -0.1387200620
      3  C        -0.3201307559   -1.0621511513    0.1465006898
      4  C        -1.1669248628    0.1055045721   -0.3627877065
      5  C        -0.3307869939    1.3860336631   -0.2662400487
      6  N         0.9789941876    1.4449522395   -0.2424779448
      7  H         2.7611770020    0.3749118759   -0.4869999779
      8  H         1.7229846452   -1.8559634983   -0.2928044830
      9  H        -0.7250954532   -2.0659172241   -0.0091847019
     10  H        -2.1373943974   -0.0980313710   -0.8191688116
     11  H        -0.8382430853    2.3529909634   -0.1629794898
     12  C        -1.0088587549   -0.0502541401    1.0778991215
     13  H        -1.7830526290    0.1502768618    1.8112341633
   Point Group: c1    Number of degrees of freedom:    33


   Energy is   -286.821137901

 Hessian Updated using Powell/Murtagh-Sargent Update
  Mixing factors:     0.915872 Powell
                      0.084128 Murtagh-Sargent

 33 Hessian modes will be used to form the next step
  Hessian Eigenvalues:
    -0.041631    0.002792    0.008116    0.009648    0.012907    0.017209
     0.020040    0.022418    0.027598    0.032243    0.043510    0.047732
     0.056302    0.081799    0.099735    0.117000    0.117969    0.128487
     0.140583    0.159836    0.206780    0.212587    0.255010    0.304027
     0.330657    0.337863    0.339668    0.340843    0.356101    0.357247
     0.368640    0.545299    0.564365

 Transition State Search - Taking P-RFO Step
 Searching for Lamda that Maximizes Along the Lowest mode
 Value Taken    Lamda =   0.00382118
 Searching for Lamda that Minimizes Along All other modes
 Value Taken    Lamda =  -0.01935864
 Calculated Step too Large.  Step scaled by  0.163028
 Step Taken.  Stepsize is  0.100000

                             Maximum     Tolerance    Cnvgd?
         Gradient           0.023830      0.000010      NO
         Displacement       0.042114      0.001200      NO
         Energy change     -0.002707      0.000001      NO


 New Cartesian Coordinates Obtained by Inverse Iteration

 Displacement from previous Coordinates is:  0.092666
 ----------------------------------------------------------------
             Standard Nuclear Orientation (Angstroms)
    I     Atom           X                Y                Z
 ----------------------------------------------------------------
    1      C       1.6940258667     0.2623913071    -0.3168690685
    2      C       1.1345266949    -0.9537988334    -0.1381676966
    3      C      -0.3196842633    -1.0560741382     0.1519626235
    4      C      -1.1653198553     0.1091367989    -0.3702125534
    5      C      -0.3330012385     1.3791328108    -0.2609784778
    6      N       0.9793033146     1.4439778417    -0.2427298202
    7      H       2.7606988662     0.3762411715    -0.4951373067
    8      H       1.7204218776    -1.8580877946    -0.2866765677
    9      H      -0.7309026595    -2.0590609283     0.0126924529
   10      H      -2.1311877594    -0.0802958751    -0.8400498483
   11      H      -0.8471300437     2.3410612123    -0.1551999058
   12      C      -1.0048325625    -0.0476627968     1.0714524561
   13      H      -1.7761540864     0.1327974732     1.8116981454
 ----------------------------------------------------------------
 Nuclear Repulsion Energy =   272.3693009206 hartrees
 There are       25 alpha and       24 beta electrons
 Applying Cartesian multipole field
    Component          Value
    ---------          -----
     (2,0,0)        1.00000E-11
     (0,2,0)        2.00000E-11
     (0,0,2)       -3.00000E-11
 Nucleus-field energy     =     0.0000000046 hartrees
 Requested basis set is 6-31G(d)
 There are 40 shells and 117 basis functions
 A cutoff of  1.0D-14 yielded    807 shell pairs
 There are      7079 function pairs
 Smallest overlap matrix eigenvalue = 1.16E-03
 Guess MOs from SCF MO coefficient file
 Reading MOs from coefficient file
 Reading MOs from coefficient file
 An unrestricted hybrid HF-DFT SCF calculation will be
 performed using Pulay DIIS extrapolation
 Exchange:     0.2000 Hartree-Fock + 0.0800 Slater + 0.7200 B88
 Correlation:  0.1900 VWN1RPA + 0.8100 LYP
 Using SG-1 standard quadrature grid
 SCF converges when DIIS error is below 1.0E-08
 Geometry optimization detected.  Setting ReadMinima to 0
 Setting SaveMinima to 0
Using Q-Chem read-in guess as SCF_GUESS READ specified.

 using 4 threads for integral computing
 -------------------------------------------------------
 OpenMP Integral computing Module                
 Release: version 1.0, May 2013, Q-Chem Inc. Pittsburgh 
 -------------------------------------------------------
 -------------------------------------------------------
 OpenMP BLAS3 based DFT computing Module                
 Release: version 1.0, May 2013, Q-Chem Inc. Pittsburgh 
 -------------------------------------------------------
 ---------------------------------------
  Cycle       Energy         DIIS Error
 ---------------------------------------
    1    -286.8315163246      5.67E-04
    2    -286.8234622422      1.51E-04
    3    -286.8233785048      2.68E-04
    4    -286.8235233794      3.36E-05
    5    -286.8235258309      1.52E-05
    6    -286.8235268839      5.51E-06
    7    -286.8235274099      3.15E-06
    8    -286.8235276790      1.59E-06
    9    -286.8235277713      9.19E-07
   10    -286.8235278029      3.25E-07
   11    -286.8235278096      1.24E-07
   12    -286.8235278123      6.54E-08
   13    -286.8235278137      2.70E-08
   14    -286.8235278140      1.69E-08
   15    -286.8235278140      5.53E-09 Convergence criterion met
 ---------------------------------------
 <S^2> = 0.7888
 SCF time:  CPU 39.32 s  wall 47.70 s
 SCF   energy in the final basis set = -286.82352781
 Total energy in the final basis set = -286.82352781
 
 --------------------------------------------------------------
 
                    Orbital Energies (a.u.)
 --------------------------------------------------------------
 
 Alpha MOs
 -- Occupied --
-14.324 -10.247 -10.229 -10.219 -10.215 -10.204 -10.192  -0.944
 -0.870  -0.766  -0.647  -0.635  -0.581  -0.535  -0.497  -0.482
 -0.447  -0.417  -0.385  -0.371  -0.344  -0.300  -0.259  -0.241
 -0.188
 -- Virtual --
 -0.020   0.067   0.088   0.120   0.136   0.139   0.153   0.165
  0.183   0.213   0.243   0.248   0.285   0.326   0.403   0.438
  0.501   0.508   0.531   0.547   0.558   0.577   0.594   0.605
  0.634   0.644   0.647   0.667   0.689   0.716   0.741   0.800
  0.819   0.846   0.853   0.857   0.875   0.894   0.919   0.933
  0.981   1.000   1.064   1.090   1.132   1.202   1.267   1.287
  1.402   1.461   1.492   1.514   1.541   1.600   1.632   1.689
  1.724   1.755   1.810   1.828   1.884   1.950   1.961   2.031
  2.090   2.106   2.136   2.199   2.257   2.280   2.312   2.316
  2.426   2.475   2.491   2.549   2.573   2.608   2.625   2.677
  2.731   2.760   2.818   2.996   3.226   4.009   4.102   4.223
  4.298   4.344   4.437   4.604
 
 Beta MOs
 -- Occupied --
-14.318 -10.248 -10.229 -10.215 -10.207 -10.206 -10.189  -0.937
 -0.860  -0.763  -0.643  -0.630  -0.564  -0.530  -0.495  -0.476
 -0.444  -0.413  -0.381  -0.361  -0.334  -0.291  -0.253  -0.218
 -- Virtual --
 -0.080  -0.008   0.080   0.092   0.126   0.137   0.143   0.156
  0.170   0.186   0.215   0.247   0.251   0.293   0.329   0.407
  0.440   0.509   0.516   0.534   0.554   0.572   0.583   0.600
  0.607   0.637   0.648   0.652   0.674   0.694   0.722   0.750
  0.802   0.821   0.849   0.855   0.865   0.878   0.901   0.923
  0.938   0.988   1.003   1.066   1.094   1.136   1.210   1.274
  1.290   1.412   1.464   1.499   1.517   1.548   1.606   1.640
  1.701   1.732   1.763   1.821   1.836   1.901   1.964   1.970
  2.034   2.091   2.107   2.147   2.207   2.268   2.295   2.316
  2.323   2.432   2.479   2.499   2.556   2.580   2.623   2.630
  2.683   2.733   2.764   2.824   2.998   3.228   4.017   4.109
  4.222   4.302   4.360   4.440   4.606
 --------------------------------------------------------------
 
          Ground-State Mulliken Net Atomic Charges

     Atom                 Charge (a.u.)    Spin (a.u.)
  --------------------------------------------------------
      1 C                    -0.000460      -0.128658
      2 C                    -0.071465       0.245560
      3 C                    -0.190593      -0.038815
      4 C                    -0.138373       0.008510
      5 C                     0.038647      -0.160926
      6 N                    -0.377516       0.293692
      7 H                     0.137495       0.007651
      8 H                     0.133380      -0.010944
      9 H                     0.154033       0.019855
     10 H                     0.156998       0.008106
     11 H                     0.155247       0.010422
     12 C                    -0.159984       0.772236
     13 H                     0.162592      -0.026691
  --------------------------------------------------------
  Sum of atomic charges =    -0.000000
  Sum of spin   charges =     1.000000

 -----------------------------------------------------------------
                    Cartesian Multipole Moments
 -----------------------------------------------------------------
    Charge (ESU x 10^10)
                -0.0000
    Dipole Moment (Debye)
         X      -2.0747      Y      -1.7203      Z      -0.2508
       Tot       2.7068
    Quadrupole Moments (Debye-Ang)
        XX     -36.8030     XY      -3.5409     YY     -40.8231
        XZ      -1.1091     YZ       0.7186     ZZ     -42.4589
    Octopole Moments (Debye-Ang^2)
       XXX     -13.4656    XXY      -8.6327    XYY     -12.0786
       YYY     -25.4995    XXZ      -0.0287    XYZ       0.1003
       YYZ      -0.1914    XZZ      -8.5893    YZZ      -4.6451
       ZZZ       2.5589
    Hexadecapole Moments (Debye-Ang^3)
      XXXX    -330.0427   XXXY      -7.0446   XXYY    -111.1537
      XYYY     -24.7947   YYYY    -283.0572   XXXZ      23.6970
      XXYZ       6.6167   XYYZ      11.3436   YYYZ      16.6612
      XXZZ     -74.0238   XYZZ      -2.1804   YYZZ     -70.3165
      XZZZ      26.6711   YZZZ      14.9346   ZZZZ    -110.0651
 -----------------------------------------------------------------
 Calculating analytic gradient of the SCF energy
 Gradient of SCF Energy
            1           2           3           4           5           6
    1   0.0000626  -0.0022427   0.0000664  -0.0030723   0.0039185   0.0009059
    2   0.0001422   0.0016444  -0.0135757  -0.0120235   0.0103005  -0.0009677
    3   0.0014263   0.0019625  -0.0114171  -0.0041943   0.0084767  -0.0008358
            7           8           9          10          11          12
    1   0.0001897   0.0011058   0.0046439  -0.0040172   0.0032528   0.0006868
    2  -0.0004205   0.0000771  -0.0039171  -0.0112269   0.0062331   0.0128816
    3   0.0010559  -0.0029044  -0.0069108   0.0085227   0.0012076   0.0084596
           13
    1  -0.0055003
    2   0.0108527
    3  -0.0048488
 Max gradient component =       1.358E-02
 RMS gradient           =       6.132E-03
 Gradient time:  CPU 7.85 s  wall 3.61 s
 Geometry Optimization Parameters
   NAtoms,    NIC,     NZ,  NCons,   NDum,   NFix, NCnnct, MaxDiis
       13     103       0       0       0       0       0       0

 Cartesian Hessian Update
 Hessian Updated using Powell/Murtagh-Sargent Update
  Mixing factors:     0.991507 Powell
                      0.008493 Murtagh-Sargent


** GEOMETRY OPTIMIZATION IN DELOCALIZED INTERNAL COORDINATES **
   Searching for a Transition State

   Optimization Cycle:   5

                       Coordinates (Angstroms)
     ATOM                X               Y               Z
      1  C         1.6940258667    0.2623913071   -0.3168690685
      2  C         1.1345266949   -0.9537988334   -0.1381676966
      3  C        -0.3196842633   -1.0560741382    0.1519626235
      4  C        -1.1653198553    0.1091367989   -0.3702125534
      5  C        -0.3330012385    1.3791328108   -0.2609784778
      6  N         0.9793033146    1.4439778417   -0.2427298202
      7  H         2.7606988662    0.3762411715   -0.4951373067
      8  H         1.7204218776   -1.8580877946   -0.2866765677
      9  H        -0.7309026595   -2.0590609283    0.0126924529
     10  H        -2.1311877594   -0.0802958751   -0.8400498483
     11  H        -0.8471300437    2.3410612123   -0.1551999058
     12  C        -1.0048325625   -0.0476627968    1.0714524561
     13  H        -1.7761540864    0.1327974732    1.8116981454
   Point Group: c1    Number of degrees of freedom:    33


   Energy is   -286.823527814

 Hessian Updated using Powell/Murtagh-Sargent Update
  Mixing factors:     0.780899 Powell
                      0.219101 Murtagh-Sargent

 33 Hessian modes will be used to form the next step
  Hessian Eigenvalues:
    -0.041803    0.002787    0.007795    0.009695    0.012876    0.017079
     0.020045    0.022396    0.027596    0.032247    0.043843    0.047593
     0.056301    0.081961    0.101376    0.117108    0.117967    0.128509
     0.140580    0.160925    0.206920    0.212793    0.255076    0.304034
     0.330680    0.337902    0.339698    0.340848    0.356131    0.357306
     0.368643    0.545308    0.564392

 Transition State Search - Taking P-RFO Step
 Searching for Lamda that Maximizes Along the Lowest mode
 Value Taken    Lamda =   0.00289188
 Searching for Lamda that Minimizes Along All other modes
 Value Taken    Lamda =  -0.01557932
 Calculated Step too Large.  Step scaled by  0.167913
 Step Taken.  Stepsize is  0.100000

                             Maximum     Tolerance    Cnvgd?
         Gradient           0.020490      0.000010      NO
         Displacement       0.046100      0.001200      NO
         Energy change     -0.002390      0.000001      NO


 New Cartesian Coordinates Obtained by Inverse Iteration

 Displacement from previous Coordinates is:  0.088018
 ----------------------------------------------------------------
             Standard Nuclear Orientation (Angstroms)
    I     Atom           X                Y                Z
 ----------------------------------------------------------------
    1      C       1.6941198789     0.2631337923    -0.3211008594
    2      C       1.1347085859    -0.9534357719    -0.1376215475
    3      C      -0.3191323358    -1.0505340977     0.1571637664
    4      C      -1.1643225449     0.1125618976    -0.3762338725
    5      C      -0.3344926620     1.3739726313    -0.2566333982
    6      N       0.9798750274     1.4433802651    -0.2437122083
    7      H       2.7602039907     0.3771560552    -0.5031409301
    8      H       1.7180852160    -1.8599091943    -0.2805845899
    9      H      -0.7360637308    -2.0526798062     0.0335173765
   10      H      -2.1248711377    -0.0634344197    -0.8602826114
   11      H      -0.8542081853     2.3316939092    -0.1495794070
   12      C      -1.0027624087    -0.0450066596     1.0658878816
   13      H      -1.7703755424     0.1128596479     1.8141048325
 ----------------------------------------------------------------
 Nuclear Repulsion Energy =   272.6575445706 hartrees
 There are       25 alpha and       24 beta electrons
 Applying Cartesian multipole field
    Component          Value
    ---------          -----
     (2,0,0)        1.00000E-11
     (0,2,0)        2.00000E-11
     (0,0,2)       -3.00000E-11
 Nucleus-field energy     =     0.0000000046 hartrees
 Requested basis set is 6-31G(d)
 There are 40 shells and 117 basis functions
 A cutoff of  1.0D-14 yielded    807 shell pairs
 There are      7079 function pairs
 Smallest overlap matrix eigenvalue = 1.15E-03
 Guess MOs from SCF MO coefficient file
 Reading MOs from coefficient file
 Reading MOs from coefficient file
 An unrestricted hybrid HF-DFT SCF calculation will be
 performed using Pulay DIIS extrapolation
 Exchange:     0.2000 Hartree-Fock + 0.0800 Slater + 0.7200 B88
 Correlation:  0.1900 VWN1RPA + 0.8100 LYP
 Using SG-1 standard quadrature grid
 SCF converges when DIIS error is below 1.0E-08
 Geometry optimization detected.  Setting ReadMinima to 0
 Setting SaveMinima to 0
Using Q-Chem read-in guess as SCF_GUESS READ specified.

 using 4 threads for integral computing
 -------------------------------------------------------
 OpenMP Integral computing Module                
 Release: version 1.0, May 2013, Q-Chem Inc. Pittsburgh 
 -------------------------------------------------------
 -------------------------------------------------------
 OpenMP BLAS3 based DFT computing Module                
 Release: version 1.0, May 2013, Q-Chem Inc. Pittsburgh 
 -------------------------------------------------------
 ---------------------------------------
  Cycle       Energy         DIIS Error
 ---------------------------------------
    1    -286.8321728792      4.77E-04
    2    -286.8254844159      1.31E-04
    3    -286.8254222611      2.31E-04
    4    -286.8255305947      2.86E-05
    5    -286.8255323306      1.34E-05
    6    -286.8255331002      4.99E-06
    7    -286.8255334603      2.63E-06
    8    -286.8255336404      1.40E-06
    9    -286.8255337026      7.91E-07
   10    -286.8255337241      2.67E-07
   11    -286.8255337282      1.05E-07
   12    -286.8255337298      5.28E-08
   13    -286.8255337306      2.28E-08
   14    -286.8255337308      1.44E-08
   15    -286.8255337308      4.75E-09 Convergence criterion met
 ---------------------------------------
 <S^2> = 0.7896
 SCF time:  CPU 39.51 s  wall 40.95 s
 SCF   energy in the final basis set = -286.82553373
 Total energy in the final basis set = -286.82553373
 
 --------------------------------------------------------------
 
                    Orbital Energies (a.u.)
 --------------------------------------------------------------
 
 Alpha MOs
 -- Occupied --
-14.324 -10.246 -10.228 -10.219 -10.215 -10.204 -10.192  -0.945
 -0.871  -0.766  -0.647  -0.636  -0.581  -0.535  -0.497  -0.482
 -0.448  -0.417  -0.385  -0.372  -0.346  -0.299  -0.260  -0.241
 -0.188
 -- Virtual --
 -0.019   0.068   0.089   0.122   0.137   0.139   0.153   0.166
  0.182   0.213   0.244   0.249   0.287   0.326   0.404   0.438
  0.500   0.507   0.531   0.547   0.557   0.578   0.594   0.604
  0.634   0.644   0.646   0.667   0.688   0.717   0.740   0.800
  0.819   0.845   0.853   0.858   0.874   0.894   0.919   0.934
  0.981   1.004   1.067   1.089   1.134   1.202   1.269   1.289
  1.399   1.457   1.493   1.514   1.545   1.601   1.632   1.688
  1.726   1.755   1.811   1.832   1.884   1.951   1.964   2.033
  2.090   2.107   2.138   2.202   2.259   2.286   2.312   2.320
  2.427   2.476   2.495   2.548   2.576   2.608   2.626   2.679
  2.732   2.761   2.820   2.995   3.226   4.009   4.103   4.227
  4.303   4.343   4.438   4.603
 
 Beta MOs
 -- Occupied --
-14.318 -10.248 -10.228 -10.214 -10.208 -10.206 -10.188  -0.937
 -0.860  -0.763  -0.642  -0.631  -0.564  -0.531  -0.496  -0.476
 -0.445  -0.413  -0.382  -0.361  -0.335  -0.290  -0.253  -0.219
 -- Virtual --
 -0.081  -0.007   0.082   0.093   0.127   0.139   0.143   0.156
  0.170   0.186   0.216   0.248   0.251   0.294   0.329   0.408
  0.440   0.508   0.516   0.534   0.553   0.570   0.584   0.600
  0.606   0.637   0.648   0.652   0.674   0.693   0.723   0.749
  0.802   0.821   0.849   0.854   0.866   0.878   0.902   0.923
  0.938   0.988   1.007   1.069   1.094   1.138   1.210   1.276
  1.292   1.409   1.461   1.500   1.517   1.552   1.607   1.642
  1.699   1.734   1.762   1.823   1.839   1.900   1.964   1.974
  2.036   2.092   2.108   2.149   2.211   2.270   2.300   2.319
  2.325   2.432   2.480   2.503   2.556   2.584   2.622   2.631
  2.686   2.735   2.765   2.826   2.997   3.228   4.018   4.110
  4.225   4.306   4.360   4.441   4.606
 --------------------------------------------------------------
 
          Ground-State Mulliken Net Atomic Charges

     Atom                 Charge (a.u.)    Spin (a.u.)
  --------------------------------------------------------
      1 C                    -0.000466      -0.132009
      2 C                    -0.071180       0.255797
      3 C                    -0.191107      -0.037908
      4 C                    -0.135833       0.012713
      5 C                     0.036845      -0.164234
      6 N                    -0.377700       0.302761
      7 H                     0.137403       0.007916
      8 H                     0.133318      -0.011471
      9 H                     0.153904       0.019762
     10 H                     0.156617       0.006995
     11 H                     0.154976       0.010392
     12 C                    -0.158859       0.755326
     13 H                     0.162083      -0.026040
  --------------------------------------------------------
  Sum of atomic charges =    -0.000000
  Sum of spin   charges =     1.000000

 -----------------------------------------------------------------
                    Cartesian Multipole Moments
 -----------------------------------------------------------------
    Charge (ESU x 10^10)
                -0.0000
    Dipole Moment (Debye)
         X      -2.0780      Y      -1.7462      Z      -0.2286
       Tot       2.7239
    Quadrupole Moments (Debye-Ang)
        XX     -36.8181     XY      -3.5301     YY     -40.8786
        XZ      -1.0996     YZ       0.6166     ZZ     -42.3693
    Octopole Moments (Debye-Ang^2)
       XXX     -13.4620    XXY      -8.6745    XYY     -12.0914
       YYY     -25.7250    XXZ      -0.0824    XYZ       0.2051
       YYZ      -0.0358    XZZ      -8.6971    YZZ      -4.7665
       ZZZ       2.7613
    Hexadecapole Moments (Debye-Ang^3)
      XXXX    -330.0512   XXXY      -6.9429   XXYY    -110.8830
      XYYY     -24.6340   YYYY    -282.4145   XXXZ      23.7158
      XXYZ       6.4166   XYYZ      11.2861   YYYZ      16.6538
      XXZZ     -73.7866   XYZZ      -2.0027   YYZZ     -70.1134
      XZZZ      26.5430   YZZZ      14.8723   ZZZZ    -109.6892
 -----------------------------------------------------------------
 Calculating analytic gradient of the SCF energy
 Gradient of SCF Energy
            1           2           3           4           5           6
    1   0.0000750  -0.0018736  -0.0005747  -0.0021621   0.0031482   0.0007913
    2   0.0001522   0.0015949  -0.0116194  -0.0094321   0.0085823  -0.0008195
    3   0.0011186   0.0018576  -0.0095013  -0.0043751   0.0072820  -0.0006164
            7           8           9          10          11          12
    1   0.0001710   0.0009087   0.0040982  -0.0037442   0.0027144   0.0015216
    2  -0.0003525   0.0000488  -0.0034307  -0.0098571   0.0052455   0.0101048
    3   0.0009420  -0.0025242  -0.0060174   0.0076162   0.0010602   0.0075748
           13
    1  -0.0050738
    2   0.0097829
    3  -0.0044170
 Max gradient component =       1.162E-02
 RMS gradient           =       5.234E-03
 Gradient time:  CPU 7.68 s  wall 3.70 s
 Geometry Optimization Parameters
   NAtoms,    NIC,     NZ,  NCons,   NDum,   NFix, NCnnct, MaxDiis
       13     103       0       0       0       0       0       0

 Cartesian Hessian Update
 Hessian Updated using Powell/Murtagh-Sargent Update
  Mixing factors:     0.993539 Powell
                      0.006461 Murtagh-Sargent


** GEOMETRY OPTIMIZATION IN DELOCALIZED INTERNAL COORDINATES **
   Searching for a Transition State

   Optimization Cycle:   6

                       Coordinates (Angstroms)
     ATOM                X               Y               Z
      1  C         1.6941198789    0.2631337923   -0.3211008594
      2  C         1.1347085859   -0.9534357719   -0.1376215475
      3  C        -0.3191323358   -1.0505340977    0.1571637664
      4  C        -1.1643225449    0.1125618976   -0.3762338725
      5  C        -0.3344926620    1.3739726313   -0.2566333982
      6  N         0.9798750274    1.4433802651   -0.2437122083
      7  H         2.7602039907    0.3771560552   -0.5031409301
      8  H         1.7180852160   -1.8599091943   -0.2805845899
      9  H        -0.7360637308   -2.0526798062    0.0335173765
     10  H        -2.1248711377   -0.0634344197   -0.8602826114
     11  H        -0.8542081853    2.3316939092   -0.1495794070
     12  C        -1.0027624087   -0.0450066596    1.0658878816
     13  H        -1.7703755424    0.1128596479    1.8141048325
   Point Group: c1    Number of degrees of freedom:    33


   Energy is   -286.825533731

 Hessian Updated using Powell/Murtagh-Sargent Update
  Mixing factors:     0.594140 Powell
                      0.405860 Murtagh-Sargent

 33 Hessian modes will be used to form the next step
  Hessian Eigenvalues:
    -0.041519    0.002780    0.008042    0.009825    0.012866    0.017013
     0.020048    0.022394    0.027594    0.032248    0.044028    0.047609
     0.056306    0.081989    0.102223    0.117153    0.117970    0.128534
     0.140588    0.161328    0.207003    0.212862    0.255090    0.304042
     0.330691    0.337944    0.339726    0.340853    0.356154    0.357375
     0.368644    0.545308    0.564393

 Transition State Search - Taking P-RFO Step
 Searching for Lamda that Maximizes Along the Lowest mode
 Value Taken    Lamda =   0.00221445
 Searching for Lamda that Minimizes Along All other modes
 Value Taken    Lamda =  -0.01242771
 Calculated Step too Large.  Step scaled by  0.174231
 Step Taken.  Stepsize is  0.100000

                             Maximum     Tolerance    Cnvgd?
         Gradient           0.017478      0.000010      NO
         Displacement       0.049001      0.001200      NO
         Energy change     -0.002006      0.000001      NO


 New Cartesian Coordinates Obtained by Inverse Iteration

 Displacement from previous Coordinates is:  0.084339
 ----------------------------------------------------------------
             Standard Nuclear Orientation (Angstroms)
    I     Atom           X                Y                Z
 ----------------------------------------------------------------
    1      C       1.6941834680     0.2637666695    -0.3251645515
    2      C       1.1347634242    -0.9530624436    -0.1371019260
    3      C      -0.3185042899    -1.0454084488     0.1619585183
    4      C      -1.1639387378     0.1156824440    -0.3812338924
    5      C      -0.3355893484     1.3698858110    -0.2528130569
    6      N       0.9805188586     1.4429263974    -0.2451450791
    7      H       2.7596873798     0.3777998838    -0.5109000101
    8      H       1.7159593885    -1.8614963686    -0.2745143671
    9      H      -0.7406857757    -2.0466503195     0.0531979475
   10      H      -2.1184592708    -0.0476418077    -0.8801014806
   11      H      -0.8600017156     2.3240449874    -0.1451030824
   12      C      -1.0022334404    -0.0421640788     1.0608385781
   13      H      -1.7649357889     0.0920755232     1.8178668352
 ----------------------------------------------------------------
 Nuclear Repulsion Energy =   272.8880385879 hartrees
 There are       25 alpha and       24 beta electrons
 Applying Cartesian multipole field
    Component          Value
    ---------          -----
     (2,0,0)        1.00000E-11
     (0,2,0)        2.00000E-11
     (0,0,2)       -3.00000E-11
 Nucleus-field energy     =     0.0000000046 hartrees
 Requested basis set is 6-31G(d)
 There are 40 shells and 117 basis functions
 A cutoff of  1.0D-14 yielded    807 shell pairs
 There are      7079 function pairs
 Smallest overlap matrix eigenvalue = 1.15E-03
 Guess MOs from SCF MO coefficient file
 Reading MOs from coefficient file
 Reading MOs from coefficient file
 An unrestricted hybrid HF-DFT SCF calculation will be
 performed using Pulay DIIS extrapolation
 Exchange:     0.2000 Hartree-Fock + 0.0800 Slater + 0.7200 B88
 Correlation:  0.1900 VWN1RPA + 0.8100 LYP
 Using SG-1 standard quadrature grid
 SCF converges when DIIS error is below 1.0E-08
 Geometry optimization detected.  Setting ReadMinima to 0
 Setting SaveMinima to 0
Using Q-Chem read-in guess as SCF_GUESS READ specified.

 using 4 threads for integral computing
 -------------------------------------------------------
 OpenMP Integral computing Module                
[...]
 Searching for Lamda that Maximizes Along the Lowest mode
 Value Taken    Lamda =   0.00000000
 Searching for Lamda that Minimizes Along All other modes
 Value Taken    Lamda =   0.00000000
 Step Taken.  Stepsize is  0.000419

                             Maximum     Tolerance    Cnvgd?
         Gradient           0.000010      0.000010      NO
         Displacement       0.000251      0.001200     YES
         Energy change     -0.000000      0.000001     YES


 New Cartesian Coordinates Obtained by Inverse Iteration

 Displacement from previous Coordinates is:  0.000298
 ----------------------------------------------------------------
             Standard Nuclear Orientation (Angstroms)
    I     Atom           X                Y                Z
 ----------------------------------------------------------------
    1      C       1.6917362522     0.2657981114    -0.3552222209
    2      C       1.1310675780    -0.9498175329    -0.1313621591
    3      C      -0.3164614713    -1.0122227948     0.1827681099
    4      C      -1.1777378607     0.1323401459    -0.3993666369
    5      C      -0.3419715029     1.3532873916    -0.2298621949
    6      N       0.9807019667     1.4392645318    -0.2699596230
    7      H       2.7529700091     0.3783008357    -0.5659769162
    8      H       1.7044984842    -1.8683434564    -0.2121174089
    9      H      -0.7692949242    -2.0045250748     0.1675772202
   10      H      -2.0550863674     0.0500067362    -1.0371879099
   11      H      -0.8853429597     2.2914317079    -0.1162371464
   12      C      -1.0295971159    -0.0240665924     1.0325937935
   13      H      -1.7047179366    -0.0616957599     1.8761375256
 ----------------------------------------------------------------
 Nuclear Repulsion Energy =   273.7415561422 hartrees
 There are       25 alpha and       24 beta electrons
 Applying Cartesian multipole field
    Component          Value
    ---------          -----
     (2,0,0)        1.00000E-11
     (0,2,0)        2.00000E-11
     (0,0,2)       -3.00000E-11
 Nucleus-field energy     =     0.0000000045 hartrees
 Requested basis set is 6-31G(d)
 There are 40 shells and 117 basis functions
 A cutoff of  1.0D-14 yielded    807 shell pairs
 There are      7079 function pairs
 Smallest overlap matrix eigenvalue = 1.20E-03
 Guess MOs from SCF MO coefficient file
 Reading MOs from coefficient file
 Reading MOs from coefficient file
 An unrestricted hybrid HF-DFT SCF calculation will be
 performed using Pulay DIIS extrapolation
 Exchange:     0.2000 Hartree-Fock + 0.0800 Slater + 0.7200 B88
 Correlation:  0.1900 VWN1RPA + 0.8100 LYP
 Using SG-1 standard quadrature grid
 SCF converges when DIIS error is below 1.0E-08
 Geometry optimization detected.  Setting ReadMinima to 0
 Setting SaveMinima to 0
Using Q-Chem read-in guess as SCF_GUESS READ specified.

 using 4 threads for integral computing
 -------------------------------------------------------
 OpenMP Integral computing Module                
 Release: version 1.0, May 2013, Q-Chem Inc. Pittsburgh 
 -------------------------------------------------------
 -------------------------------------------------------
 OpenMP BLAS3 based DFT computing Module                
 Release: version 1.0, May 2013, Q-Chem Inc. Pittsburgh 
 -------------------------------------------------------
 ---------------------------------------
  Cycle       Energy         DIIS Error
 ---------------------------------------
    1    -286.8326633832      2.49E-06
    2    -286.8326738311      6.30E-07
    3    -286.8326738304      9.28E-07
    4    -286.8326738321      1.35E-07
    5    -286.8326738321      7.87E-08
    6    -286.8326738321      2.04E-08
    7    -286.8326738322      1.11E-08
    8    -286.8326738322      7.80E-09 Convergence criterion met
 ---------------------------------------
 <S^2> = 0.7920
 SCF time:  CPU 21.68 s  wall 23.76 s
 SCF   energy in the final basis set = -286.83267383
 Total energy in the final basis set = -286.83267383
 
 --------------------------------------------------------------
 
                    Orbital Energies (a.u.)
 --------------------------------------------------------------
 
 Alpha MOs
 -- Occupied --
-14.324 -10.242 -10.221 -10.219 -10.216 -10.205 -10.193  -0.948
 -0.874  -0.767  -0.651  -0.636  -0.583  -0.536  -0.498  -0.480
 -0.452  -0.412  -0.388  -0.372  -0.349  -0.302  -0.261  -0.243
 -0.185
 -- Virtual --
 -0.013   0.071   0.095   0.132   0.136   0.143   0.155   0.166
  0.181   0.220   0.242   0.249   0.295   0.325   0.404   0.436
  0.499   0.507   0.527   0.543   0.553   0.582   0.595   0.599
  0.631   0.640   0.648   0.666   0.682   0.715   0.757   0.801
  0.821   0.840   0.850   0.864   0.877   0.896   0.920   0.935
  0.971   1.031   1.074   1.089   1.159   1.201   1.269   1.314
  1.364   1.428   1.502   1.512   1.583   1.613   1.633   1.673
  1.724   1.746   1.825   1.853   1.887   1.950   1.972   2.049
  2.079   2.115   2.149   2.217   2.265   2.301   2.319   2.340
  2.424   2.480   2.515   2.538   2.592   2.611   2.638   2.700
  2.747   2.758   2.835   2.989   3.226   4.009   4.100   4.242
  4.322   4.340   4.443   4.600
 
 Beta MOs
 -- Occupied --
-14.317 -10.244 -10.221 -10.216 -10.209 -10.207 -10.189  -0.940
 -0.863  -0.762  -0.643  -0.634  -0.568  -0.532  -0.496  -0.473
 -0.449  -0.408  -0.385  -0.359  -0.337  -0.291  -0.253  -0.222
 -- Virtual --
 -0.083  -0.001   0.087   0.098   0.134   0.143   0.145   0.160
  0.169   0.185   0.222   0.246   0.252   0.302   0.329   0.408
  0.438   0.503   0.518   0.531   0.550   0.562   0.586   0.600
  0.605   0.634   0.645   0.653   0.674   0.688   0.719   0.767
  0.804   0.822   0.847   0.851   0.871   0.880   0.903   0.926
  0.938   0.977   1.036   1.077   1.094   1.165   1.206   1.275
  1.318   1.375   1.434   1.507   1.516   1.593   1.617   1.647
  1.679   1.732   1.755   1.838   1.857   1.900   1.960   1.983
  2.053   2.083   2.114   2.160   2.228   2.278   2.310   2.326
  2.348   2.429   2.485   2.521   2.548   2.599   2.625   2.644
  2.707   2.750   2.762   2.843   2.991   3.228   4.019   4.107
  4.241   4.320   4.359   4.448   4.603
 --------------------------------------------------------------
 
          Ground-State Mulliken Net Atomic Charges

     Atom                 Charge (a.u.)    Spin (a.u.)
  --------------------------------------------------------
      1 C                     0.000272      -0.147392
      2 C                    -0.070309       0.310684
      3 C                    -0.187969      -0.032467
      4 C                    -0.125800       0.039031
      5 C                     0.027016      -0.173336
      6 N                    -0.374622       0.342123
      7 H                     0.136895       0.008600
      8 H                     0.133492      -0.014335
      9 H                     0.151415       0.017033
     10 H                     0.152872       0.001859
     11 H                     0.153355       0.010074
     12 C                    -0.154645       0.661297
     13 H                     0.158027      -0.023171
  --------------------------------------------------------
  Sum of atomic charges =    -0.000000
  Sum of spin   charges =     1.000000

 -----------------------------------------------------------------
                    Cartesian Multipole Moments
 -----------------------------------------------------------------
    Charge (ESU x 10^10)
                -0.0000
    Dipole Moment (Debye)
         X      -1.9498      Y      -1.8744      Z      -0.0710
       Tot       2.7056
    Quadrupole Moments (Debye-Ang)
        XX     -37.2580     XY      -3.4299     YY     -41.2438
        XZ      -0.8912     YZ      -0.0595     ZZ     -41.5177
    Octopole Moments (Debye-Ang^2)
       XXX     -11.3335    XXY      -9.1547    XYY     -11.6633
       YYY     -26.8308    XXZ      -0.5176    XYZ       1.0665
       YYZ       1.1741    XZZ      -9.2683    YZZ      -5.7407
       ZZZ       4.4856
    Hexadecapole Moments (Debye-Ang^3)
      XXXX    -335.2563   XXXY      -6.3136   XXYY    -109.6368
      XYYY     -23.8010   YYYY    -279.3362   XXXZ      25.4992
      XXYZ       5.0718   XYYZ      11.6000   YYYZ      17.6121
      XXZZ     -72.7491   XYZZ      -0.6501   YYZZ     -69.3456
      XZZZ      26.8624   YZZZ      15.0110   ZZZZ    -107.4130
 -----------------------------------------------------------------
 Calculating analytic gradient of the SCF energy
 Gradient of SCF Energy
            1           2           3           4           5           6
    1  -0.0000031  -0.0000004   0.0000053  -0.0000003  -0.0000096   0.0000024
    2   0.0000015  -0.0000004  -0.0000083   0.0000077  -0.0000112  -0.0000004
    3  -0.0000092  -0.0000033   0.0000018   0.0000051   0.0000002  -0.0000119
            7           8           9          10          11          12
    1  -0.0000031  -0.0000006   0.0000022  -0.0000034  -0.0000013   0.0000027
    2  -0.0000007   0.0000002  -0.0000001  -0.0000046  -0.0000015   0.0000122
    3  -0.0000155  -0.0000028   0.0000104   0.0000119  -0.0000021   0.0000071
           13
    1   0.0000092
    2   0.0000055
    3   0.0000083
 Max gradient component =       1.554E-05
 RMS gradient           =       6.413E-06
 Gradient time:  CPU 7.97 s  wall 5.38 s
 Geometry Optimization Parameters
   NAtoms,    NIC,     NZ,  NCons,   NDum,   NFix, NCnnct, MaxDiis
       13     103       0       0       0       0       0       0

 Cartesian Hessian Update
 Hessian Updated using Powell/Murtagh-Sargent Update
**WARNING** Small Scalar Product
 Hessian Update Skipped this cycle


** GEOMETRY OPTIMIZATION IN DELOCALIZED INTERNAL COORDINATES **
   Searching for a Transition State

   Optimization Cycle:  18

                       Coordinates (Angstroms)
     ATOM                X               Y               Z
      1  C         1.6917362522    0.2657981114   -0.3552222209
      2  C         1.1310675780   -0.9498175329   -0.1313621591
      3  C        -0.3164614713   -1.0122227948    0.1827681099
      4  C        -1.1777378607    0.1323401459   -0.3993666369
      5  C        -0.3419715029    1.3532873916   -0.2298621949
      6  N         0.9807019667    1.4392645318   -0.2699596230
      7  H         2.7529700091    0.3783008357   -0.5659769162
      8  H         1.7044984842   -1.8683434564   -0.2121174089
      9  H        -0.7692949242   -2.0045250748    0.1675772202
     10  H        -2.0550863674    0.0500067362   -1.0371879099
     11  H        -0.8853429597    2.2914317079   -0.1162371464
     12  C        -1.0295971159   -0.0240665924    1.0325937935
     13  H        -1.7047179366   -0.0616957599    1.8761375256
   Point Group: c1    Number of degrees of freedom:    33


   Energy is   -286.832673832

 Hessian Updated using Powell/Murtagh-Sargent Update
**WARNING** Small Scalar Product
 Hessian Update Skipped this cycle

 33 Hessian modes will be used to form the next step
  Hessian Eigenvalues:
    -0.039568    0.003890    0.009496    0.012771    0.014080    0.016495
     0.020012    0.022196    0.027501    0.032259    0.044817    0.047131
     0.056276    0.081193    0.102340    0.117012    0.117949    0.128392
     0.139971    0.161380    0.206890    0.212691    0.255326    0.304059
     0.330697    0.338066    0.339751    0.340867    0.356170    0.357496
     0.368639    0.545369    0.564493

 Transition State Search - Taking P-RFO Step
 Searching for Lamda that Maximizes Along the Lowest mode
 Value Taken    Lamda =   0.00000000
 Searching for Lamda that Minimizes Along All other modes
 Value Taken    Lamda =   0.00000000
 Step Taken.  Stepsize is  0.000298

                             Maximum     Tolerance    Cnvgd?
         Gradient           0.000008      0.000010     YES
         Displacement       0.000159      0.001200     YES
         Energy change     -0.000000      0.000001     YES


                       Distance Matrix (Angstroms)
             C (  1)   C (  2)   C (  3)   C (  4)   C (  5)   N (  6)
   C (  2)  1.357271
   C (  3)  2.440416  1.482536
   C (  4)  2.872915  2.563879  1.546190
   C (  5)  2.309614  2.735661  2.401365  1.489278
   N (  6)  1.374723  2.397818  2.810229  2.526591  1.326071
   H (  7)  1.087792  2.140877  3.451896  3.941918  3.262244  2.086673
   H (  8)  2.138972  1.085833  2.230057  3.513557  3.816708  3.386369
   H (  9)  3.388858  2.193889  1.090850  2.248209  3.408147  3.887623
   H ( 10)  3.814489  3.460021  2.374751  1.087812  2.298930  3.425593
   H ( 11)  3.286585  3.817308  3.365585  2.197119  1.090082  2.057169
   C ( 12)  3.068503  2.623029  1.485671  1.448074  1.990911  2.807007
   H ( 13)  4.077023  3.586153  2.387102  2.343774  2.880016  3.751013
             H (  7)   H (  8)   H (  9)   H ( 10)   H ( 11)   C ( 12)
   H (  8)  2.504380
   H (  9)  4.315358  2.506465
   H ( 10)  4.842233  4.300615  2.706625
   H ( 11)  4.135173  4.901041  4.306885  2.690806
   C ( 12)  4.126153  3.525045  2.176747  2.311084  2.588852
   H ( 13)  5.101814  4.387202  2.751142  2.936444  3.190320  1.081097

 
 Final energy is   -286.832673832159     


 ******************************
 **  OPTIMIZATION CONVERGED  **
 ******************************

                       Coordinates (Angstroms)
     ATOM                X               Y               Z
      1  C         1.6917362522    0.2657981114   -0.3552222209
      2  C         1.1310675780   -0.9498175329   -0.1313621591
      3  C        -0.3164614713   -1.0122227948    0.1827681099
      4  C        -1.1777378607    0.1323401459   -0.3993666369
      5  C        -0.3419715029    1.3532873916   -0.2298621949
      6  N         0.9807019667    1.4392645318   -0.2699596230
      7  H         2.7529700091    0.3783008357   -0.5659769162
      8  H         1.7044984842   -1.8683434564   -0.2121174089
      9  H        -0.7692949242   -2.0045250748    0.1675772202
     10  H        -2.0550863674    0.0500067362   -1.0371879099
     11  H        -0.8853429597    2.2914317079   -0.1162371464
     12  C        -1.0295971159   -0.0240665924    1.0325937935
     13  H        -1.7047179366   -0.0616957599    1.8761375256

Z-matrix Print:
$molecule
0 2
N 
C  1 1.326071
H  2 1.090082 1 116.394179
C  1 1.374723 2 117.543769 3 177.287093 0
H  4 1.087792 1 115.361406 2 169.418281 0
C  4 1.357271 1 122.726414 2 -13.571455 0
H  6 1.085833 4 121.817393 1 179.400414 0
C  6 1.482536 4 118.423112 1 1.653228 0
H  8 1.090850 6 116.145873 4 168.699244 0
C  8 1.485671 6 124.185897 4 -38.351651 0
H  10 1.081097 8 136.296779 6 -130.386498 0
C  10 1.448074 8 63.595640 6 100.551754 0
H  12 1.087812 10 130.854740 8 115.560974 0
$end

 
 --------------------------------------------------------------
 
                    Orbital Energies (a.u.)
 --------------------------------------------------------------
 
 Alpha MOs
 -- Occupied --
-14.324 -10.242 -10.221 -10.219 -10.216 -10.205 -10.193  -0.948
 -0.874  -0.767  -0.651  -0.636  -0.583  -0.536  -0.498  -0.480
 -0.452  -0.412  -0.388  -0.372  -0.349  -0.302  -0.261  -0.243
 -0.185
 -- Virtual --
 -0.013   0.071   0.095   0.132   0.136   0.143   0.155   0.166
  0.181   0.220   0.242   0.249   0.295   0.325   0.404   0.436
  0.499   0.507   0.527   0.543   0.553   0.582   0.595   0.599
  0.631   0.640   0.648   0.666   0.682   0.715   0.757   0.801
  0.821   0.840   0.850   0.864   0.877   0.896   0.920   0.935
  0.971   1.031   1.074   1.089   1.159   1.201   1.269   1.314
  1.364   1.428   1.502   1.512   1.583   1.613   1.633   1.673
  1.724   1.746   1.825   1.853   1.887   1.950   1.972   2.049
  2.079   2.115   2.149   2.217   2.265   2.301   2.319   2.340
  2.424   2.480   2.515   2.538   2.592   2.611   2.638   2.700
  2.747   2.758   2.835   2.989   3.226   4.009   4.100   4.242
  4.322   4.340   4.443   4.600
 
 Beta MOs
 -- Occupied --
-14.317 -10.244 -10.221 -10.216 -10.209 -10.207 -10.189  -0.940
 -0.863  -0.762  -0.643  -0.634  -0.568  -0.532  -0.496  -0.473
 -0.449  -0.408  -0.385  -0.359  -0.337  -0.291  -0.253  -0.222
 -- Virtual --
 -0.083  -0.001   0.087   0.098   0.134   0.143   0.145   0.160
  0.169   0.185   0.222   0.246   0.252   0.302   0.329   0.408
  0.438   0.503   0.518   0.531   0.550   0.562   0.586   0.600
  0.605   0.634   0.645   0.653   0.674   0.688   0.719   0.767
  0.804   0.822   0.847   0.851   0.871   0.880   0.903   0.926
  0.938   0.977   1.036   1.077   1.094   1.165   1.206   1.275
  1.318   1.375   1.434   1.507   1.516   1.593   1.617   1.647
  1.679   1.732   1.755   1.838   1.857   1.900   1.960   1.983
  2.053   2.083   2.114   2.160   2.228   2.278   2.310   2.326
  2.348   2.429   2.485   2.521   2.548   2.599   2.625   2.644
  2.707   2.750   2.762   2.843   2.991   3.228   4.019   4.107
  4.241   4.320   4.359   4.448   4.603
 --------------------------------------------------------------
 
          Ground-State Mulliken Net Atomic Charges

     Atom                 Charge (a.u.)    Spin (a.u.)
  --------------------------------------------------------
      1 C                     0.000272      -0.147392
      2 C                    -0.070309       0.310684
      3 C                    -0.187969      -0.032467
      4 C                    -0.125800       0.039031
      5 C                     0.027016      -0.173336
      6 N                    -0.374622       0.342123
      7 H                     0.136895       0.008600
      8 H                     0.133492      -0.014335
      9 H                     0.151415       0.017033
     10 H                     0.152872       0.001859
     11 H                     0.153355       0.010074
     12 C                    -0.154645       0.661297
     13 H                     0.158027      -0.023171
  --------------------------------------------------------
  Sum of atomic charges =    -0.000000
  Sum of spin   charges =     1.000000

 -----------------------------------------------------------------
                    Cartesian Multipole Moments
 -----------------------------------------------------------------
    Charge (ESU x 10^10)
                -0.0000
    Dipole Moment (Debye)
         X      -1.9498      Y      -1.8744      Z      -0.0710
       Tot       2.7056
    Quadrupole Moments (Debye-Ang)
        XX     -37.2580     XY      -3.4299     YY     -41.2438
        XZ      -0.8912     YZ      -0.0595     ZZ     -41.5177
    Octopole Moments (Debye-Ang^2)
       XXX     -11.3335    XXY      -9.1547    XYY     -11.6633
       YYY     -26.8308    XXZ      -0.5176    XYZ       1.0665
       YYZ       1.1741    XZZ      -9.2683    YZZ      -5.7407
       ZZZ       4.4856
    Hexadecapole Moments (Debye-Ang^3)
      XXXX    -335.2563   XXXY      -6.3136   XXYY    -109.6368
      XYYY     -23.8010   YYYY    -279.3362   XXXZ      25.4992
      XXYZ       5.0718   XYYZ      11.6000   YYYZ      17.6121
      XXZZ     -72.7491   XYZZ      -0.6501   YYZZ     -69.3456
      XZZZ      26.8624   YZZZ      15.0110   ZZZZ    -107.4130
 -----------------------------------------------------------------
Archival summary:
1\1\c8-89\TS\ProcedureUnspecified\6-31G*\166(2)\hpark21\TueMar117:34:512022TueMar117:34:512022\0\\#,TS,ProcedureUnspecified,6-31G*,\\0,2\N\C,1,1.32607\H,2,1.09008,1,116.394\C,1,1.37472,2,117.544,3,177.287,0\H,4,1.08779,1,115.361,2,169.418,0\C,4,1.35727,1,122.726,2,-13.5715,0\H,6,1.08583,4,121.817,1,179.4,0\C,6,1.48254,4,118.423,1,1.65323,0\H,8,1.09085,6,116.146,4,168.699,0\C,8,1.48567,6,124.186,4,-38.3517,0\H,10,1.0811,8,136.297,6,-130.386,0\C,10,1.44807,8,63.5956,6,100.552,0\H,12,1.08781,10,130.855,8,115.561,0\\\@

 Total job time:  632.75s(wall), 763.70s(cpu) 
 Tue Mar  1 17:34:51 2022

        *************************************************************
        *                                                           *
        *  Thank you very much for using Q-Chem.  Have a nice day.  *
        *                                                           *
        *************************************************************


