13
image # 1 Energy = -286.85499
C 1.69727   0.28777   -0.21758  
C 1.09026   -0.91506  -0.11300  
C -0.36185  -1.04749  0.08907   
C -1.14054  0.38096   -0.02251  
C -0.25782  1.50000   -0.40045  
N 1.03049   1.49869   -0.40803  
H 2.77913   0.35683   -0.29646  
H 1.67448   -1.82888  -0.18881  
H -0.83704  -1.94467  -0.31186  
H -2.14061  0.41839   -0.45884  
H -0.75446  2.40459   -0.75988  
C -0.99234  -0.37531  1.22305   
H -1.78697  -0.73582  1.86530   
13
image # 2 Energy = -286.85302
C 1.69943   0.27882   -0.22542  
C 1.09620   -0.91996  -0.12702  
C -0.36519  -1.05183  0.08660   
C -1.14146  0.34151   -0.06587  
C -0.25835  1.50097   -0.37235  
N 1.02642   1.50328   -0.38596  
H 2.77862   0.35242   -0.31134  
H 1.68668   -1.83017  -0.20692  
H -0.81761  -1.98041  -0.30926  
H -2.16843  0.34590   -0.48401  
H -0.73953  2.43669   -0.69781  
C -0.99300  -0.34025  1.21300   
H -1.80713  -0.63987  1.87409   
13
image # 3 Energy = -286.84901
C 1.69925   0.27947   -0.23986  
C 1.09674   -0.93095  -0.13967  
C -0.36433  -1.06581  0.08426   
C -1.15647  0.31155   -0.12316  
C -0.27109  1.50257   -0.36108  
N 1.02638   1.49825   -0.35081  
H 2.77986   0.34836   -0.33054  
H 1.69997   -1.83145  -0.22833  
H -0.79058  -2.00746  -0.29161  
H -2.17764  0.25589   -0.51386  
H -0.72301  2.46073   -0.61372  
C -1.00510  -0.31188  1.20494   
H -1.82053  -0.51452  1.87662   
13
image # 4 Energy = -286.84256
C 1.69046   0.26830   -0.25003  
C 1.10140   -0.92879  -0.14739  
C -0.35547  -1.08177  0.08027   
C -1.16969  0.27130   -0.15798  
C -0.26512  1.50054   -0.35125  
N 1.01466   1.49441   -0.32170  
H 2.78072   0.34648   -0.34925  
H 1.71009   -1.83364  -0.24835  
H -0.76811  -2.02903  -0.27081  
H -2.18501  0.17464   -0.54322  
H -0.71502  2.48167   -0.54113  
C -1.00802  -0.27195  1.18254   
H -1.83977  -0.39907  1.87906   
13
image # 5 Energy = -286.83506
C 1.69997   0.27034   -0.26288  
C 1.10533   -0.95023  -0.15148  
C -0.34303  -1.07862  0.09092   
C -1.16205  0.23131   -0.19105  
C -0.28454  1.48763   -0.35298  
N 1.01326   1.48422   -0.28568  
H 2.76653   0.34570   -0.37341  
H 1.71428   -1.82941  -0.27288  
H -0.74829  -2.05332  -0.23607  
H -2.18909  0.08347   -0.59132  
H -0.71802  2.49635   -0.44830  
C -1.01768  -0.23655  1.15234   
H -1.84689  -0.25915  1.87617   
13
image # 6 Energy = -286.82843
C 1.69110   0.25254   -0.26894  
C 1.12083   -0.94312  -0.15579  
C -0.33855  -1.08286  0.10670   
C -1.16345  0.20536   -0.24696  
C -0.29351  1.47260   -0.34601  
N 1.00036   1.47964   -0.26124  
H 2.76308   0.34779   -0.39701  
H 1.72257   -1.83481  -0.29658  
H -0.73071  -2.07298  -0.20106  
H -2.18462  0.00062   -0.63148  
H -0.72401  2.49989   -0.36613  
C -1.03228  -0.20494  1.15255   
H -1.84358  -0.12858  1.85876   
13
image # 7 Energy = -286.81706
C 1.68844   0.25945   -0.27533  
C 1.12282   -0.95434  -0.15621  
C -0.33649  -1.09493  0.11184   
C -1.17414  0.15924   -0.28265  
C -0.29449  1.47417   -0.32291  
N 0.98788   1.47196   -0.24978  
H 2.76306   0.34955   -0.41516  
H 1.73340   -1.84015  -0.31420  
H -0.71036  -2.09242  -0.17499  
H -2.18397  -0.07956  -0.65267  
H -0.72539  2.49543   -0.30569  
C -1.03138  -0.15259  1.13510   
H -1.85473  -0.00510  1.84304   
13
image # 8 Energy = -286.80525
C 1.68038   0.25367   -0.28308  
C 1.12816   -0.95370  -0.15372  
C -0.32939  -1.10169  0.12149   
C -1.17729  0.11361   -0.30708  
C -0.31647  1.46495   -0.30396  
N 0.98923   1.46238   -0.23606  
H 2.76035   0.35577   -0.43565  
H 1.74303   -1.84671  -0.33156  
H -0.69311  -2.10725  -0.13999  
H -2.17798  -0.15887  -0.68262  
H -0.73773  2.47844   -0.23704  
C -1.03614  -0.09702  1.10862   
H -1.85033  0.12671   1.82031   
13
image # 9 Energy = -286.79227
C 1.68254   0.25406   -0.29182  
C 1.13398   -0.96586  -0.15104  
C -0.31525  -1.10889  0.12520   
C -1.18714  0.06479   -0.32992  
C -0.32184  1.44310   -0.27480  
N 0.97732   1.45615   -0.23163  
H 2.75209   0.36182   -0.45161  
H 1.75026   -1.84740  -0.34217  
H -0.67727  -2.12665  -0.11037  
H -2.17621  -0.23836  -0.70316  
H -0.75599  2.46556   -0.17796  
C -1.04392  -0.02723  1.09181   
H -1.83781  0.25868   1.78926   
13
image # 10 Energy = -286.81421
C 1.67699   0.26090   -0.30439  
C 1.14722   -0.97136  -0.14664  
C -0.30722  -1.09647  0.14735   
C -1.18971  0.02931   -0.37028  
C -0.35185  1.39306   -0.23372  
N 0.96399   1.43313   -0.22431  
H 2.74543   0.37667   -0.47689  
H 1.75461   -1.85052  -0.35174  
H -0.66702  -2.12566  -0.05094  
H -2.15661  -0.31042  -0.76453  
H -0.80028  2.40143   -0.09002  
C -1.03657  0.03398   1.05128   
H -1.80098  0.41560   1.75988   
13
image # 11 Energy = -286.83438
C 1.68396   0.28770   -0.33702  
C 1.14709   -0.96292  -0.14659  
C -0.29179  -1.02536  0.20694   
C -1.21121  0.01652   -0.46724  
C -0.43604  1.22388   -0.10640  
N 0.95608   1.39342   -0.21676  
H 2.74758   0.41330   -0.51953  
H 1.74711   -1.85897  -0.34947  
H -0.68456  -2.05457  0.12056   
H -2.10755  -0.33169  -0.95332  
H -0.91327  2.21048   0.05311   
C -0.99267  0.12764   0.95258   
H -1.67232  0.55194   1.71379   
13
image # 12 Energy = -286.83339
C 1.67887   0.29589   -0.32995  
C 1.14569   -0.97179  -0.15278  
C -0.29534  -1.04103  0.16589   
C -1.22713  -0.03104  -0.45610  
C -0.42942  1.22961   -0.05109  
N 0.97090   1.40067   -0.25700  
H 2.75641   0.41397   -0.50765  
H 1.75661   -1.85649  -0.32753  
H -0.67567  -2.08273  0.11350   
H -2.15090  -0.36590  -0.92059  
H -0.91347  2.22319   0.02412   
C -0.96934  0.20216   0.94996   
H -1.67844  0.57434   1.70309   
13
image # 13 Energy = -286.81955
C 1.68546   0.29377   -0.31219  
C 1.14297   -0.97839  -0.15725  
C -0.29687  -1.09262  0.08762   
C -1.24348  -0.07556  -0.40770  
C -0.40593  1.27923   -0.02028  
N 0.97630   1.41703   -0.31391  
H 2.75542   0.40541   -0.47644  
H 1.77383   -1.85163  -0.29161  
H -0.65680  -2.13813  0.04473   
H -2.21277  -0.40289  -0.81284  
H -0.88618  2.27804   -0.05680  
C -0.95315  0.27482   0.96595   
H -1.71221  0.58086   1.70605   
13
image # 14 Energy = -286.81298
C 1.67632   0.30131   -0.30752  
C 1.12530   -0.98074  -0.14981  
C -0.26852  -1.12463  0.00729   
C -1.25114  -0.11948  -0.37016  
C -0.38824  1.30063   0.01201   
N 0.96792   1.40677   -0.35030  
H 2.75346   0.40621   -0.46496  
H 1.78396   -1.85361  -0.24694  
H -0.64874  -2.17450  0.01483   
H -2.23983  -0.41843  -0.77405  
H -0.89588  2.26919   -0.09692  
C -0.95479  0.36074   0.96146   
H -1.69495  0.61595   1.72053   
13
image # 15 Energy = -286.82055
C 1.66665   0.30372   -0.30760  
C 1.12391   -0.99211  -0.13880  
C -0.25400  -1.17473  -0.08140  
C -1.24662  -0.14779  -0.31467  
C -0.37226  1.31368   0.01166   
N 0.96123   1.40172   -0.36605  
H 2.74598   0.40326   -0.46295  
H 1.78380   -1.85143  -0.20606  
H -0.63665  -2.20010  -0.02178  
H -2.24282  -0.41647  -0.74685  
H -0.90379  2.27003   -0.13217  
C -0.97183  0.42761   0.97523   
H -1.68868  0.65154   1.74648   
13
image # 16 Energy = -286.82381
C 1.65395   0.28271   -0.29896  
C 1.12099   -1.00140  -0.11851  
C -0.25335  -1.22040  -0.07675  
C -1.25840  -0.22276  -0.25835  
C -0.35248  1.37712   0.01767   
N 0.95605   1.40210   -0.36035  
H 2.72953   0.39690   -0.46833  
H 1.79286   -1.85777  -0.21523  
H -0.62533  -2.24647  -0.10353  
H -2.22992  -0.44811  -0.73729  
H -0.89343  2.32811   -0.13939  
C -0.98687  0.47159   0.97071   
H -1.68671  0.72671   1.74346   
13
image # 17 Energy = -286.83057
C 1.64699   0.27112   -0.29450  
C 1.13583   -1.01360  -0.11434  
C -0.26227  -1.25400  -0.07557  
C -1.27038  -0.29268  -0.20858  
C -0.34160  1.44113   0.02529   
N 0.94183   1.39803   -0.37313  
H 2.72426   0.39234   -0.45255  
H 1.80483   -1.85574  -0.22112  
H -0.60678  -2.27716  -0.16171  
H -2.23822  -0.49741  -0.67843  
H -0.86692  2.37517   -0.15669  
C -0.99764  0.52298   0.94294   
H -1.69789  0.77758   1.72391   
13
image # 18 Energy = -286.83968
C 1.65327   0.25719   -0.29030  
C 1.13737   -1.00779  -0.12176  
C -0.25422  -1.29001  -0.07441  
C -1.27907  -0.32841  -0.15676  
C -0.32089  1.49243   0.02007   
N 0.93648   1.40442   -0.38415  
H 2.72024   0.38241   -0.43508  
H 1.82056   -1.85935  -0.23879  
H -0.58678  -2.30784  -0.20375  
H -2.25772  -0.55924  -0.58427  
H -0.82246  2.44330   -0.18150  
C -1.02174  0.55347   0.92013   
H -1.74687  0.80597   1.68734   
13
image # 19 Energy = -286.84939
C 1.64708   0.25708   -0.28496  
C 1.14347   -1.01859  -0.13338  
C -0.25571  -1.30819  -0.08436  
C -1.27425  -0.37184  -0.10999  
C -0.30127  1.54122   0.01001   
N 0.94820   1.41136   -0.39107  
H 2.72590   0.37097   -0.42479  
H 1.82566   -1.85306  -0.25703  
H -0.56661  -2.33956  -0.23330  
H -2.27847  -0.62107  -0.48487  
H -0.77049  2.50957   -0.20746  
C -1.04391  0.57988   0.91207   
H -1.81385  0.82700   1.64805   
13
image # 20 Energy = -286.86209
C 1.64716   0.24723   -0.28066  
C 1.14116   -1.01656  -0.14567  
C -0.24626  -1.34040  -0.10301  
C -1.28326  -0.41993  -0.05949  
C -0.27787  1.59296   0.01279   
N 0.95495   1.42219   -0.39493  
H 2.73088   0.36164   -0.41932  
H 1.83272   -1.85053  -0.27596  
H -0.54412  -2.36491  -0.24588  
H -2.29126  -0.68612  -0.38816  
H -0.72012  2.55957   -0.22297  
C -1.07343  0.61808   0.88759   
H -1.87569  0.85944   1.59777   
13
image # 21 Energy = -286.87393
C 1.66132   0.24894   -0.28243  
C 1.14703   -1.01918  -0.16161  
C -0.24997  -1.35299  -0.10299  
C -1.28180  -0.45897  -0.01128  
C -0.25915  1.61009   0.02716   
N 0.95935   1.43286   -0.38670  
H 2.72761   0.35416   -0.42617  
H 1.84046   -1.84750  -0.30506  
H -0.51967  -2.39401  -0.22959  
H -2.30093  -0.76226  -0.30428  
H -0.68131  2.59827   -0.20391  
C -1.11077  0.65194   0.83812   
H -1.93026  0.92038   1.51539   
13
image # 22 Energy = -286.88484
C 1.65596   0.25203   -0.28344  
C 1.15177   -1.01657  -0.17858  
C -0.23796  -1.36806  -0.09793  
C -1.29839  -0.49173  0.02849   
C -0.25720  1.62382   0.04899   
N 0.98447   1.43589   -0.37332  
H 2.73410   0.34775   -0.44093  
H 1.84456   -1.84378  -0.33720  
H -0.49740  -2.41884  -0.20699  
H -2.30287  -0.83412  -0.21647  
H -0.63996  2.63011   -0.17449  
C -1.14178  0.68817   0.78527   
H -1.98815  0.97635   1.41802   
13
image # 23 Energy = -286.89446
C 1.65474   0.25182   -0.28833  
C 1.14693   -1.02071  -0.19632  
C -0.22479  -1.38024  -0.08960  
C -1.29843  -0.53309  0.06333   
C -0.23179  1.63820   0.05912   
N 0.98662   1.44932   -0.34143  
H 2.74085   0.34116   -0.46139  
H 1.84483   -1.83594  -0.37205  
H -0.47485  -2.43589  -0.17992  
H -2.30936  -0.90588  -0.11883  
H -0.59339  2.65609   -0.13006  
C -1.18024  0.72469   0.73355   
H -2.04968  1.03149   1.29962   
13
image # 24 Energy = -286.90084
C 1.66472   0.24393   -0.29588  
C 1.15139   -1.01250  -0.21518  
C -0.23131  -1.39497  -0.07563  
C -1.29257  -0.54761  0.09555   
C -0.23448  1.65337   0.07316   
N 1.00817   1.45647   -0.31121  
H 2.73692   0.33540   -0.48103  
H 1.84333   -1.82726  -0.40372  
H -0.45422  -2.44372  -0.15423  
H -2.31131  -0.96441  -0.02664  
H -0.55013  2.68023   -0.08363  
C -1.20509  0.72411   0.67398   
H -2.11117  1.07819   1.18740   
13
image # 25 Energy = -286.90817
C 1.66227   0.24763   -0.30370  
C 1.14735   -1.01013  -0.23588  
C -0.22831  -1.39871  -0.06199  
C -1.30721  -0.57497  0.12218   
C -0.22703  1.64912   0.09189   
N 1.02283   1.46260   -0.27393  
H 2.73906   0.32989   -0.50373  
H 1.84494   -1.82235  -0.43435  
H -0.43728  -2.46317  -0.13278  
H -2.29686  -1.01568  0.07956   
H -0.51113  2.71003   -0.02599  
C -1.23705  0.74882   0.61768   
H -2.15681  1.11924   1.04948   
13
image # 26 Energy = -286.91402
C 1.64869   0.24689   -0.30983  
C 1.14689   -1.00428  -0.25176  
C -0.23543  -1.40797  -0.05949  
C -1.29649  -0.58928  0.16269   
C -0.22649  1.65907   0.11496   
N 1.02744   1.46606   -0.24482  
H 2.74399   0.32705   -0.52136  
H 1.84666   -1.82199  -0.45448  
H -0.42543  -2.47726  -0.11974  
H -2.29248  -1.05688  0.16351   
H -0.48697  2.71454   0.02986   
C -1.25630  0.77344   0.54965   
H -2.17958  1.15593   0.93567   
13
image # 27 Energy = -286.91848
C 1.66288   0.25945   -0.32656  
C 1.13442   -1.02329  -0.27694  
C -0.22536  -1.42393  -0.04523  
C -1.30492  -0.60444  0.18906   
C -0.23049  1.66579   0.11291   
N 1.04989   1.48081   -0.19715  
H 2.72709   0.32401   -0.54005  
H 1.84545   -1.81618  -0.47749  
H -0.41444  -2.48770  -0.10475  
H -2.28150  -1.09499  0.27062   
H -0.45954  2.72193   0.11732   
C -1.25961  0.78872   0.47814   
H -2.23053  1.19759   0.79721   
13
image # 28 Energy = -286.92211
C 1.64979   0.24680   -0.33735  
C 1.13663   -1.01319  -0.29857  
C -0.22856  -1.43309  -0.03928  
C -1.29768  -0.63109  0.21941   
C -0.22424  1.65852   0.12564   
N 1.07422   1.49313   -0.16436  
H 2.71209   0.32563   -0.55639  
H 1.84493   -1.81619  -0.49720  
H -0.40931  -2.49987  -0.08988  
H -2.26403  -1.11406  0.36017   
H -0.45458  2.73420   0.20518   
C -1.27694  0.80321   0.39868   
H -2.25212  1.23628   0.67237   
13
image # 29 Energy = -286.92431
C 1.63457   0.26286   -0.34124  
C 1.12694   -1.02265  -0.30906  
C -0.22611  -1.43908  -0.04196  
C -1.28955  -0.63481  0.24079   
C -0.22393  1.66841   0.15406   
N 1.08317   1.48343   -0.14681  
H 2.70053   0.32836   -0.57062  
H 1.84227   -1.81572  -0.51315  
H -0.40668  -2.51176  -0.07145  
H -2.24776  -1.11906  0.41811   
H -0.46868  2.72599   0.27504   
C -1.28644  0.80311   0.33328   
H -2.23833  1.27093   0.57299   
