13   
From optimize.out: Frame 1 / 3, Energy=    -286.9243284570
C        1.6430415288    0.2517533261   -0.3050692177
C        1.0642046043   -0.9753976222   -0.5713972358
C       -0.3064529218   -1.3746060039   -0.3775472847
C       -1.3192000719   -0.6072962177    0.1161753099
C       -0.1283336741    1.5926929323    0.5530850075
N        1.1640834210    1.4159503896    0.1908179326
H        2.7086628982    0.3143887595   -0.5368511541
H        1.7308187863   -1.7307544369   -0.9805400205
H       -0.5475501081   -2.3965966251   -0.6631259082
H       -2.3011701463   -1.0697558055    0.1938153130
H       -0.3135031152    2.6031266689    0.9240976694
C       -1.2357163788    0.7655138271    0.5467332376
H       -2.1588848222    1.2109808076    0.9098063506
13   
From optimize.out: Frame 2 / 3, Energy=    -286.9243314289
C        1.6431329238    0.2517776087   -0.3059571969
C        1.0642442768   -0.9748677233   -0.5728345177
C       -0.3068272871   -1.3733568129   -0.3797523760
C       -1.3200475464   -0.6066957568    0.1137917984
C       -0.1287348719    1.5924820701    0.5524193761
N        1.1636096499    1.4160364070    0.1897144410
H        2.7090460581    0.3142418390   -0.5362642282
H        1.7316775731   -1.7312655204   -0.9787915224
H       -0.5471643950   -2.3969706960   -0.6599756655
H       -2.3015167042   -1.0696662860    0.1946813900
H       -0.3134121442    2.6018633285    0.9267050488
C       -1.2359467621    0.7655315592    0.5453335050
H       -2.1580607705    1.2108899828    0.9109299469
