13   
From optimize.out: Frame 1 / 3, Energy=    -286.9243284570
C        0.0361730000   -0.1133870000   -0.0000000000
C       -0.1320040000    0.3486230000   -0.0000000000
C       -0.1109950000    0.0920720000   -0.0000000000
C       -0.1117480000    0.0955560000    0.0000000000
C        0.0357340000   -0.1118440000    0.0000000000
N       -0.4235100000    0.3864790000    0.0000000000
H        0.1424920000    0.0034400000   -0.0000000000
H        0.1343140000   -0.0184120000   -0.0000000000
H        0.1420960000   -0.0065550000   -0.0000000000
H        0.1418460000   -0.0067280000    0.0000000000
H        0.1426120000    0.0033650000    0.0000000000
C       -0.1314960000    0.3456560000    0.0000000000
H        0.1344850000   -0.0182660000    0.0000000000
13   
From optimize.out: Frame 2 / 3, Energy=    -286.9243314289
C        0.0361230000   -0.1133420000   -0.0000000000
C       -0.1318800000    0.3483170000   -0.0000000000
C       -0.1111050000    0.0922360000   -0.0000000000
C       -0.1116410000    0.0952980000    0.0000000000
C        0.0356690000   -0.1118490000    0.0000000000
N       -0.4235800000    0.3868030000    0.0000000000
H        0.1425140000    0.0034370000   -0.0000000000
H        0.1343590000   -0.0183970000   -0.0000000000
H        0.1420210000   -0.0065650000   -0.0000000000
H        0.1419290000   -0.0067120000    0.0000000000
H        0.1425840000    0.0033640000    0.0000000000
C       -0.1313930000    0.3456810000    0.0000000000
H        0.1344000000   -0.0182700000    0.0000000000
