13   
Frame   0 IRC: Energy =  -286.8454180000 ; +0.0000 kcal/mol
C       -0.2894220000   -0.0802940000    0.0000000000
C       -0.0377270000    0.0868000000   -0.0000000000
C       -0.0423640000    0.0891430000   -0.0000000000
C       -0.0398170000    0.0865810000    0.0000000000
C       -0.2889370000   -0.0799690000   -0.0000000000
N       -0.0703840000    0.8148970000   -0.0000000000
H        0.1412840000    0.0010730000    0.0000000000
H        0.1319540000   -0.0020750000   -0.0000000000
H        0.1315840000   -0.0022120000   -0.0000000000
H        0.1318390000   -0.0020800000    0.0000000000
H        0.1414680000    0.0010600000   -0.0000000000
C       -0.0411000000    0.0892590000    0.0000000000
H        0.1316210000   -0.0021830000    0.0000000000
13   
Frame   1 IRC: Energy =  -286.8454100000 ; +0.0050 kcal/mol
C       -0.2897460000   -0.0803100000    0.0000000000
C       -0.0371320000    0.0864590000   -0.0000000000
C       -0.0427620000    0.0893590000   -0.0000000000
C       -0.0398370000    0.0862990000    0.0000000000
C       -0.2887860000   -0.0799240000   -0.0000000000
N       -0.0703550000    0.8149830000   -0.0000000000
H        0.1412680000    0.0010760000    0.0000000000
H        0.1319670000   -0.0020600000   -0.0000000000
H        0.1315210000   -0.0022240000   -0.0000000000
H        0.1318520000   -0.0020680000    0.0000000000
H        0.1414760000    0.0010590000   -0.0000000000
C       -0.0410880000    0.0895380000    0.0000000000
H        0.1316230000   -0.0021880000    0.0000000000
13   
Frame   2 IRC: Energy =  -286.8454050000 ; +0.0082 kcal/mol
C       -0.2898260000   -0.0803710000    0.0000000000
C       -0.0359770000    0.0862480000   -0.0000000000
C       -0.0436230000    0.0896170000   -0.0000000000
C       -0.0391800000    0.0861740000    0.0000000000
C       -0.2886430000   -0.0799420000   -0.0000000000
N       -0.0703720000    0.8148100000   -0.0000000000
H        0.1412410000    0.0010790000    0.0000000000
H        0.1320440000   -0.0020530000   -0.0000000000
H        0.1314950000   -0.0022380000   -0.0000000000
H        0.1318870000   -0.0020630000    0.0000000000
H        0.1414860000    0.0010590000   -0.0000000000
C       -0.0421020000    0.0898830000    0.0000000000
H        0.1315700000   -0.0022020000    0.0000000000
13   
Frame   3 IRC: Energy =  -286.8453890000 ; +0.0182 kcal/mol
C       -0.2902140000   -0.0803930000    0.0000000000
C       -0.0351730000    0.0857800000   -0.0000000000
C       -0.0441680000    0.0899360000   -0.0000000000
C       -0.0393190000    0.0858270000    0.0000000000
C       -0.2884210000   -0.0798960000   -0.0000000000
N       -0.0703280000    0.8148490000   -0.0000000000
H        0.1412230000    0.0010830000    0.0000000000
H        0.1320610000   -0.0020330000   -0.0000000000
H        0.1314040000   -0.0022550000   -0.0000000000
H        0.1319130000   -0.0020500000    0.0000000000
H        0.1414850000    0.0010580000   -0.0000000000
C       -0.0420420000    0.0903050000    0.0000000000
H        0.1315810000   -0.0022110000    0.0000000000
13   
Frame   4 IRC: Energy =  -286.8453780000 ; +0.0251 kcal/mol
C       -0.2902610000   -0.0805010000    0.0000000000
C       -0.0336550000    0.0854720000   -0.0000000000
C       -0.0452130000    0.0902750000   -0.0000000000
C       -0.0383270000    0.0856300000    0.0000000000
C       -0.2883240000   -0.0799060000   -0.0000000000
N       -0.0703430000    0.8146300000   -0.0000000000
H        0.1411740000    0.0010880000    0.0000000000
H        0.1321530000   -0.0020230000   -0.0000000000
H        0.1313720000   -0.0022730000   -0.0000000000
H        0.1319710000   -0.0020410000    0.0000000000
H        0.1415020000    0.0010580000   -0.0000000000
C       -0.0435420000    0.0908230000    0.0000000000
H        0.1314930000   -0.0022320000    0.0000000000
13   
Frame   5 IRC: Energy =  -286.8453450000 ; +0.0458 kcal/mol
C       -0.2907580000   -0.0805160000    0.0000000000
C       -0.0323800000    0.0847850000   -0.0000000000
C       -0.0460900000    0.0907610000   -0.0000000000
C       -0.0386260000    0.0852140000    0.0000000000
C       -0.2879910000   -0.0798700000   -0.0000000000
N       -0.0702760000    0.8145820000   -0.0000000000
H        0.1411540000    0.0010950000    0.0000000000
H        0.1321930000   -0.0019950000   -0.0000000000
H        0.1312420000   -0.0022980000   -0.0000000000
H        0.1320190000   -0.0020260000    0.0000000000
H        0.1414830000    0.0010580000   -0.0000000000
C       -0.0434910000    0.0914600000    0.0000000000
H        0.1315200000   -0.0022480000    0.0000000000
13   
Frame   6 IRC: Energy =  -286.8453220000 ; +0.0602 kcal/mol
C       -0.2906460000   -0.0806980000    0.0000000000
C       -0.0306230000    0.0843980000   -0.0000000000
C       -0.0471930000    0.0911860000   -0.0000000000
C       -0.0372380000    0.0849450000    0.0000000000
C       -0.2880140000   -0.0798710000   -0.0000000000
N       -0.0702730000    0.8142720000   -0.0000000000
H        0.1410700000    0.0011040000    0.0000000000
H        0.1322860000   -0.0019840000   -0.0000000000
H        0.1312010000   -0.0023200000   -0.0000000000
H        0.1321070000   -0.0020150000    0.0000000000
H        0.1415050000    0.0010580000   -0.0000000000
C       -0.0455650000    0.0922000000    0.0000000000
H        0.1313840000   -0.0022770000    0.0000000000
13   
Frame   7 IRC: Energy =  -286.8452530000 ; +0.1035 kcal/mol
C       -0.2913480000   -0.0807420000    0.0000000000
C       -0.0283660000    0.0833150000   -0.0000000000
C       -0.0487110000    0.0919390000   -0.0000000000
C       -0.0376900000    0.0844240000    0.0000000000
C       -0.2875100000   -0.0798410000   -0.0000000000
N       -0.0701620000    0.8140010000   -0.0000000000
H        0.1410400000    0.0011160000    0.0000000000
H        0.1323680000   -0.0019380000   -0.0000000000
H        0.1310270000   -0.0023600000   -0.0000000000
H        0.1322090000   -0.0019990000    0.0000000000
H        0.1414470000    0.0010590000   -0.0000000000
C       -0.0457360000    0.0933400000    0.0000000000
H        0.1314340000   -0.0023130000    0.0000000000
13   
Frame   8 IRC: Energy =  -286.8452030000 ; +0.1349 kcal/mol
C       -0.2910760000   -0.0812120000    0.0000000000
C       -0.0261700000    0.0828520000   -0.0000000000
C       -0.0500470000    0.0926170000   -0.0000000000
C       -0.0358620000    0.0838240000    0.0000000000
C       -0.2875250000   -0.0797560000   -0.0000000000
N       -0.0701010000    0.8132770000   -0.0000000000
H        0.1409100000    0.0011320000    0.0000000000
H        0.1324270000   -0.0019200000   -0.0000000000
H        0.1309630000   -0.0024080000   -0.0000000000
H        0.1323130000   -0.0019780000    0.0000000000
H        0.1414410000    0.0010620000   -0.0000000000
C       -0.0485190000    0.0948820000    0.0000000000
H        0.1312450000   -0.0023710000    0.0000000000
13   
Frame   9 IRC: Energy =  -286.8450070000 ; +0.2579 kcal/mol
C       -0.2896750000   -0.0813410000    0.0000000000
C       -0.0228040000    0.0805860000   -0.0000000000
C       -0.0519190000    0.0940630000   -0.0000000000
C       -0.0344360000    0.0819580000    0.0000000000
C       -0.2891890000   -0.0796210000   -0.0000000000
N       -0.0698950000    0.8127670000   -0.0000000000
H        0.1408390000    0.0011580000    0.0000000000
H        0.1326650000   -0.0017750000   -0.0000000000
H        0.1307170000   -0.0025050000   -0.0000000000
H        0.1326630000   -0.0019450000    0.0000000000
H        0.1413510000    0.0010680000   -0.0000000000
C       -0.0515860000    0.0980440000    0.0000000000
H        0.1312670000   -0.0024580000    0.0000000000
13   
Frame  10 IRC: Energy =  -286.8445480000 ; +0.5459 kcal/mol
C       -0.2857160000   -0.0851720000    0.0000000000
C       -0.0110700000    0.0733170000   -0.0000000000
C       -0.0568690000    0.0954020000   -0.0000000000
C       -0.0269300000    0.0754230000    0.0000000000
C       -0.2921280000   -0.0776140000   -0.0000000000
N       -0.0696860000    0.8077330000   -0.0000000000
H        0.1406490000    0.0012090000    0.0000000000
H        0.1322410000   -0.0011720000   -0.0000000000
H        0.1304280000   -0.0027990000   -0.0000000000
H        0.1330770000   -0.0019420000    0.0000000000
H        0.1411970000    0.0010880000   -0.0000000000
C       -0.0667880000    0.1177290000    0.0000000000
H        0.1315960000   -0.0032020000    0.0000000000
13   
Frame  11 IRC: Energy =  -286.8419200000 ; +2.1950 kcal/mol
C       -0.2812200000   -0.1038950000    0.0000000000
C        0.0211670000    0.0498850000   -0.0000000000
C       -0.0688330000    0.0961200000   -0.0000000000
C       -0.0195900000    0.0520840000    0.0000000000
C       -0.2887180000   -0.0670610000   -0.0000000000
N       -0.0741940000    0.7725460000   -0.0000000000
H        0.1406750000    0.0015230000    0.0000000000
H        0.1307870000    0.0014870000   -0.0000000000
H        0.1300750000   -0.0037170000   -0.0000000000
H        0.1333300000   -0.0021150000    0.0000000000
H        0.1407890000    0.0010380000   -0.0000000000
C       -0.0985090000    0.2092470000    0.0000000000
H        0.1342400000   -0.0071430000    0.0000000000
13   
Frame  12 IRC: Energy =  -286.8383890000 ; +4.4108 kcal/mol
C       -0.2674040000   -0.1307710000    0.0000000000
C        0.0415030000    0.0175660000   -0.0000000000
C       -0.0746550000    0.0975660000   -0.0000000000
C       -0.0179950000    0.0151220000    0.0000000000
C       -0.2823020000   -0.0477070000   -0.0000000000
N       -0.0884610000    0.6971840000   -0.0000000000
H        0.1410140000    0.0023850000    0.0000000000
H        0.1301550000    0.0059000000   -0.0000000000
H        0.1301130000   -0.0044620000   -0.0000000000
H        0.1337360000   -0.0018230000    0.0000000000
H        0.1406470000    0.0008540000   -0.0000000000
C       -0.1238630000    0.3622600000    0.0000000000
H        0.1375110000   -0.0140760000    0.0000000000
13   
Frame  13 IRC: Energy =  -286.8367420000 ; +5.4443 kcal/mol (Transition State)
C       -0.2383200000   -0.1474460000    0.0000000000
C        0.0435100000   -0.0255260000   -0.0000000000
C       -0.0732440000    0.0989730000   -0.0000000000
C       -0.0232160000   -0.0321150000    0.0000000000
C       -0.2766910000   -0.0194280000   -0.0000000000
N       -0.1115460000    0.5766030000   -0.0000000000
H        0.1410430000    0.0035940000    0.0000000000
H        0.1306830000    0.0120390000   -0.0000000000
H        0.1305520000   -0.0045020000   -0.0000000000
H        0.1346210000   -0.0006890000    0.0000000000
H        0.1408170000    0.0007370000   -0.0000000000
C       -0.1388860000    0.5609200000    0.0000000000
H        0.1406790000   -0.0231600000    0.0000000000
13   
Frame  14 IRC: Energy =  -286.8384750000 ; +4.3568 kcal/mol
C       -0.1958760000   -0.1296920000    0.0000000000
C        0.0311300000   -0.0683120000   -0.0000000000
C       -0.0691860000    0.0975760000   -0.0000000000
C       -0.0298690000   -0.0781770000    0.0000000000
C       -0.2745700000    0.0126470000   -0.0000000000
N       -0.1356190000    0.4292640000   -0.0000000000
H        0.1401520000    0.0043080000    0.0000000000
H        0.1319040000    0.0182200000   -0.0000000000
H        0.1314040000   -0.0038110000   -0.0000000000
H        0.1358420000    0.0010220000    0.0000000000
H        0.1414260000    0.0009010000   -0.0000000000
C       -0.1490620000    0.7470120000    0.0000000000
H        0.1423240000   -0.0309550000    0.0000000000
13   
Frame  15 IRC: Energy =  -286.8426470000 ; +1.7388 kcal/mol
C       -0.1524230000   -0.0845840000   -0.0000000000
C        0.0119560000   -0.0974660000   -0.0000000000
C       -0.0633650000    0.0927050000   -0.0000000000
C       -0.0360590000   -0.1117410000    0.0000000000
C       -0.2773630000    0.0415790000   -0.0000000000
N       -0.1519930000    0.2949650000   -0.0000000000
H        0.1383820000    0.0041710000    0.0000000000
H        0.1331710000    0.0226280000   -0.0000000000
H        0.1322730000   -0.0029800000   -0.0000000000
H        0.1371820000    0.0026650000    0.0000000000
H        0.1422010000    0.0013590000   -0.0000000000
C       -0.1558740000    0.8710220000    0.0000000000
H        0.1419100000   -0.0343220000    0.0000000000
13   
Frame  16 IRC: Energy =  -286.8472980000 ; -1.1797 kcal/mol
C       -0.1188240000   -0.0406090000   -0.0000000000
C       -0.0058160000   -0.1094980000   -0.0000000000
C       -0.0571150000    0.0856740000   -0.0000000000
C       -0.0394220000   -0.1311720000    0.0000000000
C       -0.2849630000    0.0638610000   -0.0000000000
N       -0.1593050000    0.2003050000   -0.0000000000
H        0.1366950000    0.0036940000    0.0000000000
H        0.1342900000    0.0249860000   -0.0000000000
H        0.1328630000   -0.0024660000   -0.0000000000
H        0.1384070000    0.0038290000    0.0000000000
H        0.1428320000    0.0019290000   -0.0000000000
C       -0.1593280000    0.9322680000    0.0000000000
H        0.1396860000   -0.0328010000    0.0000000000
13   
Frame  17 IRC: Energy =  -286.8509970000 ; -3.5009 kcal/mol
C       -0.0927200000   -0.0045510000   -0.0000000000
C       -0.0208620000   -0.1114420000   -0.0000000000
C       -0.0525610000    0.0782090000   -0.0000000000
C       -0.0412330000   -0.1425470000    0.0000000000
C       -0.2939890000    0.0819520000   -0.0000000000
N       -0.1606670000    0.1334200000   -0.0000000000
H        0.1349180000    0.0031590000    0.0000000000
H        0.1351080000    0.0260040000   -0.0000000000
H        0.1332460000   -0.0021210000   -0.0000000000
H        0.1393780000    0.0046190000    0.0000000000
H        0.1434750000    0.0024370000   -0.0000000000
C       -0.1602670000    0.9590360000    0.0000000000
H        0.1361750000   -0.0281740000    0.0000000000
13   
Frame  18 IRC: Energy =  -286.8534410000 ; -5.0345 kcal/mol
C       -0.0835930000    0.0158210000   -0.0000000000
C       -0.0269130000   -0.1081470000   -0.0000000000
C       -0.0480810000    0.0713110000   -0.0000000000
C       -0.0435500000   -0.1470050000    0.0000000000
C       -0.2997140000    0.0943470000   -0.0000000000
N       -0.1601590000    0.0985580000   -0.0000000000
H        0.1343840000    0.0025740000    0.0000000000
H        0.1361510000    0.0263630000   -0.0000000000
H        0.1333750000   -0.0019060000   -0.0000000000
H        0.1399700000    0.0048170000    0.0000000000
H        0.1435900000    0.0027180000   -0.0000000000
C       -0.1585190000    0.9631360000    0.0000000000
H        0.1330560000   -0.0225850000    0.0000000000
13   
Frame  19 IRC: Energy =  -286.8540770000 ; -5.4336 kcal/mol
C       -0.0790890000    0.0215100000   -0.0000000000
C       -0.0295360000   -0.1079540000   -0.0000000000
C       -0.0485920000    0.0700170000   -0.0000000000
C       -0.0441440000   -0.1486300000    0.0000000000
C       -0.2993960000    0.0986130000   -0.0000000000
N       -0.1599400000    0.0895310000   -0.0000000000
H        0.1337390000    0.0024370000    0.0000000000
H        0.1359920000    0.0265260000   -0.0000000000
H        0.1331520000   -0.0017920000   -0.0000000000
H        0.1400570000    0.0050010000    0.0000000000
H        0.1437350000    0.0027940000   -0.0000000000
C       -0.1581040000    0.9634840000    0.0000000000
H        0.1321260000   -0.0215380000    0.0000000000
13   
Frame  20 IRC: Energy =  -286.8555700000 ; -6.3705 kcal/mol
C       -0.0791060000    0.0311090000   -0.0000000000
C       -0.0283370000   -0.1063770000   -0.0000000000
C       -0.0481040000    0.0664420000   -0.0000000000
C       -0.0463270000   -0.1504360000    0.0000000000
C       -0.2993880000    0.1054910000   -0.0000000000
N       -0.1601670000    0.0741870000   -0.0000000000
H        0.1335760000    0.0018790000    0.0000000000
H        0.1365440000    0.0265750000   -0.0000000000
H        0.1329920000   -0.0015060000   -0.0000000000
H        0.1402020000    0.0050090000    0.0000000000
H        0.1436180000    0.0028330000   -0.0000000000
C       -0.1562550000    0.9636920000    0.0000000000
H        0.1307520000   -0.0188980000    0.0000000000
13   
Frame  21 IRC: Energy =  -286.8558370000 ; -6.5380 kcal/mol
C       -0.0760950000    0.0328310000   -0.0000000000
C       -0.0298330000   -0.1067630000   -0.0000000000
C       -0.0493850000    0.0665640000   -0.0000000000
C       -0.0459850000   -0.1510540000    0.0000000000
C       -0.2987640000    0.1067720000   -0.0000000000
N       -0.1601420000    0.0715800000   -0.0000000000
H        0.1331920000    0.0018880000    0.0000000000
H        0.1362250000    0.0266250000   -0.0000000000
H        0.1328560000   -0.0014710000   -0.0000000000
H        0.1402470000    0.0051340000    0.0000000000
H        0.1437640000    0.0028520000   -0.0000000000
C       -0.1564740000    0.9638360000    0.0000000000
H        0.1303930000   -0.0187930000    0.0000000000
13   
Frame  22 IRC: Energy =  -286.8571200000 ; -7.3431 kcal/mol
C       -0.0749400000    0.0381040000   -0.0000000000
C       -0.0268990000   -0.1075780000   -0.0000000000
C       -0.0526590000    0.0661780000   -0.0000000000
C       -0.0468480000   -0.1521490000    0.0000000000
C       -0.2971410000    0.1090750000   -0.0000000000
N       -0.1609660000    0.0623060000   -0.0000000000
H        0.1328190000    0.0015340000    0.0000000000
H        0.1361630000    0.0263200000   -0.0000000000
H        0.1327270000   -0.0011760000   -0.0000000000
H        0.1401630000    0.0051730000    0.0000000000
H        0.1437890000    0.0028100000   -0.0000000000
C       -0.1561330000    0.9677990000    0.0000000000
H        0.1299260000   -0.0183970000    0.0000000000
13   
Frame  23 IRC: Energy =  -286.8573280000 ; -7.4736 kcal/mol
C       -0.0726280000    0.0394340000   -0.0000000000
C       -0.0278990000   -0.1079210000   -0.0000000000
C       -0.0540230000    0.0667500000   -0.0000000000
C       -0.0460160000   -0.1526510000    0.0000000000
C       -0.2965770000    0.1098610000   -0.0000000000
N       -0.1613230000    0.0604360000   -0.0000000000
H        0.1325640000    0.0015320000    0.0000000000
H        0.1358920000    0.0263020000   -0.0000000000
H        0.1326250000   -0.0011540000   -0.0000000000
H        0.1402190000    0.0052850000    0.0000000000
H        0.1438920000    0.0028390000   -0.0000000000
C       -0.1564270000    0.9676050000    0.0000000000
H        0.1297010000   -0.0183200000    0.0000000000
13   
Frame  24 IRC: Energy =  -286.8581300000 ; -7.9769 kcal/mol
C       -0.0711150000    0.0423490000   -0.0000000000
C       -0.0245510000   -0.1090560000   -0.0000000000
C       -0.0574730000    0.0677320000   -0.0000000000
C       -0.0460670000   -0.1532400000    0.0000000000
C       -0.2953600000    0.1100400000   -0.0000000000
N       -0.1625970000    0.0542740000   -0.0000000000
H        0.1321820000    0.0013610000    0.0000000000
H        0.1358730000    0.0258320000   -0.0000000000
H        0.1326420000   -0.0008840000   -0.0000000000
H        0.1400210000    0.0053390000    0.0000000000
H        0.1438910000    0.0028290000   -0.0000000000
C       -0.1571160000    0.9719080000    0.0000000000
H        0.1296700000   -0.0184850000    0.0000000000
13   
Frame  25 IRC: Energy =  -286.8582280000 ; -8.0384 kcal/mol
C       -0.0692080000    0.0430160000   -0.0000000000
C       -0.0259850000   -0.1093360000   -0.0000000000
C       -0.0574550000    0.0682040000   -0.0000000000
C       -0.0465180000   -0.1534750000    0.0000000000
C       -0.2949110000    0.1102060000   -0.0000000000
N       -0.1630220000    0.0535540000   -0.0000000000
H        0.1321030000    0.0013510000    0.0000000000
H        0.1356420000    0.0258390000   -0.0000000000
H        0.1325200000   -0.0008860000   -0.0000000000
H        0.1399660000    0.0053510000    0.0000000000
H        0.1439980000    0.0028680000   -0.0000000000
C       -0.1566760000    0.9718680000    0.0000000000
H        0.1295460000   -0.0185590000    0.0000000000
13   
Frame  26 IRC: Energy =  -286.8588850000 ; -8.4507 kcal/mol
C       -0.0665450000    0.0465190000   -0.0000000000
C       -0.0233240000   -0.1108500000   -0.0000000000
C       -0.0602930000    0.0700470000   -0.0000000000
C       -0.0465010000   -0.1542110000    0.0000000000
C       -0.2936370000    0.1105810000   -0.0000000000
N       -0.1652020000    0.0473700000   -0.0000000000
H        0.1319110000    0.0011450000    0.0000000000
H        0.1354540000    0.0254210000   -0.0000000000
H        0.1324580000   -0.0005500000   -0.0000000000
H        0.1397150000    0.0054110000    0.0000000000
H        0.1441110000    0.0028960000   -0.0000000000
C       -0.1577160000    0.9752670000    0.0000000000
H        0.1295690000   -0.0190460000    0.0000000000
13   
Frame  27 IRC: Energy =  -286.8589240000 ; -8.4752 kcal/mol
C       -0.0649750000    0.0468800000   -0.0000000000
C       -0.0244180000   -0.1110340000   -0.0000000000
C       -0.0602580000    0.0703350000   -0.0000000000
C       -0.0469050000   -0.1543390000    0.0000000000
C       -0.2934630000    0.1106210000   -0.0000000000
N       -0.1653440000    0.0469010000   -0.0000000000
H        0.1317900000    0.0011640000    0.0000000000
H        0.1352770000    0.0254070000   -0.0000000000
H        0.1324020000   -0.0005520000   -0.0000000000
H        0.1396640000    0.0054250000    0.0000000000
H        0.1441860000    0.0029220000   -0.0000000000
C       -0.1574460000    0.9753740000    0.0000000000
H        0.1294900000   -0.0191060000    0.0000000000
13   
Frame  28 IRC: Energy =  -286.8592960000 ; -8.7086 kcal/mol
C       -0.0606130000    0.0499060000   -0.0000000000
C       -0.0229010000   -0.1123430000   -0.0000000000
C       -0.0632230000    0.0730250000   -0.0000000000
C       -0.0476310000   -0.1548580000    0.0000000000
C       -0.2923680000    0.1098840000   -0.0000000000
N       -0.1673730000    0.0409020000   -0.0000000000
H        0.1314830000    0.0010940000    0.0000000000
H        0.1349410000    0.0248240000   -0.0000000000
H        0.1325070000   -0.0002490000   -0.0000000000
H        0.1392960000    0.0054800000    0.0000000000
H        0.1442350000    0.0030190000   -0.0000000000
C       -0.1579950000    0.9789560000    0.0000000000
H        0.1296410000   -0.0196410000    0.0000000000
13   
Frame  29 IRC: Energy =  -286.8593080000 ; -8.7161 kcal/mol
C       -0.0598940000    0.0500560000   -0.0000000000
C       -0.0236540000   -0.1125080000   -0.0000000000
C       -0.0627810000    0.0731780000   -0.0000000000
C       -0.0477110000   -0.1549230000    0.0000000000
C       -0.2923210000    0.1099840000   -0.0000000000
N       -0.1676630000    0.0408570000   -0.0000000000
H        0.1314640000    0.0010720000    0.0000000000
H        0.1348650000    0.0248360000   -0.0000000000
H        0.1324450000   -0.0002320000   -0.0000000000
H        0.1392820000    0.0054740000    0.0000000000
H        0.1442900000    0.0030460000   -0.0000000000
C       -0.1579400000    0.9789240000    0.0000000000
H        0.1296180000   -0.0197630000    0.0000000000
13   
Frame  30 IRC: Energy =  -286.8593520000 ; -8.7437 kcal/mol
C       -0.0591600000    0.0508280000   -0.0000000000
C       -0.0234680000   -0.1132220000   -0.0000000000
C       -0.0623230000    0.0739380000   -0.0000000000
C       -0.0476450000   -0.1551750000    0.0000000000
C       -0.2923200000    0.1104010000   -0.0000000000
N       -0.1683550000    0.0402720000   -0.0000000000
H        0.1314970000    0.0009940000    0.0000000000
H        0.1347740000    0.0248730000   -0.0000000000
H        0.1323450000   -0.0001060000   -0.0000000000
H        0.1392120000    0.0054760000    0.0000000000
H        0.1443710000    0.0030540000   -0.0000000000
C       -0.1586300000    0.9789820000    0.0000000000
H        0.1297010000   -0.0203140000    0.0000000000
13   
Frame  31 IRC: Energy =  -286.8593600000 ; -8.7487 kcal/mol
C       -0.0589410000    0.0509990000   -0.0000000000
C       -0.0235580000   -0.1131700000   -0.0000000000
C       -0.0624230000    0.0741330000   -0.0000000000
C       -0.0478760000   -0.1551720000    0.0000000000
C       -0.2923340000    0.1101880000   -0.0000000000
N       -0.1683800000    0.0399980000   -0.0000000000
H        0.1315040000    0.0010030000    0.0000000000
H        0.1347320000    0.0248320000   -0.0000000000
H        0.1323980000   -0.0001190000   -0.0000000000
H        0.1392000000    0.0054730000    0.0000000000
H        0.1443750000    0.0030600000   -0.0000000000
C       -0.1584010000    0.9790220000    0.0000000000
H        0.1297050000   -0.0202470000    0.0000000000
13   
Frame  32 IRC: Energy =  -286.8593730000 ; -8.7569 kcal/mol
C       -0.0585950000    0.0510970000   -0.0000000000
C       -0.0233690000   -0.1130970000   -0.0000000000
C       -0.0629290000    0.0744500000   -0.0000000000
C       -0.0480520000   -0.1551310000    0.0000000000
C       -0.2923270000    0.1098370000   -0.0000000000
N       -0.1683980000    0.0393710000   -0.0000000000
H        0.1314570000    0.0010210000    0.0000000000
H        0.1347220000    0.0247030000   -0.0000000000
H        0.1324840000   -0.0001070000   -0.0000000000
H        0.1391710000    0.0054730000    0.0000000000
H        0.1443420000    0.0030780000   -0.0000000000
C       -0.1582310000    0.9794760000    0.0000000000
H        0.1297270000   -0.0201690000    0.0000000000
13   
Frame  33 IRC: Energy =  -286.8593780000 ; -8.7600 kcal/mol
C       -0.0581550000    0.0512190000   -0.0000000000
C       -0.0236940000   -0.1132120000   -0.0000000000
C       -0.0627830000    0.0746300000   -0.0000000000
C       -0.0481350000   -0.1551540000    0.0000000000
C       -0.2922900000    0.1097960000   -0.0000000000
N       -0.1685640000    0.0392790000   -0.0000000000
H        0.1314410000    0.0010170000    0.0000000000
H        0.1346740000    0.0247070000   -0.0000000000
H        0.1324660000   -0.0000980000   -0.0000000000
H        0.1391480000    0.0054700000    0.0000000000
H        0.1443620000    0.0030950000   -0.0000000000
C       -0.1581950000    0.9794950000    0.0000000000
H        0.1297240000   -0.0202450000    0.0000000000
13   
Frame  34 IRC: Energy =  -286.8593870000 ; -8.7657 kcal/mol
C       -0.0581530000    0.0513720000   -0.0000000000
C       -0.0234460000   -0.1132920000   -0.0000000000
C       -0.0629070000    0.0748950000   -0.0000000000
C       -0.0481430000   -0.1551760000    0.0000000000
C       -0.2922600000    0.1097240000   -0.0000000000
N       -0.1686870000    0.0390180000   -0.0000000000
H        0.1314500000    0.0010080000    0.0000000000
H        0.1346750000    0.0246660000   -0.0000000000
H        0.1324810000   -0.0000730000   -0.0000000000
H        0.1391320000    0.0054690000    0.0000000000
H        0.1443480000    0.0031000000   -0.0000000000
C       -0.1582520000    0.9796070000    0.0000000000
H        0.1297640000   -0.0203190000    0.0000000000
13   
Frame  35 IRC: Energy =  -286.8593930000 ; -8.7695 kcal/mol
C       -0.0576680000    0.0515120000   -0.0000000000
C       -0.0237100000   -0.1133840000   -0.0000000000
C       -0.0628580000    0.0751130000   -0.0000000000
C       -0.0482850000   -0.1551960000    0.0000000000
C       -0.2922500000    0.1096440000   -0.0000000000
N       -0.1688070000    0.0388230000   -0.0000000000
H        0.1314250000    0.0010080000    0.0000000000
H        0.1346240000    0.0246530000   -0.0000000000
H        0.1324850000   -0.0000640000   -0.0000000000
H        0.1391090000    0.0054670000    0.0000000000
H        0.1443680000    0.0031130000   -0.0000000000
C       -0.1581980000    0.9796830000    0.0000000000
H        0.1297630000   -0.0203740000    0.0000000000
