
Running Job 1 of 1 irc_transition.in
qchem irc_transition.in_43257.0 ./irc_transition.d/ 1
/home/leeping/opt/qchem/5.0.2-openmp/exe/qcprog.exe_s irc_transition.in_43257.0 ./irc_transition.d/
Check license passed

                  Welcome to Q-Chem
     A Quantum Leap Into The Future Of Chemistry


 Q-Chem 5.0, Q-Chem, Inc., Pleasanton, CA (2017)

 Yihan Shao,  Zhengting Gan,  E. Epifanovsky,  A. T. B. Gilbert,  M. Wormit,  
 J. Kussmann,  A. W. Lange,  A. Behn,  Jia Deng,  Xintian Feng,  D. Ghosh,  
 M. Goldey,  P. R. Horn,  L. D. Jacobson,  I. Kaliman,  T. Kus,  A. Landau,  
 Jie Liu,  E. I. Proynov,  R. M. Richard,  R. P. Steele,  E. J. Sundstrom,  
 H. L. Woodcock III,  P. M. Zimmerman,  D. Zuev,  B. Albrecht,  E. Alguire,  
 S. A. Baeppler,  D. Barton,  Z. Benda,  Y. A. Bernard,  E. J. Berquist,  
 K. B. Bravaya,  H. Burton,  D. Casanova,  Chun-Min Chang,  Yunqing Chen,  
 A. Chien,  K. D. Closser,  M. P. Coons,  S. Dasgupta,  A. L. Dempwolff,  
 M. Diedenhofen,  Hainam Do,  R. G. Edgar,  Po-Tung Fang,  S. Fatehi,  
 Qingguo Feng,  J. Fosso-Tande,  Qinghui Ge,  A. Ghysels,  G. Gidofalvi,  
 J. Gomes,  J. Gonthier,  A. Gunina,  M. W. D. Hanson-Heine,  
 P. H. P. Harbach,  A. W. Hauser,  J. E. Herr,  E. G. Hohenstein,  
 Z. C. Holden,  Kerwin Hui,  T.-C. Jagau,  Hyunjun Ji,  B. Kaduk,  
 K. Khistyaev,  Jaehoon Kim,  P. Klunzinger,  K. Koh,  D. Kosenkov,  
 L. Koulias,  T. Kowalczyk,  C. M. Krauter,  A. Kunitsa,  Ka Un Lao,  
 A. Laurent,  K. V. Lawler,  Joonho Lee,  D. Lefrancois,  S. Lehtola,  
 D. S. Levine,  Yi-Pei Li,  You-Sheng Lin,  Fenglai Liu,  E. Livshits,  
 A. Luenser,  P. Manohar,  E. Mansoor,  S. F. Manzer,  Shan-Ping Mao,  
 Yuezhi Mao,  N. Mardirossian,  A. V. Marenich,  T. Markovich,  
 L. A. Martinez-Martinez,  S. A. Maurer,  N. J. Mayhall,  S. C. McKenzie,  
 J.-M. Mewes,  A. F. Morrison,  J. W. Mullinax,  K. Nanda,  
 T. S. Nguyen-Beck,  R. Olivares-Amaya,  J. A. Parkhill,  T. M. Perrine,  
 F. Plasser,  S. Prager,  A. Prociuk,  E. Ramos,  D. R. Rehn,  F. Rob,  
 M. Schneider,  N. Sergueev,  S. M. Sharada,  S. Sharma,  D. W. Small,  
 T. Stauch,  T. Stein,  Yu-Chuan Su,  A. J. W. Thom,  A. Tkatchenko,  
 T. Tsuchimochi,  L. Vogt,  O. Vydrov,  M. A. Watson,  J. Wenzel,  
 M. de Wergifosse,  T. A. Wesolowski,  A. White,  J. Witte,  A. Yamada,  
 Jun Yang,  K. Yao,  S. Yeganeh,  S. R. Yost,  Zhi-Qiang You,  A. Zech,  
 Igor Ying Zhang,  Xing Zhang,  Yan Zhao,  Ying Zhu,  B. R. Brooks,  
 G. K. L. Chan,  C. J. Cramer,  M. S. Gordon,  W. J. Hehre,  A. Klamt,  
 M. W. Schmidt,  C. D. Sherrill,  D. G. Truhlar,  A. Aspuru-Guzik,  R. Baer,  
 A. T. Bell,  N. A. Besley,  Jeng-Da Chai,  R. A. DiStasio Jr.,  A. Dreuw,  
 B. D. Dunietz,  T. R. Furlani,  Chao-Ping Hsu,  Yousung Jung,  Jing Kong,  
 D. S. Lambrecht,  WanZhen Liang,  C. Ochsenfeld,  V. A. Rassolov,  
 L. V. Slipchenko,  J. E. Subotnik,  T. Van Voorhis,  J. M. Herbert,  
 A. I. Krylov,  P. M. W. Gill,  M. Head-Gordon

 Contributors to earlier versions of Q-Chem not listed above: 
 R. D. Adamson,  B. Austin,  J. Baker,  G. J. O. Beran,  K. Brandhorst,  
 S. T. Brown,  E. F. C. Byrd,  A. K. Chakraborty,  C.-L. Cheng,  
 Siu Hung Chien,  D. M. Chipman,  D. L. Crittenden,  H. Dachsel,  
 R. J. Doerksen,  A. D. Dutoi,  L. Fusti-Molnar,  W. A. Goddard III,  
 A. Golubeva-Zadorozhnaya,  S. R. Gwaltney,  G. Hawkins,  A. Heyden,  
 S. Hirata,  G. Kedziora,  F. J. Keil,  C. Kelley,  Jihan Kim,  R. A. King,  
 R. Z. Khaliullin,  P. P. Korambath,  W. Kurlancheek,  A. M. Lee,  M. S. Lee,  
 S. V. Levchenko,  Ching Yeh Lin,  D. Liotard,  R. C. Lochan,  I. Lotan,  
 P. E. Maslen,  N. Nair,  D. P. O'Neill,  D. Neuhauser,  E. Neuscamman,  
 C. M. Oana,  R. Olson,  B. Peters,  R. Peverati,  P. A. Pieniazek,  
 Y. M. Rhee,  J. Ritchie,  M. A. Rohrdanz,  E. Rosta,  N. J. Russ,  
 H. F. Schaefer III,  N. E. Schultz,  N. Shenvi,  A. C. Simmonett,  A. Sodt,  
 D. Stuck,  K. S. Thanthiriwatte,  V. Vanovschi,  Tao Wang,  A. Warshel,  
 C. F. Williams,  Q. Wu,  X. Xu,  W. Zhang

 Please cite Q-Chem as follows:
 Y. Shao et al., Mol. Phys. 113, 184-215 (2015)
 DOI: 10.1080/00268976.2014.952696

 Q-Chem 5.0.2 for Intel X86 EM64T Linux

 Parts of Q-Chem use Armadillo 5.200.1 (Boston Tea Smuggler).
 http://arma.sourceforge.net/

 Q-Chem begins on Thu Mar  3 06:22:47 2022  

Host: 
0

     Scratch files written to ./irc_transition.d//
 Dec517 15110_ 26548  26544 5633   
Processing $rem in /home/leeping/opt/qchem/5.0.2-openmp/config/preferences.
 MEM_STATIC 2000
 MEM_TOTAL  8000
 SYMMETRY   OFF
 SYM_IGNORE TRUE 

Checking the input file for inconsistencies... 	...done.

--------------------------------------------------------------
User input:
--------------------------------------------------------------
$molecule
0 2
C        1.4013503399    0.3172338705    0.0795560666
C        0.6147584234   -0.9658931029   -0.1480172801
C       -0.6756299217   -0.4556358950   -0.8536519498
C       -1.1053130040    0.1905952288    0.4633145275
C       -0.5200503082    1.0513429833   -0.6623080362
N        0.8439228240    1.4225982673   -0.4298681842
H        2.4090537342    0.3144509717    0.4790876957
H        1.1142896254   -1.9136827708   -0.3314648101
H       -1.2575595411   -0.9537012497   -1.6208076668
H       -2.0913171172    0.3521581167    0.8823914992
H       -1.1628450577    1.7469790300   -1.1892258181
C        0.0967980247   -0.4429620852    1.1398512642
H        0.3220389766   -0.6698270218    2.1735224100
$end

$rem
method                b3lyp
basis                 6-31+g(d,p)
unrestricted          true
symmetry              off
sym_ignore            true
incdft                false
incfock               0
scf_convergence       6
thresh                14
jobtype               sp
scf_guess             read
scf_algorithm         diis
max_scf_cycles        100
stability_analysis    true
max_cis_cycles        100
cis_n_roots           4
$end

--------------------------------------------------------------
 ----------------------------------------------------------------
             Standard Nuclear Orientation (Angstroms)
    I     Atom           X                Y                Z
 ----------------------------------------------------------------
    1      C       1.4013503399     0.3172338705     0.0795560666
    2      C       0.6147584234    -0.9658931029    -0.1480172801
    3      C      -0.6756299217    -0.4556358950    -0.8536519498
    4      C      -1.1053130040     0.1905952288     0.4633145275
    5      C      -0.5200503082     1.0513429833    -0.6623080362
    6      N       0.8439228240     1.4225982673    -0.4298681842
    7      H       2.4090537342     0.3144509717     0.4790876957
    8      H       1.1142896254    -1.9136827708    -0.3314648101
    9      H      -1.2575595411    -0.9537012497    -1.6208076668
   10      H      -2.0913171172     0.3521581167     0.8823914992
   11      H      -1.1628450577     1.7469790300    -1.1892258181
   12      C       0.0967980247    -0.4429620852     1.1398512642
   13      H       0.3220389766    -0.6698270218     2.1735224100
 ----------------------------------------------------------------
 Nuclear Repulsion Energy =   286.3495407056 hartrees
 There are       25 alpha and       24 beta electrons
 Requested basis set is 6-31+G(d,p)
 There are 53 shells and 163 basis functions

 Total QAlloc Memory Limit   8000 MB
 Mega-Array Size      1956 MB
 MEM_STATIC part      2000 MB

                       Distance Matrix (Angstroms)
             C (  1)   C (  2)   C (  3)   C (  4)   C (  5)   N (  6)
   C (  2)  1.522147
   C (  3)  2.404590  1.556722
   C (  4)  2.539029  2.160981  1.528608
   C (  5)  2.186563  2.370976  1.527024  1.533116
   N (  6)  1.338682  2.415957  2.452834  2.472878  1.432579
   H (  7)  1.084020  2.291732  3.447391  3.516584  3.228846  2.122222
   H (  8)  2.286554  1.086964  2.366937  3.160110  3.401750  3.348664
   H (  9)  3.402398  2.382191  1.084084  2.382469  2.341547  3.388416
   H ( 10)  3.583921  3.181485  2.381291  1.083482  2.311674  3.388731
   H ( 11)  3.198293  3.406415  2.280680  2.270799  1.083853  2.170015
   C ( 12)  1.844988  1.483356  2.137957  1.517949  2.420997  2.550006
   H ( 13)  2.554192  2.358577  3.194527  2.387985  3.422495  3.380569
             H (  7)   H (  8)   H (  9)   H ( 10)   H ( 11)   C ( 12)
   H (  8)  2.701479
   H (  9)  4.411556  2.865247
   H ( 10)  4.518563  4.108941  2.943879
   H ( 11)  4.194504  4.395628  2.736587  2.664429
   C ( 12)  2.521271  2.315832  3.117110  2.342296  3.436152
   H ( 13)  2.862786  2.906854  4.119788  2.921602  4.399308  1.081978

 
 A cutoff of  1.0D-14 yielded   1405 shell pairs
 There are     13517 function pairs
 Smallest overlap matrix eigenvalue = 1.84E-05

 Scale SEOQF with 1.000000e-01/1.000000e-01/1.000000e-01

 Standard Electronic Orientation quadrupole field applied
 Nucleus-field energy     =     0.0000000014 hartrees
 Guess MOs from SCF MO coefficient file
 Reading MOs from coefficient file
 Reading MOs from coefficient file
 An unrestricted hybrid HF-DFT SCF calculation will be
 performed using Pulay DIIS extrapolation
 Exchange:     0.2000 Hartree-Fock + 0.0800 Slater + 0.7200 B88
 Correlation:  0.1900 VWN1RPA + 0.8100 LYP
 Using SG-1 standard quadrature grid
 SCF converges when DIIS error is below 1.0E-06
Using Q-Chem read-in guess as SCF_GUESS READ specified.

 -------------------------------------------------------
 OpenMP BLAS3 based DFT computing Module                
 -------------------------------------------------------
 ---------------------------------------
  Cycle       Energy         DIIS Error
 ---------------------------------------
    1    -286.8367415060      2.64E-09
    2    -286.8367415060      3.70E-09 Convergence criterion met
 ---------------------------------------
 <S^2> = 0.7705
 SCF time:  CPU 6.37 s  wall 6.64 s
 SCF   energy in the final basis set = -286.83674151
 Total energy in the final basis set = -286.83674151
 
 Direct TDDFT/TDA calculation will be performed
 Exchange:     0.2000 Hartree-Fock + 0.0800 Slater + 0.7200 B88
 Correlation:  0.1900 VWN1RPA + 0.8100 LYP
 Using SG-1 standard quadrature grid
 CIS energy converged when residual is below 10e- 6
 ---------------------------------------------------
 Iter    Rts Conv    Rts Left    Ttl Dev     Max Dev
 ---------------------------------------------------
   1         0           4      0.003854    0.001348
   2         0           4      0.001006    0.000358
   3         0           4      0.000394    0.000149
   4         0           4      0.000123    0.000039
   5         0           4      0.000035    0.000011
   6         0           4      0.000010    0.000004
   7         3           1      0.000004    0.000003
   8         4           0      0.000002    0.000001    Roots Converged
 ---------------------------------------------------
 
 ---------------------------------------------------
         TDDFT/TDA Excitation Energies              
 ---------------------------------------------------

 Excited state   1: excitation energy (eV) =    2.6027
 Total energy for state  1:                  -286.74109287 au
    <S**2>     :  0.7683
    Trans. Mom.: -0.0193 X   0.3324 Y  -0.2081 Z
    Strength   :     0.0098319100
    D( 23) --> S(  1) amplitude =  0.1702 beta
    D( 24) --> S(  1) amplitude =  0.9589 beta

 Excited state   2: excitation energy (eV) =    2.9547
 Total energy for state  2:                  -286.72816009 au
    <S**2>     :  0.7892
    Trans. Mom.: -0.0420 X  -0.0570 Y   0.0190 Z
    Strength   :     0.0003891649
    D( 22) --> S(  1) amplitude = -0.2060 beta
    D( 23) --> S(  1) amplitude =  0.9504 beta
    D( 24) --> S(  1) amplitude = -0.1850 beta

 Excited state   3: excitation energy (eV) =    3.8746
 Total energy for state  3:                  -286.69435368 au
    <S**2>     :  0.7894
    Trans. Mom.: -0.2008 X   0.0092 Y  -0.1482 Z
    Strength   :     0.0059217338
    D( 22) --> S(  1) amplitude =  0.9675 beta
    D( 23) --> S(  1) amplitude =  0.2178 beta

 Excited state   4: excitation energy (eV) =    4.6569
 Total energy for state  4:                  -286.66560387 au
    <S**2>     :  0.8225
    Trans. Mom.:  0.1110 X  -0.0005 Y  -0.1221 Z
    Strength   :     0.0031068595
    S(  1) --> V(  1) amplitude =  0.9810 alpha
    S(  1) --> V(  2) amplitude = -0.1586 alpha
 
 ---------------------------------------------------

 Stability analysis will be performed
 ---------------------------------------------------
 Iter    Rts Conv    Rts Left    Ttl Dev     Max Dev
 ---------------------------------------------------
   1         0           8      0.004263    0.000768
   2         0           8      0.001201    0.000402
   3         0           8      0.000603    0.000238
   4         2           6      0.000249    0.000086
   5         4           4      0.000160    0.000070
   6         4           4      0.000342    0.000312
   7         4           4      0.000129    0.000117
   8         6           2      0.000058    0.000054
   9         7           1      0.000021    0.000018
  10         7           1      0.000010    0.000007
  11         7           1      0.000005    0.000002
  12         7           1      0.000004    0.000001
  13         8           0      0.000003    0.000001    Roots Converged
 UKS-> UKS   stable,    smallest eigenvalue:      0.0831472
 UKS->CUKS   stable,    smallest eigenvalue:      0.0946709
 ---------------------------------------------------
  SETman timing summary (seconds)
  CPU time               175.56s
  System time              0.00s
  Wall time              179.42s
 
 --------------------------------------------------------------
 
                    Orbital Energies (a.u.)
 --------------------------------------------------------------
 
 Alpha MOs
 -- Occupied --
-14.336 -10.230 -10.230 -10.225 -10.221 -10.216 -10.214  -0.990
 -0.853  -0.786  -0.664  -0.603  -0.582  -0.549  -0.537  -0.456
 -0.451  -0.418  -0.414  -0.387  -0.350  -0.293  -0.278  -0.256
 -0.202
 -- Virtual --
  0.001   0.015   0.016   0.020   0.037   0.043   0.058   0.060
  0.071   0.076   0.084   0.092   0.109   0.112   0.117   0.118
  0.125   0.138   0.148   0.160   0.162   0.174   0.180   0.187
  0.192   0.197   0.208   0.216   0.223   0.245   0.250   0.252
  0.263   0.270   0.285   0.295   0.305   0.320   0.338   0.344
  0.361   0.374   0.416   0.454   0.607   0.653   0.677   0.692
  0.710   0.730   0.740   0.747   0.760   0.775   0.785   0.789
  0.800   0.830   0.857   0.892   0.903   0.923   0.945   0.960
  0.979   1.017   1.038   1.053   1.085   1.100   1.138   1.198
  1.239   1.258   1.361   1.417   1.418   1.490   1.536   1.541
  1.581   1.610   1.633   1.673   1.699   1.779   1.813   1.881
  1.910   1.939   1.966   2.000   2.015   2.113   2.145   2.158
  2.186   2.248   2.291   2.331   2.353   2.360   2.374   2.394
  2.416   2.448   2.459   2.477   2.502   2.516   2.551   2.570
  2.599   2.625   2.635   2.674   2.697   2.723   2.766   2.790
  2.868   2.934   2.972   3.066   3.090   3.240   3.280   3.377
  3.482   3.562   3.781   4.165   4.456   4.509   4.540   4.610
  4.801   4.928
 
 Beta MOs
 -- Occupied --
-14.325 -10.232 -10.226 -10.222 -10.220 -10.215 -10.214  -0.980
 -0.837  -0.781  -0.654  -0.601  -0.577  -0.543  -0.532  -0.453
 -0.445  -0.411  -0.403  -0.378  -0.338  -0.287  -0.265  -0.241
 -- Virtual --
 -0.093   0.002   0.016   0.016   0.023   0.038   0.043   0.059
  0.068   0.072   0.082   0.086   0.095   0.111   0.114   0.118
  0.122   0.128   0.139   0.149   0.161   0.163   0.176   0.181
  0.189   0.193   0.198   0.208   0.219   0.226   0.247   0.254
  0.261   0.265   0.272   0.290   0.297   0.306   0.323   0.340
  0.345   0.363   0.380   0.421   0.459   0.609   0.657   0.687
  0.698   0.716   0.734   0.742   0.750   0.762   0.781   0.787
  0.791   0.802   0.836   0.861   0.893   0.906   0.925   0.946
  0.972   0.981   1.023   1.042   1.057   1.103   1.107   1.146
  1.200   1.244   1.261   1.363   1.421   1.429   1.507   1.540
  1.552   1.589   1.615   1.644   1.676   1.705   1.785   1.818
  1.885   1.914   1.943   1.974   2.007   2.020   2.116   2.155
  2.166   2.195   2.252   2.300   2.337   2.356   2.364   2.378
  2.397   2.422   2.453   2.461   2.482   2.504   2.518   2.557
  2.573   2.604   2.633   2.644   2.682   2.704   2.727   2.771
  2.798   2.870   2.938   2.975   3.069   3.093   3.242   3.280
  3.379   3.483   3.562   3.784   4.184   4.464   4.512   4.538
  4.610   4.807   4.932
 --------------------------------------------------------------
 
          Ground-State Mulliken Net Atomic Charges

     Atom                 Charge (a.u.)    Spin (a.u.)
  --------------------------------------------------------
      1 C                    -0.238320      -0.147448
      2 C                     0.043510      -0.025527
      3 C                    -0.073244       0.098973
      4 C                    -0.023216      -0.032116
      5 C                    -0.276691      -0.019427
      6 N                    -0.111546       0.576604
      7 H                     0.141043       0.003595
      8 H                     0.130683       0.012039
      9 H                     0.130552      -0.004502
     10 H                     0.134621      -0.000689
     11 H                     0.140817       0.000737
     12 C                    -0.138886       0.560921
     13 H                     0.140679      -0.023160
  --------------------------------------------------------
  Sum of atomic charges =     0.000000
  Sum of spin   charges =     1.000000

 -----------------------------------------------------------------
                    Cartesian Multipole Moments
 -----------------------------------------------------------------
    Charge (ESU x 10^10)
                 0.0000
    Dipole Moment (Debye)
         X      -1.1275      Y      -2.4753      Z       0.6412
       Tot       2.7946
    Quadrupole Moments (Debye-Ang)
        XX     -38.7878     XY      -4.6978     YY     -45.4493
        XZ       2.5200     YZ       0.7102     ZZ     -40.0848
    Octopole Moments (Debye-Ang^2)
       XXX      -9.2415    XXY      -7.5738    XYY      -9.3131
       YYY     -28.6926    XXZ       4.3055    XYZ       1.7653
       YYZ       0.5702    XZZ      -6.4755    YZZ      -8.5033
       ZZZ       9.5656
    Hexadecapole Moments (Debye-Ang^3)
      XXXX    -246.7654   XXXY     -10.6800   XXYY     -88.3449
      XYYY     -25.1719   YYYY    -253.7578   XXXZ      -3.6388
      XXYZ      10.1749   XYYZ       3.6702   YYYZ      25.3539
      XXZZ     -72.7385   XYZZ      -4.6380   YYZZ     -69.3284
      XZZZ      -4.1509   YZZZ      19.6936   ZZZZ    -172.2181
 -----------------------------------------------------------------
Archival summary:
1\1\c8-66\SP\ProcedureUnspecified\6-31+G**\166(2)\hpark21\ThuMar306:25:542022ThuMar306:25:542022\0\\#,ProcedureUnspecified,6-31+G**,\\0,2\N\C,1,1.33868\H,2,1.08402,1,121.969\C,1,1.43258,2,104.136,3,-172.136,0\H,4,1.08385,1,118.504,2,-172.75,0\C,2,1.52215,1,115.086,3,-170.511,0\H,6,1.08696,2,121.519,1,144.11,0\C,6,1.48336,2,75.7274,1,-89.8973,0\H,8,1.08198,6,133.066,2,-97.6853,0\C,8,1.51795,6,92.1039,2,97.8987,0\H,10,1.08348,8,127.628,6,149.757,0\C,4,1.52702,1,111.906,2,-24.9291,0\H,12,1.08408,4,126.639,1,-134.555,0\\\@

 Total job time:  187.41s(wall), 182.14s(cpu) 
 Thu Mar  3 06:25:54 2022

        *************************************************************
        *                                                           *
        *  Thank you very much for using Q-Chem.  Have a nice day.  *
        *                                                           *
        *************************************************************


