13   
Frame   0 IRC: Energy =  -286.8454180000 ; +0.0000 kcal/mol
C        1.3151027935    0.3012423683    0.2424793701
C        0.6079990778   -0.9997781248   -0.1847108476
C       -0.6875713792   -0.4639940429   -0.8464339154
C       -1.0789587822    0.1903151535    0.4517509954
C       -0.5226497535    1.0618203701   -0.6902516796
N        0.8259611950    1.4212460917   -0.4674647155
H        2.3529844647    0.2887903507    0.5534157019
H        1.1207086068   -1.9358306930   -0.3734148954
H       -1.2903210865   -0.9334979978   -1.6148359459
H       -2.0530641835    0.3350704327    0.9041662727
H       -1.1691861356    1.7472428380   -1.2252741464
C        0.2171878551   -0.3458057880    1.1129540776
H        0.3618073278   -0.6668209588    2.1376197284
13   
Frame   1 IRC: Energy =  -286.8394788465 ; +3.7269 kcal/mol (Transition State)
C        1.3701478269    0.3046449244    0.1434670951
C        0.6104367806   -0.9805802856   -0.1594424916
C       -0.6791235743   -0.4582584420   -0.8508311227
C       -1.0990759687    0.1912230108    0.4584784752
C       -0.5226727360    1.0574652938   -0.6629571740
N        0.8357186901    1.4246517063   -0.4406995356
H        2.4012790839    0.3088872822    0.4843713998
H        1.1165679196   -1.9212284790   -0.3373511852
H       -1.2599296952   -0.9504916439   -1.6217912046
H       -2.0848448053    0.3485000552    0.8849498487
H       -1.1649953516    1.7499333634   -1.1909403423
C        0.1491491169   -0.4033085150    1.1282660878
H        0.3273427130   -0.6714382706    2.1644801494
13   
Frame   2 IRC: Energy =  -286.8414108232 ; +2.5145 kcal/mol
C        1.4421771757    0.3332614080    0.0017074354
C        0.6246814080   -0.9427081285   -0.1332164277
C       -0.6688244462   -0.4499732809   -0.8526702038
C       -1.1099971058    0.1863572070    0.4767953734
C       -0.5128949208    1.0450685179   -0.6607530804
N        0.8544687585    1.4226320007   -0.4138041612
H        2.4196683940    0.3234928009    0.4718428925
H        1.1130249796   -1.9020206428   -0.3226527093
H       -1.2534571962   -0.9549992217   -1.6156720646
H       -2.0970922027    0.3573978015    0.8836899786
H       -1.1599010956    1.7449076263   -1.1815738479
C        0.0295650109   -0.4965832180    1.1601516173
H        0.3185812405   -0.6668328705    2.1861551977
13   
Frame   3 IRC: Energy =  -286.8529761047 ; -4.7428 kcal/mol
C        1.5005957830    0.3441008076   -0.1002071740
C        0.6390815706   -0.9069036788   -0.1073879650
C       -0.6529974419   -0.4357967815   -0.8493780489
C       -1.1281609355    0.1611643577    0.4990518722
C       -0.4954609893    1.0366402757   -0.6554108995
N        0.8701497507    1.4282854335   -0.4069040381
H        2.4558439367    0.3494965370    0.4217741880
H        1.1076101973   -1.8745002724   -0.3017140611
H       -1.2368352039   -0.9545534183   -1.6054887540
H       -2.1191932574    0.3770370013    0.8743025093
H       -1.1516283281    1.7392734487   -1.1610824156
C       -0.0840501612   -0.6132378767    1.1875907462
H        0.2950450790   -0.6510058337    2.2048540405
13   
Frame   4 IRC: Energy =  -286.8576919131 ; -7.7020 kcal/mol
C        1.5220723530    0.3474056559   -0.1206282183
C        0.6448991080   -0.8962913150   -0.0745548179
C       -0.6403223835   -0.4297847034   -0.8404093325
C       -1.1526442978    0.1324066195    0.5061609503
C       -0.4872840113    1.0334431829   -0.6294997138
N        0.8813317778    1.4244757443   -0.4071833122
H        2.5357152494    0.3714249044    0.2767424078
H        1.1128871235   -1.8629308671   -0.2699279781
H       -1.1965253642   -0.9502401010   -1.6140456131
H       -2.1511379828    0.3890230334    0.8415701173
H       -1.1487778827    1.7460232949   -1.1094906499
C       -0.1395363041   -0.6539063388    1.2071810196
H        0.2193226145   -0.6510491100    2.2340851408
13   
Frame   5 IRC: Energy =  -286.8593930000 ; -8.7695 kcal/mol
C        1.5404481069    0.3533039863   -0.1459713907
C        0.6541557698   -0.8818156118   -0.0422716360
C       -0.6263990369   -0.4224625202   -0.8282597536
C       -1.1675337861    0.1249516880    0.5113350496
C       -0.4835393717    1.0394290617   -0.6064620589
N        0.8902065643    1.4288125494   -0.4144075682
H        2.5952945101    0.3715749375    0.1188188954
H        1.1168405453   -1.8554293134   -0.2136583156
H       -1.1516095290   -0.9414060931   -1.6236447970
H       -2.1794905964    0.3688445792    0.8160856865
H       -1.1497112826    1.7576362622   -1.0715013955
C       -0.1646605617   -0.6516902820    1.2267076423
H        0.1259986679   -0.6917492440    2.2732296417
