
Running Job 1 of 1 qcts2.in
qchem qcts2.in_36938.0 ./qcts2.d/ 1
/home/leeping/opt/qchem/5.0.2-openmp/exe/qcprog.exe_s qcts2.in_36938.0 ./qcts2.d/
Check license passed

                  Welcome to Q-Chem
     A Quantum Leap Into The Future Of Chemistry


 Q-Chem 5.0, Q-Chem, Inc., Pleasanton, CA (2017)

 Yihan Shao,  Zhengting Gan,  E. Epifanovsky,  A. T. B. Gilbert,  M. Wormit,  
 J. Kussmann,  A. W. Lange,  A. Behn,  Jia Deng,  Xintian Feng,  D. Ghosh,  
 M. Goldey,  P. R. Horn,  L. D. Jacobson,  I. Kaliman,  T. Kus,  A. Landau,  
 Jie Liu,  E. I. Proynov,  R. M. Richard,  R. P. Steele,  E. J. Sundstrom,  
 H. L. Woodcock III,  P. M. Zimmerman,  D. Zuev,  B. Albrecht,  E. Alguire,  
 S. A. Baeppler,  D. Barton,  Z. Benda,  Y. A. Bernard,  E. J. Berquist,  
 K. B. Bravaya,  H. Burton,  D. Casanova,  Chun-Min Chang,  Yunqing Chen,  
 A. Chien,  K. D. Closser,  M. P. Coons,  S. Dasgupta,  A. L. Dempwolff,  
 M. Diedenhofen,  Hainam Do,  R. G. Edgar,  Po-Tung Fang,  S. Fatehi,  
 Qingguo Feng,  J. Fosso-Tande,  Qinghui Ge,  A. Ghysels,  G. Gidofalvi,  
 J. Gomes,  J. Gonthier,  A. Gunina,  M. W. D. Hanson-Heine,  
 P. H. P. Harbach,  A. W. Hauser,  J. E. Herr,  E. G. Hohenstein,  
 Z. C. Holden,  Kerwin Hui,  T.-C. Jagau,  Hyunjun Ji,  B. Kaduk,  
 K. Khistyaev,  Jaehoon Kim,  P. Klunzinger,  K. Koh,  D. Kosenkov,  
 L. Koulias,  T. Kowalczyk,  C. M. Krauter,  A. Kunitsa,  Ka Un Lao,  
 A. Laurent,  K. V. Lawler,  Joonho Lee,  D. Lefrancois,  S. Lehtola,  
 D. S. Levine,  Yi-Pei Li,  You-Sheng Lin,  Fenglai Liu,  E. Livshits,  
 A. Luenser,  P. Manohar,  E. Mansoor,  S. F. Manzer,  Shan-Ping Mao,  
 Yuezhi Mao,  N. Mardirossian,  A. V. Marenich,  T. Markovich,  
 L. A. Martinez-Martinez,  S. A. Maurer,  N. J. Mayhall,  S. C. McKenzie,  
 J.-M. Mewes,  A. F. Morrison,  J. W. Mullinax,  K. Nanda,  
 T. S. Nguyen-Beck,  R. Olivares-Amaya,  J. A. Parkhill,  T. M. Perrine,  
 F. Plasser,  S. Prager,  A. Prociuk,  E. Ramos,  D. R. Rehn,  F. Rob,  
 M. Schneider,  N. Sergueev,  S. M. Sharada,  S. Sharma,  D. W. Small,  
 T. Stauch,  T. Stein,  Yu-Chuan Su,  A. J. W. Thom,  A. Tkatchenko,  
 T. Tsuchimochi,  L. Vogt,  O. Vydrov,  M. A. Watson,  J. Wenzel,  
 M. de Wergifosse,  T. A. Wesolowski,  A. White,  J. Witte,  A. Yamada,  
 Jun Yang,  K. Yao,  S. Yeganeh,  S. R. Yost,  Zhi-Qiang You,  A. Zech,  
 Igor Ying Zhang,  Xing Zhang,  Yan Zhao,  Ying Zhu,  B. R. Brooks,  
 G. K. L. Chan,  C. J. Cramer,  M. S. Gordon,  W. J. Hehre,  A. Klamt,  
 M. W. Schmidt,  C. D. Sherrill,  D. G. Truhlar,  A. Aspuru-Guzik,  R. Baer,  
 A. T. Bell,  N. A. Besley,  Jeng-Da Chai,  R. A. DiStasio Jr.,  A. Dreuw,  
 B. D. Dunietz,  T. R. Furlani,  Chao-Ping Hsu,  Yousung Jung,  Jing Kong,  
 D. S. Lambrecht,  WanZhen Liang,  C. Ochsenfeld,  V. A. Rassolov,  
 L. V. Slipchenko,  J. E. Subotnik,  T. Van Voorhis,  J. M. Herbert,  
 A. I. Krylov,  P. M. W. Gill,  M. Head-Gordon

 Contributors to earlier versions of Q-Chem not listed above: 
 R. D. Adamson,  B. Austin,  J. Baker,  G. J. O. Beran,  K. Brandhorst,  
 S. T. Brown,  E. F. C. Byrd,  A. K. Chakraborty,  C.-L. Cheng,  
 Siu Hung Chien,  D. M. Chipman,  D. L. Crittenden,  H. Dachsel,  
 R. J. Doerksen,  A. D. Dutoi,  L. Fusti-Molnar,  W. A. Goddard III,  
 A. Golubeva-Zadorozhnaya,  S. R. Gwaltney,  G. Hawkins,  A. Heyden,  
 S. Hirata,  G. Kedziora,  F. J. Keil,  C. Kelley,  Jihan Kim,  R. A. King,  
 R. Z. Khaliullin,  P. P. Korambath,  W. Kurlancheek,  A. M. Lee,  M. S. Lee,  
 S. V. Levchenko,  Ching Yeh Lin,  D. Liotard,  R. C. Lochan,  I. Lotan,  
 P. E. Maslen,  N. Nair,  D. P. O'Neill,  D. Neuhauser,  E. Neuscamman,  
 C. M. Oana,  R. Olson,  B. Peters,  R. Peverati,  P. A. Pieniazek,  
 Y. M. Rhee,  J. Ritchie,  M. A. Rohrdanz,  E. Rosta,  N. J. Russ,  
 H. F. Schaefer III,  N. E. Schultz,  N. Shenvi,  A. C. Simmonett,  A. Sodt,  
 D. Stuck,  K. S. Thanthiriwatte,  V. Vanovschi,  Tao Wang,  A. Warshel,  
 C. F. Williams,  Q. Wu,  X. Xu,  W. Zhang

 Please cite Q-Chem as follows:
 Y. Shao et al., Mol. Phys. 113, 184-215 (2015)
 DOI: 10.1080/00268976.2014.952696

 Q-Chem 5.0.2 for Intel X86 EM64T Linux

 Parts of Q-Chem use Armadillo 5.200.1 (Boston Tea Smuggler).
 http://arma.sourceforge.net/

 Q-Chem begins on Thu Mar  3 04:35:39 2022  

Host: 
0

     Scratch files written to ./qcts2.d//
 Dec517 15110_ 26548  26544 5633   
Processing $rem in /home/leeping/opt/qchem/5.0.2-openmp/config/preferences.
 MEM_STATIC 2000
 MEM_TOTAL  8000
 SYMMETRY   OFF
 SYM_IGNORE TRUE 

Checking the input file for inconsistencies... 	...done.

--------------------------------------------------------------
User input:
--------------------------------------------------------------
$molecule
0 2
C        1.4013503399    0.3172338705    0.0795560666
C        0.6147584234   -0.9658931029   -0.1480172801
C       -0.6756299217   -0.4556358950   -0.8536519498
C       -1.1053130040    0.1905952288    0.4633145275
C       -0.5200503082    1.0513429833   -0.6623080362
N        0.8439228240    1.4225982673   -0.4298681842
H        2.4090537342    0.3144509717    0.4790876957
H        1.1142896254   -1.9136827708   -0.3314648101
H       -1.2575595411   -0.9537012497   -1.6208076668
H       -2.0913171172    0.3521581167    0.8823914992
H       -1.1628450577    1.7469790300   -1.1892258181
C        0.0967980247   -0.4429620852    1.1398512642
H        0.3220389766   -0.6698270218    2.1735224100
$end

$rem
method                b3lyp
basis                 6-31+g(d,p)
unrestricted          true
symmetry              off
sym_ignore            true
incdft                false
incfock               0
scf_convergence       8
thresh                14
jobtype               freq
scf_guess             read
scf_algorithm         diis
max_scf_cycles        100
$end

--------------------------------------------------------------
 ----------------------------------------------------------------
             Standard Nuclear Orientation (Angstroms)
    I     Atom           X                Y                Z
 ----------------------------------------------------------------
    1      C       1.4013503399     0.3172338705     0.0795560666
    2      C       0.6147584234    -0.9658931029    -0.1480172801
    3      C      -0.6756299217    -0.4556358950    -0.8536519498
    4      C      -1.1053130040     0.1905952288     0.4633145275
    5      C      -0.5200503082     1.0513429833    -0.6623080362
    6      N       0.8439228240     1.4225982673    -0.4298681842
    7      H       2.4090537342     0.3144509717     0.4790876957
    8      H       1.1142896254    -1.9136827708    -0.3314648101
    9      H      -1.2575595411    -0.9537012497    -1.6208076668
   10      H      -2.0913171172     0.3521581167     0.8823914992
   11      H      -1.1628450577     1.7469790300    -1.1892258181
   12      C       0.0967980247    -0.4429620852     1.1398512642
   13      H       0.3220389766    -0.6698270218     2.1735224100
 ----------------------------------------------------------------
 Nuclear Repulsion Energy =   286.3495407056 hartrees
 There are       25 alpha and       24 beta electrons
 Requested basis set is 6-31+G(d,p)
 There are 53 shells and 163 basis functions

 Total QAlloc Memory Limit   8000 MB
 Mega-Array Size      1956 MB
 MEM_STATIC part      2000 MB

                       Distance Matrix (Angstroms)
             C (  1)   C (  2)   C (  3)   C (  4)   C (  5)   N (  6)
   C (  2)  1.522147
   C (  3)  2.404590  1.556722
   C (  4)  2.539029  2.160981  1.528608
   C (  5)  2.186563  2.370976  1.527024  1.533116
   N (  6)  1.338682  2.415957  2.452834  2.472878  1.432579
   H (  7)  1.084020  2.291732  3.447391  3.516584  3.228846  2.122222
   H (  8)  2.286554  1.086964  2.366937  3.160110  3.401750  3.348664
   H (  9)  3.402398  2.382191  1.084084  2.382469  2.341547  3.388416
   H ( 10)  3.583921  3.181485  2.381291  1.083482  2.311674  3.388731
   H ( 11)  3.198293  3.406415  2.280680  2.270799  1.083853  2.170015
   C ( 12)  1.844988  1.483356  2.137957  1.517949  2.420997  2.550006
   H ( 13)  2.554192  2.358577  3.194527  2.387985  3.422495  3.380569
             H (  7)   H (  8)   H (  9)   H ( 10)   H ( 11)   C ( 12)
   H (  8)  2.701479
   H (  9)  4.411556  2.865247
   H ( 10)  4.518563  4.108941  2.943879
   H ( 11)  4.194504  4.395628  2.736587  2.664429
   C ( 12)  2.521271  2.315832  3.117110  2.342296  3.436152
   H ( 13)  2.862786  2.906854  4.119788  2.921602  4.399308  1.081978

 
 A cutoff of  1.0D-14 yielded   1405 shell pairs
 There are     13517 function pairs
 Smallest overlap matrix eigenvalue = 1.84E-05
 Guess MOs from SCF MO coefficient file
 Reading MOs from coefficient file
 Reading MOs from coefficient file
 An unrestricted hybrid HF-DFT SCF calculation will be
 performed using Pulay DIIS extrapolation
 Exchange:     0.2000 Hartree-Fock + 0.0800 Slater + 0.7200 B88
 Correlation:  0.1900 VWN1RPA + 0.8100 LYP
 Using SG-1 standard quadrature grid
 SCF converges when DIIS error is below 1.0E-08
Using Q-Chem read-in guess as SCF_GUESS READ specified.

 -------------------------------------------------------
 OpenMP BLAS3 based DFT computing Module                
 -------------------------------------------------------
 ---------------------------------------
  Cycle       Energy         DIIS Error
 ---------------------------------------
    1    -286.8367415059      2.48E-10
    2    -286.8367415059      3.92E-10 Convergence criterion met
 ---------------------------------------
 <S^2> = 0.7705
 SCF time:  CPU 6.61 s  wall 9.64 s
 SCF   energy in the final basis set = -286.83674151
 Total energy in the final basis set = -286.83674151
 
 --------------------------------------------------------------
 
                    Orbital Energies (a.u.)
 --------------------------------------------------------------
 
 Alpha MOs
 -- Occupied --
-14.336 -10.230 -10.230 -10.225 -10.221 -10.216 -10.214  -0.990
 -0.853  -0.786  -0.664  -0.603  -0.582  -0.549  -0.537  -0.456
 -0.451  -0.418  -0.414  -0.387  -0.350  -0.293  -0.278  -0.256
 -0.202
 -- Virtual --
  0.001   0.015   0.016   0.020   0.037   0.043   0.058   0.060
  0.071   0.076   0.084   0.092   0.109   0.112   0.117   0.118
  0.125   0.138   0.148   0.160   0.162   0.174   0.180   0.187
  0.192   0.197   0.208   0.216   0.223   0.245   0.250   0.252
  0.263   0.270   0.285   0.295   0.305   0.320   0.338   0.344
  0.361   0.374   0.416   0.454   0.607   0.653   0.677   0.692
  0.710   0.730   0.740   0.747   0.760   0.775   0.785   0.789
  0.800   0.830   0.857   0.892   0.903   0.923   0.945   0.960
  0.979   1.017   1.038   1.053   1.085   1.100   1.138   1.198
  1.239   1.258   1.361   1.417   1.418   1.490   1.536   1.541
  1.581   1.610   1.633   1.673   1.699   1.779   1.813   1.881
  1.910   1.939   1.966   2.000   2.015   2.113   2.145   2.158
  2.186   2.248   2.291   2.331   2.353   2.360   2.374   2.394
  2.416   2.448   2.459   2.477   2.502   2.516   2.551   2.570
  2.599   2.625   2.635   2.674   2.697   2.723   2.766   2.790
  2.868   2.934   2.972   3.066   3.090   3.240   3.280   3.377
  3.482   3.562   3.781   4.165   4.456   4.509   4.540   4.610
  4.801   4.928
 
 Beta MOs
 -- Occupied --
-14.325 -10.232 -10.226 -10.222 -10.220 -10.215 -10.214  -0.980
 -0.837  -0.781  -0.654  -0.601  -0.577  -0.543  -0.532  -0.453
 -0.445  -0.411  -0.403  -0.378  -0.338  -0.287  -0.265  -0.241
 -- Virtual --
 -0.093   0.002   0.016   0.016   0.023   0.038   0.043   0.059
  0.068   0.072   0.082   0.086   0.095   0.111   0.114   0.118
  0.122   0.128   0.139   0.149   0.161   0.163   0.176   0.181
  0.189   0.193   0.198   0.208   0.219   0.226   0.247   0.254
  0.261   0.265   0.272   0.290   0.297   0.306   0.323   0.340
  0.345   0.363   0.380   0.421   0.459   0.609   0.657   0.687
  0.698   0.716   0.734   0.742   0.750   0.762   0.781   0.787
  0.791   0.802   0.836   0.861   0.893   0.906   0.925   0.946
  0.972   0.981   1.023   1.042   1.057   1.103   1.107   1.146
  1.200   1.244   1.261   1.363   1.421   1.429   1.507   1.540
  1.552   1.589   1.615   1.644   1.676   1.705   1.785   1.818
  1.885   1.914   1.943   1.974   2.007   2.020   2.116   2.155
  2.166   2.195   2.252   2.300   2.337   2.356   2.364   2.378
  2.397   2.422   2.453   2.461   2.482   2.504   2.518   2.557
  2.573   2.604   2.633   2.644   2.682   2.704   2.727   2.771
  2.798   2.870   2.938   2.975   3.069   3.093   3.242   3.280
  3.379   3.483   3.562   3.784   4.184   4.464   4.512   4.538
  4.610   4.807   4.932
 --------------------------------------------------------------
 
          Ground-State Mulliken Net Atomic Charges

     Atom                 Charge (a.u.)    Spin (a.u.)
  --------------------------------------------------------
      1 C                    -0.238320      -0.147449
      2 C                     0.043510      -0.025527
      3 C                    -0.073244       0.098974
      4 C                    -0.023216      -0.032117
      5 C                    -0.276691      -0.019427
      6 N                    -0.111546       0.576604
      7 H                     0.141043       0.003595
      8 H                     0.130683       0.012039
      9 H                     0.130552      -0.004502
     10 H                     0.134621      -0.000689
     11 H                     0.140817       0.000737
     12 C                    -0.138886       0.560922
     13 H                     0.140679      -0.023160
  --------------------------------------------------------
  Sum of atomic charges =     0.000000
  Sum of spin   charges =     1.000000

 -----------------------------------------------------------------
                    Cartesian Multipole Moments
 -----------------------------------------------------------------
    Charge (ESU x 10^10)
                 0.0000
    Dipole Moment (Debye)
         X      -1.1275      Y      -2.4753      Z       0.6412
       Tot       2.7946
    Quadrupole Moments (Debye-Ang)
        XX     -38.7878     XY      -4.6978     YY     -45.4493
        XZ       2.5200     YZ       0.7102     ZZ     -40.0848
    Octopole Moments (Debye-Ang^2)
       XXX      -9.2415    XXY      -7.5738    XYY      -9.3131
       YYY     -28.6926    XXZ       4.3055    XYZ       1.7653
       YYZ       0.5702    XZZ      -6.4755    YZZ      -8.5033
       ZZZ       9.5656
    Hexadecapole Moments (Debye-Ang^3)
      XXXX    -246.7654   XXXY     -10.6800   XXYY     -88.3449
      XYYY     -25.1719   YYYY    -253.7578   XXXZ      -3.6388
      XXYZ      10.1749   XYYZ       3.6702   YYYZ      25.3539
      XXZZ     -72.7385   XYZZ      -4.6380   YYZZ     -69.3284
      XZZZ      -4.1509   YZZZ      19.6936   ZZZZ    -172.2181
 -----------------------------------------------------------------
 Calculating MO derivatives via CPSCF
   1         3          39      0.271679    0.052091
   2         3          39      0.035391    0.006695
   3         3          39      0.004723    0.001033
   4         3          39      0.000527    0.000125
   5        27          15      0.000045    0.000012
   6        41           1      0.000001    0.000001
   7        42           0      0.000000    0.000000    Roots Converged
 Time for AOints: 19.3 s (CPU) 19.5 s (wall)
 ------------------------------------------------------------------------------
                     AOints        : Timing summary (seconds)
 ------------------------------------------------------------------------------
     job step          cpu (% of tot)      sys (% of tot)     wall (% of tot)
 ------------------------------------------------------------------------------
  cpscf_lag         0.1178E+03 (28.2)   0.4100E-04 (36.0)   0.1198E+03 (28.2)
  iterzp            0.2801E+03 (67.1)   0.7000E-04 (61.4)   0.2853E+03 (67.1)
  make_fx           0.0000E+00 ( 0.0)   0.0000E+00 ( 0.0)   0.0000E+00 ( 0.0)
  AOints            0.1926E+02 ( 4.6)   0.1000E-05 ( 0.9)   0.1946E+02 ( 4.6)
 ------------------------------------------------------------------------------
   Grand Totals     0.4175E+03          0.1140E-03          0.4250E+03
 ------------------------------------------------------------------------------
 Calculating analytic Hessian of the SCF energy
 Polarizability Matrix (a.u.)
            1           2           3
    1 -68.4557116  -1.3416196  -0.6749036
    2  -1.3416196 -67.7044188   6.1735834
    3  -0.6749036   6.1735834 -63.3471565
 
 Direct stationary perturbation theory relativistic correction:
 
 rels  =       0.069328080571
 relv  =      -0.343007547504
 rel2e =       0.160757151236
 E_rel =      -0.112922315697
 
 Hessian of the SCF Energy
            1           2           3           4           5           6
    1   0.6663626  -0.0910234   0.2697458  -0.0923927  -0.0593774  -0.0437095
    2  -0.0910234   0.4140301  -0.0131239  -0.0230442  -0.1521465  -0.0476141
    3   0.2697458  -0.0131239   0.0929737  -0.0100700   0.0366296  -0.0230444
    4  -0.0923927  -0.0230442  -0.0100700   0.4149507  -0.1854307  -0.0033667
    5  -0.0593774  -0.1521465   0.0366296  -0.1854307   0.6103345   0.1071020
    6  -0.0437095  -0.0476141  -0.0230444  -0.0033667   0.1071020   0.3744547
    7  -0.0328773  -0.0141328  -0.0110956  -0.1241755   0.0142583  -0.0609130
    8  -0.0090580  -0.0012661  -0.0118804   0.0332728  -0.0789506   0.0083259
    9  -0.0059192  -0.0029976  -0.0052595  -0.0395307   0.0066289  -0.0592738
   10  -0.0289387  -0.0038680   0.0108426  -0.0507383   0.0208456   0.0119130
   11   0.0056786   0.0066432   0.0069094   0.0412413  -0.0139835  -0.0100391
   12  -0.0140862  -0.0190116   0.0194380   0.0109908  -0.0219078  -0.0264436
   13  -0.0642091   0.0093024  -0.0241839  -0.0055160   0.0234773  -0.0074765
   14   0.0324319   0.0071439  -0.0089217   0.0132358  -0.0212568   0.0182498
   15  -0.0180791   0.0195351  -0.0168716  -0.0020267   0.0047278   0.0019319
   16  -0.1503978   0.0900161  -0.0215818   0.0091496  -0.0059169  -0.0066386
   17   0.0981774  -0.2347367   0.0376983  -0.0108637  -0.0361354   0.0240275
   18  -0.0728049   0.0692720  -0.0293962   0.0006597  -0.0076912   0.0062530
   19  -0.3053252  -0.0050701  -0.1066659  -0.0051106   0.0005040   0.0001286
   20  -0.0122870  -0.0496641   0.0050640  -0.0207602   0.0017844  -0.0069415
   21  -0.1089651   0.0011688  -0.0703321  -0.0038990   0.0024822  -0.0044449
   22   0.0129200  -0.0192443   0.0009849  -0.1058509   0.1218752   0.0154473
   23   0.0113513  -0.0150677  -0.0005259   0.1215447  -0.2640215  -0.0429383
   24  -0.0043579  -0.0018997   0.0039851   0.0140773  -0.0451791  -0.0545271
   25  -0.0020758   0.0001665  -0.0024778  -0.0015944  -0.0136427  -0.0060237
   26   0.0000371   0.0000462  -0.0022454   0.0045122   0.0094949   0.0078619
   27   0.0009978  -0.0016874   0.0030870   0.0011452  -0.0009719  -0.0031514
   28  -0.0011461   0.0000541   0.0009796  -0.0012748   0.0008337   0.0006004
   29  -0.0032270  -0.0019202   0.0016759   0.0043542  -0.0036738  -0.0017949
   30  -0.0013151  -0.0010399   0.0015393   0.0005002   0.0018338  -0.0024958
   31  -0.0055800   0.0001103  -0.0033022  -0.0004779  -0.0004925   0.0006700
   32  -0.0025569   0.0002294  -0.0013400  -0.0006895  -0.0026423   0.0018229
   33  -0.0011328  -0.0014638   0.0006206   0.0003748  -0.0036141   0.0004528
   34   0.0010700   0.0559164  -0.1112732  -0.0377101   0.0884528   0.0933139
   35   0.0270008   0.0295900  -0.0581444   0.0283023  -0.0554284  -0.0477976
   36   0.0002414   0.0020816   0.0233349   0.0367433  -0.0873158  -0.2041988
   37   0.0025902   0.0008170   0.0080975   0.0007410  -0.0053865   0.0060548
   38   0.0028527  -0.0028814   0.0082047  -0.0056752   0.0066251  -0.0102645
   39  -0.0006153  -0.0032194  -0.0000750  -0.0055981   0.0072755  -0.0055127
            7           8           9          10          11          12
    1  -0.0328773  -0.0090580  -0.0059192  -0.0289387   0.0056786  -0.0140862
    2  -0.0141328  -0.0012661  -0.0029976  -0.0038680   0.0066432  -0.0190116
    3  -0.0110956  -0.0118804  -0.0052595   0.0108426   0.0069094   0.0194380
    4  -0.1241755   0.0332728  -0.0395307  -0.0507383   0.0412413   0.0109908
    5   0.0142583  -0.0789506   0.0066289   0.0208456  -0.0139835  -0.0219078
    6  -0.0609130   0.0083259  -0.0592738   0.0119130  -0.0100391  -0.0264436
    7   0.4199267   0.0493800   0.1914492  -0.0565764   0.0012784   0.0328682
    8   0.0493800   0.4122386   0.1849331   0.0240928  -0.0423349  -0.0994858
    9   0.1914492   0.1849331   0.4895914   0.0387053  -0.0367314  -0.1402870
   10  -0.0565764   0.0240928   0.0387053   0.6669825  -0.1121653  -0.1389398
   11   0.0012784  -0.0423349  -0.0367314  -0.1121653   0.2374017  -0.0161910
   12   0.0328682  -0.0994858  -0.1402870  -0.1389398  -0.0161910   0.4376177
   13  -0.0491511  -0.0132261  -0.0388839  -0.0767124  -0.0084901   0.0422210
   14   0.0087840  -0.1534759  -0.0489240  -0.0273295  -0.0599419   0.0963588
   15  -0.0219100   0.0121831  -0.0297961   0.0191336   0.0353404  -0.0999400
   16  -0.0182319  -0.0360368   0.0073285  -0.0293512  -0.0245358  -0.0018033
   17  -0.0191901  -0.0221946  -0.0001628   0.0009498  -0.0148333   0.0146824
   18  -0.0165934  -0.0108481   0.0000887   0.0191099   0.0077993  -0.0013407
   19   0.0001693  -0.0002708   0.0010393   0.0001588   0.0003328  -0.0012440
   20  -0.0028670  -0.0028836   0.0007039  -0.0004838  -0.0004081  -0.0009560
   21  -0.0004718   0.0009026  -0.0009325   0.0013294  -0.0007491   0.0015546
   22  -0.0011722   0.0123791   0.0072245  -0.0032610   0.0030842   0.0018402
   23  -0.0026581   0.0002179   0.0000407  -0.0008366   0.0002614  -0.0006504
   24   0.0013346   0.0147361   0.0053601   0.0007769  -0.0028560  -0.0031889
   25  -0.1362362  -0.0693359  -0.1212787   0.0115489   0.0062980   0.0064455
   26  -0.0684116  -0.1046599  -0.1027551   0.0005737  -0.0047749   0.0023467
   27  -0.1220145  -0.1030006  -0.1886055  -0.0143802  -0.0069715  -0.0069408
   28   0.0037620  -0.0003499  -0.0004233  -0.2997653   0.0458447   0.1017142
   29   0.0147056  -0.0010033   0.0028160   0.0444658  -0.0360667  -0.0174818
   30   0.0150291   0.0045294  -0.0022297   0.1014959  -0.0159078  -0.0933510
   31   0.0007048  -0.0011869   0.0012239   0.0083196  -0.0078749   0.0061234
   32   0.0127684  -0.0108386   0.0125936   0.0015779  -0.0029102  -0.0007805
   33   0.0107890  -0.0085773   0.0069296  -0.0153220   0.0140022  -0.0101378
   34  -0.0055144   0.0125797  -0.0382597  -0.1486574   0.0460385  -0.0326697
   35   0.0052235   0.0060320  -0.0131947   0.0582661  -0.0681659   0.0569040
   36  -0.0174226   0.0081802  -0.0717443  -0.0366599   0.0289090  -0.0778306
   37  -0.0006277  -0.0022400  -0.0026754   0.0069908   0.0032695  -0.0134605
   38   0.0008615  -0.0008810  -0.0029508  -0.0060885  -0.0008868   0.0061729
   39  -0.0010492   0.0000017  -0.0038415   0.0019952  -0.0035145   0.0008500
           13          14          15          16          17          18
    1  -0.0642091   0.0324319  -0.0180791  -0.1503978   0.0981774  -0.0728049
    2   0.0093024   0.0071439   0.0195351   0.0900161  -0.2347367   0.0692720
    3  -0.0241839  -0.0089217  -0.0168716  -0.0215818   0.0376983  -0.0293962
    4  -0.0055160   0.0132358  -0.0020267   0.0091496  -0.0108637   0.0006597
    5   0.0234773  -0.0212568   0.0047278  -0.0059169  -0.0361354  -0.0076912
    6  -0.0074765   0.0182498   0.0019319  -0.0066386   0.0240275   0.0062530
    7  -0.0491511   0.0087840  -0.0219100  -0.0182319  -0.0191901  -0.0165934
    8  -0.0132261  -0.1534759   0.0121831  -0.0360368  -0.0221946  -0.0108481
    9  -0.0388839  -0.0489240  -0.0297961   0.0073285  -0.0001628   0.0000887
   10  -0.0767124  -0.0273295   0.0191336  -0.0293512   0.0009498   0.0191099
   11  -0.0084901  -0.0599419   0.0353404  -0.0245358  -0.0148333   0.0077993
   12   0.0422210   0.0963588  -0.0999400  -0.0018033   0.0146824  -0.0013407
   13   0.5400173  -0.1169474   0.1435665  -0.1875291   0.0030357  -0.0352352
   14  -0.1169474   0.4980453  -0.1828738  -0.0213297  -0.0775864   0.0129061
   15   0.1435665  -0.1828738   0.3248164  -0.0196405   0.0006521  -0.0533911
   16  -0.1875291  -0.0213297  -0.0196405   0.3687637  -0.0356236   0.0746603
   17   0.0030357  -0.0775864   0.0006521  -0.0356236   0.4219422  -0.1101834
   18  -0.0352352   0.0129061  -0.0533911   0.0746603  -0.1101834   0.1252846
   19   0.0000711   0.0017418  -0.0033130  -0.0078602   0.0033085  -0.0017543
   20   0.0023633  -0.0039600   0.0032498   0.0294986   0.0009431   0.0073786
   21  -0.0009174   0.0027038   0.0023221  -0.0111601  -0.0017490  -0.0092719
   22  -0.0036271  -0.0008097  -0.0003212  -0.0025919  -0.0010177  -0.0014985
   23  -0.0005741  -0.0011419  -0.0006422  -0.0012483  -0.0012619  -0.0005087
   24  -0.0027201   0.0031963  -0.0015071  -0.0020327   0.0033150  -0.0034588
   25  -0.0024543   0.0035575  -0.0009050  -0.0019496  -0.0011248  -0.0004376
   26  -0.0102552  -0.0039838  -0.0174469   0.0009143  -0.0029108  -0.0008734
   27   0.0079216   0.0002428   0.0039619  -0.0007001   0.0031369   0.0003165
   28  -0.0043305   0.0032357   0.0005207  -0.0009319   0.0004766  -0.0005410
   29  -0.0203884   0.0055484   0.0032397  -0.0017750   0.0010548   0.0025510
   30   0.0097790  -0.0027017  -0.0070477  -0.0021511  -0.0005568  -0.0017946
   31  -0.1493019   0.1077698  -0.0861386  -0.0146802   0.0185213  -0.0120669
   32   0.1123961  -0.1733162   0.1001279  -0.0067595   0.0093823  -0.0078310
   33  -0.0895778   0.0989967  -0.1075646   0.0000040   0.0007735  -0.0031758
   34   0.0048471  -0.0048734  -0.0123301   0.0366657  -0.0562130   0.0467127
   35   0.0165776  -0.0155728   0.0182654   0.0143468  -0.0437857   0.0391030
   36  -0.0049210   0.0113664  -0.0167458  -0.0152678   0.0274616  -0.0298148
   37  -0.0021040   0.0005332   0.0014435  -0.0010552  -0.0004364  -0.0002108
   38   0.0027288  -0.0005018   0.0036417  -0.0015501   0.0001225  -0.0010743
   39   0.0004275  -0.0005997  -0.0001683  -0.0010170   0.0009049  -0.0002990
           19          20          21          22          23          24
    1  -0.3053252  -0.0122870  -0.1089651   0.0129200   0.0113513  -0.0043579
    2  -0.0050701  -0.0496641   0.0011688  -0.0192443  -0.0150677  -0.0018997
    3  -0.1066659   0.0050640  -0.0703321   0.0009849  -0.0005259   0.0039851
    4  -0.0051106  -0.0207602  -0.0038990  -0.1058509   0.1215447   0.0140773
    5   0.0005040   0.0017844   0.0024822   0.1218752  -0.2640215  -0.0451791
    6   0.0001286  -0.0069415  -0.0044449   0.0154473  -0.0429383  -0.0545271
    7   0.0001693  -0.0028670  -0.0004718  -0.0011722  -0.0026581   0.0013346
    8  -0.0002708  -0.0028836   0.0009026   0.0123791   0.0002179   0.0147361
    9   0.0010393   0.0007039  -0.0009325   0.0072245   0.0000407   0.0053601
   10   0.0001588  -0.0004838   0.0013294  -0.0032610  -0.0008366   0.0007769
   11   0.0003328  -0.0004081  -0.0007491   0.0030842   0.0002614  -0.0028560
   12  -0.0012440  -0.0009560   0.0015546   0.0018402  -0.0006504  -0.0031889
   13   0.0000711   0.0023633  -0.0009174  -0.0036271  -0.0005741  -0.0027201
   14   0.0017418  -0.0039600   0.0027038  -0.0008097  -0.0011419   0.0031963
   15  -0.0033130   0.0032498   0.0023221  -0.0003212  -0.0006422  -0.0015071
   16  -0.0078602   0.0294986  -0.0111601  -0.0025919  -0.0012483  -0.0020327
   17   0.0033085   0.0009431  -0.0017490  -0.0010177  -0.0012619   0.0033150
   18  -0.0017543   0.0073786  -0.0092719  -0.0014985  -0.0005087  -0.0034588
   19   0.3196615   0.0006730   0.1163299   0.0002906  -0.0002518  -0.0002494
   20   0.0006730   0.0525248  -0.0059170   0.0012994   0.0010264  -0.0004976
   21   0.1163299  -0.0059170   0.0741396   0.0001956   0.0000205   0.0005888
   22   0.0002906   0.0012994   0.0001956   0.1067134  -0.1265657  -0.0216294
   23  -0.0002518   0.0010264   0.0000205  -0.1265657   0.2777309   0.0472585
   24  -0.0002494  -0.0004976   0.0005888  -0.0216294   0.0472585   0.0481044
   25   0.0001885  -0.0009529  -0.0009120   0.0008825   0.0003590   0.0003209
   26   0.0000409   0.0006312   0.0003720  -0.0004784   0.0001214  -0.0003501
   27   0.0002262   0.0002209  -0.0001467  -0.0004533   0.0001059   0.0005149
   28  -0.0000039   0.0001744   0.0002826  -0.0002312  -0.0003864   0.0002980
   29  -0.0000047   0.0001185   0.0001416   0.0014556   0.0001859  -0.0003384
   30  -0.0002387   0.0002327   0.0009716  -0.0000459   0.0000813   0.0006483
   31  -0.0005548   0.0014349  -0.0005601   0.0000313   0.0001492   0.0000550
   32  -0.0002371   0.0008262  -0.0000077   0.0002749   0.0000614   0.0009898
   33  -0.0002748   0.0003546   0.0007862   0.0007389  -0.0001560   0.0009779
   34  -0.0020430   0.0022827   0.0094751  -0.0047361  -0.0012293   0.0142204
   35  -0.0010587  -0.0014687   0.0017023   0.0087886   0.0015518  -0.0194750
   36  -0.0043474  -0.0031816   0.0047605  -0.0022846  -0.0018321   0.0015080
   37   0.0003578  -0.0003755  -0.0007272   0.0006327   0.0003462  -0.0000935
   38   0.0002922   0.0005299  -0.0010710  -0.0010411   0.0003360   0.0011001
   39   0.0003634   0.0002894   0.0000048  -0.0001985  -0.0002532   0.0009942
           25          26          27          28          29          30
    1  -0.0020758   0.0000371   0.0009978  -0.0011461  -0.0032270  -0.0013151
    2   0.0001665   0.0000462  -0.0016874   0.0000541  -0.0019202  -0.0010399
    3  -0.0024778  -0.0022454   0.0030870   0.0009796   0.0016759   0.0015393
    4  -0.0015944   0.0045122   0.0011452  -0.0012748   0.0043542   0.0005002
    5  -0.0136427   0.0094949  -0.0009719   0.0008337  -0.0036738   0.0018338
    6  -0.0060237   0.0078619  -0.0031514   0.0006004  -0.0017949  -0.0024958
    7  -0.1362362  -0.0684116  -0.1220145   0.0037620   0.0147056   0.0150291
    8  -0.0693359  -0.1046599  -0.1030006  -0.0003499  -0.0010033   0.0045294
    9  -0.1212787  -0.1027551  -0.1886055  -0.0004233   0.0028160  -0.0022297
   10   0.0115489   0.0005737  -0.0143802  -0.2997653   0.0444658   0.1014959
   11   0.0062980  -0.0047749  -0.0069715   0.0458447  -0.0360667  -0.0159078
   12   0.0064455   0.0023467  -0.0069408   0.1017142  -0.0174818  -0.0933510
   13  -0.0024543  -0.0102552   0.0079216  -0.0043305  -0.0203884   0.0097790
   14   0.0035575  -0.0039838   0.0002428   0.0032357   0.0055484  -0.0027017
   15  -0.0009050  -0.0174469   0.0039619   0.0005207   0.0032397  -0.0070477
   16  -0.0019496   0.0009143  -0.0007001  -0.0009319  -0.0017750  -0.0021511
   17  -0.0011248  -0.0029108   0.0031369   0.0004766   0.0010548  -0.0005568
   18  -0.0004376  -0.0008734   0.0003165  -0.0005410   0.0025510  -0.0017946
   19   0.0001885   0.0000409   0.0002262  -0.0000039  -0.0000047  -0.0002387
   20  -0.0009529   0.0006312   0.0002209   0.0001744   0.0001185   0.0002327
   21  -0.0009120   0.0003720  -0.0001467   0.0002826   0.0001416   0.0009716
   22   0.0008825  -0.0004784  -0.0004533  -0.0002312   0.0014556  -0.0000459
   23   0.0003590   0.0001214   0.0001059  -0.0003864   0.0001859   0.0000813
   24   0.0003209  -0.0003501   0.0005149   0.0002980  -0.0003384   0.0006483
   25   0.1319831   0.0751828   0.1267334   0.0005031  -0.0010044  -0.0010145
   26   0.0751828   0.1049611   0.1084468   0.0000832   0.0009434  -0.0004278
   27   0.1267334   0.1084468   0.1941331   0.0004441   0.0014507   0.0019260
   28   0.0005031   0.0000832   0.0004441   0.3081503  -0.0476952  -0.1124204
   29  -0.0010044   0.0009434   0.0014507  -0.0476952   0.0381770   0.0148524
   30  -0.0010145  -0.0004278   0.0019260  -0.1124204   0.0148524   0.0898346
   31   0.0006745  -0.0001317  -0.0001949   0.0007481   0.0011153  -0.0000164
   32   0.0002436   0.0014042  -0.0010189   0.0000144   0.0003868   0.0005625
   33   0.0000687   0.0015257  -0.0001858  -0.0001002  -0.0017346   0.0010569
   34  -0.0018697  -0.0020843   0.0011221  -0.0055502   0.0083786  -0.0098417
   35   0.0011388  -0.0013497   0.0003420  -0.0024471  -0.0043150  -0.0013350
   36  -0.0004730   0.0026083  -0.0043122   0.0088060  -0.0058281   0.0108384
   37   0.0003995   0.0000170  -0.0008474   0.0000704  -0.0003805   0.0002396
   38  -0.0008856   0.0000768  -0.0002957   0.0001618   0.0005640  -0.0001231
   39  -0.0000461   0.0009372  -0.0005969  -0.0001604   0.0004504   0.0001037
           31          32          33          34          35          36
    1  -0.0055800  -0.0025569  -0.0011328   0.0010700   0.0270008   0.0002414
    2   0.0001103   0.0002294  -0.0014638   0.0559164   0.0295900   0.0020816
    3  -0.0033022  -0.0013400   0.0006206  -0.1112732  -0.0581444   0.0233349
    4  -0.0004779  -0.0006895   0.0003748  -0.0377101   0.0283023   0.0367433
    5  -0.0004925  -0.0026423  -0.0036141   0.0884528  -0.0554284  -0.0873158
    6   0.0006700   0.0018229   0.0004528   0.0933139  -0.0477976  -0.2041988
    7   0.0007048   0.0127684   0.0107890  -0.0055144   0.0052235  -0.0174226
    8  -0.0011869  -0.0108386  -0.0085773   0.0125797   0.0060320   0.0081802
    9   0.0012239   0.0125936   0.0069296  -0.0382597  -0.0131947  -0.0717443
   10   0.0083196   0.0015779  -0.0153220  -0.1486574   0.0582661  -0.0366599
   11  -0.0078749  -0.0029102   0.0140022   0.0460385  -0.0681659   0.0289090
   12   0.0061234  -0.0007805  -0.0101378  -0.0326697   0.0569040  -0.0778306
   13  -0.1493019   0.1123961  -0.0895778   0.0048471   0.0165776  -0.0049210
   14   0.1077698  -0.1733162   0.0989967  -0.0048734  -0.0155728   0.0113664
   15  -0.0861386   0.1001279  -0.1075646  -0.0123301   0.0182654  -0.0167458
   16  -0.0146802  -0.0067595   0.0000040   0.0366657   0.0143468  -0.0152678
   17   0.0185213   0.0093823   0.0007735  -0.0562130  -0.0437857   0.0274616
   18  -0.0120669  -0.0078310  -0.0031758   0.0467127   0.0391030  -0.0298148
   19  -0.0005548  -0.0002371  -0.0002748  -0.0020430  -0.0010587  -0.0043474
   20   0.0014349   0.0008262   0.0003546   0.0022827  -0.0014687  -0.0031816
   21  -0.0005601  -0.0000077   0.0007862   0.0094751   0.0017023   0.0047605
   22   0.0000313   0.0002749   0.0007389  -0.0047361   0.0087886  -0.0022846
   23   0.0001492   0.0000614  -0.0001560  -0.0012293   0.0015518  -0.0018321
   24   0.0000550   0.0009898   0.0009779   0.0142204  -0.0194750   0.0015080
   25   0.0006745   0.0002436   0.0000687  -0.0018697   0.0011388  -0.0004730
   26  -0.0001317   0.0014042   0.0015257  -0.0020843  -0.0013497   0.0026083
   27  -0.0001949  -0.0010189  -0.0001858   0.0011221   0.0003420  -0.0043122
   28   0.0007481   0.0000144  -0.0001002  -0.0055502  -0.0024471   0.0088060
   29   0.0011153   0.0003868  -0.0017346   0.0083786  -0.0043150  -0.0058281
   30  -0.0000164   0.0005625   0.0010569  -0.0098417  -0.0013350   0.0108384
   31   0.1619367  -0.1161839   0.0934219  -0.0021828  -0.0027779   0.0008463
   32  -0.1161839   0.1781914  -0.1036359  -0.0004964  -0.0008899  -0.0013957
   33   0.0934219  -0.1036359   0.1120766   0.0017443   0.0026380  -0.0020696
   34  -0.0021828  -0.0004964   0.0017443   0.2224979  -0.1851144   0.0968544
   35  -0.0027779  -0.0008899   0.0026380  -0.1851144   0.1934955  -0.0435887
   36   0.0008463  -0.0013957  -0.0020696   0.0968544  -0.0435887   0.6989672
   37   0.0003625  -0.0003519  -0.0007339  -0.0568171   0.0317536  -0.0621152
   38  -0.0004530   0.0001154   0.0008909   0.0363622  -0.0396932   0.0625349
   39  -0.0000614  -0.0000871   0.0002330  -0.0590686   0.0645807  -0.3326928
           37          38          39
    1   0.0025902   0.0028527  -0.0006153
    2   0.0008170  -0.0028814  -0.0032194
    3   0.0080975   0.0082047  -0.0000750
    4   0.0007410  -0.0056752  -0.0055981
    5  -0.0053865   0.0066251   0.0072755
    6   0.0060548  -0.0102645  -0.0055127
    7  -0.0006277   0.0008615  -0.0010492
    8  -0.0022400  -0.0008810   0.0000017
    9  -0.0026754  -0.0029508  -0.0038415
   10   0.0069908  -0.0060885   0.0019952
   11   0.0032695  -0.0008868  -0.0035145
   12  -0.0134605   0.0061729   0.0008500
   13  -0.0021040   0.0027288   0.0004275
   14   0.0005332  -0.0005018  -0.0005997
   15   0.0014435   0.0036417  -0.0001683
   16  -0.0010552  -0.0015501  -0.0010170
   17  -0.0004364   0.0001225   0.0009049
   18  -0.0002108  -0.0010743  -0.0002990
   19   0.0003578   0.0002922   0.0003634
   20  -0.0003755   0.0005299   0.0002894
   21  -0.0007272  -0.0010710   0.0000048
   22   0.0006327  -0.0010411  -0.0001985
   23   0.0003462   0.0003360  -0.0002532
   24  -0.0000935   0.0011001   0.0009942
   25   0.0003995  -0.0008856  -0.0000461
   26   0.0000170   0.0000768   0.0009372
   27  -0.0008474  -0.0002957  -0.0005969
   28   0.0000704   0.0001618  -0.0001604
   29  -0.0003805   0.0005640   0.0004504
   30   0.0002396  -0.0001231   0.0001037
   31   0.0003625  -0.0004530  -0.0000614
   32  -0.0003519   0.0001154  -0.0000871
   33  -0.0007339   0.0008909   0.0002330
   34  -0.0568171   0.0363622  -0.0590686
   35   0.0317536  -0.0396932   0.0645807
   36  -0.0621152   0.0625349  -0.3326928
   37   0.0484592  -0.0275656   0.0650285
   38  -0.0275656   0.0364746  -0.0667659
   39   0.0650285  -0.0667659   0.3410004
 Gradient time:  CPU 550.39 s  wall 560.32 s
 **********************************************************************
 **                                                                  **
 **                       VIBRATIONAL ANALYSIS                       **
 **                       --------------------                       **
 **                                                                  **
 **        VIBRATIONAL FREQUENCIES (CM**-1) AND NORMAL MODES         **
 **     FORCE CONSTANTS (mDYN/ANGSTROM) AND REDUCED MASSES (AMU)     **
 **                  INFRARED INTENSITIES (KM/MOL)                   **
 **                                                                  **
 **********************************************************************
 

 Mode:                 1                      2                      3
 Frequency:      -625.35                 469.00                 564.01
 Force Cnst:      2.0665                 0.5103                 0.5648
 Red. Mass:       8.9686                 3.9376                 3.0136
 IR Active:          YES                    YES                    YES
 IR Intens:        5.778                  3.682                  3.348
 Raman Active:       YES                    YES                    YES
               X      Y      Z        X      Y      Z        X      Y      Z
 C         -0.272 -0.145  0.506    0.047 -0.119 -0.188    0.014 -0.069 -0.040
 C         -0.057 -0.162 -0.141   -0.031 -0.070 -0.016   -0.012 -0.001  0.079
 C         -0.046 -0.015 -0.010   -0.006 -0.079 -0.011    0.097  0.098 -0.084
 C          0.044  0.001 -0.069   -0.036  0.010 -0.087   -0.103 -0.180 -0.036
 C         -0.032  0.054 -0.007   -0.003 -0.034 -0.031   -0.057  0.094  0.202
 N         -0.059  0.011 -0.083   -0.066  0.052  0.334    0.049 -0.071 -0.136
 H         -0.160 -0.181  0.201    0.033 -0.151 -0.146    0.068 -0.081 -0.171
 H         -0.034 -0.120 -0.217   -0.136 -0.158  0.152   -0.092 -0.055  0.133
 H         -0.072  0.111 -0.070    0.005 -0.045 -0.040    0.278  0.244 -0.313
 H          0.073 -0.122  0.049   -0.026 -0.029 -0.050   -0.176 -0.389 -0.120
 H         -0.007  0.028 -0.068    0.085 -0.030 -0.130   -0.060  0.135  0.260
 C          0.436  0.287 -0.159    0.079  0.208 -0.040   -0.010  0.115  0.048
 H          0.153 -0.104 -0.177    0.358  0.694  0.002    0.158  0.448  0.081
 TransDip  -0.025  0.073 -0.004    0.046  0.007 -0.040    0.007  0.051  0.028

 Mode:                 4                      5                      6
 Frequency:       610.96                 708.64                 731.01
 Force Cnst:      0.2891                 2.1260                 0.6123
 Red. Mass:       1.3147                 7.1856                 1.9449
 IR Active:          YES                    YES                    YES
 IR Intens:       15.146                  0.914                 11.970
 Raman Active:       YES                    YES                    YES
               X      Y      Z        X      Y      Z        X      Y      Z
 C         -0.057  0.011  0.040   -0.185 -0.117 -0.117   -0.016 -0.021 -0.035
 C          0.014 -0.020 -0.019    0.039 -0.242  0.143    0.040 -0.006 -0.016
 C         -0.009  0.037  0.026    0.325  0.069 -0.083   -0.048 -0.065  0.150
 C          0.019 -0.002  0.016    0.258  0.291 -0.048   -0.022 -0.062 -0.117
 C          0.016  0.025 -0.052   -0.133  0.191  0.041    0.023  0.169 -0.003
 N          0.016  0.002 -0.022   -0.242 -0.020 -0.002    0.049  0.036 -0.003
 H         -0.138  0.019  0.245   -0.143  0.100 -0.245    0.003 -0.086 -0.082
 H          0.087  0.048 -0.192    0.103 -0.204  0.101    0.139  0.057 -0.087
 H         -0.073 -0.016  0.111    0.077 -0.034  0.185   -0.295 -0.267  0.471
 H         -0.009 -0.063 -0.028    0.111 -0.212 -0.207   -0.180 -0.483 -0.324
 H          0.019  0.033 -0.046   -0.217  0.061 -0.041    0.112  0.208 -0.062
 C         -0.036 -0.116  0.002    0.006 -0.135  0.072    0.000  0.002  0.027
 H          0.530  0.731  0.064   -0.264 -0.109  0.142   -0.195 -0.145  0.042
 TransDip   0.054  0.110  0.023   -0.028  0.011 -0.004   -0.063 -0.091  0.009

 Mode:                 7                      8                      9
 Frequency:       761.87                 788.71                 801.51
 Force Cnst:      1.6789                 1.1504                 1.0030
 Red. Mass:       4.9093                 3.1387                 2.6499
 IR Active:          YES                    YES                    YES
 IR Intens:       10.319                 19.106                  6.567
 Raman Active:       YES                    YES                    YES
               X      Y      Z        X      Y      Z        X      Y      Z
 C          0.058 -0.024  0.023   -0.059  0.100 -0.011   -0.052  0.048 -0.074
 C          0.235 -0.029 -0.114   -0.096 -0.115  0.084   -0.085 -0.146  0.020
 C         -0.012 -0.181  0.085   -0.115 -0.155 -0.128    0.079 -0.040  0.144
 C         -0.060  0.201 -0.021    0.150 -0.079 -0.103   -0.112  0.020  0.038
 C         -0.067  0.030  0.287    0.066  0.025  0.109    0.060 -0.003  0.046
 N          0.003 -0.084 -0.043    0.069  0.168 -0.027    0.074  0.193 -0.048
 H         -0.101  0.146  0.437   -0.055 -0.017 -0.020   -0.133  0.001  0.127
 H          0.258 -0.073  0.174    0.120 -0.037  0.254   -0.139 -0.176  0.022
 H          0.009 -0.083  0.007   -0.214 -0.112 -0.091    0.348  0.343 -0.301
 H          0.018  0.266  0.144    0.295  0.424  0.041   -0.134 -0.167  0.073
 H         -0.013 -0.043  0.126   -0.164  0.143  0.547    0.061 -0.378 -0.453
 C         -0.155  0.054 -0.268   -0.019 -0.023  0.013    0.018 -0.057 -0.066
 H         -0.206  0.352 -0.197   -0.076  0.189  0.069    0.069 -0.163 -0.099
 TransDip  -0.033  0.056  0.080   -0.031  0.030  0.133   -0.014 -0.076 -0.027

 Mode:                10                     11                     12
 Frequency:       843.54                 878.09                 903.02
 Force Cnst:      0.7902                 0.6751                 0.7574
 Red. Mass:       1.8849                 1.4860                 1.5766
 IR Active:          YES                    YES                    YES
 IR Intens:        6.027                 26.993                 18.071
 Raman Active:       YES                    YES                    YES
               X      Y      Z        X      Y      Z        X      Y      Z
 C          0.125  0.058 -0.006    0.001 -0.030 -0.046    0.022 -0.009 -0.051
 C          0.029 -0.122  0.087   -0.083  0.050 -0.031   -0.015  0.023 -0.006
 C         -0.083  0.098 -0.025    0.084 -0.002 -0.049   -0.011 -0.037  0.073
 C          0.017 -0.054  0.016    0.036  0.008  0.042   -0.028 -0.028 -0.083
 C         -0.015  0.040 -0.064   -0.061 -0.051  0.017    0.047  0.083  0.008
 N         -0.041 -0.029  0.004    0.075  0.038 -0.005   -0.087 -0.059 -0.011
 H         -0.054  0.401  0.457   -0.268 -0.020  0.629   -0.177  0.261  0.445
 H         -0.167 -0.289  0.381   -0.286 -0.038 -0.106   -0.196 -0.042 -0.163
 H         -0.337  0.231  0.077    0.021 -0.442  0.290    0.326 -0.007 -0.203
 H          0.010 -0.284  0.085   -0.028 -0.220 -0.026    0.009  0.520 -0.207
 H          0.029  0.110 -0.030   -0.149 -0.012  0.178    0.038  0.166  0.128
 C          0.020  0.006 -0.087   -0.003  0.050 -0.005    0.068 -0.021  0.071
 H         -0.032 -0.081 -0.098   -0.017 -0.100 -0.036    0.207 -0.190  0.009
 TransDip  -0.040 -0.008  0.067   -0.084 -0.093  0.109    0.042  0.129  0.016

 Mode:                13                     14                     15
 Frequency:       921.01                 968.19                 972.38
 Force Cnst:      0.8135                 0.9188                 0.8949
 Red. Mass:       1.6276                 1.6636                 1.6065
 IR Active:          YES                    YES                    YES
 IR Intens:        0.489                  3.677                  1.744
 Raman Active:       YES                    YES                    YES
               X      Y      Z        X      Y      Z        X      Y      Z
 C         -0.105 -0.088 -0.096   -0.082 -0.066 -0.018   -0.011 -0.005 -0.022
 C          0.090  0.017 -0.002    0.074  0.014  0.062   -0.006  0.056  0.043
 C         -0.056  0.030 -0.000    0.029  0.033 -0.011   -0.062 -0.041 -0.092
 C          0.047 -0.057  0.035   -0.090 -0.055  0.059   -0.044  0.118 -0.030
 C          0.018 -0.001 -0.035   -0.016  0.080 -0.079   -0.025 -0.040  0.060
 N          0.020  0.006  0.008    0.033  0.033  0.006    0.032 -0.013  0.001
 H         -0.318 -0.105  0.425   -0.053 -0.169 -0.102   -0.081 -0.063  0.155
 H          0.455  0.217 -0.043    0.115 -0.046  0.487    0.333  0.178  0.347
 H         -0.020  0.341 -0.233    0.170 -0.381  0.143   -0.215  0.143 -0.099
 H          0.139 -0.036  0.235    0.061  0.340  0.275   -0.235 -0.213 -0.341
 H          0.017 -0.054 -0.106   -0.024  0.212  0.094    0.077 -0.053 -0.082
 C         -0.011  0.061  0.057   -0.004 -0.021 -0.079    0.079 -0.048  0.049
 H         -0.346 -0.010  0.116    0.325 -0.236 -0.203    0.500 -0.285 -0.092
 TransDip   0.010  0.008 -0.019   -0.004 -0.054  0.029    0.022 -0.033  0.016

 Mode:                16                     17                     18
 Frequency:       998.89                1043.10                1045.63
 Force Cnst:      0.9917                 0.9169                 1.8448
 Red. Mass:       1.6869                 1.4303                 2.8637
 IR Active:          YES                    YES                    YES
 IR Intens:        1.816                  2.532                  1.992
 Raman Active:       YES                    YES                    YES
               X      Y      Z        X      Y      Z        X      Y      Z
 C          0.042  0.015  0.026   -0.051 -0.019  0.003   -0.118  0.039 -0.028
 C         -0.072  0.069  0.014    0.030  0.046 -0.029   -0.108  0.135 -0.037
 C         -0.057 -0.121 -0.023   -0.022 -0.016  0.093    0.077 -0.002  0.015
 C          0.067  0.034  0.004    0.062  0.041  0.022    0.115 -0.094  0.010
 C         -0.064  0.123 -0.035    0.065 -0.056 -0.074    0.210  0.002  0.114
 N          0.016 -0.042  0.014   -0.019  0.012 -0.002   -0.115 -0.085 -0.009
 H          0.044 -0.020  0.025   -0.026 -0.060 -0.073   -0.133  0.049 -0.025
 H         -0.068  0.058  0.098   -0.185 -0.124  0.288   -0.132  0.042  0.472
 H          0.421 -0.155 -0.374    0.227  0.214 -0.241   -0.247  0.034  0.251
 H          0.185 -0.447  0.480   -0.113 -0.367 -0.247    0.153 -0.088  0.063
 H          0.137  0.154 -0.255   -0.204  0.203  0.607    0.418 -0.196 -0.374
 C          0.006 -0.041 -0.003   -0.038  0.002 -0.035   -0.061  0.035 -0.083
 H          0.001  0.062  0.018    0.030 -0.005 -0.057    0.169 -0.045 -0.167
 TransDip   0.038  0.019  0.008   -0.028 -0.039  0.018    0.023 -0.023  0.031

 Mode:                19                     20                     21
 Frequency:      1061.91                1135.58                1204.30
 Force Cnst:      1.1424                 1.7337                 1.1499
 Red. Mass:       1.7194                 2.2818                 1.3457
 IR Active:          YES                    YES                    YES
 IR Intens:        5.838                  0.274                  0.302
 Raman Active:       YES                    YES                    YES
               X      Y      Z        X      Y      Z        X      Y      Z
 C         -0.011  0.075 -0.037   -0.072 -0.001 -0.006   -0.016 -0.015  0.009
 C         -0.083 -0.091  0.051    0.128 -0.045 -0.129    0.045  0.010  0.033
 C          0.032 -0.010 -0.027   -0.042 -0.048 -0.133    0.067 -0.085 -0.011
 C         -0.080  0.041  0.071   -0.075  0.039  0.111   -0.024  0.013 -0.051
 C          0.111 -0.025 -0.013    0.087 -0.002  0.023    0.003  0.008 -0.024
 N         -0.034 -0.059  0.011   -0.010  0.051 -0.025    0.010  0.008 -0.002
 H         -0.021  0.156 -0.013   -0.042  0.332 -0.083    0.004  0.068 -0.041
 H          0.490  0.294 -0.377   -0.389 -0.381  0.121   -0.218 -0.054 -0.363
 H          0.124 -0.190  0.017   -0.027 -0.236 -0.046   -0.370  0.364  0.031
 H         -0.107 -0.210  0.121   -0.147 -0.120  0.041    0.156 -0.108  0.427
 H          0.250  0.365  0.342    0.468  0.261 -0.095   -0.048  0.087  0.138
 C          0.012  0.048 -0.059    0.007  0.004  0.150   -0.081  0.052  0.041
 H         -0.032 -0.039 -0.071   -0.117  0.065  0.211    0.415 -0.268 -0.136
 TransDip   0.068  0.035  0.009    0.005 -0.016  0.002   -0.017  0.002 -0.000

 Mode:                22                     23                     24
 Frequency:      1232.82                1241.98                1284.79
 Force Cnst:      2.6858                 1.2420                 2.0464
 Red. Mass:       2.9994                 1.3666                 2.1041
 IR Active:          YES                    YES                    YES
 IR Intens:        7.656                  1.996                 13.556
 Raman Active:       YES                    YES                    YES
               X      Y      Z        X      Y      Z        X      Y      Z
 C         -0.033 -0.080 -0.020   -0.070 -0.016 -0.005   -0.040  0.030 -0.021
 C          0.121  0.076  0.228   -0.001 -0.030 -0.024   -0.037  0.037 -0.056
 C         -0.158  0.107 -0.026   -0.055  0.045  0.009    0.052  0.059  0.048
 C          0.006  0.048 -0.112    0.038 -0.003 -0.022   -0.123  0.058 -0.175
 C          0.098 -0.097  0.091    0.007  0.011  0.013    0.022 -0.070  0.009
 N         -0.063  0.066 -0.026    0.091 -0.047  0.043    0.030 -0.040  0.008
 H         -0.030 -0.117 -0.042    0.012  0.755 -0.213   -0.059  0.173  0.011
 H         -0.390 -0.050 -0.521    0.103  0.024 -0.030    0.016 -0.014  0.379
 H          0.232 -0.404 -0.002    0.194 -0.196 -0.027   -0.089  0.038  0.189
 H          0.075 -0.257  0.162    0.029 -0.077 -0.027    0.176 -0.109  0.623
 H          0.154 -0.174 -0.049   -0.306 -0.324 -0.047   -0.113 -0.008  0.271
 C          0.038 -0.048 -0.086   -0.043  0.044  0.014    0.121 -0.092  0.044
 H         -0.028 -0.004 -0.070    0.186 -0.130 -0.076   -0.279  0.197  0.212
 TransDip  -0.011 -0.085 -0.024   -0.013 -0.012 -0.042   -0.017  0.011  0.116

 Mode:                25                     26                     27
 Frequency:      1294.91                1335.03                1383.03
 Force Cnst:      2.2859                 2.4646                 2.6246
 Red. Mass:       2.3138                 2.3470                 2.3289
 IR Active:          YES                    YES                    YES
 IR Intens:        3.032                  6.115                  0.451
 Raman Active:       YES                    YES                    YES
               X      Y      Z        X      Y      Z        X      Y      Z
 C          0.144 -0.096  0.046   -0.019 -0.106 -0.004   -0.090  0.219 -0.046
 C         -0.023 -0.031 -0.076   -0.024  0.129  0.104    0.077 -0.037  0.016
 C         -0.024  0.006 -0.050    0.044 -0.129 -0.065   -0.025 -0.017 -0.050
 C         -0.053  0.026  0.015   -0.070 -0.005  0.114   -0.036  0.015  0.030
 C          0.164  0.085 -0.009    0.062  0.096 -0.043    0.060  0.090 -0.011
 N         -0.134  0.068 -0.051    0.020  0.005  0.013    0.045 -0.154  0.058
 H          0.118 -0.193  0.142    0.005  0.460 -0.076   -0.141 -0.596  0.044
 H          0.260  0.073  0.125   -0.174  0.114 -0.124   -0.272 -0.204 -0.130
 H          0.030 -0.223  0.044   -0.343  0.223 -0.015   -0.014 -0.068 -0.041
 H         -0.009 -0.188  0.223   -0.185  0.091 -0.157   -0.079 -0.040 -0.027
 H         -0.557 -0.499  0.101   -0.327 -0.174  0.060   -0.464 -0.378  0.008
 C         -0.050  0.020  0.076    0.103 -0.075 -0.100    0.046  0.020  0.004
 H          0.129 -0.037  0.035   -0.382  0.276  0.071   -0.038 -0.026  0.019
 TransDip   0.028 -0.035  0.033   -0.059  0.052  0.007    0.013  0.002 -0.017

 Mode:                28                     29                     30
 Frequency:      3170.32                3205.30                3210.77
 Force Cnst:      6.4679                 6.6077                 6.6280
 Red. Mass:       1.0922                 1.0916                 1.0912
 IR Active:          YES                    YES                    YES
 IR Intens:       13.924                 12.175                  5.269
 Raman Active:       YES                    YES                    YES
               X      Y      Z        X      Y      Z        X      Y      Z
 C         -0.004  0.002 -0.003   -0.002  0.000 -0.001    0.004  0.000  0.001
 C          0.040 -0.075 -0.015    0.007 -0.009 -0.001   -0.000  0.001  0.000
 C          0.004  0.006  0.007   -0.044 -0.035 -0.055   -0.005 -0.005 -0.007
 C         -0.002  0.001  0.001    0.028 -0.005 -0.010   -0.055  0.009  0.022
 C         -0.000  0.000 -0.000    0.012 -0.011  0.009    0.038 -0.039  0.030
 N          0.000  0.000  0.000   -0.000  0.000  0.000   -0.000  0.000 -0.000
 H          0.060 -0.002  0.024    0.021 -0.000  0.007   -0.044  0.000 -0.019
 H         -0.454  0.857  0.165   -0.057  0.103  0.018    0.003 -0.008 -0.002
 H         -0.063 -0.057 -0.085    0.483  0.407  0.631    0.057  0.048  0.076
 H          0.023 -0.004 -0.010   -0.328  0.054  0.138    0.621 -0.105 -0.261
 H          0.001  0.001  0.000   -0.130  0.140 -0.108   -0.421  0.456 -0.343
 C         -0.003  0.001 -0.004    0.000 -0.000  0.004   -0.001  0.002 -0.008
 H          0.017 -0.015  0.070   -0.008  0.007 -0.041    0.020 -0.020  0.101
 TransDip   0.056 -0.102 -0.028    0.011 -0.082 -0.076   -0.014 -0.043  0.058

 Mode:                31                     32                     33
 Frequency:      3220.83                3225.13                3248.55
 Force Cnst:      6.6956                 6.7041                 6.8201
 Red. Mass:       1.0955                 1.0939                 1.0969
 IR Active:          YES                    YES                    YES
 IR Intens:       22.993                  1.809                  3.915
 Raman Active:       YES                    YES                    YES
               X      Y      Z        X      Y      Z        X      Y      Z
 C         -0.024  0.000 -0.009   -0.078  0.001 -0.030   -0.009 -0.001 -0.004
 C          0.002 -0.001  0.001   -0.002  0.006  0.001   -0.004  0.008  0.004
 C         -0.018 -0.018 -0.026    0.007  0.006  0.009    0.001  0.001  0.003
 C         -0.048  0.008  0.022    0.011 -0.002 -0.005    0.016 -0.004 -0.005
 C         -0.031  0.037 -0.027    0.013 -0.013  0.010    0.002 -0.003  0.002
 N          0.001 -0.000  0.000   -0.000 -0.001  0.000   -0.000 -0.000  0.000
 H          0.278 -0.000  0.110    0.874 -0.002  0.348    0.100  0.001  0.038
 H         -0.003  0.003  0.000    0.026 -0.056 -0.009    0.035 -0.063 -0.012
 H          0.210  0.178  0.272   -0.069 -0.058 -0.089   -0.012 -0.009 -0.018
 H          0.540 -0.088 -0.227   -0.115  0.019  0.049   -0.157  0.027  0.063
 H          0.369 -0.403  0.304   -0.133  0.144 -0.108   -0.019  0.021 -0.016
 C         -0.000  0.001 -0.008    0.004 -0.003  0.011   -0.019  0.018 -0.083
 H          0.020 -0.022  0.101   -0.031  0.029 -0.136    0.206 -0.203  0.928
 TransDip  -0.142  0.031 -0.049   -0.042 -0.006  0.008   -0.026  0.002 -0.058

 STANDARD THERMODYNAMIC QUANTITIES AT   298.15 K  AND     1.00 ATM

   This Molecule has  1 Imaginary Frequencies
   Zero point vibrational energy:       63.566 kcal/mol

   Atom    1 Element C  Has Mass   12.00000
   Atom    2 Element C  Has Mass   12.00000
   Atom    3 Element C  Has Mass   12.00000
   Atom    4 Element C  Has Mass   12.00000
   Atom    5 Element C  Has Mass   12.00000
   Atom    6 Element N  Has Mass   14.00307
   Atom    7 Element H  Has Mass    1.00783
   Atom    8 Element H  Has Mass    1.00783
   Atom    9 Element H  Has Mass    1.00783
   Atom   10 Element H  Has Mass    1.00783
   Atom   11 Element H  Has Mass    1.00783
   Atom   12 Element C  Has Mass   12.00000
   Atom   13 Element H  Has Mass    1.00783
   Molecular Mass:    92.050050 amu
   Principal axes and moments of inertia in amu*Bohr^2:
                             1           2           3
    Eigenvalues --      386.32203   401.90857   534.42075
          X               0.90967    -0.38239    -0.16211
          Y               0.41187     0.78025     0.47071
          Z              -0.05350    -0.49496     0.86727
   Rotational Symmetry Number is   1
   The Molecule is an Asymmetric Top
   Translational Enthalpy:        0.889 kcal/mol
   Rotational Enthalpy:           0.889 kcal/mol
   Vibrational Enthalpy:         64.563 kcal/mol
   gas constant (RT):             0.592 kcal/mol
   Translational Entropy:        39.471  cal/mol.K
   Rotational Entropy:           25.920  cal/mol.K
   Vibrational Entropy:           4.311  cal/mol.K

   Total Enthalpy:               66.933 kcal/mol
   Total Entropy:                69.702  cal/mol.K
Archival summary:
1\1\c8-66\FREQ\ProcedureUnspecified\6-31+G**\166(2)\hpark21\ThuMar304:45:102022ThuMar304:45:102022\0\\#,FREQ,ProcedureUnspecified,6-31+G**,\\0,2\N\C,1,1.33868\H,2,1.08402,1,121.969\C,1,1.43258,2,104.136,3,-172.136,0\H,4,1.08385,1,118.504,2,-172.75,0\C,2,1.52215,1,115.086,3,-170.511,0\H,6,1.08696,2,121.519,1,144.11,0\C,6,1.48336,2,75.7274,1,-89.8973,0\H,8,1.08198,6,133.066,2,-97.6853,0\C,8,1.51795,6,92.1039,2,97.8987,0\H,10,1.08348,8,127.628,6,149.757,0\C,4,1.52702,1,111.906,2,-24.9291,0\H,12,1.08408,4,126.639,1,-134.555,0\\\@

 Total job time:  571.65s(wall), 557.25s(cpu) 
 Thu Mar  3 04:45:10 2022

        *************************************************************
        *                                                           *
        *  Thank you very much for using Q-Chem.  Have a nice day.  *
        *                                                           *
        *************************************************************


