
Running Job 1 of 1 qcts2.in
qchem qcts2.in_35954.0 ./qcts2.d/ 1
/home/leeping/opt/qchem/5.0.2-openmp/exe/qcprog.exe_s qcts2.in_35954.0 ./qcts2.d/
Check license passed

                  Welcome to Q-Chem
     A Quantum Leap Into The Future Of Chemistry


 Q-Chem 5.0, Q-Chem, Inc., Pleasanton, CA (2017)

 Yihan Shao,  Zhengting Gan,  E. Epifanovsky,  A. T. B. Gilbert,  M. Wormit,  
 J. Kussmann,  A. W. Lange,  A. Behn,  Jia Deng,  Xintian Feng,  D. Ghosh,  
 M. Goldey,  P. R. Horn,  L. D. Jacobson,  I. Kaliman,  T. Kus,  A. Landau,  
 Jie Liu,  E. I. Proynov,  R. M. Richard,  R. P. Steele,  E. J. Sundstrom,  
 H. L. Woodcock III,  P. M. Zimmerman,  D. Zuev,  B. Albrecht,  E. Alguire,  
 S. A. Baeppler,  D. Barton,  Z. Benda,  Y. A. Bernard,  E. J. Berquist,  
 K. B. Bravaya,  H. Burton,  D. Casanova,  Chun-Min Chang,  Yunqing Chen,  
 A. Chien,  K. D. Closser,  M. P. Coons,  S. Dasgupta,  A. L. Dempwolff,  
 M. Diedenhofen,  Hainam Do,  R. G. Edgar,  Po-Tung Fang,  S. Fatehi,  
 Qingguo Feng,  J. Fosso-Tande,  Qinghui Ge,  A. Ghysels,  G. Gidofalvi,  
 J. Gomes,  J. Gonthier,  A. Gunina,  M. W. D. Hanson-Heine,  
 P. H. P. Harbach,  A. W. Hauser,  J. E. Herr,  E. G. Hohenstein,  
 Z. C. Holden,  Kerwin Hui,  T.-C. Jagau,  Hyunjun Ji,  B. Kaduk,  
 K. Khistyaev,  Jaehoon Kim,  P. Klunzinger,  K. Koh,  D. Kosenkov,  
 L. Koulias,  T. Kowalczyk,  C. M. Krauter,  A. Kunitsa,  Ka Un Lao,  
 A. Laurent,  K. V. Lawler,  Joonho Lee,  D. Lefrancois,  S. Lehtola,  
 D. S. Levine,  Yi-Pei Li,  You-Sheng Lin,  Fenglai Liu,  E. Livshits,  
 A. Luenser,  P. Manohar,  E. Mansoor,  S. F. Manzer,  Shan-Ping Mao,  
 Yuezhi Mao,  N. Mardirossian,  A. V. Marenich,  T. Markovich,  
 L. A. Martinez-Martinez,  S. A. Maurer,  N. J. Mayhall,  S. C. McKenzie,  
 J.-M. Mewes,  A. F. Morrison,  J. W. Mullinax,  K. Nanda,  
 T. S. Nguyen-Beck,  R. Olivares-Amaya,  J. A. Parkhill,  T. M. Perrine,  
 F. Plasser,  S. Prager,  A. Prociuk,  E. Ramos,  D. R. Rehn,  F. Rob,  
 M. Schneider,  N. Sergueev,  S. M. Sharada,  S. Sharma,  D. W. Small,  
 T. Stauch,  T. Stein,  Yu-Chuan Su,  A. J. W. Thom,  A. Tkatchenko,  
 T. Tsuchimochi,  L. Vogt,  O. Vydrov,  M. A. Watson,  J. Wenzel,  
 M. de Wergifosse,  T. A. Wesolowski,  A. White,  J. Witte,  A. Yamada,  
 Jun Yang,  K. Yao,  S. Yeganeh,  S. R. Yost,  Zhi-Qiang You,  A. Zech,  
 Igor Ying Zhang,  Xing Zhang,  Yan Zhao,  Ying Zhu,  B. R. Brooks,  
 G. K. L. Chan,  C. J. Cramer,  M. S. Gordon,  W. J. Hehre,  A. Klamt,  
 M. W. Schmidt,  C. D. Sherrill,  D. G. Truhlar,  A. Aspuru-Guzik,  R. Baer,  
 A. T. Bell,  N. A. Besley,  Jeng-Da Chai,  R. A. DiStasio Jr.,  A. Dreuw,  
 B. D. Dunietz,  T. R. Furlani,  Chao-Ping Hsu,  Yousung Jung,  Jing Kong,  
 D. S. Lambrecht,  WanZhen Liang,  C. Ochsenfeld,  V. A. Rassolov,  
 L. V. Slipchenko,  J. E. Subotnik,  T. Van Voorhis,  J. M. Herbert,  
 A. I. Krylov,  P. M. W. Gill,  M. Head-Gordon

 Contributors to earlier versions of Q-Chem not listed above: 
 R. D. Adamson,  B. Austin,  J. Baker,  G. J. O. Beran,  K. Brandhorst,  
 S. T. Brown,  E. F. C. Byrd,  A. K. Chakraborty,  C.-L. Cheng,  
 Siu Hung Chien,  D. M. Chipman,  D. L. Crittenden,  H. Dachsel,  
 R. J. Doerksen,  A. D. Dutoi,  L. Fusti-Molnar,  W. A. Goddard III,  
 A. Golubeva-Zadorozhnaya,  S. R. Gwaltney,  G. Hawkins,  A. Heyden,  
 S. Hirata,  G. Kedziora,  F. J. Keil,  C. Kelley,  Jihan Kim,  R. A. King,  
 R. Z. Khaliullin,  P. P. Korambath,  W. Kurlancheek,  A. M. Lee,  M. S. Lee,  
 S. V. Levchenko,  Ching Yeh Lin,  D. Liotard,  R. C. Lochan,  I. Lotan,  
 P. E. Maslen,  N. Nair,  D. P. O'Neill,  D. Neuhauser,  E. Neuscamman,  
 C. M. Oana,  R. Olson,  B. Peters,  R. Peverati,  P. A. Pieniazek,  
 Y. M. Rhee,  J. Ritchie,  M. A. Rohrdanz,  E. Rosta,  N. J. Russ,  
 H. F. Schaefer III,  N. E. Schultz,  N. Shenvi,  A. C. Simmonett,  A. Sodt,  
 D. Stuck,  K. S. Thanthiriwatte,  V. Vanovschi,  Tao Wang,  A. Warshel,  
 C. F. Williams,  Q. Wu,  X. Xu,  W. Zhang

 Please cite Q-Chem as follows:
 Y. Shao et al., Mol. Phys. 113, 184-215 (2015)
 DOI: 10.1080/00268976.2014.952696

 Q-Chem 5.0.2 for Intel X86 EM64T Linux

 Parts of Q-Chem use Armadillo 5.200.1 (Boston Tea Smuggler).
 http://arma.sourceforge.net/

 Q-Chem begins on Thu Mar  3 04:16:26 2022  

Host: 
0

     Scratch files written to ./qcts2.d//
 Dec517 15110_ 26548  26544 5633   
Processing $rem in /home/leeping/opt/qchem/5.0.2-openmp/config/preferences.
 MEM_STATIC 2000
 MEM_TOTAL  8000
 SYMMETRY   OFF
 SYM_IGNORE TRUE 

Checking the input file for inconsistencies... 	...done.

--------------------------------------------------------------
User input:
--------------------------------------------------------------
$molecule
0 2
C        1.4001432223    0.3189955108    0.0750271828
C        0.6142342576   -0.9652592310   -0.1471905476
C       -0.6756755822   -0.4551967852   -0.8519755440
C       -1.1049842767    0.1886928164    0.4628590284
C       -0.5168549879    1.0509212248   -0.6612355578
N        0.8459792404    1.4261038092   -0.4286843004
H        2.4076129758    0.3144631196    0.4777578286
H        1.1134874612   -1.9141235349   -0.3307100376
H       -1.2581300536   -0.9539549865   -1.6192299510
H       -2.0922607086    0.3509192552    0.8803946361
H       -1.1613543808    1.7461608699   -1.1885663416
C        0.0953813673   -0.4441497342    1.1399652585
H        0.3219184636   -0.6699159912    2.1739680635
$end

$rem
method                b3lyp
basis                 6-31+g(d,p)
unrestricted          true
symmetry              off
sym_ignore            true
incdft                false
incfock               0
scf_convergence       6
thresh                14
jobtype               sp
scf_guess             read
scf_algorithm         diis
max_scf_cycles        100
stability_analysis    true
max_cis_cycles        100
cis_n_roots           4
$end

--------------------------------------------------------------
 ----------------------------------------------------------------
             Standard Nuclear Orientation (Angstroms)
    I     Atom           X                Y                Z
 ----------------------------------------------------------------
    1      C       1.4001432223     0.3189955108     0.0750271828
    2      C       0.6142342576    -0.9652592310    -0.1471905476
    3      C      -0.6756755822    -0.4551967852    -0.8519755440
    4      C      -1.1049842767     0.1886928164     0.4628590284
    5      C      -0.5168549879     1.0509212248    -0.6612355578
    6      N       0.8459792404     1.4261038092    -0.4286843004
    7      H       2.4076129758     0.3144631196     0.4777578286
    8      H       1.1134874612    -1.9141235349    -0.3307100376
    9      H      -1.2581300536    -0.9539549865    -1.6192299510
   10      H      -2.0922607086     0.3509192552     0.8803946361
   11      H      -1.1613543808     1.7461608699    -1.1885663416
   12      C       0.0953813673    -0.4441497342     1.1399652585
   13      H       0.3219184636    -0.6699159912     2.1739680635
 ----------------------------------------------------------------
 Nuclear Repulsion Energy =   286.4200244515 hartrees
 There are       25 alpha and       24 beta electrons
 Requested basis set is 6-31+G(d,p)
 There are 53 shells and 163 basis functions

 Total QAlloc Memory Limit   8000 MB
 Mega-Array Size      1956 MB
 MEM_STATIC part      2000 MB

                       Distance Matrix (Angstroms)
             C (  1)   C (  2)   C (  3)   C (  4)   C (  5)   N (  6)
   C (  2)  1.521954
   C (  3)  2.401610  1.555877
   C (  4)  2.538318  2.158582  1.525677
   C (  5)  2.180064  2.368246  1.526433  1.533924
   N (  6)  1.336605  2.419000  2.456400  2.476347  1.432536
   H (  7)  1.084992  2.290078  3.444885  3.514880  3.223692  2.120397
   H (  8)  2.287710  1.087785  2.366704  3.158038  3.399817  3.352354
   H (  9)  3.399607  2.381759  1.084754  2.379956  2.342386  3.392544
   H ( 10)  3.584204  3.180153  2.378580  1.084144  2.312689  3.391602
   H ( 11)  3.192920  3.404259  2.279288  2.270703  1.084811  2.170080
   C ( 12)  1.849023  1.482408  2.135996  1.516522  2.419586  2.553802
   H ( 13)  2.558528  2.358061  3.193373  2.387709  3.420994  3.382564
             H (  7)   H (  8)   H (  9)   H ( 10)   H ( 11)   C ( 12)
   H (  8)  2.700922
   H (  9)  4.409525  2.864747
   H ( 10)  4.517998  4.107799  2.940509
   H ( 11)  4.190933  4.394144  2.735957  2.663435
   C ( 12)  2.521989  2.315221  3.115293  2.342069  3.434953
   H ( 13)  2.862910  2.906552  4.118930  2.922960  4.398200  1.082336

 
 A cutoff of  1.0D-14 yielded   1405 shell pairs
 There are     13517 function pairs
 Smallest overlap matrix eigenvalue = 1.83E-05

 Scale SEOQF with 1.000000e-01/1.000000e-01/1.000000e-01

 Standard Electronic Orientation quadrupole field applied
 Nucleus-field energy     =     0.0000000014 hartrees
 Guess MOs from SCF MO coefficient file
 Reading MOs from coefficient file
 Reading MOs from coefficient file
 An unrestricted hybrid HF-DFT SCF calculation will be
 performed using Pulay DIIS extrapolation
 Exchange:     0.2000 Hartree-Fock + 0.0800 Slater + 0.7200 B88
 Correlation:  0.1900 VWN1RPA + 0.8100 LYP
 Using SG-1 standard quadrature grid
 SCF converges when DIIS error is below 1.0E-06
Using Q-Chem read-in guess as SCF_GUESS READ specified.

 -------------------------------------------------------
 OpenMP BLAS3 based DFT computing Module                
 -------------------------------------------------------
 ---------------------------------------
  Cycle       Energy         DIIS Error
 ---------------------------------------
    1    -286.8367149608      2.72E-09
    2    -286.8367149608      3.94E-09 Convergence criterion met
 ---------------------------------------
 <S^2> = 0.7707
 SCF time:  CPU 6.57 s  wall 9.04 s
 SCF   energy in the final basis set = -286.83671496
 Total energy in the final basis set = -286.83671496
 
 Direct TDDFT/TDA calculation will be performed
 Exchange:     0.2000 Hartree-Fock + 0.0800 Slater + 0.7200 B88
 Correlation:  0.1900 VWN1RPA + 0.8100 LYP
 Using SG-1 standard quadrature grid
 CIS energy converged when residual is below 10e- 6
 ---------------------------------------------------
 Iter    Rts Conv    Rts Left    Ttl Dev     Max Dev
 ---------------------------------------------------
   1         0           4      0.003823    0.001509
   2         0           4      0.001007    0.000356
   3         0           4      0.000394    0.000149
   4         0           4      0.000123    0.000039
   5         0           4      0.000035    0.000010
   6         0           4      0.000010    0.000005
   7         3           1      0.000004    0.000003
   8         4           0      0.000002    0.000001    Roots Converged
 ---------------------------------------------------
 
 ---------------------------------------------------
         TDDFT/TDA Excitation Energies              
 ---------------------------------------------------

 Excited state   1: excitation energy (eV) =    2.5965
 Total energy for state  1:                  -286.74129571 au
    <S**2>     :  0.7679
    Trans. Mom.: -0.0200 X   0.3328 Y  -0.2073 Z
    Strength   :     0.0098050442
    D( 24) --> S(  1) amplitude =  0.9635 beta

 Excited state   2: excitation energy (eV) =    2.9797
 Total energy for state  2:                  -286.72721368 au
    <S**2>     :  0.7908
    Trans. Mom.: -0.0428 X  -0.0478 Y   0.0117 Z
    Strength   :     0.0003108455
    D( 22) --> S(  1) amplitude = -0.2129 beta
    D( 23) --> S(  1) amplitude =  0.9535 beta
    D( 24) --> S(  1) amplitude = -0.1593 beta

 Excited state   3: excitation energy (eV) =    3.8730
 Total energy for state  3:                  -286.69438335 au
    <S**2>     :  0.7895
    Trans. Mom.: -0.1999 X   0.0045 Y  -0.1447 Z
    Strength   :     0.0057799263
    D( 22) --> S(  1) amplitude =  0.9663 beta
    D( 23) --> S(  1) amplitude =  0.2232 beta

 Excited state   4: excitation energy (eV) =    4.6533
 Total energy for state  4:                  -286.66571071 au
    <S**2>     :  0.8200
    Trans. Mom.:  0.1141 X   0.0031 Y  -0.1244 Z
    Strength   :     0.0032515126
    S(  1) --> V(  1) amplitude =  0.9807 alpha
    S(  1) --> V(  2) amplitude = -0.1635 alpha
 
 ---------------------------------------------------

 Stability analysis will be performed
 ---------------------------------------------------
 Iter    Rts Conv    Rts Left    Ttl Dev     Max Dev
 ---------------------------------------------------
   1         0           8      0.004261    0.000763
   2         0           8      0.001206    0.000404
   3         0           8      0.000608    0.000239
   4         2           6      0.000262    0.000085
   5         4           4      0.000252    0.000163
   6         4           4      0.000274    0.000245
   7         4           4      0.000104    0.000092
   8         6           2      0.000048    0.000043
   9         7           1      0.000017    0.000014
  10         7           1      0.000008    0.000005
  11         7           1      0.000005    0.000002
  12         8           0      0.000004    0.000001    Roots Converged
 UKS-> UKS   stable,    smallest eigenvalue:      0.0828667
 UKS->CUKS   stable,    smallest eigenvalue:      0.0944962
 ---------------------------------------------------
  SETman timing summary (seconds)
  CPU time               175.60s
  System time              0.00s
  Wall time              189.55s
 
 --------------------------------------------------------------
 
                    Orbital Energies (a.u.)
 --------------------------------------------------------------
 
 Alpha MOs
 -- Occupied --
-14.336 -10.230 -10.230 -10.225 -10.221 -10.216 -10.214  -0.990
 -0.854  -0.786  -0.664  -0.603  -0.582  -0.550  -0.537  -0.456
 -0.451  -0.418  -0.414  -0.387  -0.350  -0.293  -0.279  -0.256
 -0.202
 -- Virtual --
  0.001   0.015   0.016   0.020   0.037   0.043   0.058   0.060
  0.071   0.076   0.084   0.092   0.109   0.112   0.117   0.118
  0.125   0.138   0.148   0.160   0.162   0.174   0.180   0.187
  0.192   0.197   0.208   0.216   0.223   0.245   0.251   0.253
  0.262   0.270   0.285   0.295   0.304   0.320   0.338   0.344
  0.361   0.374   0.417   0.455   0.606   0.653   0.678   0.691
  0.710   0.730   0.741   0.747   0.760   0.775   0.785   0.789
  0.801   0.830   0.857   0.892   0.903   0.923   0.945   0.961
  0.979   1.017   1.039   1.052   1.085   1.101   1.137   1.199
  1.239   1.259   1.361   1.416   1.418   1.489   1.537   1.541
  1.580   1.611   1.632   1.674   1.697   1.779   1.814   1.881
  1.911   1.939   1.967   2.001   2.016   2.114   2.145   2.158
  2.186   2.248   2.292   2.331   2.353   2.360   2.375   2.395
  2.416   2.449   2.459   2.477   2.503   2.517   2.552   2.570
  2.599   2.625   2.634   2.673   2.696   2.723   2.765   2.790
  2.869   2.935   2.973   3.067   3.090   3.239   3.280   3.376
  3.480   3.561   3.781   4.166   4.456   4.510   4.540   4.608
  4.803   4.929
 
 Beta MOs
 -- Occupied --
-14.325 -10.232 -10.226 -10.222 -10.220 -10.214 -10.214  -0.981
 -0.838  -0.781  -0.654  -0.601  -0.576  -0.544  -0.531  -0.453
 -0.446  -0.410  -0.403  -0.378  -0.338  -0.287  -0.266  -0.241
 -- Virtual --
 -0.093   0.001   0.016   0.016   0.023   0.038   0.043   0.059
  0.068   0.072   0.082   0.086   0.095   0.111   0.114   0.118
  0.122   0.128   0.139   0.149   0.162   0.163   0.176   0.181
  0.189   0.193   0.198   0.208   0.219   0.226   0.246   0.255
  0.261   0.265   0.272   0.290   0.296   0.306   0.323   0.340
  0.345   0.363   0.380   0.422   0.460   0.608   0.657   0.687
  0.698   0.716   0.734   0.742   0.751   0.762   0.781   0.787
  0.791   0.803   0.836   0.861   0.893   0.906   0.924   0.946
  0.972   0.981   1.023   1.043   1.056   1.104   1.107   1.146
  1.202   1.244   1.262   1.363   1.422   1.428   1.506   1.541
  1.552   1.588   1.616   1.643   1.676   1.703   1.785   1.818
  1.885   1.916   1.943   1.974   2.008   2.021   2.118   2.154
  2.166   2.195   2.252   2.300   2.338   2.356   2.364   2.379
  2.397   2.421   2.454   2.462   2.482   2.505   2.519   2.558
  2.573   2.605   2.632   2.644   2.681   2.703   2.727   2.769
  2.799   2.870   2.939   2.976   3.069   3.093   3.240   3.280
  3.378   3.481   3.561   3.785   4.185   4.465   4.513   4.538
  4.609   4.809   4.933
 --------------------------------------------------------------
 
          Ground-State Mulliken Net Atomic Charges

     Atom                 Charge (a.u.)    Spin (a.u.)
  --------------------------------------------------------
      1 C                    -0.235557      -0.146923
      2 C                     0.043104      -0.027956
      3 C                    -0.072224       0.098309
      4 C                    -0.022515      -0.034428
      5 C                    -0.278004      -0.017558
      6 N                    -0.112775       0.567383
      7 H                     0.140609       0.003626
      8 H                     0.130876       0.012378
      9 H                     0.130639      -0.004440
     10 H                     0.134738      -0.000624
     11 H                     0.140521       0.000713
     12 C                    -0.140273       0.573203
     13 H                     0.140861      -0.023685
  --------------------------------------------------------
  Sum of atomic charges =    -0.000000
  Sum of spin   charges =     1.000000

 -----------------------------------------------------------------
                    Cartesian Multipole Moments
 -----------------------------------------------------------------
    Charge (ESU x 10^10)
                 0.0000
    Dipole Moment (Debye)
         X      -1.1294      Y      -2.4937      Z       0.6435
       Tot       2.8122
    Quadrupole Moments (Debye-Ang)
        XX     -38.8192     XY      -4.6829     YY     -45.4563
        XZ       2.5086     YZ       0.7053     ZZ     -40.0846
    Octopole Moments (Debye-Ang^2)
       XXX      -9.3761    XXY      -7.6331    XYY      -9.3160
       YYY     -28.8228    XXZ       4.2851    XYZ       1.7417
       YYZ       0.5709    XZZ      -6.4535    YZZ      -8.5202
       ZZZ       9.5890
    Hexadecapole Moments (Debye-Ang^3)
      XXXX    -246.8867   XXXY     -10.8941   XXYY     -88.4211
      XYYY     -25.3871   YYYY    -254.1093   XXXZ      -3.5272
      XXYZ      10.2051   XYYZ       3.6769   YYYZ      25.4126
      XXZZ     -72.7164   XYZZ      -4.6904   YYZZ     -69.3465
      XZZZ      -3.9947   YZZZ      19.7694   ZZZZ    -171.9630
 -----------------------------------------------------------------
Archival summary:
1\1\c8-66\SP\ProcedureUnspecified\6-31+G**\166(2)\hpark21\ThuMar304:19:472022ThuMar304:19:472022\0\\#,ProcedureUnspecified,6-31+G**,\\0,2\N\C,1,1.3366\H,2,1.08499,1,121.892\C,1,1.43254,2,103.809,3,-171.977,0\H,4,1.08481,1,118.442,2,-172.553,0\C,2,1.52195,1,115.456,3,-171.031,0\H,6,1.08779,2,121.58,1,144.234,0\C,6,1.48241,2,75.956,1,-89.6885,0\H,8,1.08234,6,133.073,2,-97.6364,0\C,8,1.51652,6,92.0662,2,97.7386,0\H,10,1.08414,8,127.683,6,149.822,0\C,10,1.52568,8,89.1945,6,5.51098,0\H,12,1.08475,10,130.732,8,137.442,0\\\@

 Total job time:  200.92s(wall), 182.41s(cpu) 
 Thu Mar  3 04:19:47 2022

        *************************************************************
        *                                                           *
        *  Thank you very much for using Q-Chem.  Have a nice day.  *
        *                                                           *
        *************************************************************


