
Running Job 1 of 1 qcts1.in
qchem qcts1.in_35783.0 ./qcts1.d/ 1
/home/leeping/opt/qchem/5.0.2-openmp/exe/qcprog.exe_s qcts1.in_35783.0 ./qcts1.d/
Check license passed

                  Welcome to Q-Chem
     A Quantum Leap Into The Future Of Chemistry


 Q-Chem 5.0, Q-Chem, Inc., Pleasanton, CA (2017)

 Yihan Shao,  Zhengting Gan,  E. Epifanovsky,  A. T. B. Gilbert,  M. Wormit,  
 J. Kussmann,  A. W. Lange,  A. Behn,  Jia Deng,  Xintian Feng,  D. Ghosh,  
 M. Goldey,  P. R. Horn,  L. D. Jacobson,  I. Kaliman,  T. Kus,  A. Landau,  
 Jie Liu,  E. I. Proynov,  R. M. Richard,  R. P. Steele,  E. J. Sundstrom,  
 H. L. Woodcock III,  P. M. Zimmerman,  D. Zuev,  B. Albrecht,  E. Alguire,  
 S. A. Baeppler,  D. Barton,  Z. Benda,  Y. A. Bernard,  E. J. Berquist,  
 K. B. Bravaya,  H. Burton,  D. Casanova,  Chun-Min Chang,  Yunqing Chen,  
 A. Chien,  K. D. Closser,  M. P. Coons,  S. Dasgupta,  A. L. Dempwolff,  
 M. Diedenhofen,  Hainam Do,  R. G. Edgar,  Po-Tung Fang,  S. Fatehi,  
 Qingguo Feng,  J. Fosso-Tande,  Qinghui Ge,  A. Ghysels,  G. Gidofalvi,  
 J. Gomes,  J. Gonthier,  A. Gunina,  M. W. D. Hanson-Heine,  
 P. H. P. Harbach,  A. W. Hauser,  J. E. Herr,  E. G. Hohenstein,  
 Z. C. Holden,  Kerwin Hui,  T.-C. Jagau,  Hyunjun Ji,  B. Kaduk,  
 K. Khistyaev,  Jaehoon Kim,  P. Klunzinger,  K. Koh,  D. Kosenkov,  
 L. Koulias,  T. Kowalczyk,  C. M. Krauter,  A. Kunitsa,  Ka Un Lao,  
 A. Laurent,  K. V. Lawler,  Joonho Lee,  D. Lefrancois,  S. Lehtola,  
 D. S. Levine,  Yi-Pei Li,  You-Sheng Lin,  Fenglai Liu,  E. Livshits,  
 A. Luenser,  P. Manohar,  E. Mansoor,  S. F. Manzer,  Shan-Ping Mao,  
 Yuezhi Mao,  N. Mardirossian,  A. V. Marenich,  T. Markovich,  
 L. A. Martinez-Martinez,  S. A. Maurer,  N. J. Mayhall,  S. C. McKenzie,  
 J.-M. Mewes,  A. F. Morrison,  J. W. Mullinax,  K. Nanda,  
 T. S. Nguyen-Beck,  R. Olivares-Amaya,  J. A. Parkhill,  T. M. Perrine,  
 F. Plasser,  S. Prager,  A. Prociuk,  E. Ramos,  D. R. Rehn,  F. Rob,  
 M. Schneider,  N. Sergueev,  S. M. Sharada,  S. Sharma,  D. W. Small,  
 T. Stauch,  T. Stein,  Yu-Chuan Su,  A. J. W. Thom,  A. Tkatchenko,  
 T. Tsuchimochi,  L. Vogt,  O. Vydrov,  M. A. Watson,  J. Wenzel,  
 M. de Wergifosse,  T. A. Wesolowski,  A. White,  J. Witte,  A. Yamada,  
 Jun Yang,  K. Yao,  S. Yeganeh,  S. R. Yost,  Zhi-Qiang You,  A. Zech,  
 Igor Ying Zhang,  Xing Zhang,  Yan Zhao,  Ying Zhu,  B. R. Brooks,  
 G. K. L. Chan,  C. J. Cramer,  M. S. Gordon,  W. J. Hehre,  A. Klamt,  
 M. W. Schmidt,  C. D. Sherrill,  D. G. Truhlar,  A. Aspuru-Guzik,  R. Baer,  
 A. T. Bell,  N. A. Besley,  Jeng-Da Chai,  R. A. DiStasio Jr.,  A. Dreuw,  
 B. D. Dunietz,  T. R. Furlani,  Chao-Ping Hsu,  Yousung Jung,  Jing Kong,  
 D. S. Lambrecht,  WanZhen Liang,  C. Ochsenfeld,  V. A. Rassolov,  
 L. V. Slipchenko,  J. E. Subotnik,  T. Van Voorhis,  J. M. Herbert,  
 A. I. Krylov,  P. M. W. Gill,  M. Head-Gordon

 Contributors to earlier versions of Q-Chem not listed above: 
 R. D. Adamson,  B. Austin,  J. Baker,  G. J. O. Beran,  K. Brandhorst,  
 S. T. Brown,  E. F. C. Byrd,  A. K. Chakraborty,  C.-L. Cheng,  
 Siu Hung Chien,  D. M. Chipman,  D. L. Crittenden,  H. Dachsel,  
 R. J. Doerksen,  A. D. Dutoi,  L. Fusti-Molnar,  W. A. Goddard III,  
 A. Golubeva-Zadorozhnaya,  S. R. Gwaltney,  G. Hawkins,  A. Heyden,  
 S. Hirata,  G. Kedziora,  F. J. Keil,  C. Kelley,  Jihan Kim,  R. A. King,  
 R. Z. Khaliullin,  P. P. Korambath,  W. Kurlancheek,  A. M. Lee,  M. S. Lee,  
 S. V. Levchenko,  Ching Yeh Lin,  D. Liotard,  R. C. Lochan,  I. Lotan,  
 P. E. Maslen,  N. Nair,  D. P. O'Neill,  D. Neuhauser,  E. Neuscamman,  
 C. M. Oana,  R. Olson,  B. Peters,  R. Peverati,  P. A. Pieniazek,  
 Y. M. Rhee,  J. Ritchie,  M. A. Rohrdanz,  E. Rosta,  N. J. Russ,  
 H. F. Schaefer III,  N. E. Schultz,  N. Shenvi,  A. C. Simmonett,  A. Sodt,  
 D. Stuck,  K. S. Thanthiriwatte,  V. Vanovschi,  Tao Wang,  A. Warshel,  
 C. F. Williams,  Q. Wu,  X. Xu,  W. Zhang

 Please cite Q-Chem as follows:
 Y. Shao et al., Mol. Phys. 113, 184-215 (2015)
 DOI: 10.1080/00268976.2014.952696

 Q-Chem 5.0.2 for Intel X86 EM64T Linux

 Parts of Q-Chem use Armadillo 5.200.1 (Boston Tea Smuggler).
 http://arma.sourceforge.net/

 Q-Chem begins on Thu Mar  3 04:13:42 2022  

Host: 
0

     Scratch files written to ./qcts1.d//
 Dec517 15110_ 26548  26544 5633   
Processing $rem in /home/leeping/opt/qchem/5.0.2-openmp/config/preferences.
 MEM_STATIC 2000
 MEM_TOTAL  8000
 SYMMETRY   OFF
 SYM_IGNORE TRUE 

Checking the input file for inconsistencies... 	...done.

--------------------------------------------------------------
User input:
--------------------------------------------------------------
$molecule
0 2
C        1.4001432223    0.3189955108    0.0750271828
C        0.6142342576   -0.9652592310   -0.1471905476
C       -0.6756755822   -0.4551967852   -0.8519755440
C       -1.1049842767    0.1886928164    0.4628590284
C       -0.5168549879    1.0509212248   -0.6612355578
N        0.8459792404    1.4261038092   -0.4286843004
H        2.4076129758    0.3144631196    0.4777578286
H        1.1134874612   -1.9141235349   -0.3307100376
H       -1.2581300536   -0.9539549865   -1.6192299510
H       -2.0922607086    0.3509192552    0.8803946361
H       -1.1613543808    1.7461608699   -1.1885663416
C        0.0953813673   -0.4441497342    1.1399652585
H        0.3219184636   -0.6699159912    2.1739680635
$end

$rem
method                b3lyp
basis                 6-31g(d)
unrestricted          true
symmetry              off
sym_ignore            true
incdft                false
incfock               0
scf_convergence       6
thresh                14
jobtype               sp
scf_guess             read
scf_algorithm         diis
max_scf_cycles        100
stability_analysis    true
max_cis_cycles        100
cis_n_roots           4
$end

--------------------------------------------------------------
 ----------------------------------------------------------------
             Standard Nuclear Orientation (Angstroms)
    I     Atom           X                Y                Z
 ----------------------------------------------------------------
    1      C       1.4001432223     0.3189955108     0.0750271828
    2      C       0.6142342576    -0.9652592310    -0.1471905476
    3      C      -0.6756755822    -0.4551967852    -0.8519755440
    4      C      -1.1049842767     0.1886928164     0.4628590284
    5      C      -0.5168549879     1.0509212248    -0.6612355578
    6      N       0.8459792404     1.4261038092    -0.4286843004
    7      H       2.4076129758     0.3144631196     0.4777578286
    8      H       1.1134874612    -1.9141235349    -0.3307100376
    9      H      -1.2581300536    -0.9539549865    -1.6192299510
   10      H      -2.0922607086     0.3509192552     0.8803946361
   11      H      -1.1613543808     1.7461608699    -1.1885663416
   12      C       0.0953813673    -0.4441497342     1.1399652585
   13      H       0.3219184636    -0.6699159912     2.1739680635
 ----------------------------------------------------------------
 Nuclear Repulsion Energy =   286.4200244515 hartrees
 There are       25 alpha and       24 beta electrons
 Requested basis set is 6-31G(d)
 There are 40 shells and 117 basis functions

 Total QAlloc Memory Limit   8000 MB
 Mega-Array Size      1956 MB
 MEM_STATIC part      2000 MB

                       Distance Matrix (Angstroms)
             C (  1)   C (  2)   C (  3)   C (  4)   C (  5)   N (  6)
   C (  2)  1.521954
   C (  3)  2.401610  1.555877
   C (  4)  2.538318  2.158582  1.525677
   C (  5)  2.180064  2.368246  1.526433  1.533924
   N (  6)  1.336605  2.419000  2.456400  2.476347  1.432536
   H (  7)  1.084992  2.290078  3.444885  3.514880  3.223692  2.120397
   H (  8)  2.287710  1.087785  2.366704  3.158038  3.399817  3.352354
   H (  9)  3.399607  2.381759  1.084754  2.379956  2.342386  3.392544
   H ( 10)  3.584204  3.180153  2.378580  1.084144  2.312689  3.391602
   H ( 11)  3.192920  3.404259  2.279288  2.270703  1.084811  2.170080
   C ( 12)  1.849023  1.482408  2.135996  1.516522  2.419586  2.553802
   H ( 13)  2.558528  2.358061  3.193373  2.387709  3.420994  3.382564
             H (  7)   H (  8)   H (  9)   H ( 10)   H ( 11)   C ( 12)
   H (  8)  2.700922
   H (  9)  4.409525  2.864747
   H ( 10)  4.517998  4.107799  2.940509
   H ( 11)  4.190933  4.394144  2.735957  2.663435
   C ( 12)  2.521989  2.315221  3.115293  2.342069  3.434953
   H ( 13)  2.862910  2.906552  4.118930  2.922960  4.398200  1.082336

 
 A cutoff of  1.0D-14 yielded    812 shell pairs
 There are      7084 function pairs
 Smallest overlap matrix eigenvalue = 1.02E-03

 Scale SEOQF with 1.000000e-01/1.000000e-01/1.000000e-01

 Standard Electronic Orientation quadrupole field applied
 Nucleus-field energy     =     0.0000000014 hartrees
 Guess MOs from SCF MO coefficient file
 Reading MOs from coefficient file
 Reading MOs from coefficient file
 An unrestricted hybrid HF-DFT SCF calculation will be
 performed using Pulay DIIS extrapolation
 Exchange:     0.2000 Hartree-Fock + 0.0800 Slater + 0.7200 B88
 Correlation:  0.1900 VWN1RPA + 0.8100 LYP
 Using SG-1 standard quadrature grid
 SCF converges when DIIS error is below 1.0E-06
Using Q-Chem read-in guess as SCF_GUESS READ specified.

 -------------------------------------------------------
 OpenMP BLAS3 based DFT computing Module                
 -------------------------------------------------------
 ---------------------------------------
  Cycle       Energy         DIIS Error
 ---------------------------------------
    1    -286.8156658525      7.63E-10
    2    -286.8156658525      1.13E-09 Convergence criterion met
 ---------------------------------------
 <S^2> = 0.7713
 SCF time:  CPU 3.21 s  wall 3.90 s
 SCF   energy in the final basis set = -286.81566585
 Total energy in the final basis set = -286.81566585
 
 Direct TDDFT/TDA calculation will be performed
 Exchange:     0.2000 Hartree-Fock + 0.0800 Slater + 0.7200 B88
 Correlation:  0.1900 VWN1RPA + 0.8100 LYP
 Using SG-1 standard quadrature grid
 CIS energy converged when residual is below 10e- 6
 ---------------------------------------------------
 Iter    Rts Conv    Rts Left    Ttl Dev     Max Dev
 ---------------------------------------------------
   1         0           4      0.006188    0.002057
   2         0           4      0.001623    0.000533
   3         0           4      0.000661    0.000330
   4         0           4      0.000272    0.000188
   5         0           4      0.000119    0.000096
   6         0           4      0.000046    0.000042
   7         3           1      0.000013    0.000012
   8         3           1      0.000004    0.000003
   9         4           0      0.000002    0.000001    Roots Converged
 ---------------------------------------------------
 
 ---------------------------------------------------
         TDDFT/TDA Excitation Energies              
 ---------------------------------------------------

 Excited state   1: excitation energy (eV) =    2.6657
 Total energy for state  1:                  -286.71770260 au
    <S**2>     :  0.7683
    Trans. Mom.: -0.0194 X   0.3050 Y  -0.1934 Z
    Strength   :     0.0085416962
    S(  1) --> V(  1) amplitude =  0.1703 alpha
    D( 23) --> S(  1) amplitude =  0.2327 beta
    D( 24) --> S(  1) amplitude =  0.9448 beta

 Excited state   2: excitation energy (eV) =    2.9913
 Total energy for state  2:                  -286.70573907 au
    <S**2>     :  0.7911
    Trans. Mom.: -0.0320 X  -0.0951 Y   0.0225 Z
    Strength   :     0.0007754671
    D( 22) --> S(  1) amplitude = -0.1767 beta
    D( 23) --> S(  1) amplitude =  0.9436 beta
    D( 24) --> S(  1) amplitude = -0.2445 beta

 Excited state   3: excitation energy (eV) =    3.9913
 Total energy for state  3:                  -286.66898727 au
    <S**2>     :  0.7888
    Trans. Mom.: -0.1977 X   0.0043 Y  -0.1393 Z
    Strength   :     0.0057183839
    D( 22) --> S(  1) amplitude =  0.9736 beta
    D( 23) --> S(  1) amplitude =  0.1923 beta

 Excited state   4: excitation energy (eV) =    5.1723
 Total energy for state  4:                  -286.62558627 au
    <S**2>     :  0.7918
    Trans. Mom.:  0.0090 X  -0.0260 Y  -0.0594 Z
    Strength   :     0.0005439247
    S(  1) --> V(  1) amplitude = -0.5789 alpha
    D( 21) --> S(  1) amplitude =  0.7858 beta
 
 ---------------------------------------------------

 Stability analysis will be performed
 ---------------------------------------------------
 Iter    Rts Conv    Rts Left    Ttl Dev     Max Dev
 ---------------------------------------------------
   1         0           8      0.006108    0.000955
   2         0           8      0.001976    0.000467
   3         0           8      0.000872    0.000219
   4         3           5      0.000434    0.000153
   5         3           5      0.000192    0.000085
   6         3           5      0.000082    0.000046
   7         3           5      0.000031    0.000019
   8         6           2      0.000012    0.000007
   9         7           1      0.000006    0.000003
  10         8           0      0.000004    0.000001    Roots Converged
 UKS-> UKS   stable,    smallest eigenvalue:      0.0852116
 UKS->CUKS   stable,    smallest eigenvalue:      0.0968603
 ---------------------------------------------------
  SETman timing summary (seconds)
  CPU time                76.11s
  System time              0.00s
  Wall time               84.46s
 
 --------------------------------------------------------------
 
                    Orbital Energies (a.u.)
 --------------------------------------------------------------
 
 Alpha MOs
 -- Occupied --
-14.321 -10.219 -10.219 -10.215 -10.211 -10.206 -10.204  -0.979
 -0.843  -0.776  -0.655  -0.594  -0.573  -0.542  -0.530  -0.448
 -0.443  -0.409  -0.404  -0.377  -0.341  -0.283  -0.267  -0.245
 -0.190
 -- Virtual --
  0.066   0.093   0.106   0.121   0.147   0.155   0.158   0.169
  0.180   0.205   0.217   0.256   0.266   0.291   0.371   0.396
  0.481   0.508   0.526   0.542   0.553   0.574   0.575   0.604
  0.614   0.652   0.675   0.727   0.731   0.741   0.757   0.792
  0.800   0.807   0.827   0.830   0.846   0.852   0.909   0.948
  0.985   1.007   1.096   1.156   1.206   1.230   1.392   1.445
  1.467   1.491   1.540   1.609   1.621   1.650   1.663   1.705
  1.731   1.832   1.868   1.896   1.959   1.978   1.984   2.035
  2.079   2.138   2.166   2.231   2.284   2.368   2.400   2.466
  2.481   2.515   2.549   2.556   2.587   2.618   2.661   2.689
  2.746   2.801   2.840   2.902   2.944   3.905   4.223   4.318
  4.339   4.453   4.601   4.673
 
 Beta MOs
 -- Occupied --
-14.310 -10.221 -10.216 -10.212 -10.210 -10.205 -10.204  -0.970
 -0.827  -0.771  -0.645  -0.591  -0.568  -0.536  -0.524  -0.445
 -0.437  -0.401  -0.394  -0.368  -0.328  -0.277  -0.253  -0.230
 -- Virtual --
 -0.078   0.084   0.098   0.113   0.126   0.148   0.156   0.161
  0.174   0.181   0.212   0.222   0.261   0.271   0.292   0.376
  0.400   0.484   0.513   0.526   0.544   0.560   0.578   0.584
  0.609   0.618   0.658   0.679   0.733   0.735   0.745   0.780
  0.796   0.804   0.810   0.831   0.837   0.848   0.853   0.911
  0.953   0.992   1.016   1.101   1.161   1.214   1.232   1.394
  1.454   1.481   1.500   1.544   1.617   1.633   1.655   1.675
  1.710   1.737   1.839   1.874   1.900   1.965   1.984   1.989
  2.041   2.088   2.143   2.182   2.237   2.294   2.371   2.414
  2.474   2.493   2.528   2.554   2.565   2.591   2.634   2.665
  2.693   2.749   2.804   2.843   2.906   2.949   3.923   4.233
  4.322   4.337   4.455   4.607   4.676
 --------------------------------------------------------------
 
          Ground-State Mulliken Net Atomic Charges

     Atom                 Charge (a.u.)    Spin (a.u.)
  --------------------------------------------------------
      1 C                     0.002556      -0.148907
      2 C                    -0.176612       0.014624
      3 C                    -0.100397       0.086657
      4 C                    -0.137722       0.001091
      5 C                    -0.046306      -0.030302
      6 N                    -0.314225       0.571561
      7 H                     0.148648       0.004078
      8 H                     0.144603       0.011397
      9 H                     0.143663      -0.004675
     10 H                     0.144768      -0.000850
     11 H                     0.147954       0.000550
     12 C                    -0.108927       0.519309
     13 H                     0.151998      -0.024532
  --------------------------------------------------------
  Sum of atomic charges =    -0.000000
  Sum of spin   charges =     1.000000

 -----------------------------------------------------------------
                    Cartesian Multipole Moments
 -----------------------------------------------------------------
    Charge (ESU x 10^10)
                -0.0000
    Dipole Moment (Debye)
         X      -1.0147      Y      -2.2582      Z       0.6370
       Tot       2.5563
    Quadrupole Moments (Debye-Ang)
        XX     -37.8905     XY      -4.1023     YY     -43.9185
        XZ       2.3231     YZ       0.5609     ZZ     -38.9805
    Octopole Moments (Debye-Ang^2)
       XXX      -8.7349    XXY      -6.8601    XYY      -8.2170
       YYY     -26.0267    XXZ       4.0195    XYZ       1.5221
       YYZ       0.6807    XZZ      -5.7805    YZZ      -7.8128
       ZZZ       9.3221
    Hexadecapole Moments (Debye-Ang^3)
      XXXX    -236.3761   XXXY      -8.1566   XXYY     -82.9626
      XYYY     -20.7909   YYYY    -235.9197   XXXZ      -4.6453
      XXYZ       9.4492   XYYZ       2.7493   YYYZ      23.8939
      XXZZ     -68.6759   XYZZ      -3.2803   YYZZ     -64.5723
      XZZZ      -4.5071   YZZZ      18.5233   ZZZZ    -161.1273
 -----------------------------------------------------------------
Archival summary:
1\1\c8-66\SP\ProcedureUnspecified\6-31G*\166(2)\hpark21\ThuMar304:15:152022ThuMar304:15:152022\0\\#,ProcedureUnspecified,6-31G*,\\0,2\N\C,1,1.3366\H,2,1.08499,1,121.892\C,1,1.43254,2,103.809,3,-171.977,0\H,4,1.08481,1,118.442,2,-172.553,0\C,2,1.52195,1,115.456,3,-171.031,0\H,6,1.08779,2,121.58,1,144.234,0\C,6,1.48241,2,75.956,1,-89.6885,0\H,8,1.08234,6,133.073,2,-97.6364,0\C,8,1.51652,6,92.0662,2,97.7386,0\H,10,1.08414,8,127.683,6,149.822,0\C,10,1.52568,8,89.1945,6,5.51098,0\H,12,1.08475,10,130.732,8,137.442,0\\\@

 Total job time:  92.77s(wall), 79.51s(cpu) 
 Thu Mar  3 04:15:15 2022

        *************************************************************
        *                                                           *
        *  Thank you very much for using Q-Chem.  Have a nice day.  *
        *                                                           *
        *************************************************************


