
Running Job 1 of 1 qcts2.in
qchem qcts2.in_36066.0 ./qcts2.d/ 1
/home/leeping/opt/qchem/5.0.2-openmp/exe/qcprog.exe_s qcts2.in_36066.0 ./qcts2.d/
Check license passed

                  Welcome to Q-Chem
     A Quantum Leap Into The Future Of Chemistry


 Q-Chem 5.0, Q-Chem, Inc., Pleasanton, CA (2017)

 Yihan Shao,  Zhengting Gan,  E. Epifanovsky,  A. T. B. Gilbert,  M. Wormit,  
 J. Kussmann,  A. W. Lange,  A. Behn,  Jia Deng,  Xintian Feng,  D. Ghosh,  
 M. Goldey,  P. R. Horn,  L. D. Jacobson,  I. Kaliman,  T. Kus,  A. Landau,  
 Jie Liu,  E. I. Proynov,  R. M. Richard,  R. P. Steele,  E. J. Sundstrom,  
 H. L. Woodcock III,  P. M. Zimmerman,  D. Zuev,  B. Albrecht,  E. Alguire,  
 S. A. Baeppler,  D. Barton,  Z. Benda,  Y. A. Bernard,  E. J. Berquist,  
 K. B. Bravaya,  H. Burton,  D. Casanova,  Chun-Min Chang,  Yunqing Chen,  
 A. Chien,  K. D. Closser,  M. P. Coons,  S. Dasgupta,  A. L. Dempwolff,  
 M. Diedenhofen,  Hainam Do,  R. G. Edgar,  Po-Tung Fang,  S. Fatehi,  
 Qingguo Feng,  J. Fosso-Tande,  Qinghui Ge,  A. Ghysels,  G. Gidofalvi,  
 J. Gomes,  J. Gonthier,  A. Gunina,  M. W. D. Hanson-Heine,  
 P. H. P. Harbach,  A. W. Hauser,  J. E. Herr,  E. G. Hohenstein,  
 Z. C. Holden,  Kerwin Hui,  T.-C. Jagau,  Hyunjun Ji,  B. Kaduk,  
 K. Khistyaev,  Jaehoon Kim,  P. Klunzinger,  K. Koh,  D. Kosenkov,  
 L. Koulias,  T. Kowalczyk,  C. M. Krauter,  A. Kunitsa,  Ka Un Lao,  
 A. Laurent,  K. V. Lawler,  Joonho Lee,  D. Lefrancois,  S. Lehtola,  
 D. S. Levine,  Yi-Pei Li,  You-Sheng Lin,  Fenglai Liu,  E. Livshits,  
 A. Luenser,  P. Manohar,  E. Mansoor,  S. F. Manzer,  Shan-Ping Mao,  
 Yuezhi Mao,  N. Mardirossian,  A. V. Marenich,  T. Markovich,  
 L. A. Martinez-Martinez,  S. A. Maurer,  N. J. Mayhall,  S. C. McKenzie,  
 J.-M. Mewes,  A. F. Morrison,  J. W. Mullinax,  K. Nanda,  
 T. S. Nguyen-Beck,  R. Olivares-Amaya,  J. A. Parkhill,  T. M. Perrine,  
 F. Plasser,  S. Prager,  A. Prociuk,  E. Ramos,  D. R. Rehn,  F. Rob,  
 M. Schneider,  N. Sergueev,  S. M. Sharada,  S. Sharma,  D. W. Small,  
 T. Stauch,  T. Stein,  Yu-Chuan Su,  A. J. W. Thom,  A. Tkatchenko,  
 T. Tsuchimochi,  L. Vogt,  O. Vydrov,  M. A. Watson,  J. Wenzel,  
 M. de Wergifosse,  T. A. Wesolowski,  A. White,  J. Witte,  A. Yamada,  
 Jun Yang,  K. Yao,  S. Yeganeh,  S. R. Yost,  Zhi-Qiang You,  A. Zech,  
 Igor Ying Zhang,  Xing Zhang,  Yan Zhao,  Ying Zhu,  B. R. Brooks,  
 G. K. L. Chan,  C. J. Cramer,  M. S. Gordon,  W. J. Hehre,  A. Klamt,  
 M. W. Schmidt,  C. D. Sherrill,  D. G. Truhlar,  A. Aspuru-Guzik,  R. Baer,  
 A. T. Bell,  N. A. Besley,  Jeng-Da Chai,  R. A. DiStasio Jr.,  A. Dreuw,  
 B. D. Dunietz,  T. R. Furlani,  Chao-Ping Hsu,  Yousung Jung,  Jing Kong,  
 D. S. Lambrecht,  WanZhen Liang,  C. Ochsenfeld,  V. A. Rassolov,  
 L. V. Slipchenko,  J. E. Subotnik,  T. Van Voorhis,  J. M. Herbert,  
 A. I. Krylov,  P. M. W. Gill,  M. Head-Gordon

 Contributors to earlier versions of Q-Chem not listed above: 
 R. D. Adamson,  B. Austin,  J. Baker,  G. J. O. Beran,  K. Brandhorst,  
 S. T. Brown,  E. F. C. Byrd,  A. K. Chakraborty,  C.-L. Cheng,  
 Siu Hung Chien,  D. M. Chipman,  D. L. Crittenden,  H. Dachsel,  
 R. J. Doerksen,  A. D. Dutoi,  L. Fusti-Molnar,  W. A. Goddard III,  
 A. Golubeva-Zadorozhnaya,  S. R. Gwaltney,  G. Hawkins,  A. Heyden,  
 S. Hirata,  G. Kedziora,  F. J. Keil,  C. Kelley,  Jihan Kim,  R. A. King,  
 R. Z. Khaliullin,  P. P. Korambath,  W. Kurlancheek,  A. M. Lee,  M. S. Lee,  
 S. V. Levchenko,  Ching Yeh Lin,  D. Liotard,  R. C. Lochan,  I. Lotan,  
 P. E. Maslen,  N. Nair,  D. P. O'Neill,  D. Neuhauser,  E. Neuscamman,  
 C. M. Oana,  R. Olson,  B. Peters,  R. Peverati,  P. A. Pieniazek,  
 Y. M. Rhee,  J. Ritchie,  M. A. Rohrdanz,  E. Rosta,  N. J. Russ,  
 H. F. Schaefer III,  N. E. Schultz,  N. Shenvi,  A. C. Simmonett,  A. Sodt,  
 D. Stuck,  K. S. Thanthiriwatte,  V. Vanovschi,  Tao Wang,  A. Warshel,  
 C. F. Williams,  Q. Wu,  X. Xu,  W. Zhang

 Please cite Q-Chem as follows:
 Y. Shao et al., Mol. Phys. 113, 184-215 (2015)
 DOI: 10.1080/00268976.2014.952696

 Q-Chem 5.0.2 for Intel X86 EM64T Linux

 Parts of Q-Chem use Armadillo 5.200.1 (Boston Tea Smuggler).
 http://arma.sourceforge.net/

 Q-Chem begins on Thu Mar  3 04:20:03 2022  

Host: 
0

     Scratch files written to ./qcts2.d//
 Dec517 15110_ 26548  26544 5633   
Processing $rem in /home/leeping/opt/qchem/5.0.2-openmp/config/preferences.
 MEM_STATIC 2000
 MEM_TOTAL  8000
 SYMMETRY   OFF
 SYM_IGNORE TRUE 

Checking the input file for inconsistencies... 	...done.

--------------------------------------------------------------
User input:
--------------------------------------------------------------
$molecule
0 2
C        1.4001432223    0.3189955108    0.0750271828
C        0.6142342576   -0.9652592310   -0.1471905476
C       -0.6756755822   -0.4551967852   -0.8519755440
C       -1.1049842767    0.1886928164    0.4628590284
C       -0.5168549879    1.0509212248   -0.6612355578
N        0.8459792404    1.4261038092   -0.4286843004
H        2.4076129758    0.3144631196    0.4777578286
H        1.1134874612   -1.9141235349   -0.3307100376
H       -1.2581300536   -0.9539549865   -1.6192299510
H       -2.0922607086    0.3509192552    0.8803946361
H       -1.1613543808    1.7461608699   -1.1885663416
C        0.0953813673   -0.4441497342    1.1399652585
H        0.3219184636   -0.6699159912    2.1739680635
$end

$rem
method                b3lyp
basis                 6-31+g(d,p)
unrestricted          true
symmetry              off
sym_ignore            true
incdft                false
incfock               0
scf_convergence       8
thresh                14
jobtype               freq
scf_guess             read
scf_algorithm         diis
max_scf_cycles        100
$end

--------------------------------------------------------------
 ----------------------------------------------------------------
             Standard Nuclear Orientation (Angstroms)
    I     Atom           X                Y                Z
 ----------------------------------------------------------------
    1      C       1.4001432223     0.3189955108     0.0750271828
    2      C       0.6142342576    -0.9652592310    -0.1471905476
    3      C      -0.6756755822    -0.4551967852    -0.8519755440
    4      C      -1.1049842767     0.1886928164     0.4628590284
    5      C      -0.5168549879     1.0509212248    -0.6612355578
    6      N       0.8459792404     1.4261038092    -0.4286843004
    7      H       2.4076129758     0.3144631196     0.4777578286
    8      H       1.1134874612    -1.9141235349    -0.3307100376
    9      H      -1.2581300536    -0.9539549865    -1.6192299510
   10      H      -2.0922607086     0.3509192552     0.8803946361
   11      H      -1.1613543808     1.7461608699    -1.1885663416
   12      C       0.0953813673    -0.4441497342     1.1399652585
   13      H       0.3219184636    -0.6699159912     2.1739680635
 ----------------------------------------------------------------
 Nuclear Repulsion Energy =   286.4200244515 hartrees
 There are       25 alpha and       24 beta electrons
 Requested basis set is 6-31+G(d,p)
 There are 53 shells and 163 basis functions

 Total QAlloc Memory Limit   8000 MB
 Mega-Array Size      1956 MB
 MEM_STATIC part      2000 MB

                       Distance Matrix (Angstroms)
             C (  1)   C (  2)   C (  3)   C (  4)   C (  5)   N (  6)
   C (  2)  1.521954
   C (  3)  2.401610  1.555877
   C (  4)  2.538318  2.158582  1.525677
   C (  5)  2.180064  2.368246  1.526433  1.533924
   N (  6)  1.336605  2.419000  2.456400  2.476347  1.432536
   H (  7)  1.084992  2.290078  3.444885  3.514880  3.223692  2.120397
   H (  8)  2.287710  1.087785  2.366704  3.158038  3.399817  3.352354
   H (  9)  3.399607  2.381759  1.084754  2.379956  2.342386  3.392544
   H ( 10)  3.584204  3.180153  2.378580  1.084144  2.312689  3.391602
   H ( 11)  3.192920  3.404259  2.279288  2.270703  1.084811  2.170080
   C ( 12)  1.849023  1.482408  2.135996  1.516522  2.419586  2.553802
   H ( 13)  2.558528  2.358061  3.193373  2.387709  3.420994  3.382564
             H (  7)   H (  8)   H (  9)   H ( 10)   H ( 11)   C ( 12)
   H (  8)  2.700922
   H (  9)  4.409525  2.864747
   H ( 10)  4.517998  4.107799  2.940509
   H ( 11)  4.190933  4.394144  2.735957  2.663435
   C ( 12)  2.521989  2.315221  3.115293  2.342069  3.434953
   H ( 13)  2.862910  2.906552  4.118930  2.922960  4.398200  1.082336

 
 A cutoff of  1.0D-14 yielded   1405 shell pairs
 There are     13517 function pairs
 Smallest overlap matrix eigenvalue = 1.83E-05
 Guess MOs from SCF MO coefficient file
 Reading MOs from coefficient file
 Reading MOs from coefficient file
 An unrestricted hybrid HF-DFT SCF calculation will be
 performed using Pulay DIIS extrapolation
 Exchange:     0.2000 Hartree-Fock + 0.0800 Slater + 0.7200 B88
 Correlation:  0.1900 VWN1RPA + 0.8100 LYP
 Using SG-1 standard quadrature grid
 SCF converges when DIIS error is below 1.0E-08
Using Q-Chem read-in guess as SCF_GUESS READ specified.

 -------------------------------------------------------
 OpenMP BLAS3 based DFT computing Module                
 -------------------------------------------------------
 ---------------------------------------
  Cycle       Energy         DIIS Error
 ---------------------------------------
    1    -286.8367149608      1.29E-09
    2    -286.8367149608      2.35E-09 Convergence criterion met
 ---------------------------------------
 <S^2> = 0.7707
 SCF time:  CPU 6.49 s  wall 7.69 s
 SCF   energy in the final basis set = -286.83671496
 Total energy in the final basis set = -286.83671496
 
 --------------------------------------------------------------
 
                    Orbital Energies (a.u.)
 --------------------------------------------------------------
 
 Alpha MOs
 -- Occupied --
-14.336 -10.230 -10.230 -10.225 -10.221 -10.216 -10.214  -0.990
 -0.854  -0.786  -0.664  -0.603  -0.582  -0.550  -0.537  -0.456
 -0.451  -0.418  -0.414  -0.387  -0.350  -0.293  -0.279  -0.256
 -0.202
 -- Virtual --
  0.001   0.015   0.016   0.020   0.037   0.043   0.058   0.060
  0.071   0.076   0.084   0.092   0.109   0.112   0.117   0.118
  0.125   0.138   0.148   0.160   0.162   0.174   0.180   0.187
  0.192   0.197   0.208   0.216   0.223   0.245   0.251   0.253
  0.262   0.270   0.285   0.295   0.304   0.320   0.338   0.344
  0.361   0.374   0.417   0.455   0.606   0.653   0.678   0.691
  0.710   0.730   0.741   0.747   0.760   0.775   0.785   0.789
  0.801   0.830   0.857   0.892   0.903   0.923   0.945   0.961
  0.979   1.017   1.039   1.052   1.085   1.101   1.137   1.199
  1.239   1.259   1.361   1.416   1.418   1.489   1.537   1.541
  1.580   1.611   1.632   1.674   1.697   1.779   1.814   1.881
  1.911   1.939   1.967   2.001   2.016   2.114   2.145   2.158
  2.186   2.248   2.292   2.331   2.353   2.360   2.375   2.395
  2.416   2.449   2.459   2.477   2.503   2.517   2.552   2.570
  2.599   2.625   2.634   2.673   2.696   2.723   2.765   2.790
  2.869   2.935   2.973   3.067   3.090   3.239   3.280   3.376
  3.480   3.561   3.781   4.166   4.456   4.510   4.540   4.608
  4.803   4.929
 
 Beta MOs
 -- Occupied --
-14.325 -10.232 -10.226 -10.222 -10.220 -10.214 -10.214  -0.981
 -0.838  -0.781  -0.654  -0.601  -0.576  -0.544  -0.531  -0.453
 -0.446  -0.410  -0.403  -0.378  -0.338  -0.287  -0.266  -0.241
 -- Virtual --
 -0.093   0.001   0.016   0.016   0.023   0.038   0.043   0.059
  0.068   0.072   0.082   0.086   0.095   0.111   0.114   0.118
  0.122   0.128   0.139   0.149   0.162   0.163   0.176   0.181
  0.189   0.193   0.198   0.208   0.219   0.226   0.246   0.255
  0.261   0.265   0.272   0.290   0.296   0.306   0.323   0.340
  0.345   0.363   0.380   0.422   0.460   0.608   0.657   0.687
  0.698   0.716   0.734   0.742   0.751   0.762   0.781   0.787
  0.791   0.803   0.836   0.861   0.893   0.906   0.924   0.946
  0.972   0.981   1.023   1.043   1.056   1.104   1.107   1.146
  1.202   1.244   1.262   1.363   1.422   1.428   1.506   1.541
  1.552   1.588   1.616   1.643   1.676   1.703   1.785   1.818
  1.885   1.916   1.943   1.974   2.008   2.021   2.118   2.154
  2.166   2.195   2.252   2.300   2.338   2.356   2.364   2.379
  2.397   2.421   2.454   2.462   2.482   2.505   2.519   2.558
  2.573   2.605   2.632   2.644   2.681   2.703   2.727   2.769
  2.799   2.870   2.939   2.976   3.069   3.093   3.240   3.280
  3.378   3.481   3.561   3.785   4.185   4.465   4.513   4.538
  4.609   4.809   4.933
 --------------------------------------------------------------
 
          Ground-State Mulliken Net Atomic Charges

     Atom                 Charge (a.u.)    Spin (a.u.)
  --------------------------------------------------------
      1 C                    -0.235557      -0.146924
      2 C                     0.043104      -0.027956
      3 C                    -0.072224       0.098309
      4 C                    -0.022515      -0.034428
      5 C                    -0.278004      -0.017558
      6 N                    -0.112775       0.567384
      7 H                     0.140609       0.003627
      8 H                     0.130876       0.012378
      9 H                     0.130639      -0.004440
     10 H                     0.134738      -0.000624
     11 H                     0.140521       0.000713
     12 C                    -0.140273       0.573204
     13 H                     0.140861      -0.023685
  --------------------------------------------------------
  Sum of atomic charges =    -0.000000
  Sum of spin   charges =     1.000000

 -----------------------------------------------------------------
                    Cartesian Multipole Moments
 -----------------------------------------------------------------
    Charge (ESU x 10^10)
                 0.0000
    Dipole Moment (Debye)
         X      -1.1294      Y      -2.4937      Z       0.6435
       Tot       2.8122
    Quadrupole Moments (Debye-Ang)
        XX     -38.8192     XY      -4.6829     YY     -45.4563
        XZ       2.5086     YZ       0.7053     ZZ     -40.0846
    Octopole Moments (Debye-Ang^2)
       XXX      -9.3761    XXY      -7.6331    XYY      -9.3160
       YYY     -28.8228    XXZ       4.2851    XYZ       1.7417
       YYZ       0.5709    XZZ      -6.4535    YZZ      -8.5202
       ZZZ       9.5890
    Hexadecapole Moments (Debye-Ang^3)
      XXXX    -246.8867   XXXY     -10.8941   XXYY     -88.4211
      XYYY     -25.3871   YYYY    -254.1093   XXXZ      -3.5272
      XXYZ      10.2051   XYYZ       3.6769   YYYZ      25.4126
      XXZZ     -72.7164   XYZZ      -4.6904   YYZZ     -69.3465
      XZZZ      -3.9947   YZZZ      19.7694   ZZZZ    -171.9630
 -----------------------------------------------------------------
 Calculating MO derivatives via CPSCF
   1         3          39      0.271841    0.052229
   2         3          39      0.035433    0.006721
   3         3          39      0.004741    0.001045
   4         3          39      0.000532    0.000128
   5        27          15      0.000045    0.000013
   6        41           1      0.000001    0.000001
   7        42           0      0.000000    0.000000    Roots Converged
 Time for AOints: 19.4 s (CPU) 20.4 s (wall)
 ------------------------------------------------------------------------------
                     AOints        : Timing summary (seconds)
 ------------------------------------------------------------------------------
     job step          cpu (% of tot)      sys (% of tot)     wall (% of tot)
 ------------------------------------------------------------------------------
  cpscf_lag         0.1182E+03 (28.3)   0.4500E-04 (36.6)   0.1201E+03 (28.0)
  iterzp            0.2800E+03 (67.0)   0.7400E-04 (60.2)   0.2876E+03 (67.1)
  make_fx           0.0000E+00 ( 0.0)   0.0000E+00 ( 0.0)   0.0000E+00 ( 0.0)
  AOints            0.1940E+02 ( 4.6)   0.2000E-05 ( 1.6)   0.2044E+02 ( 4.8)
 ------------------------------------------------------------------------------
   Grand Totals     0.4179E+03          0.1230E-03          0.4288E+03
 ------------------------------------------------------------------------------
 Calculating analytic Hessian of the SCF energy
 Polarizability Matrix (a.u.)
            1           2           3
    1 -68.4695768  -1.3318208  -0.6898428
    2  -1.3318208 -67.7340196   6.2188355
    3  -0.6898428   6.2188355 -63.3087225
 
 Direct stationary perturbation theory relativistic correction:
 
 rels  =       0.069328108300
 relv  =      -0.343038731791
 rel2e =       0.160785412916
 E_rel =      -0.112925210575
 
 Hessian of the SCF Energy
            1           2           3           4           5           6
    1   0.6654270  -0.0932618   0.2693348  -0.0925723  -0.0593143  -0.0432208
    2  -0.0932618   0.4192035  -0.0141982  -0.0236429  -0.1526382  -0.0471050
    3   0.2693348  -0.0141982   0.0931682  -0.0096296   0.0374726  -0.0236245
    4  -0.0925723  -0.0236429  -0.0096296   0.4162607  -0.1851328  -0.0036788
    5  -0.0593143  -0.1526382   0.0374726  -0.1851328   0.6087947   0.1069259
    6  -0.0432208  -0.0471050  -0.0236245  -0.0036788   0.1069259   0.3755793
    7  -0.0331854  -0.0143328  -0.0111071  -0.1248076   0.0143028  -0.0610527
    8  -0.0090807  -0.0015056  -0.0115688   0.0335387  -0.0790232   0.0081518
    9  -0.0060456  -0.0030630  -0.0050951  -0.0397057   0.0067293  -0.0595004
   10  -0.0289539  -0.0042231   0.0109934  -0.0509962   0.0210761   0.0120105
   11   0.0060713   0.0069455   0.0065153   0.0412213  -0.0137956  -0.0099787
   12  -0.0141938  -0.0192465   0.0200482   0.0109121  -0.0223185  -0.0262496
   13  -0.0655245   0.0097006  -0.0244895  -0.0056570   0.0234130  -0.0074901
   14   0.0324702   0.0072378  -0.0089374   0.0135020  -0.0212704   0.0182714
   15  -0.0182281   0.0200788  -0.0169544  -0.0020034   0.0049645   0.0020393
   16  -0.1505135   0.0921789  -0.0217619   0.0089624  -0.0062225  -0.0064868
   17   0.1001532  -0.2397897   0.0380841  -0.0105833  -0.0354029   0.0238165
   18  -0.0729762   0.0702598  -0.0301116   0.0003574  -0.0079427   0.0064796
   19  -0.3026404  -0.0047408  -0.1061068  -0.0052760   0.0004888  -0.0000035
   20  -0.0119265  -0.0500531   0.0051723  -0.0207990   0.0017445  -0.0070362
   21  -0.1086679   0.0012797  -0.0710264  -0.0037974   0.0024409  -0.0043236
   22   0.0129523  -0.0191515   0.0009734  -0.1055669   0.1209229   0.0152461
   23   0.0113674  -0.0149914  -0.0004855   0.1206262  -0.2628451  -0.0426334
   24  -0.0043751  -0.0018692   0.0040169   0.0138699  -0.0449048  -0.0546130
   25  -0.0020813   0.0001464  -0.0024742  -0.0016043  -0.0136181  -0.0060806
   26  -0.0000150  -0.0000006  -0.0021515   0.0045396   0.0095285   0.0078385
   27   0.0010102  -0.0016875   0.0030879   0.0011010  -0.0010271  -0.0031527
   28  -0.0011243   0.0000585   0.0009797  -0.0012956   0.0008355   0.0006240
   29  -0.0032649  -0.0019596   0.0017129   0.0043746  -0.0037068  -0.0017772
   30  -0.0012525  -0.0010200   0.0015559   0.0004748   0.0018438  -0.0025064
   31  -0.0056336   0.0000881  -0.0033457  -0.0004591  -0.0004636   0.0006386
   32  -0.0025530   0.0001865  -0.0013441  -0.0006453  -0.0026522   0.0018181
   33  -0.0011702  -0.0014893   0.0006269   0.0003756  -0.0036527   0.0004705
   34   0.0012922   0.0562514  -0.1112110  -0.0378649   0.0891109   0.0933927
   35   0.0265653   0.0301852  -0.0582611   0.0285761  -0.0553095  -0.0480701
   36   0.0004119   0.0012716   0.0243831   0.0373985  -0.0877891  -0.2050930
   37   0.0025578   0.0009290   0.0078445   0.0008768  -0.0053988   0.0061015
   38   0.0027888  -0.0028204   0.0079895  -0.0055753   0.0065763  -0.0102215
   39  -0.0006268  -0.0032112  -0.0000751  -0.0056746   0.0072579  -0.0055055
            7           8           9          10          11          12
    1  -0.0331854  -0.0090807  -0.0060456  -0.0289539   0.0060713  -0.0141938
    2  -0.0143328  -0.0015056  -0.0030630  -0.0042231   0.0069455  -0.0192465
    3  -0.0111071  -0.0115688  -0.0050951   0.0109934   0.0065153   0.0200482
    4  -0.1248076   0.0335387  -0.0397057  -0.0509962   0.0412213   0.0109121
    5   0.0143028  -0.0790232   0.0067293   0.0210761  -0.0137956  -0.0223185
    6  -0.0610527   0.0081518  -0.0595004   0.0120105  -0.0099787  -0.0262496
    7   0.4208231   0.0484289   0.1899175  -0.0569292   0.0019744   0.0335312
    8   0.0484289   0.4131037   0.1854252   0.0246404  -0.0425748  -0.1007897
    9   0.1899175   0.1854252   0.4921927   0.0396962  -0.0384023  -0.1430988
   10  -0.0569292   0.0246404   0.0396962   0.6671314  -0.1137165  -0.1378518
   11   0.0019744  -0.0425748  -0.0384023  -0.1137165   0.2380224  -0.0141553
   12   0.0335312  -0.1007897  -0.1430988  -0.1378518  -0.0141553   0.4392181
   13  -0.0493247  -0.0137270  -0.0387231  -0.0763644  -0.0087364   0.0418686
   14   0.0086958  -0.1541191  -0.0487486  -0.0271821  -0.0601359   0.0959491
   15  -0.0215859   0.0120928  -0.0298570   0.0187414   0.0347767  -0.0990751
   16  -0.0181124  -0.0357898   0.0073304  -0.0293260  -0.0239507  -0.0022094
   17  -0.0189682  -0.0219626   0.0000272   0.0012387  -0.0150074   0.0147797
   18  -0.0166399  -0.0108506  -0.0000139   0.0189135   0.0080770  -0.0014570
   19   0.0001510  -0.0003198   0.0010346   0.0001695   0.0003537  -0.0012526
   20  -0.0029004  -0.0028892   0.0006892  -0.0004806  -0.0004007  -0.0009539
   21  -0.0004730   0.0009774  -0.0009365   0.0013027  -0.0007973   0.0015529
   22  -0.0011685   0.0124023   0.0072316  -0.0032697   0.0030998   0.0018488
   23  -0.0026377   0.0002078   0.0000450  -0.0008309   0.0002602  -0.0006666
   24   0.0013192   0.0146965   0.0053498   0.0007995  -0.0028052  -0.0032654
   25  -0.1359867  -0.0690495  -0.1205638   0.0115993   0.0062773   0.0065312
   26  -0.0681320  -0.1046372  -0.1021690   0.0005919  -0.0048203   0.0022979
   27  -0.1212440  -0.1023109  -0.1878553  -0.0144979  -0.0069948  -0.0070799
   28   0.0037154  -0.0003734  -0.0004079  -0.2988336   0.0458403   0.1007024
   29   0.0147149  -0.0010366   0.0028776   0.0443322  -0.0363110  -0.0174728
   30   0.0151509   0.0044756  -0.0022469   0.1004372  -0.0158589  -0.0930017
   31   0.0007033  -0.0011729   0.0011950   0.0083088  -0.0078879   0.0061650
   32   0.0128099  -0.0109099   0.0126298   0.0015958  -0.0029181  -0.0007924
   33   0.0107802  -0.0086161   0.0069217  -0.0153168   0.0140698  -0.0101978
   34  -0.0052590   0.0127215  -0.0382915  -0.1495191   0.0461947  -0.0326567
   35   0.0051712   0.0062270  -0.0131286   0.0590368  -0.0684880   0.0571683
   36  -0.0175310   0.0083317  -0.0719928  -0.0372406   0.0290611  -0.0782019
   37  -0.0006192  -0.0022187  -0.0026677   0.0069831   0.0032587  -0.0133949
   38   0.0008732  -0.0008804  -0.0029117  -0.0060787  -0.0007763   0.0062006
   39  -0.0010654  -0.0000148  -0.0038675   0.0020128  -0.0035075   0.0008080
           13          14          15          16          17          18
    1  -0.0655245   0.0324702  -0.0182281  -0.1505135   0.1001532  -0.0729762
    2   0.0097006   0.0072378   0.0200788   0.0921789  -0.2397897   0.0702598
    3  -0.0244895  -0.0089374  -0.0169544  -0.0217619   0.0380841  -0.0301116
    4  -0.0056570   0.0135020  -0.0020034   0.0089624  -0.0105833   0.0003574
    5   0.0234130  -0.0212704   0.0049645  -0.0062225  -0.0354029  -0.0079427
    6  -0.0074901   0.0182714   0.0020393  -0.0064868   0.0238165   0.0064796
    7  -0.0493247   0.0086958  -0.0215859  -0.0181124  -0.0189682  -0.0166399
    8  -0.0137270  -0.1541191   0.0120928  -0.0357898  -0.0219626  -0.0108506
    9  -0.0387231  -0.0487486  -0.0298570   0.0073304   0.0000272  -0.0000139
   10  -0.0763644  -0.0271821   0.0187414  -0.0293260   0.0012387   0.0189135
   11  -0.0087364  -0.0601359   0.0347767  -0.0239507  -0.0150074   0.0080770
   12   0.0418686   0.0959491  -0.0990751  -0.0022094   0.0147797  -0.0014570
   13   0.5413021  -0.1155916   0.1436685  -0.1880374   0.0027770  -0.0351471
   14  -0.1155916   0.4978547  -0.1813447  -0.0218916  -0.0777792   0.0122808
   15   0.1436685  -0.1813447   0.3238006  -0.0195815  -0.0000506  -0.0537679
   16  -0.1880374  -0.0218916  -0.0195815   0.3694497  -0.0377793   0.0753684
   17   0.0027770  -0.0777792  -0.0000506  -0.0377793   0.4263804  -0.1103470
   18  -0.0351471   0.0122808  -0.0537679   0.0753684  -0.1103470   0.1261511
   19   0.0000625   0.0018038  -0.0034038  -0.0080141   0.0034058  -0.0018624
   20   0.0023808  -0.0040043   0.0032560   0.0296239   0.0008776   0.0075341
   21  -0.0009893   0.0027245   0.0024031  -0.0110951  -0.0017306  -0.0091967
   22  -0.0036681  -0.0008256  -0.0003215  -0.0025596  -0.0010368  -0.0014535
   23  -0.0005821  -0.0011563  -0.0006222  -0.0012346  -0.0012614  -0.0005076
   24  -0.0027618   0.0032037  -0.0014860  -0.0020333   0.0033384  -0.0034223
   25  -0.0024542   0.0035757  -0.0009450  -0.0019491  -0.0011179  -0.0004603
   26  -0.0101554  -0.0038879  -0.0174030   0.0008631  -0.0028724  -0.0009566
   27   0.0078963   0.0001757   0.0039599  -0.0006857   0.0031465   0.0003722
   28  -0.0043849   0.0032363   0.0005629  -0.0009079   0.0004806  -0.0005245
   29  -0.0203035   0.0055828   0.0032085  -0.0018060   0.0011308   0.0025262
   30   0.0096815  -0.0027261  -0.0070303  -0.0021125  -0.0005679  -0.0017600
   31  -0.1490528   0.1068551  -0.0855875  -0.0147288   0.0185081  -0.0120673
   32   0.1114304  -0.1721832   0.0991472  -0.0068026   0.0093867  -0.0078060
   33  -0.0890445   0.0980351  -0.1071478  -0.0000200   0.0008490  -0.0031532
   34   0.0051850  -0.0051555  -0.0127426   0.0367437  -0.0566053   0.0466977
   35   0.0166329  -0.0156403   0.0182740   0.0143620  -0.0438396   0.0388084
   36  -0.0048845   0.0117091  -0.0167260  -0.0157108   0.0277459  -0.0298452
   37  -0.0020818   0.0005075   0.0014266  -0.0010070  -0.0004728  -0.0002057
   38   0.0027611  -0.0004987   0.0036220  -0.0015507   0.0001396  -0.0010756
   39   0.0004150  -0.0005926  -0.0001582  -0.0010017   0.0009089  -0.0002749
           19          20          21          22          23          24
    1  -0.3026404  -0.0119265  -0.1086679   0.0129523   0.0113674  -0.0043751
    2  -0.0047408  -0.0500531   0.0012797  -0.0191515  -0.0149914  -0.0018692
    3  -0.1061068   0.0051723  -0.0710264   0.0009734  -0.0004855   0.0040169
    4  -0.0052760  -0.0207990  -0.0037974  -0.1055669   0.1206262   0.0138699
    5   0.0004888   0.0017445   0.0024409   0.1209229  -0.2628451  -0.0449048
    6  -0.0000035  -0.0070362  -0.0043236   0.0152461  -0.0426334  -0.0546130
    7   0.0001510  -0.0029004  -0.0004730  -0.0011685  -0.0026377   0.0013192
    8  -0.0003198  -0.0028892   0.0009774   0.0124023   0.0002078   0.0146965
    9   0.0010346   0.0006892  -0.0009365   0.0072316   0.0000450   0.0053498
   10   0.0001695  -0.0004806   0.0013027  -0.0032697  -0.0008309   0.0007995
   11   0.0003537  -0.0004007  -0.0007973   0.0030998   0.0002602  -0.0028052
   12  -0.0012526  -0.0009539   0.0015529   0.0018488  -0.0006666  -0.0032654
   13   0.0000625   0.0023808  -0.0009893  -0.0036681  -0.0005821  -0.0027618
   14   0.0018038  -0.0040043   0.0027245  -0.0008256  -0.0011563   0.0032037
   15  -0.0034038   0.0032560   0.0024031  -0.0003215  -0.0006222  -0.0014860
   16  -0.0080141   0.0296239  -0.0110951  -0.0025596  -0.0012346  -0.0020333
   17   0.0034058   0.0008776  -0.0017306  -0.0010368  -0.0012614   0.0033384
   18  -0.0018624   0.0075341  -0.0091967  -0.0014535  -0.0005076  -0.0034223
   19   0.3172414   0.0002197   0.1161153   0.0002896  -0.0002576  -0.0002453
   20   0.0002197   0.0530191  -0.0060838   0.0012946   0.0010172  -0.0004956
   21   0.1161153  -0.0060838   0.0746551   0.0001854   0.0000147   0.0005752
   22   0.0002896   0.0012946   0.0001854   0.1064423  -0.1257330  -0.0215165
   23  -0.0002576   0.0010172   0.0000147  -0.1257330   0.2765487   0.0469299
   24  -0.0002453  -0.0004956   0.0005752  -0.0215165   0.0469299   0.0482711
   25   0.0001818  -0.0009559  -0.0009084   0.0008885   0.0003590   0.0003274
   26   0.0000499   0.0006297   0.0003601  -0.0004887   0.0001211  -0.0003470
   27   0.0002274   0.0002185  -0.0001503  -0.0004500   0.0001108   0.0005118
   28  -0.0000010   0.0001727   0.0002711  -0.0002311  -0.0003884   0.0002956
   29   0.0000011   0.0001206   0.0001352   0.0014560   0.0001807  -0.0003442
   30  -0.0002361   0.0002351   0.0009647  -0.0000411   0.0000866   0.0006523
   31  -0.0005705   0.0014455  -0.0005565   0.0000300   0.0001490   0.0000565
   32  -0.0002392   0.0008274  -0.0000032   0.0002742   0.0000574   0.0009947
   33  -0.0002762   0.0003557   0.0007954   0.0007421  -0.0001608   0.0009720
   34  -0.0019435   0.0023029   0.0093191  -0.0047683  -0.0011853   0.0143617
   35  -0.0010519  -0.0014063   0.0017360   0.0088319   0.0015226  -0.0194887
   36  -0.0043613  -0.0031798   0.0046845  -0.0022516  -0.0018616   0.0014465
   37   0.0003498  -0.0003778  -0.0007061   0.0006294   0.0003479  -0.0000979
   38   0.0002863   0.0005174  -0.0010538  -0.0010463   0.0003385   0.0010915
   39   0.0003706   0.0002884   0.0000027  -0.0001930  -0.0002493   0.0009910
           25          26          27          28          29          30
    1  -0.0020813  -0.0000150   0.0010102  -0.0011243  -0.0032649  -0.0012525
    2   0.0001464  -0.0000006  -0.0016875   0.0000585  -0.0019596  -0.0010200
    3  -0.0024742  -0.0021515   0.0030879   0.0009797   0.0017129   0.0015559
    4  -0.0016043   0.0045396   0.0011010  -0.0012956   0.0043746   0.0004748
    5  -0.0136181   0.0095285  -0.0010271   0.0008355  -0.0037068   0.0018438
    6  -0.0060806   0.0078385  -0.0031527   0.0006240  -0.0017772  -0.0025064
    7  -0.1359867  -0.0681320  -0.1212440   0.0037154   0.0147149   0.0151509
    8  -0.0690495  -0.1046372  -0.1023109  -0.0003734  -0.0010366   0.0044756
    9  -0.1205638  -0.1021690  -0.1878553  -0.0004079   0.0028776  -0.0022469
   10   0.0115993   0.0005919  -0.0144979  -0.2988336   0.0443322   0.1004372
   11   0.0062773  -0.0048203  -0.0069948   0.0458403  -0.0363110  -0.0158589
   12   0.0065312   0.0022979  -0.0070799   0.1007024  -0.0174728  -0.0930017
   13  -0.0024542  -0.0101554   0.0078963  -0.0043849  -0.0203035   0.0096815
   14   0.0035757  -0.0038879   0.0001757   0.0032363   0.0055828  -0.0027261
   15  -0.0009450  -0.0174030   0.0039599   0.0005629   0.0032085  -0.0070303
   16  -0.0019491   0.0008631  -0.0006857  -0.0009079  -0.0018060  -0.0021125
   17  -0.0011179  -0.0028724   0.0031465   0.0004806   0.0011308  -0.0005679
   18  -0.0004603  -0.0009566   0.0003722  -0.0005245   0.0025262  -0.0017600
   19   0.0001818   0.0000499   0.0002274  -0.0000010   0.0000011  -0.0002361
   20  -0.0009559   0.0006297   0.0002185   0.0001727   0.0001206   0.0002351
   21  -0.0009084   0.0003601  -0.0001503   0.0002711   0.0001352   0.0009647
   22   0.0008885  -0.0004887  -0.0004500  -0.0002311   0.0014560  -0.0000411
   23   0.0003590   0.0001211   0.0001108  -0.0003884   0.0001807   0.0000866
   24   0.0003274  -0.0003470   0.0005118   0.0002956  -0.0003442   0.0006523
   25   0.1317488   0.0748692   0.1260316   0.0005094  -0.0009929  -0.0010199
   26   0.0748692   0.1048493   0.1078951   0.0000847   0.0009629  -0.0004302
   27   0.1260316   0.1078951   0.1934779   0.0004409   0.0014428   0.0019337
   28   0.0005094   0.0000847   0.0004409   0.3072810  -0.0476975  -0.1114592
   29  -0.0009929   0.0009629   0.0014428  -0.0476975   0.0384440   0.0148381
   30  -0.0010199  -0.0004302   0.0019337  -0.1114592   0.0148381   0.0894549
   31   0.0006737  -0.0001411  -0.0001906   0.0007546   0.0011135  -0.0000131
   32   0.0002450   0.0014027  -0.0010207   0.0000096   0.0003803   0.0005662
   33   0.0000795   0.0015345  -0.0001877  -0.0001063  -0.0017456   0.0010568
   34  -0.0019260  -0.0020710   0.0011960  -0.0055516   0.0084605  -0.0098489
   35   0.0011470  -0.0013336   0.0003309  -0.0024222  -0.0043428  -0.0013177
   36  -0.0004706   0.0025931  -0.0043186   0.0087816  -0.0058495   0.0108211
   37   0.0004001   0.0000047  -0.0008353   0.0000696  -0.0003879   0.0002390
   38  -0.0008852   0.0000577  -0.0002791   0.0001634   0.0005547  -0.0001244
   39  -0.0000468   0.0009382  -0.0005990  -0.0001603   0.0004480   0.0001060
           31          32          33          34          35          36
    1  -0.0056336  -0.0025530  -0.0011702   0.0012922   0.0265653   0.0004119
    2   0.0000881   0.0001865  -0.0014893   0.0562514   0.0301852   0.0012716
    3  -0.0033457  -0.0013441   0.0006269  -0.1112110  -0.0582611   0.0243831
    4  -0.0004591  -0.0006453   0.0003756  -0.0378649   0.0285761   0.0373985
    5  -0.0004636  -0.0026522  -0.0036527   0.0891109  -0.0553095  -0.0877891
    6   0.0006386   0.0018181   0.0004705   0.0933927  -0.0480701  -0.2050930
    7   0.0007033   0.0128099   0.0107802  -0.0052590   0.0051712  -0.0175310
    8  -0.0011729  -0.0109099  -0.0086161   0.0127215   0.0062270   0.0083317
    9   0.0011950   0.0126298   0.0069217  -0.0382915  -0.0131286  -0.0719928
   10   0.0083088   0.0015958  -0.0153168  -0.1495191   0.0590368  -0.0372406
   11  -0.0078879  -0.0029181   0.0140698   0.0461947  -0.0684880   0.0290611
   12   0.0061650  -0.0007924  -0.0101978  -0.0326567   0.0571683  -0.0782019
   13  -0.1490528   0.1114304  -0.0890445   0.0051850   0.0166329  -0.0048845
   14   0.1068551  -0.1721832   0.0980351  -0.0051555  -0.0156403   0.0117091
   15  -0.0855875   0.0991472  -0.1071478  -0.0127426   0.0182740  -0.0167260
   16  -0.0147288  -0.0068026  -0.0000200   0.0367437   0.0143620  -0.0157108
   17   0.0185081   0.0093867   0.0008490  -0.0566053  -0.0438396   0.0277459
   18  -0.0120673  -0.0078060  -0.0031532   0.0466977   0.0388084  -0.0298452
   19  -0.0005705  -0.0002392  -0.0002762  -0.0019435  -0.0010519  -0.0043613
   20   0.0014455   0.0008274   0.0003557   0.0023029  -0.0014063  -0.0031798
   21  -0.0005565  -0.0000032   0.0007954   0.0093191   0.0017360   0.0046845
   22   0.0000300   0.0002742   0.0007421  -0.0047683   0.0088319  -0.0022516
   23   0.0001490   0.0000574  -0.0001608  -0.0011853   0.0015226  -0.0018616
   24   0.0000565   0.0009947   0.0009720   0.0143617  -0.0194887   0.0014465
   25   0.0006737   0.0002450   0.0000795  -0.0019260   0.0011470  -0.0004706
   26  -0.0001411   0.0014027   0.0015345  -0.0020710  -0.0013336   0.0025931
   27  -0.0001906  -0.0010207  -0.0001877   0.0011960   0.0003309  -0.0043186
   28   0.0007546   0.0000096  -0.0001063  -0.0055516  -0.0024222   0.0087816
   29   0.0011135   0.0003803  -0.0017456   0.0084605  -0.0043428  -0.0058495
   30  -0.0000131   0.0005662   0.0010568  -0.0098489  -0.0013177   0.0108211
   31   0.1618308  -0.1152772   0.0929036  -0.0022125  -0.0027598   0.0008622
   32  -0.1152772   0.1771888  -0.1027207  -0.0004930  -0.0008782  -0.0013826
   33   0.0929036  -0.1027207   0.1117063   0.0017808   0.0026500  -0.0020959
   34  -0.0022125  -0.0004930   0.0017808   0.2229172  -0.1859008   0.0972053
   35  -0.0027598  -0.0008782   0.0026500  -0.1859008   0.1928420  -0.0427037
   36   0.0008622  -0.0013826  -0.0020959   0.0972053  -0.0427037   0.6989383
   37   0.0003561  -0.0003546  -0.0007279  -0.0570932   0.0318116  -0.0622092
   38  -0.0004569   0.0001119   0.0008911   0.0363690  -0.0395386   0.0620539
   39  -0.0000602  -0.0000859   0.0002328  -0.0592027   0.0640023  -0.3320001
           37          38          39
    1   0.0025578   0.0027888  -0.0006268
    2   0.0009290  -0.0028204  -0.0032112
    3   0.0078445   0.0079895  -0.0000751
    4   0.0008768  -0.0055753  -0.0056746
    5  -0.0053988   0.0065763   0.0072579
    6   0.0061015  -0.0102215  -0.0055055
    7  -0.0006192   0.0008732  -0.0010654
    8  -0.0022187  -0.0008804  -0.0000148
    9  -0.0026677  -0.0029117  -0.0038675
   10   0.0069831  -0.0060787   0.0020128
   11   0.0032587  -0.0007763  -0.0035075
   12  -0.0133949   0.0062006   0.0008080
   13  -0.0020818   0.0027611   0.0004150
   14   0.0005075  -0.0004987  -0.0005926
   15   0.0014266   0.0036220  -0.0001582
   16  -0.0010070  -0.0015507  -0.0010017
   17  -0.0004728   0.0001396   0.0009089
   18  -0.0002057  -0.0010756  -0.0002749
   19   0.0003498   0.0002863   0.0003706
   20  -0.0003778   0.0005174   0.0002884
   21  -0.0007061  -0.0010538   0.0000027
   22   0.0006294  -0.0010463  -0.0001930
   23   0.0003479   0.0003385  -0.0002493
   24  -0.0000979   0.0010915   0.0009910
   25   0.0004001  -0.0008852  -0.0000468
   26   0.0000047   0.0000577   0.0009382
   27  -0.0008353  -0.0002791  -0.0005990
   28   0.0000696   0.0001634  -0.0001603
   29  -0.0003879   0.0005547   0.0004480
   30   0.0002390  -0.0001244   0.0001060
   31   0.0003561  -0.0004569  -0.0000602
   32  -0.0003546   0.0001119  -0.0000859
   33  -0.0007279   0.0008911   0.0002328
   34  -0.0570932   0.0363690  -0.0592027
   35   0.0318116  -0.0395386   0.0640023
   36  -0.0622092   0.0620539  -0.3320001
   37   0.0485785  -0.0276488   0.0652331
   38  -0.0276488   0.0362183  -0.0661824
   39   0.0652331  -0.0661824   0.3403399
 Gradient time:  CPU 551.57 s  wall 567.42 s
 **********************************************************************
 **                                                                  **
 **                       VIBRATIONAL ANALYSIS                       **
 **                       --------------------                       **
 **                                                                  **
 **        VIBRATIONAL FREQUENCIES (CM**-1) AND NORMAL MODES         **
 **     FORCE CONSTANTS (mDYN/ANGSTROM) AND REDUCED MASSES (AMU)     **
 **                  INFRARED INTENSITIES (KM/MOL)                   **
 **                                                                  **
 **********************************************************************
 

 Mode:                 1                      2                      3
 Frequency:      -627.09                 469.43                 564.04
 Force Cnst:      2.0706                 0.4976                 0.5705
 Red. Mass:       8.9370                 3.8322                 3.0434
 IR Active:          YES                    YES                    YES
 IR Intens:        5.567                  3.743                  3.446
 Raman Active:       YES                    YES                    YES
               X      Y      Z        X      Y      Z        X      Y      Z
 C         -0.270 -0.145  0.504    0.048 -0.118 -0.187    0.013 -0.066 -0.035
 C         -0.058 -0.164 -0.140   -0.031 -0.067 -0.015   -0.012  0.001  0.079
 C         -0.047 -0.016 -0.011   -0.004 -0.076 -0.012    0.096  0.102 -0.084
 C          0.044  0.002 -0.069   -0.038  0.007 -0.086   -0.104 -0.183 -0.034
 C         -0.033  0.054 -0.007   -0.004 -0.032 -0.025   -0.057  0.094  0.202
 N         -0.059  0.011 -0.080   -0.064  0.048  0.327    0.051 -0.072 -0.143
 H         -0.162 -0.180  0.207    0.036 -0.151 -0.152    0.067 -0.078 -0.166
 H         -0.034 -0.121 -0.216   -0.134 -0.155  0.151   -0.089 -0.050  0.127
 H         -0.072  0.108 -0.070    0.011 -0.039 -0.047    0.277  0.245 -0.312
 H          0.072 -0.123  0.049   -0.030 -0.035 -0.052   -0.177 -0.387 -0.118
 H         -0.007  0.028 -0.068    0.082 -0.028 -0.123   -0.062  0.135  0.263
 C          0.436  0.287 -0.160    0.076  0.207 -0.039   -0.012  0.111  0.048
 H          0.159 -0.097 -0.178    0.360  0.701  0.004    0.162  0.449  0.081
 TransDip  -0.026  0.071 -0.003    0.047  0.010 -0.040    0.007  0.052  0.029

 Mode:                 4                      5                      6
 Frequency:       609.46                 708.72                 734.95
 Force Cnst:      0.2891                 2.1515                 0.6255
 Red. Mass:       1.3208                 7.2701                 1.9654
 IR Active:          YES                    YES                    YES
 IR Intens:       15.462                  0.943                 11.670
 Raman Active:       YES                    YES                    YES
               X      Y      Z        X      Y      Z        X      Y      Z
 C         -0.056  0.013  0.042   -0.187 -0.116 -0.119   -0.017 -0.021 -0.035
 C          0.013 -0.019 -0.020    0.040 -0.246  0.145    0.042 -0.008 -0.017
 C         -0.011  0.037  0.025    0.324  0.069 -0.082   -0.048 -0.069  0.151
 C          0.019 -0.001  0.018    0.260  0.291 -0.053   -0.025 -0.060 -0.116
 C          0.017  0.022 -0.054   -0.133  0.195  0.046    0.023  0.171  0.001
 N          0.016  0.003 -0.021   -0.243 -0.021 -0.003    0.053  0.038 -0.004
 H         -0.136  0.020  0.243   -0.146  0.101 -0.242   -0.002 -0.088 -0.073
 H          0.085  0.048 -0.190    0.107 -0.206  0.100    0.145  0.058 -0.089
 H         -0.072 -0.015  0.107    0.081 -0.027  0.180   -0.293 -0.272  0.472
 H         -0.006 -0.054 -0.022    0.113 -0.208 -0.212   -0.182 -0.486 -0.321
 H          0.019  0.030 -0.047   -0.217  0.066 -0.036    0.113  0.208 -0.062
 C         -0.037 -0.118  0.001    0.005 -0.138  0.072   -0.002  0.001  0.024
 H          0.534  0.732  0.061   -0.255 -0.088  0.146   -0.188 -0.128  0.041
 TransDip   0.055  0.111  0.023   -0.027  0.014 -0.003   -0.063 -0.089  0.012

 Mode:                 7                      8                      9
 Frequency:       762.44                 789.62                 802.98
 Force Cnst:      1.6698                 1.2121                 0.9827
 Red. Mass:       4.8754                 3.2995                 2.5867
 IR Active:          YES                    YES                    YES
 IR Intens:       10.568                 18.393                  6.803
 Raman Active:       YES                    YES                    YES
               X      Y      Z        X      Y      Z        X      Y      Z
 C          0.059 -0.022  0.028   -0.060  0.105 -0.014   -0.047  0.045 -0.072
 C          0.232 -0.024 -0.114   -0.105 -0.121  0.087   -0.079 -0.144  0.017
 C         -0.014 -0.180  0.077   -0.116 -0.160 -0.129    0.082 -0.034  0.144
 C         -0.056  0.201 -0.021    0.149 -0.080 -0.103   -0.117  0.025  0.043
 C         -0.067  0.022  0.290    0.069  0.021  0.112    0.055 -0.007  0.044
 N          0.002 -0.086 -0.044    0.077  0.181 -0.029    0.071  0.185 -0.046
 H         -0.090  0.141  0.415   -0.058 -0.021 -0.021   -0.128  0.007  0.130
 H          0.258 -0.066  0.172    0.110 -0.043  0.258   -0.143 -0.180  0.021
 H          0.012 -0.084 -0.003   -0.206 -0.107 -0.105    0.346  0.340 -0.293
 H          0.027  0.292  0.147    0.295  0.424  0.042   -0.141 -0.176  0.078
 H         -0.020 -0.044  0.146   -0.166  0.128  0.541    0.065 -0.378 -0.459
 C         -0.156  0.053 -0.265   -0.018 -0.025  0.014    0.016 -0.055 -0.071
 H         -0.196  0.367 -0.194   -0.072  0.185  0.068    0.070 -0.160 -0.104
 TransDip  -0.032  0.059  0.080   -0.031  0.026  0.131   -0.013 -0.077 -0.030

 Mode:                10                     11                     12
 Frequency:       845.96                 882.04                 906.50
 Force Cnst:      0.8185                 0.6599                 0.7782
 Red. Mass:       1.9412                 1.4397                 1.6073
 IR Active:          YES                    YES                    YES
 IR Intens:        5.392                 26.638                 18.508
 Raman Active:       YES                    YES                    YES
               X      Y      Z        X      Y      Z        X      Y      Z
 C          0.129  0.061 -0.003    0.006 -0.029 -0.047    0.032 -0.000 -0.044
 C          0.036 -0.126  0.089   -0.080  0.046 -0.029   -0.020  0.019 -0.004
 C         -0.088  0.097 -0.024    0.080  0.001 -0.046   -0.012 -0.041  0.074
 C          0.016 -0.055  0.014    0.037  0.006  0.040   -0.034 -0.024 -0.087
 C         -0.013  0.044 -0.064   -0.060 -0.046  0.014    0.049  0.085  0.012
 N         -0.045 -0.031  0.005    0.068  0.033 -0.004   -0.090 -0.060 -0.012
 H         -0.039  0.403  0.429   -0.273  0.003  0.648   -0.151  0.272  0.408
 H         -0.152 -0.291  0.392   -0.295 -0.049 -0.097   -0.215 -0.055 -0.153
 H         -0.350  0.245  0.075    0.022 -0.425  0.281    0.323 -0.011 -0.200
 H          0.013 -0.280  0.090   -0.024 -0.211 -0.025   -0.004  0.525 -0.227
 H          0.035  0.116 -0.031   -0.146 -0.005  0.175    0.045  0.169  0.126
 C          0.018  0.005 -0.090   -0.001  0.049 -0.006    0.070 -0.028  0.067
 H         -0.038 -0.069 -0.097   -0.014 -0.099 -0.036    0.239 -0.189  0.000
 TransDip  -0.038 -0.004  0.064   -0.085 -0.089  0.111    0.044  0.130  0.015

 Mode:                13                     14                     15
 Frequency:       922.83                 969.55                 974.32
 Force Cnst:      0.8140                 0.9169                 0.8891
 Red. Mass:       1.6222                 1.6555                 1.5896
 IR Active:          YES                    YES                    YES
 IR Intens:        0.576                  3.612                  1.956
 Raman Active:       YES                    YES                    YES
               X      Y      Z        X      Y      Z        X      Y      Z
 C         -0.105 -0.088 -0.099   -0.080 -0.064 -0.016   -0.012 -0.008 -0.021
 C          0.090  0.017 -0.001    0.071  0.013  0.061   -0.004  0.057  0.045
 C         -0.057  0.026  0.004    0.032  0.031 -0.009   -0.059 -0.038 -0.092
 C          0.043 -0.058  0.029   -0.088 -0.056  0.059   -0.045  0.116 -0.028
 C          0.022  0.007 -0.034   -0.014  0.081 -0.080   -0.028 -0.040  0.058
 N          0.015  0.003  0.007    0.031  0.032  0.007    0.034 -0.011  0.001
 H         -0.333 -0.086  0.456   -0.048 -0.162 -0.109   -0.080 -0.070  0.149
 H          0.445  0.211 -0.043    0.099 -0.052  0.476    0.325  0.171  0.367
 H          0.002  0.340 -0.248    0.183 -0.393  0.143   -0.214  0.131 -0.088
 H          0.138  0.006  0.223    0.068  0.346  0.283   -0.231 -0.211 -0.329
 H          0.021 -0.040 -0.097   -0.028  0.216  0.102    0.071 -0.055 -0.084
 C         -0.006  0.058  0.059   -0.007 -0.020 -0.082    0.076 -0.048  0.044
 H         -0.321 -0.021  0.113    0.314 -0.227 -0.202    0.508 -0.290 -0.100
 TransDip   0.012  0.015 -0.015   -0.005 -0.052  0.031    0.020 -0.037  0.016

 Mode:                16                     17                     18
 Frequency:      1001.39                1046.80                1048.83
 Force Cnst:      0.9962                 0.9717                 1.6634
 Red. Mass:       1.6861                 1.5050                 2.5664
 IR Active:          YES                    YES                    YES
 IR Intens:        1.841                  2.591                  1.829
 Raman Active:       YES                    YES                    YES
               X      Y      Z        X      Y      Z        X      Y      Z
 C          0.043  0.015  0.026   -0.062 -0.014 -0.000   -0.101  0.038 -0.025
 C         -0.072  0.069  0.014    0.018  0.057 -0.032   -0.105  0.120 -0.030
 C         -0.058 -0.121 -0.023   -0.016 -0.018  0.095    0.075  0.001  0.000
 C          0.067  0.034  0.003    0.071  0.034  0.023    0.100 -0.096  0.004
 C         -0.065  0.122 -0.033    0.088 -0.056 -0.065    0.186  0.012  0.119
 N          0.016 -0.042  0.013   -0.031  0.003 -0.003   -0.105 -0.079 -0.009
 H          0.046 -0.018  0.023   -0.038 -0.052 -0.076   -0.118  0.052 -0.012
 H         -0.071  0.057  0.097   -0.189 -0.115  0.323   -0.104  0.054  0.403
 H          0.417 -0.148 -0.377    0.213  0.219 -0.227   -0.272  0.003  0.275
 H          0.185 -0.447  0.482   -0.103 -0.389 -0.240    0.164 -0.020  0.096
 H          0.136  0.146 -0.264   -0.165  0.199  0.594    0.422 -0.224 -0.456
 C          0.006 -0.041 -0.002   -0.044  0.006 -0.044   -0.052  0.032 -0.071
 H         -0.002  0.063  0.020    0.042 -0.009 -0.073    0.151 -0.040 -0.146
 TransDip   0.038  0.020  0.006   -0.023 -0.040  0.022    0.025 -0.020  0.029

 Mode:                19                     20                     21
 Frequency:      1066.05                1139.41                1206.39
 Force Cnst:      1.1526                 1.7475                 1.1553
 Red. Mass:       1.7213                 2.2845                 1.3473
 IR Active:          YES                    YES                    YES
 IR Intens:        6.165                  0.349                  0.309
 Raman Active:       YES                    YES                    YES
               X      Y      Z        X      Y      Z        X      Y      Z
 C         -0.009  0.074 -0.037   -0.072 -0.001 -0.006   -0.016 -0.014  0.009
 C         -0.087 -0.089  0.052    0.128 -0.045 -0.129    0.046  0.009  0.033
 C          0.032 -0.011 -0.033   -0.042 -0.047 -0.134    0.067 -0.085 -0.011
 C         -0.080  0.041  0.070   -0.076  0.041  0.111   -0.024  0.013 -0.050
 C          0.111 -0.024 -0.008    0.087 -0.003  0.024    0.003  0.008 -0.024
 N         -0.035 -0.060  0.010   -0.010  0.049 -0.024    0.010  0.007 -0.002
 H         -0.021  0.155 -0.007   -0.042  0.328 -0.082    0.004  0.071 -0.041
 H          0.500  0.303 -0.380   -0.387 -0.381  0.126   -0.219 -0.055 -0.365
 H          0.114 -0.199  0.024   -0.023 -0.242 -0.046   -0.370  0.362  0.031
 H         -0.103 -0.208  0.129   -0.148 -0.122  0.040    0.155 -0.106  0.427
 H          0.260  0.354  0.318    0.468  0.261 -0.094   -0.046  0.088  0.137
 C          0.013  0.047 -0.058    0.008  0.004  0.149   -0.082  0.052  0.042
 H         -0.025 -0.039 -0.070   -0.115  0.065  0.211    0.415 -0.269 -0.136
 TransDip   0.070  0.037  0.008    0.005 -0.018  0.003   -0.018  0.002 -0.000

 Mode:                22                     23                     24
 Frequency:      1234.45                1246.29                1287.88
 Force Cnst:      2.6748                 1.2513                 1.9954
 Red. Mass:       2.9791                 1.3673                 2.0419
 IR Active:          YES                    YES                    YES
 IR Intens:        7.747                  1.963                 13.723
 Raman Active:       YES                    YES                    YES
               X      Y      Z        X      Y      Z        X      Y      Z
 C         -0.038 -0.079 -0.021   -0.067 -0.014 -0.004   -0.031  0.023 -0.018
 C          0.121  0.075  0.226   -0.004 -0.033 -0.030   -0.039  0.034 -0.060
 C         -0.159  0.111 -0.024   -0.053  0.042  0.009    0.050  0.059  0.045
 C          0.008  0.047 -0.115    0.040 -0.005 -0.018   -0.124  0.058 -0.171
 C          0.096 -0.096  0.090    0.006  0.014  0.011    0.031 -0.062  0.007
 N         -0.056  0.062 -0.023    0.090 -0.048  0.043    0.023 -0.036  0.006
 H         -0.032 -0.079 -0.051    0.015  0.756 -0.209   -0.049  0.175  0.015
 H         -0.391 -0.052 -0.520    0.115  0.026 -0.021    0.036 -0.006  0.382
 H          0.240 -0.409 -0.001    0.191 -0.188 -0.029   -0.087  0.024  0.190
 H          0.078 -0.258  0.163    0.026 -0.071 -0.038    0.172 -0.115  0.626
 H          0.136 -0.189 -0.050   -0.307 -0.322 -0.049   -0.152 -0.043  0.272
 C          0.037 -0.046 -0.085   -0.046  0.046  0.016    0.114 -0.088  0.048
 H         -0.023 -0.008 -0.071    0.189 -0.132 -0.076   -0.262  0.189  0.208
 TransDip  -0.012 -0.085 -0.025   -0.011 -0.009 -0.042   -0.015  0.010  0.117

 Mode:                25                     26                     27
 Frequency:      1298.45                1337.89                1389.27
 Force Cnst:      2.3305                 2.4729                 2.7056
 Red. Mass:       2.3461                 2.3448                 2.3793
 IR Active:          YES                    YES                    YES
 IR Intens:        3.096                  5.976                  0.539
 Raman Active:       YES                    YES                    YES
               X      Y      Z        X      Y      Z        X      Y      Z
 C          0.147 -0.095  0.047   -0.017 -0.105 -0.004   -0.092  0.225 -0.047
 C         -0.017 -0.036 -0.072   -0.023  0.126  0.102    0.076 -0.039  0.015
 C         -0.029  0.005 -0.053    0.043 -0.129 -0.068   -0.025 -0.015 -0.048
 C         -0.043  0.023  0.024   -0.071 -0.003  0.116   -0.035  0.015  0.028
 C          0.162  0.089 -0.008    0.066  0.099 -0.043    0.058  0.088 -0.010
 N         -0.137  0.072 -0.052    0.017  0.005  0.012    0.047 -0.158  0.059
 H          0.120 -0.237  0.145    0.007  0.452 -0.073   -0.146 -0.602  0.042
 H          0.253  0.066  0.097   -0.174  0.111 -0.127   -0.269 -0.205 -0.127
 H          0.043 -0.231  0.031   -0.342  0.216 -0.017   -0.011 -0.068 -0.040
 H         -0.018 -0.182  0.185   -0.187  0.087 -0.156   -0.077 -0.039 -0.026
 H         -0.550 -0.503  0.080   -0.345 -0.192  0.061   -0.456 -0.374  0.007
 C         -0.059  0.027  0.076    0.101 -0.073 -0.098    0.046  0.021  0.004
 H          0.154 -0.057  0.020   -0.376  0.271  0.071   -0.033 -0.027  0.018
 TransDip   0.030 -0.040  0.026   -0.059  0.051  0.008    0.015  0.004 -0.018

 Mode:                28                     29                     30
 Frequency:      3162.53                3198.53                3202.72
 Force Cnst:      6.4365                 6.5802                 6.5926
 Red. Mass:       1.0923                 1.0917                 1.0909
 IR Active:          YES                    YES                    YES
 IR Intens:       13.996                 12.102                  6.835
 Raman Active:       YES                    YES                    YES
               X      Y      Z        X      Y      Z        X      Y      Z
 C         -0.005  0.002 -0.003   -0.001  0.000 -0.000    0.005  0.000  0.002
 C          0.040 -0.075 -0.015    0.006 -0.009 -0.001   -0.001  0.002  0.000
 C          0.004  0.006  0.007   -0.043 -0.035 -0.055    0.003  0.002  0.003
 C         -0.002  0.001  0.001    0.023 -0.004 -0.008   -0.051  0.009  0.020
 C         -0.000  0.000 -0.000    0.018 -0.017  0.013    0.040 -0.042  0.032
 N          0.000  0.000  0.000   -0.000  0.000  0.000   -0.001 -0.000 -0.000
 H          0.062 -0.003  0.025    0.016 -0.000  0.005   -0.065  0.000 -0.027
 H         -0.454  0.858  0.165   -0.054  0.097  0.017    0.010 -0.021 -0.005
 H         -0.061 -0.056 -0.083    0.478  0.403  0.624   -0.032 -0.028 -0.040
 H          0.022 -0.004 -0.009   -0.274  0.045  0.114    0.580 -0.099 -0.242
 H          0.001  0.001  0.000   -0.195  0.209 -0.160   -0.450  0.486 -0.366
 C         -0.003  0.001 -0.004    0.000  0.000  0.003   -0.000  0.001 -0.007
 H          0.016 -0.014  0.066   -0.007  0.005 -0.031    0.017 -0.016  0.084
 TransDip   0.056 -0.102 -0.028    0.015 -0.088 -0.066    0.004 -0.038  0.075

 Mode:                31                     32                     33
 Frequency:      3213.07                3215.80                3245.12
 Force Cnst:      6.6584                 6.6736                 6.8049
 Red. Mass:       1.0947                 1.0953                 1.0968
 IR Active:          YES                    YES                    YES
 IR Intens:       24.473                  0.450                  3.980
 Raman Active:       YES                    YES                    YES
               X      Y      Z        X      Y      Z        X      Y      Z
 C         -0.040  0.000 -0.016   -0.070  0.001 -0.027   -0.007 -0.001 -0.003
 C          0.001  0.001  0.001   -0.003  0.006  0.001   -0.004  0.007  0.004
 C         -0.017 -0.017 -0.025    0.012  0.011  0.016    0.001  0.001  0.002
 C         -0.050  0.008  0.022    0.024 -0.004 -0.011    0.015 -0.004 -0.004
 C         -0.022  0.028 -0.020    0.017 -0.019  0.014    0.001 -0.002  0.001
 N          0.001 -0.000  0.000   -0.000 -0.001  0.000   -0.000 -0.000  0.000
 H          0.467 -0.002  0.187    0.790 -0.003  0.317    0.080  0.001  0.030
 H          0.003 -0.011 -0.002    0.028 -0.060 -0.010    0.033 -0.059 -0.012
 H          0.202  0.171  0.262   -0.125 -0.105 -0.162   -0.010 -0.007 -0.015
 H          0.566 -0.093 -0.236   -0.268  0.044  0.113   -0.144  0.025  0.057
 H          0.269 -0.294  0.222   -0.191  0.207 -0.156   -0.015  0.016 -0.012
 C          0.000  0.000 -0.006    0.003 -0.002  0.011   -0.019  0.018 -0.084
 H          0.014 -0.016  0.075   -0.031  0.028 -0.136    0.208 -0.203  0.933
 TransDip  -0.152  0.023 -0.040   -0.011 -0.010  0.015   -0.027  0.002 -0.058

 STANDARD THERMODYNAMIC QUANTITIES AT   298.15 K  AND     1.00 ATM

   This Molecule has  1 Imaginary Frequencies
   Zero point vibrational energy:       63.593 kcal/mol

   Atom    1 Element C  Has Mass   12.00000
   Atom    2 Element C  Has Mass   12.00000
   Atom    3 Element C  Has Mass   12.00000
   Atom    4 Element C  Has Mass   12.00000
   Atom    5 Element C  Has Mass   12.00000
   Atom    6 Element N  Has Mass   14.00307
   Atom    7 Element H  Has Mass    1.00783
   Atom    8 Element H  Has Mass    1.00783
   Atom    9 Element H  Has Mass    1.00783
   Atom   10 Element H  Has Mass    1.00783
   Atom   11 Element H  Has Mass    1.00783
   Atom   12 Element C  Has Mass   12.00000
   Atom   13 Element H  Has Mass    1.00783
   Molecular Mass:    92.050050 amu
   Principal axes and moments of inertia in amu*Bohr^2:
                             1           2           3
    Eigenvalues --      385.70506   402.10921   534.55759
          X               0.88968    -0.42706    -0.16152
          Y               0.44983     0.75928     0.47026
          Z              -0.07819    -0.49104     0.86762
   Rotational Symmetry Number is   1
   The Molecule is an Asymmetric Top
   Translational Enthalpy:        0.889 kcal/mol
   Rotational Enthalpy:           0.889 kcal/mol
   Vibrational Enthalpy:         64.585 kcal/mol
   gas constant (RT):             0.592 kcal/mol
   Translational Entropy:        39.471  cal/mol.K
   Rotational Entropy:           25.919  cal/mol.K
   Vibrational Entropy:           4.289  cal/mol.K

   Total Enthalpy:               66.955 kcal/mol
   Total Entropy:                69.679  cal/mol.K
Archival summary:
1\1\c8-66\FREQ\ProcedureUnspecified\6-31+G**\166(2)\hpark21\ThuMar304:29:412022ThuMar304:29:412022\0\\#,FREQ,ProcedureUnspecified,6-31+G**,\\0,2\N\C,1,1.3366\H,2,1.08499,1,121.892\C,1,1.43254,2,103.809,3,-171.977,0\H,4,1.08481,1,118.442,2,-172.553,0\C,2,1.52195,1,115.456,3,-171.031,0\H,6,1.08779,2,121.58,1,144.234,0\C,6,1.48241,2,75.956,1,-89.6885,0\H,8,1.08234,6,133.073,2,-97.6364,0\C,8,1.51652,6,92.0662,2,97.7386,0\H,10,1.08414,8,127.683,6,149.822,0\C,10,1.52568,8,89.1945,6,5.51098,0\H,12,1.08475,10,130.732,8,137.442,0\\\@

 Total job time:  577.75s(wall), 558.30s(cpu) 
 Thu Mar  3 04:29:41 2022

        *************************************************************
        *                                                           *
        *  Thank you very much for using Q-Chem.  Have a nice day.  *
        *                                                           *
        *************************************************************


