13
image # 1 Energy = -286.82496
C 1.31198   0.30246   0.24185   
C 0.60678   -1.00073  -0.18273  
C -0.68800  -0.46527  -0.84427  
C -1.07826  0.19103   0.45065   
C -0.51918  1.05940   -0.69249  
N 0.82905   1.42317   -0.47140  
H 2.34857   0.28927   0.56033   
H 1.12220   -1.93518  -0.37455  
H -1.29510  -0.93642  -1.60917  
H -2.05245  0.33603   0.90403   
H -1.16541  1.74208   -1.23318  
C 0.21679   -0.34454  1.11217   
H 0.36302   -0.66130  2.13876   
13
image # 2 Energy = -286.82226
C 1.33015   0.31185   0.23916   
C 0.61272   -1.00907  -0.19553  
C -0.68805  -0.48510  -0.86904  
C -1.10066  0.19838   0.47729   
C -0.51959  1.07418   -0.69922  
N 0.82613   1.42406   -0.46964  
H 2.35846   0.30326   0.52909   
H 1.12705   -1.92467  -0.35752  
H -1.27453  -0.94671  -1.60679  
H -2.03097  0.36807   0.91846   
H -1.17016  1.73105   -1.22763  
C 0.20710   -0.34840  1.13253   
H 0.32091   -0.69774  2.12527   
13
image # 3 Energy = -286.82276
C 1.32540   0.31133   0.22519   
C 0.61732   -0.98908  -0.17382  
C -0.67591  -0.46333  -0.86016  
C -1.08125  0.20397   0.45599   
C -0.52496  1.04866   -0.68676  
N 0.82602   1.43068   -0.46946  
H 2.37792   0.31688   0.50272   
H 1.13688   -1.92528  -0.34393  
H -1.26938  -0.96774  -1.62044  
H -2.03863  0.40448   0.94878   
H -1.17860  1.72870   -1.22773  
C 0.19896   -0.36230  1.11227   
H 0.28338   -0.73848  2.13067   
13
image # 4 Energy = -286.82019
C 1.33920   0.31795   0.21780   
C 0.61167   -0.97939  -0.17513  
C -0.67405  -0.46507  -0.85616  
C -1.08734  0.20246   0.45435   
C -0.52645  1.05495   -0.68727  
N 0.82153   1.42869   -0.46591  
H 2.39356   0.33417   0.46855   
H 1.14648   -1.91777  -0.32412  
H -1.24961  -0.98464  -1.62408  
H -2.01981  0.44442   0.96979   
H -1.18413  1.71511   -1.22090  
C 0.18960   -0.36954  1.11241   
H 0.23488   -0.78367  2.12112   
13
image # 5 Energy = -286.81636
C 1.34098   0.32497   0.20293   
C 0.61991   -0.97698  -0.17110  
C -0.67564  -0.46992  -0.86738  
C -1.08619  0.20680   0.46201   
C -0.51939  1.04118   -0.67683  
N 0.82024   1.43344   -0.46315  
H 2.41241   0.34970   0.43794   
H 1.15093   -1.90511  -0.30557  
H -1.23071  -0.99866  -1.62468  
H -2.00342  0.48212   0.98894   
H -1.19680  1.71226   -1.22146  
C 0.17216   -0.37651  1.11698   
H 0.18933   -0.82689  2.10896   
13
image # 6 Energy = -286.81190
C 1.36168   0.33173   0.18340   
C 0.62344   -0.96219  -0.15630  
C -0.66315  -0.47154  -0.86952  
C -1.08308  0.21618   0.47023   
C -0.53635  1.03435   -0.67817  
N 0.82306   1.44016   -0.45979  
H 2.41981   0.36279   0.40919   
H 1.15738   -1.89841  -0.28878  
H -1.22206  -1.01617  -1.63340  
H -1.98986  0.51809   1.00518   
H -1.19987  1.70251   -1.21437  
C 0.15384   -0.39336  1.12001   
H 0.14713   -0.86883  2.09722   
13
image # 7 Energy = -286.80717
C 1.37654   0.35700   0.13272   
C 0.63084   -0.95275  -0.14822  
C -0.64643  -0.47030  -0.88446  
C -1.09182  0.22852   0.47940   
C -0.52986  1.03502   -0.67646  
N 0.82061   1.42963   -0.45242  
H 2.43694   0.37120   0.39744   
H 1.16012   -1.89242  -0.27544  
H -1.21803  -1.02776  -1.63160  
H -1.98798  0.53960   1.02017   
H -1.20140  1.69188   -1.20565  
C 0.11917   -0.41881  1.12499   
H 0.12081   -0.89715  2.10191   
13
image # 8 Energy = -286.81746
C 1.43251   0.38500   0.00952   
C 0.64316   -0.92788  -0.12865  
C -0.65588  -0.46507  -0.87146  
C -1.10005  0.22683   0.47863   
C -0.51197  1.03296   -0.67327  
N 0.83039   1.43242   -0.44255  
H 2.45174   0.37912   0.40424   
H 1.15772   -1.88184  -0.26411  
H -1.21379  -1.02511  -1.61916  
H -1.99816  0.53839   1.01018   
H -1.19868  1.68470   -1.19386  
C 0.03892   -0.47148  1.14602   
H 0.11110   -0.91607  2.12526   
13
image # 9 Energy = -286.82378
C 1.47584   0.38917   -0.09825  
C 0.65811   -0.90164  -0.11145  
C -0.64783  -0.46056  -0.86754  
C -1.10743  0.22281   0.50029   
C -0.50430  1.02892   -0.67573  
N 0.84323   1.44517   -0.43332  
H 2.46710   0.38845   0.40754   
H 1.15064   -1.86738  -0.25593  
H -1.21592  -1.02231  -1.60978  
H -2.01186  0.53255   0.99612   
H -1.19415  1.68329   -1.18549  
C -0.03361  -0.52330  1.16012   
H 0.10446   -0.92504  2.15230   
13
image # 10 Energy = -286.82759
C 1.51354   0.38988   -0.15023  
C 0.66576   -0.88341  -0.10624  
C -0.62508  -0.45360  -0.88056  
C -1.10256  0.22156   0.52434   
C -0.50120  1.01983   -0.67161  
N 0.85131   1.45073   -0.43508  
H 2.47500   0.40186   0.38280   
H 1.14483   -1.85155  -0.24457  
H -1.21536  -1.02187  -1.59601  
H -2.03350  0.53855   0.99173   
H -1.19246  1.68463   -1.17826  
C -0.08475  -0.57441  1.17326   
H 0.08580   -0.93358  2.16851   
13
image # 11 Energy = -286.82677
C 1.52186   0.38594   -0.15446  
C 0.66613   -0.87323  -0.10236  
C -0.59308  -0.45162  -0.90609  
C -1.10321  0.23672   0.55095   
C -0.50352  1.00907   -0.66312  
N 0.85397   1.45392   -0.44207  
H 2.48372   0.41469   0.35393   
H 1.14575   -1.84413  -0.23496  
H -1.21544  -1.03027  -1.58653  
H -2.03615  0.55243   0.99686   
H -1.19249  1.68302   -1.17140  
C -0.11271  -0.60449  1.16367   
H 0.06340   -0.94448  2.17382   
13
image # 12 Energy = -286.82635
C 1.52437   0.38424   -0.15912  
C 0.67038   -0.87188  -0.09537  
C -0.56520  -0.44276  -0.91758  
C -1.08994  0.24563   0.57398   
C -0.50910  1.00796   -0.64942  
N 0.86759   1.45470   -0.45973  
H 2.50566   0.43740   0.29715   
H 1.14541   -1.83078  -0.22368  
H -1.20384  -1.03161  -1.57008  
H -2.05423  0.56081   0.98746   
H -1.18653  1.68225   -1.15629  
C -0.15832  -0.65815  1.16757   
H 0.02961   -0.95059  2.18475   
13
image # 13 Energy = -286.82493
C 1.51875   0.38726   -0.14458  
C 0.66389   -0.87239  -0.08890  
C -0.54660  -0.44621  -0.93867  
C -1.08414  0.27041   0.58913   
C -0.51122  1.00495   -0.63663  
N 0.85965   1.45129   -0.46237  
H 2.51755   0.44264   0.26699   
H 1.15449   -1.83836  -0.21808  
H -1.19292  -1.04093  -1.57388  
H -2.04884  0.56922   0.99657   
H -1.19007  1.67871   -1.14998  
C -0.16869  -0.65862  1.16143   
H 0.00297   -0.96058  2.18012   
13
image # 14 Energy = -286.82140
C 1.51714   0.39060   -0.14094  
C 0.66076   -0.87472  -0.09733  
C -0.51047  -0.45668  -0.98875  
C -1.07156  0.29520   0.61945   
C -0.52224  0.99871   -0.62703  
N 0.84834   1.44523   -0.45684  
H 2.50542   0.43318   0.28671   
H 1.15327   -1.84137  -0.21708  
H -1.20299  -1.05282  -1.58028  
H -2.04518  0.57374   1.02034   
H -1.19259  1.67400   -1.15699  
C -0.17251  -0.63992  1.15182   
H 0.00652   -0.95753  2.16971   
13
image # 15 Energy = -286.82107
C 1.51312   0.38729   -0.14262  
C 0.66533   -0.87331  -0.10614  
C -0.48050  -0.47276  -1.06712  
C -1.07120  0.31430   0.64527   
C -0.53687  0.97173   -0.63340  
N 0.84405   1.44694   -0.44070  
H 2.49370   0.42238   0.32909   
H 1.14971   -1.84070  -0.22025  
H -1.21741  -1.05624  -1.56374  
H -2.04106  0.58932   1.05601   
H -1.19412  1.66915   -1.16472  
C -0.17594  -0.61518  1.14046   
H 0.02491   -0.95438  2.15357   
13
image # 16 Energy = -286.82577
C 1.50861   0.38841   -0.13412  
C 0.66264   -0.87257  -0.11390  
C -0.43434  -0.46545  -1.11633  
C -1.07655  0.33131   0.66700   
C -0.55741  0.94449   -0.64592  
N 0.84048   1.44525   -0.42828  
H 2.48951   0.41839   0.34660   
H 1.15367   -1.84395  -0.21934  
H -1.23046  -1.07076  -1.55719  
H -2.02917  0.61190   1.09264   
H -1.19401  1.66018   -1.16622  
C -0.18240  -0.59593  1.12710   
H 0.02455   -0.96098  2.13669   
13
image # 17 Energy = -286.83113
C 1.50404   0.40097   -0.10573  
C 0.66420   -0.88342  -0.11939  
C -0.41006  -0.46822  -1.15573  
C -1.06560  0.34028   0.66559   
C -0.57220  0.93901   -0.64503  
N 0.83381   1.43822   -0.42560  
H 2.49027   0.42366   0.32542   
H 1.16034   -1.84352  -0.21062  
H -1.21277  -1.08129  -1.55211  
H -2.02370  0.65281   1.14197   
H -1.19874  1.64844   -1.16990  
C -0.18634  -0.59437  1.13222   
H -0.00586  -0.98019  2.11012   
13
image # 18 Energy = -286.83586
C 1.49797   0.40364   -0.10480  
C 0.65694   -0.87407  -0.12627  
C -0.37497  -0.47697  -1.18791  
C -1.07447  0.35365   0.69771   
C -0.57135  0.91958   -0.64081  
N 0.82278   1.43566   -0.41760  
H 2.50101   0.42857   0.31645   
H 1.16415   -1.84390  -0.20631  
H -1.19988  -1.08982  -1.55322  
H -1.99743  0.67552   1.16827   
H -1.20727  1.64623   -1.17690  
C -0.21179  -0.59068  1.12384   
H -0.02494  -0.99290  2.10060   
13
image # 19 Energy = -286.84019
C 1.49987   0.40680   -0.10399  
C 0.66571   -0.87634  -0.11068  
C -0.35956  -0.47232  -1.20003  
C -1.08411  0.36639   0.70837   
C -0.58910  0.92084   -0.64833  
N 0.82421   1.43838   -0.41923  
H 2.51330   0.44089   0.28022   
H 1.17074   -1.83852  -0.19128  
H -1.17402  -1.09810  -1.54977  
H -1.98406  0.70819   1.19936   
H -1.20599  1.62891   -1.16892  
C -0.22439  -0.59898  1.09986   
H -0.06928  -1.03004  2.09864   
13
image # 20 Energy = -286.84338
C 1.49327   0.40079   -0.10975  
C 0.66541   -0.86651  -0.10796  
C -0.34075  -0.46840  -1.19654  
C -1.08465  0.37153   0.72153   
C -0.57829  0.90062   -0.63689  
N 0.81612   1.45299   -0.42587  
H 2.53234   0.45319   0.24699   
H 1.18085   -1.83496  -0.17766  
H -1.15649  -1.11050  -1.55926  
H -1.96753  0.73446   1.22109   
H -1.21488  1.62951   -1.17385  
C -0.24248  -0.60414  1.11301   
H -0.11694  -1.06150  2.08069   
13
image # 21 Energy = -286.84619
C 1.49399   0.41025   -0.11664  
C 0.67253   -0.86588  -0.08980  
C -0.32882  -0.47180  -1.19946  
C -1.07560  0.37851   0.72633   
C -0.59263  0.90535   -0.63378  
N 0.81727   1.45145   -0.42493  
H 2.54407   0.46403   0.21188   
H 1.18787   -1.82818  -0.16354  
H -1.13556  -1.12070  -1.56423  
H -1.95417  0.76330   1.24520   
H -1.21765  1.61986   -1.17153  
C -0.26105  -0.60855  1.10423   
H -0.16167  -1.09984  2.07277   
13
image # 22 Energy = -286.84764
C 1.50243   0.42239   -0.11830  
C 0.68309   -0.87600  -0.08666  
C -0.32096  -0.46814  -1.20103  
C -1.09095  0.38735   0.74234   
C -0.59046  0.90214   -0.63345  
N 0.81750   1.45352   -0.42966  
H 2.54888   0.47360   0.17837   
H 1.19164   -1.81833  -0.14699  
H -1.11371  -1.12982  -1.56467  
H -1.93035  0.78586   1.26203   
H -1.22343  1.61187   -1.16815  
C -0.27823  -0.61921  1.11358   
H -0.20446  -1.12705  2.05024   
13
image # 23 Energy = -286.84874
C 1.49055   0.43573   -0.12395  
C 0.65488   -0.84407  -0.08852  
C -0.30107  -0.48402  -1.19406  
C -1.09087  0.40697   0.72373   
C -0.58403  0.90618   -0.61758  
N 0.81476   1.44251   -0.43445  
H 2.56894   0.48710   0.14315   
H 1.20588   -1.82401  -0.12535  
H -1.08499  -1.13609  -1.56326  
H -1.92740  0.82354   1.29926   
H -1.22855  1.59845   -1.16100  
C -0.26793  -0.64229  1.09013   
H -0.25633  -1.17109  2.05024   
13
image # 24 Energy = -286.85039
C 1.52380   0.42001   -0.12681  
C 0.67531   -0.85473  -0.06948  
C -0.29270  -0.47599  -1.20306  
C -1.09381  0.41451   0.75163   
C -0.59301  0.89396   -0.62042  
N 0.80091   1.47148   -0.43825  
H 2.56472   0.49517   0.11141   
H 1.20711   -1.80857  -0.11131  
H -1.07112  -1.14814  -1.56715  
H -1.89712  0.83744   1.30645   
H -1.23332  1.59557   -1.16056  
C -0.29853  -0.64759  1.10548   
H -0.29562  -1.19364  2.02143   
13
image # 25 Energy = -286.85165
C 1.51186   0.44101   -0.13405  
C 0.67695   -0.85332  -0.06412  
C -0.28148  -0.47716  -1.19890  
C -1.08519  0.40765   0.75741   
C -0.59209  0.89504   -0.61447  
N 0.80878   1.46108   -0.43971  
H 2.57819   0.50695   0.07551   
H 1.21328   -1.80194  -0.09104  
H -1.04645  -1.15847  -1.56803  
H -1.88116  0.86746   1.33279   
H -1.23899  1.58450   -1.15485  
C -0.31971  -0.64303  1.09385   
H -0.34400  -1.22979  2.00561   
