13   
From optimize.out: Frame 1 / 3, Energy=    -286.8364768384
C        0.0967540000    0.0067490000   -0.0000000000
C       -0.1927760000    0.0366340000   -0.0000000000
C       -0.1066960000    0.1076110000   -0.0000000000
C       -0.0710990000    0.9524440000    0.0000000000
C       -0.0994890000   -0.0433970000   -0.0000000000
N       -0.3375370000    0.0125630000   -0.0000000000
H        0.1438960000    0.0039550000   -0.0000000000
H        0.1487090000    0.0014120000   -0.0000000000
H        0.1494810000    0.0086150000   -0.0000000000
H        0.1394880000   -0.0393370000    0.0000000000
H        0.1418930000    0.0054060000   -0.0000000000
C       -0.1622010000   -0.0530250000    0.0000000000
H        0.1495770000    0.0003690000    0.0000000000
13   
From optimize.out: Frame 2 / 3, Energy=    -286.8364791119
C        0.0967720000    0.0066670000   -0.0000000000
C       -0.1926320000    0.0367300000   -0.0000000000
C       -0.1065780000    0.1076330000   -0.0000000000
C       -0.0711320000    0.9524910000    0.0000000000
C       -0.0996830000   -0.0434390000   -0.0000000000
N       -0.3373830000    0.0126430000   -0.0000000000
H        0.1437710000    0.0039500000   -0.0000000000
H        0.1487200000    0.0014260000   -0.0000000000
H        0.1495240000    0.0085750000   -0.0000000000
H        0.1395060000   -0.0394820000    0.0000000000
H        0.1418080000    0.0054230000   -0.0000000000
C       -0.1623030000   -0.0529820000    0.0000000000
H        0.1496090000    0.0003640000    0.0000000000
