13   
From optimize.out: Frame 1 / 3, Energy=    -286.8364768384
C        1.5759077523    0.3862849912   -0.3525875869
C        0.7980349586   -0.8453617488   -0.0272021465
C       -0.5583040882   -0.6281277579   -0.6147900844
C       -0.8363400503    0.7827306019    0.9489513689
C       -0.5519123186    0.9466883558   -0.5497012374
N        0.8572612321    1.3904137537   -0.6922082380
H        2.6604774503    0.4587931891   -0.2783219033
H        1.2467431312   -1.8337616816   -0.0000151575
H       -1.1139007630   -1.2919700177   -1.2708381960
H       -1.7143076626    1.1622167488    1.4593674073
H       -1.2387551793    1.5311178208   -1.1616733598
C       -0.4355064846   -0.6373006961    0.9168054089
H       -0.6893979780   -1.4217235593    1.6222137245
13   
From optimize.out: Frame 2 / 3, Energy=    -286.8364791119
C        1.5753688618    0.3864604254   -0.3512635400
C        0.7977500410   -0.8454341657   -0.0274690167
C       -0.5587611183   -0.6278704557   -0.6144594320
C       -0.8371867305    0.7822791578    0.9479555255
C       -0.5511177391    0.9466688570   -0.5501359253
N        0.8577133460    1.3905690463   -0.6918828542
H        2.6599324848    0.4588980139   -0.2781463670
H        1.2471799484   -1.8334810164   -0.0014830413
H       -1.1150101395   -1.2923188271   -1.2694579684
H       -1.7143715915    1.1623201842    1.4592893716
H       -1.2376411311    1.5311787474   -1.1622842224
C       -0.4355531979   -0.6373234876    0.9168911052
H       -0.6883030342   -1.4219464796    1.6224463646
