13   
From optimize.out: Frame 2 / 3, Energy=    -286.8249551859
C        1.3118553965    0.3025645483    0.2420680501
C        0.6068016140   -1.0007437408   -0.1830377253
C       -0.6883432701   -0.4654887350   -0.8439833543
C       -1.0780816294    0.1914248105    0.4506992150
C       -0.5189778790    1.0592796455   -0.6927874810
N        0.8291126319    1.4230372465   -0.4714120611
H        2.3483758206    0.2894064774    0.5607696643
H        1.1233254710   -1.9344691093   -0.3753888304
H       -1.2958121827   -0.9367535784   -1.6085309573
H       -2.0520569287    0.3366788924    0.9044507955
H       -1.1651298397    1.7418607690   -1.2337022453
C        0.2167204484   -0.3451412793    1.1120381956
H        0.3622103476   -0.6616559464    2.1388167342
13   
From optimize.out: Frame 1 / 3, Energy=    -286.8249527070
C        1.3428655602    0.2964273084    0.1723266791
C        0.6129184489   -0.9887320630   -0.1692686156
C       -0.6791029773   -0.4542948589   -0.8461286811
C       -1.0885856646    0.1901318291    0.4542919498
C       -0.5206717593    1.0574837757   -0.6799375505
N        0.8301757117    1.4210117147   -0.4423385789
H        2.3527329786    0.3073437517    0.5622925132
H        1.0804672000   -1.9481210974   -0.3695114572
H       -1.2629440842   -0.9509638426   -1.6103977975
H       -2.0758788199    0.3354888764    0.8764142083
H       -1.1635603772    1.7507323668   -1.2084140224
C        0.1637539559   -0.3924894565    1.1171799883
H        0.4078298273   -0.6240183045    2.1434913644
13   
From optimize.out: Frame 18 / 19, Energy=    -286.8249527070
C        1.3784644891    0.2959416782    0.1078373114
C        0.6163565278   -0.9814617583   -0.1617126440
C       -0.6738314253   -0.4548368756   -0.8751252670
C       -1.1001775624    0.1669800906    0.4496738502
C       -0.5263737709    1.0430610705   -0.6733778688
N        0.8405935306    1.4157782059   -0.4573073816
H        2.3434659318    0.3128956686    0.5986257926
H        1.0354085336   -1.9725832523   -0.3152446522
H       -1.2496533314   -0.9529604091   -1.6469183660
H       -2.0973394357    0.3227979241    0.8444596757
H       -1.1760070952    1.7838401159   -1.1242402420
C        0.1409882136   -0.4011230174    1.1193393865
H        0.4681053945   -0.5783294412    2.1339904051
13   
From optimize.out: Frame 16 / 19, Energy=    -286.8249299358
C        1.4030647264    0.2922576212    0.0723960164
C        0.6189992802   -0.9765699579   -0.1586462795
C       -0.6704134777   -0.4550418396   -0.9185676856
C       -1.1063626215    0.1396276711    0.4444633256
C       -0.5337157242    1.0252338826   -0.6720079745
N        0.8540385451    1.4097105907   -0.4848179732
H        2.3191122081    0.3069143006    0.6504126693
H        0.9896791643   -1.9940525070   -0.2584971523
H       -1.2530552305   -0.9441662318   -1.6945411936
H       -2.1094084122    0.2966995409    0.8244906281
H       -1.1876618707    1.8082689328   -1.0405180289
C        0.1428520970   -0.3807679892    1.1189604575
H        0.5328713157   -0.5281140146    2.1168731906
13   
From optimize.out: Frame 12 / 19, Energy=    -286.8222658817
C        1.4253875318    0.2879387066    0.0545447533
C        0.6221321776   -0.9711337976   -0.1551120881
C       -0.6729513669   -0.4541147247   -0.9766872040
C       -1.1118569077    0.1135070175    0.4449122043
C       -0.5421564481    1.0040972584   -0.6737134832
N        0.8757660226    1.4050640647   -0.5145711601
H        2.2933164793    0.2883021702    0.7032418560
H        0.9547524089   -2.0054061071   -0.2057054642
H       -1.2737535751   -0.9273512784   -1.7569882274
H       -2.1182371724    0.2617547136    0.8218095035
H       -1.1981582713    1.8184260528   -0.9691454798
C        0.1519852145   -0.3451224391    1.1232433321
H        0.5937739067   -0.4759616371    2.1041714575
13   
From optimize.out: Frame 10 / 19, Energy=    -286.8174505746
C        1.4501285294    0.2837031139    0.0506250438
C        0.6283930358   -0.9676554107   -0.1523646121
C       -0.6864364457   -0.4546431793   -1.0442837717
C       -1.1194096387    0.0928008335    0.4528130460
C       -0.5527739229    0.9824737753   -0.6798176544
N        0.9091600986    1.4051091983   -0.5389846510
H        2.2716816781    0.2631148558    0.7565304605
H        0.9368151707   -2.0104736725   -0.1651058412
H       -1.3111697978   -0.9105243328   -1.8349655810
H       -2.1266326363    0.2294374663    0.8363828170
H       -1.2117081836    1.8172945543   -0.9166003865
C        0.1620894462   -0.3075649916    1.1343243774
H        0.6498626663   -0.4230722104    2.1014467534
13   
From optimize.out: Frame 8 / 19, Energy=    -286.8102267050
C        1.4800096972    0.2808312099    0.0586876837
C        0.6383373743   -0.9676852485   -0.1505480812
C       -0.7101535923   -0.4578564947   -1.1133457082
C       -1.1301465520    0.0784913769    0.4641635409
C       -0.5657625403    0.9653984555   -0.6907155576
N        0.9516704283    1.4116611480   -0.5558133575
H        2.2574354051    0.2376006135    0.8099871055
H        0.9331871140   -2.0142335322   -0.1366606026
H       -1.3645672144   -0.9011648390   -1.9234958931
H       -2.1367623017    0.2047185434    0.8601281305
H       -1.2301511071    1.8121978816   -0.8828404114
C        0.1737987810   -0.2742744786    1.1512994683
H        0.7031045079   -0.3756846358    2.1091536828
13   
From optimize.out: Frame 5 / 19, Energy=    -286.7774195889
C        1.5146482296    0.2795929334    0.0735507586
C        0.6489303671   -0.9704678559   -0.1496112128
C       -0.7384231145   -0.4637659872   -1.1773741278
C       -1.1441405827    0.0668328302    0.4737293631
C       -0.5778014756    0.9550893692   -0.7037595835
N        0.9955818494    1.4218925489   -0.5660270403
H        2.2493856392    0.2157691589    0.8627181202
H        0.9344738002   -2.0193485526   -0.1158583486
H       -1.4294161226   -0.9016459910   -2.0159062917
H       -2.1509278439    0.1843257184    0.8822796586
H       -1.2491519250    1.8102690162   -0.8592722397
C        0.1886013216   -0.2456794323    1.1712152490
H        0.7582398569   -0.3328637562    2.1243156951
13   
From optimize.out: Frame 3 / 19, Energy=    -286.7271383926
C        1.5353464003    0.2839804966    0.0764510984
C        0.6494892073   -0.9735672468   -0.1551126647
C       -0.7565115866   -0.4527911385   -1.2367225107
C       -1.1528358417    0.0640138448    0.4772971589
C       -0.5785179747    0.9674380022   -0.7218389706
N        1.0334098572    1.4383080977   -0.5629753839
H        2.2179835336    0.1898309805    0.9008795520
H        0.9525890963   -2.0141281009   -0.1068770958
H       -1.4784940584   -0.9410993091   -2.0664796384
H       -2.1538104130    0.1787553186    0.9127702730
H       -1.2602890635    1.8136562217   -0.8534705463
C        0.1914498656   -0.2415234695    1.1884285007
H        0.8001909775   -0.3128736972    2.1476502275
13   
From optimize.out: Frame 1 / 19, Energy=    -286.6473065449
C        1.5213602545    0.2962119853    0.0529413754
C        0.6337169041   -0.9746603487   -0.1683460417
C       -0.7529921542   -0.4122323925   -1.2818635024
C       -1.1471389797    0.0777981349    0.4757566152
C       -0.5650308527    1.0089503786   -0.7436158741
N        1.0540782703    1.4611731319   -0.5432844580
H        2.1562951859    0.1594196080    0.9021267110
H        0.9978788210   -1.9912762600   -0.1150385626
H       -1.4736084766   -1.0273029444   -2.0244506718
H       -2.1285986617    0.2000885697    0.9596614564
H       -1.2589001987    1.8200039592   -0.8793428837
C        0.1681457557   -0.2792114197    1.1964061847
H        0.7947941322   -0.3389624023    2.1690496518
13   
C6H6N->C6H6N atoms 1-13 frame 194 charge +0.000 sz -1.000 sz^2 0.785
C        1.4990999492    0.3077608741    0.0263987909
C        0.6156007119   -0.9756471626   -0.1797403280
C       -0.7479670019   -0.3733986468   -1.3134026587
C       -1.1390074216    0.0923592226    0.4760139785
C       -0.5531504335    1.0482347829   -0.7608493485
N        1.0658514084    1.4799462891   -0.5223495822
H        2.1128004424    0.1380853065    0.8890982713
H        1.0439286240   -1.9707460363   -0.1279076597
H       -1.4458354295   -1.1028739138   -1.9530368928
H       -2.0975473805    0.2236488916    1.0041854579
H       -1.2569333024    1.8290618323   -0.9150713798
C        0.1417736905   -0.3232740650    1.2007558483
H        0.7613861429   -0.3731573745    2.1759055026
13   
C6H6N->C6H6N atoms 1-13 frame 196 charge -0.000 sz -1.000 sz^2 0.756
C        1.4743673663    0.3174215159    0.0000640677
C        0.5971871200   -0.9774622713   -0.1881040428
C       -0.7446876006   -0.3405452598   -1.3362037708
C       -1.1303881510    0.1050670967    0.4792906878
C       -0.5439895424    1.0818065805   -0.7744221025
N        1.0731785533    1.4943364246   -0.5016749522
H        2.0896720926    0.1253702048    0.8688315103
H        1.0885967415   -1.9541224016   -0.1433054201
H       -1.4054033916   -1.1642759194   -1.8668889801
H       -2.0644504399    0.2459841398    1.0450855224
H       -1.2583092193    1.8436340809   -0.9570734805
C        0.1153137337   -0.3696431865    1.2041291087
H        0.7089127373   -0.4075710046    2.1702718520
13   
C6H6N->C6H6N atoms 1-13 frame 200 charge +0.000 sz -1.000 sz^2 0.717
C        1.4486835144    0.3244889669   -0.0249606826
C        0.5795507390   -0.9803820775   -0.1928636566
C       -0.7423645967   -0.3153162974   -1.3502162150
C       -1.1212737877    0.1153918049    0.4855242479
C       -0.5372366529    1.1084353429   -0.7845595516
N        1.0763508285    1.5041066049   -0.4817023850
H        2.0847585073    0.1213162857    0.8416677122
H        1.1298649995   -1.9399130065   -0.1608792703
H       -1.3561426606   -1.2101460414   -1.7724241810
H       -2.0315635287    0.2670068666    1.0801284689
H       -1.2627551858    1.8633010523   -1.0033641600
C        0.0889214000   -0.4176093872    1.2066855488
H        0.6432064238   -0.4406801143    2.1569641243
13   
C6H6N->C6H6N atoms 1-13 frame 202 charge +0.000 sz -1.000 sz^2 0.714
C        1.4229158118    0.3288097530   -0.0481473399
C        0.5632952178   -0.9843785461   -0.1941769031
C       -0.7400725696   -0.2976145821   -1.3564053466
C       -1.1116495879    0.1233628983    0.4942464439
C       -0.5325648155    1.1285864072   -0.7919487996
N        1.0757263621    1.5099189272   -0.4622564177
H        2.0940859095    0.1254553290    0.8068365772
H        1.1664944674   -1.9255265167   -0.1808710548
H       -1.3015504931   -1.2415129850   -1.6747887930
H       -2.0009256456    0.2874149645    1.1083299627
H       -1.2677532593    1.8854578141   -1.0522947272
C        0.0618658031   -0.4673274144    1.2080254891
H        0.5701327995   -0.4726460491    2.1434509092
13   
C6H6N->C6H6N atoms 1-13 frame 204 charge -0.000 sz -1.000 sz^2 0.720
C        1.3975164021    0.3305262537   -0.0693373157
C        0.5488210643   -0.9891406149   -0.1925320956
C       -0.7368545146   -0.2865683385   -1.3558284805
C       -1.1014863170    0.1292771024    0.5048707222
C       -0.5297886369    1.1433919858   -0.7973373670
N        1.0713969011    1.5128070299   -0.4428912118
H        2.1140242776    0.1374698016    0.7628910500
H        1.1977503945   -1.9083937352   -0.2040293899
H       -1.2446451602   -1.2604549948   -1.5777900221
H       -1.9743656264    0.3083260998    1.1291756219
H       -1.2698100346    1.9068195981   -1.1025531980
C        0.0329864565   -0.5194672974    1.2072034251
H        0.4944547935   -0.5045928903    2.1381582613
13   
C6H6N->C6H6N atoms 1-13 frame 206 charge +0.000 sz -1.000 sz^2 0.736
C        1.3731914589    0.3299292102   -0.0882456374
C        0.5367987954   -0.9940580024   -0.1883924527
C       -0.7316539377   -0.2811966737   -1.3491501455
C       -1.0907491943    0.1335175763    0.5168621468
C       -0.5287725037    1.1539224815   -0.8012366122
N        1.0632592141    1.5139097650   -0.4232540300
H        2.1417099166    0.1572061746    0.7085839757
H        1.2229855298   -1.8865354662   -0.2310271014
H       -1.1890093708   -1.2697052142   -1.4852630622
H       -1.9537146448    0.3309422601    1.1421120495
H       -1.2653621479    1.9241305573   -1.1523751822
C        0.0014916027   -0.5743377238    1.2031550245
H        0.4198252818   -0.5377249447    2.1482310271
13   
C6H6N->C6H6N atoms 1-13 frame 209 charge -0.000 sz -1.000 sz^2 0.746
C        1.3512560079    0.3275668409   -0.1042178067
C        0.5283318620   -0.9981872258   -0.1819375005
C       -0.7233539193   -0.2804835563   -1.3366028508
C       -1.0793947002    0.1366339930    0.5299330815
C       -0.5292292191    1.1610545502   -0.8037853705
N        1.0513181644    1.5144555372   -0.4032410909
H        2.1746879073    0.1842274759    0.6439849920
H        1.2418730453   -1.8590790593   -0.2616673467
H       -1.1393119938   -1.2731341900   -1.4012530179
H       -1.9403771737    0.3563637623    1.1468878927
H       -1.2516384973    1.9346266528   -1.1991232209
C       -0.0323591441   -0.6311702700    1.1955691795
H        0.3481976605   -0.5728745107    2.1754530592
13   
C6H6N->C6H6N atoms 1-13 frame 211 charge -0.000 sz -1.000 sz^2 0.740
C        1.3332912957    0.3243212187   -0.1164115614
C        0.5246344349   -1.0003805599   -0.1728796268
C       -0.7109461870   -0.2834086018   -1.3180599946
C       -1.0673868557    0.1394474907    0.5442297529
C       -0.5306372672    1.1655116791   -0.8048202973
N        1.0357813284    1.5156487274   -0.3828936533
H        2.2109716544    0.2176018404    0.5707358840
H        1.2550234466   -1.8266287899   -0.2946257024
H       -1.1002970969   -1.2754088577   -1.3285179277
H       -1.9345289970    0.3855282649    1.1439421305
H       -1.2275738339    1.9367756880   -1.2401341418
C       -0.0674274052   -0.6883387051    1.1854746935
H        0.2790954830   -0.6106693948    2.2139604443
13   
C6H6N->C6H6N atoms 1-13 frame 213 charge +0.000 sz -1.000 sz^2 0.724
C        1.3206112962    0.3212846396   -0.1240858438
C        0.5266188931   -0.9995105940   -0.1605190271
C       -0.6936668067   -0.2892397996   -1.2931344462
C       -1.0548174861    0.1429462350    0.5602295671
C       -0.5323649006    1.1677461083   -0.8041098765
N        1.0168323921    1.5184178213   -0.3623142259
H        2.2492887888    0.2560191552    0.4913084527
H        1.2641349585   -1.7912480000   -0.3279317984
H       -1.0755194345   -1.2802919760   -1.2678025699
H       -1.9349529775    0.4190626703    1.1340652187
H       -1.1941819071    1.9307036020   -1.2739495483
C       -0.1025179298   -0.7440989329    1.1748729870
H        0.2105351134   -0.6517909291    2.2533711106
13   
C6H6N->C6H6N atoms 1-13 frame 215 charge -0.000 sz -1.000 sz^2 0.697
C        1.3141038562    0.3195843411   -0.1267179484
C        0.5347368208   -0.9946492881   -0.1440207961
C       -0.6710859758   -0.2978359514   -1.2613657745
C       -1.0420564082    0.1480379255    0.5783986444
C       -0.5338166196    1.1677309124   -0.8015534266
N        0.9944715463    1.5231997999   -0.3418192378
H        2.2888954270    0.2977765910    0.4084155521
H        1.2715669427   -1.7562370665   -0.3594674848
H       -1.0669618952   -1.2889445896   -1.2188367965
H       -1.9395244917    0.4569101340    1.1178973893
H       -1.1544993245    1.9181143354   -1.3008291925
C       -0.1368276200   -0.7968939894    1.1659849911
H        0.1409977421   -0.6967931543    2.2839140803
13   
From optimize.out: Frame 2 / 26, Energy=    -286.7083720091
C        1.3243589837    0.3202493561   -0.1233085509
C        0.5518369978   -0.9823044856   -0.1250796799
C       -0.6451991738   -0.3095251827   -1.2211129097
C       -1.0357008838    0.1568738839    0.5965961380
C       -0.5349722558    1.1607884876   -0.7924731191
N        0.9681082871    1.5248416364   -0.3241677049
H        2.3376209629    0.3365771450    0.3300734562
H        1.2817943682   -1.7258088677   -0.3868167762
H       -1.0769301067   -1.2979631902   -1.1796495783
H       -1.9521497528    0.4981505619    1.0925748143
H       -1.1167081566    1.8991013483   -1.3161506945
C       -0.1720551805   -0.8384441367    1.1571888764
H        0.0699959104   -0.7425365566    2.2923257286
13   
From optimize.out: Frame 4 / 26, Energy=    -286.7632234201
C        1.3748346849    0.3250209939   -0.1143650490
C        0.5777229372   -0.9577508786   -0.1201768038
C       -0.6275969277   -0.3224380398   -1.1815223891
C       -1.0543631676    0.1740669389    0.5974117922
C       -0.5328782257    1.1316605839   -0.7599980444
N        0.9394872247    1.5047954099   -0.3224484996
H        2.4004435113    0.3505487858    0.3005297612
H        1.2937833387   -1.7144224717   -0.4001442252
H       -1.1012592432   -1.2972539827   -1.1523395889
H       -1.9839316549    0.5327120814    1.0526712783
H       -1.1041725051    1.8702121364   -1.2899263297
C       -0.2046050956   -0.8320600397    1.1372045010
H        0.0225351231   -0.7650915177    2.2531035970
13   
From optimize.out: Frame 6 / 26, Energy=    -286.7928728770
C        1.4323255619    0.3358842440   -0.1071176899
C        0.6018615095   -0.9299727569   -0.1256927999
C       -0.6043981299   -0.3415502513   -1.1485362124
C       -1.0786769028    0.1998448088    0.5813682675
C       -0.5239539656    1.0902179985   -0.7103505118
N        0.9053526496    1.4752678743   -0.3314093482
H        2.4546049566    0.3612537936    0.2975451673
H        1.2909569494   -1.7220896735   -0.4012426709
H       -1.1260773231   -1.2904775908   -1.1368847342
H       -2.0174229804    0.5655959561    1.0016739721
H       -1.1041318912    1.8354734662   -1.2323562916
C       -0.2300231996   -0.7987721625    1.1119971305
H       -0.0004172345   -0.7806757064    2.2010057215
13   
From optimize.out: Frame 8 / 26, Energy=    -286.8101099511
C        1.4790341713    0.3542716159   -0.1063751550
C        0.6271952271   -0.9028761188   -0.1251108980
C       -0.5601689796   -0.3698942262   -1.1187996430
C       -1.0950399730    0.2295456641    0.5660131697
C       -0.5146928172    1.0529920041   -0.6604898875
N        0.8765776696    1.4556360957   -0.3457018411
H        2.5015972110    0.3868962277    0.2798146084
H        1.2685899112   -1.7437420511   -0.3854333928
H       -1.1569080100   -1.2719360134   -1.1435248569
H       -2.0467689204    0.5936713042    0.9515074554
H       -1.1085885637    1.7983126155   -1.1753152772
C       -0.2488317557   -0.7670695892    1.0954314564
H       -0.0219951704   -0.8158075286    2.1679842616
13   
From optimize.out: Frame 10 / 26, Energy=    -286.8228651580
C        1.5142511187    0.3753065818   -0.1128672200
C        0.6539909497   -0.8802641819   -0.1146392533
C       -0.5017537038   -0.3989625917   -1.0975745047
C       -1.1047399940    0.2562699164    0.5685755074
C       -0.5121397089    1.0239178726   -0.6268115659
N        0.8634306038    1.4485794279   -0.3672717437
H        2.5426293069    0.4168666218    0.2460300739
H        1.2375925227   -1.7730810628   -0.3438181225
H       -1.1894082566   -1.2282215968   -1.1891147857
H       -2.0697093061    0.6065308421    0.9311308382
H       -1.1239315048    1.7593782837   -1.1406405645
C       -0.2606897782   -0.7389780006    1.0929438496
H       -0.0495222493   -0.8673421123    2.1540574912
13   
From optimize.out: Frame 12 / 26, Energy=    -286.8348362135
C        1.5357782259    0.3929813306   -0.1227932295
C        0.6748752826   -0.8642674677   -0.1021699007
C       -0.4417470281   -0.4237323716   -1.0938522511
C       -1.1083691051    0.2828800323    0.5926886507
C       -0.5160164275    0.9966832840   -0.6095095806
N        0.8561993780    1.4461802459   -0.3908884920
H        2.5715228610    0.4433172701    0.2073562182
H        1.2075640266   -1.7986353264   -0.2895984603
H       -1.1996947771   -1.1780798183   -1.2634175834
H       -2.0773799030    0.6209000295    0.9553593417
H       -1.1461017442    1.7187828909   -1.1238357032
C       -0.2717196968   -0.7126238871    1.0965050540
H       -0.0849110923   -0.9243862124    2.1441559362
13   
From optimize.out: Frame 15 / 26, Energy=    -286.8469086510
C        1.5483129970    0.4064175220   -0.1313370944
C        0.6880948000   -0.8526907202   -0.0939559390
C       -0.3870722868   -0.4450901274   -1.1087814166
C       -1.1101069913    0.3121485259    0.6291813801
C       -0.5236147810    0.9668467823   -0.5992542509
N        0.8489406982    1.4425177133   -0.4121451432
H        2.5896039608    0.4645911152    0.1755956497
H        1.1796213835   -1.8170047042   -0.2377337010
H       -1.1841979620   -1.1398123865   -1.3465469375
H       -2.0719201191    0.6468061820    1.0120811699
H       -1.1697639830    1.6778122724   -1.1120060890
C       -0.2858162197   -0.6847372284    1.0981800800
H       -0.1220814966   -0.9778049465    2.1267222919
13   
From optimize.out: Frame 17 / 26, Energy=    -286.8504925930
C        1.5528440185    0.4172865870   -0.1362886018
C        0.6960636942   -0.8459179831   -0.0862762947
C       -0.3416627732   -0.4630885181   -1.1313904768
C       -1.1098135616    0.3423548910    0.6704570881
C       -0.5339934296    0.9375985582   -0.5957977969
N        0.8411583178    1.4400699499   -0.4297478315
H        2.5991373243    0.4818769552    0.1494823418
H        1.1595266019   -1.8293794504   -0.1870483627
H       -1.1594727514   -1.1086811123   -1.4321601163
H       -2.0564323885    0.6795544139    1.0845202144
H       -1.1922382635    1.6387984286   -1.1090756909
C       -0.2985541067   -0.6583568654    1.1000304319
H       -0.1565626821   -1.0321158543    2.1032950955
13   
From optimize.out: Frame 21 / 26, Energy=    -286.8515232469
C        1.5481911155    0.4265581981   -0.1395719948
C        0.6985574464   -0.8444691341   -0.0760114384
C       -0.3099883015   -0.4761890990   -1.1515545282
C       -1.1032354163    0.3726703438    0.7106182437
C       -0.5478934800    0.9146038092   -0.5982163862
N        0.8324964115    1.4425162494   -0.4426825872
H        2.6014435245    0.4944359251    0.1191429587
H        1.1556314359   -1.8339135344   -0.1349784157
H       -1.1304608413   -1.0873240148   -1.5145200136
H       -2.0273334434    0.7180552048    1.1629409844
H       -1.2129431547    1.6060494524   -1.1172048335
C       -0.3048391300   -0.6388865421    1.1042838773
H       -0.1996261667   -1.0941068582    2.0777541336
13   
From optimize.out: Frame 23 / 26, Energy=    -286.8516203310
C        1.5363059989    0.4337676407   -0.1432721079
C        0.6939317716   -0.8464285869   -0.0649202254
C       -0.2919365267   -0.4836388132   -1.1665942176
C       -1.0903039030    0.4001553040    0.7444501695
C       -0.5654411853    0.9011154065   -0.6012391924
N        0.8236718830    1.4490684356   -0.4511637994
H        2.5978948482    0.5010062301    0.0825709860
H        1.1671579938   -1.8287444953   -0.0889156480
H       -1.0918263799   -1.0887071988   -1.5836297010
H       -1.9817500313    0.7638157475    1.2425149110
H       -1.2310294415    1.5847279398   -1.1291616839
C       -0.3053210228   -0.6277512127    1.1093192771
H       -0.2613540050   -1.1583863977    2.0500412320
13   
From optimize.out: Frame 25 / 26, Energy=    -286.8516452122
C        1.5208591553    0.4381820317   -0.1447614588
C        0.6821391126   -0.8501997637   -0.0573951669
C       -0.2867884290   -0.4848539210   -1.1783227519
C       -1.0780037684    0.4165741390    0.7663185018
C       -0.5856999470    0.8958390518   -0.6046597569
N        0.8145227159    1.4559913255   -0.4539465853
H        2.5889765666    0.5031688111    0.0539526704
H        1.1902790075   -1.8141476297   -0.0694723566
H       -1.0433269486   -1.1231879113   -1.6257460106
H       -1.9156766412    0.8227380749    1.3197906906
H       -1.2443906556    1.5783776304   -1.1401690166
C       -0.3065888615   -0.6282041573    1.1106438065
H       -0.3363013065   -1.2102776814    2.0237674343
13   
From optimize.out: Frame 1 / 2, Energy=    -286.8516502831
C        1.5112798226    0.4411874797   -0.1333489374
C        0.6763030072   -0.8531720431   -0.0651134598
C       -0.2806988120   -0.4770748989   -1.1996092507
C       -1.0849685920    0.4078340412    0.7580059451
C       -0.5929735257    0.8947503755   -0.6140878017
N        0.8084819660    1.4610741319   -0.4398073906
H        2.5777348701    0.5068071411    0.0758162693
H        1.2123103143   -1.8019708848   -0.0914357383
H       -1.0445361797   -1.1594329026   -1.5688383679
H       -1.8796206543    0.8694122942    1.3338757905
H       -1.2396863957    1.5838799695   -1.1550399084
C       -0.3197753656   -0.6435755800    1.0936728013
H       -0.3438504550   -1.2297191237    2.0059100486
