13   
From optimize.out: Frame 18 / 19, Energy=    -286.8249527070
C        1.3116773640    0.3021187270    0.2418766374
C        0.6063531285   -1.0013814904   -0.1826491112
C       -0.6883734870   -0.4653182002   -0.8441101649
C       -1.0783348807    0.1911144244    0.4506308061
C       -0.5190601939    1.0594221419   -0.6922625839
N        0.8285955267    1.4230484224   -0.4701668594
H        2.3487411746    0.2882882274    0.5586868321
H        1.1246429836   -1.9340476491   -0.3756521238
H       -1.2953207028   -0.9361550870   -1.6091301402
H       -2.0522388892    0.3363185857    0.9045795284
H       -1.1647864011    1.7417840696   -1.2338818909
C        0.2166845206   -0.3454429348    1.1122562639
H        0.3614198570   -0.6597492366    2.1398228063
13   
From optimize.out: Frame 17 / 19, Energy=    -286.8249437214
C        1.3111074947    0.3017342810    0.2421717354
C        0.6062713016   -1.0023053193   -0.1839036175
C       -0.6894009808   -0.4661754061   -0.8451631594
C       -1.0777413046    0.1919767805    0.4505744725
C       -0.5191792418    1.0589981909   -0.6934282223
N        0.8287373724    1.4223999126   -0.4721804835
H        2.3469105144    0.2882331515    0.5627509269
H        1.1279133349   -1.9335276752   -0.3749392502
H       -1.2973456978   -0.9361722928   -1.6105632048
H       -2.0508982042    0.3382949348    0.9059009597
H       -1.1658069884    1.7427239547   -1.2324409324
C        0.2170417173   -0.3473852081    1.1113580937
H        0.3623906824   -0.6587953044    2.1398626818
13   
From optimize.out: Frame 16 / 19, Energy=    -286.8249299358
C        1.3143957903    0.3025687797    0.2395298181
C        0.6044618797   -0.9993589042   -0.1818976799
C       -0.6877762972   -0.4651877836   -0.8422875603
C       -1.0781672712    0.1908891763    0.4508370610
C       -0.5186150138    1.0595893858   -0.6929313519
N        0.8305088845    1.4239254830   -0.4716238028
H        2.3511719836    0.2866180798    0.5569090453
H        1.1256689710   -1.9302065956   -0.3756275592
H       -1.2952621410   -0.9372517367   -1.6070314153
H       -2.0519985280    0.3349329682    0.9052697001
H       -1.1657180659    1.7409979374   -1.2344376812
C        0.2161329185   -0.3435990439    1.1133650256
H        0.3551968896   -0.6639177461    2.1399264006
13   
From optimize.out: Frame 15 / 19, Energy=    -286.8248504002
C        1.3091213902    0.3005657080    0.2476508190
C        0.6086531679   -1.0006581718   -0.1823849467
C       -0.6881210370   -0.4628407971   -0.8392249980
C       -1.0774995149    0.1944419273    0.4532719384
C       -0.5176895105    1.0606811726   -0.6930317831
N        0.8265454589    1.4253739196   -0.4634080635
H        2.3501481310    0.2904694021    0.5520680947
H        1.1297359812   -1.9282691428   -0.3906238362
H       -1.2970066391   -0.9381338385   -1.5990716631
H       -2.0498019748    0.3420235162    0.9093153048
H       -1.1600308254    1.7327054016   -1.2510541169
C        0.2141573215   -0.3493711845    1.1146579496
H        0.3517880511   -0.6669879128    2.1418353012
13   
From optimize.out: Frame 14 / 19, Energy=    -286.8245969484
C        1.3072419103    0.3009363408    0.2521058572
C        0.6095008408   -0.9964212801   -0.1817614598
C       -0.6869781812   -0.4607942145   -0.8327775291
C       -1.0756469548    0.2003920491    0.4564528192
C       -0.5167682049    1.0626401085   -0.6940239265
N        0.8270773089    1.4280495678   -0.4554332767
H        2.3504435815    0.2943148255    0.5492154442
H        1.1235104092   -1.9250216315   -0.4033048377
H       -1.2947651396   -0.9436147363   -1.5881835168
H       -2.0487886147    0.3433872744    0.9120257208
H       -1.1562651338    1.7233966057   -1.2681484945
C        0.2143474759   -0.3478685345    1.1153371895
H        0.3470907022   -0.6793963750    2.1384960101
13   
From optimize.out: Frame 13 / 19, Energy=    -286.8239136359
C        1.3116890012    0.2950274716    0.2325811800
C        0.6101101540   -0.9957772101   -0.1791715618
C       -0.6834735468   -0.4556665763   -0.8322222856
C       -1.0775668840    0.2019202689    0.4560756285
C       -0.5175425984    1.0649323362   -0.6882127793
N        0.8242211297    1.4246381534   -0.4410327232
H        2.3483943057    0.2993119088    0.5506561181
H        1.1083729773   -1.9328414575   -0.4049920729
H       -1.2798267093   -0.9456743385   -1.5899780087
H       -2.0556829482    0.3392869157    0.9021350905
H       -1.1555517719    1.7270613584   -1.2618187235
C        0.1961039694   -0.3695673496    1.1130168731
H        0.3707529213   -0.6526514810    2.1429632647
13   
From optimize.out: Frame 12 / 19, Energy=    -286.8222658817
C        1.3273952664    0.2954492517    0.1998017988
C        0.6116353557   -0.9925260866   -0.1728257330
C       -0.6807154836   -0.4535898350   -0.8367422768
C       -1.0830035158    0.1983710102    0.4551922354
C       -0.5189809748    1.0630367682   -0.6827158607
N        0.8253763822    1.4221182709   -0.4380556302
H        2.3528507776    0.3049494595    0.5516689945
H        1.0956718218   -1.9402985482   -0.3889417895
H       -1.2684152568   -0.9486688068   -1.5978807941
H       -2.0661656969    0.3386065257    0.8888840775
H       -1.1590264817    1.7381215636   -1.2387238388
C        0.1753518399   -0.3869992296    1.1149995745
H        0.3880259659   -0.6385703436    2.1453392423
13   
From optimize.out: Frame 11 / 19, Energy=    -286.8199501799
C        1.3464496025    0.2975402715    0.1648804919
C        0.6132384983   -0.9875679915   -0.1667230969
C       -0.6785017440   -0.4532996753   -0.8446934963
C       -1.0898501435    0.1914040739    0.4545378776
C       -0.5205951275    1.0583063657   -0.6783708221
N        0.8299268660    1.4207007433   -0.4401169643
H        2.3570368248    0.3092696588    0.5571543422
H        1.0808366216   -1.9477289794   -0.3677627651
H       -1.2600975853   -0.9521668738   -1.6091696002
H       -2.0782475021    0.3367402883    0.8744573671
H       -1.1636281344    1.7515624762   -1.2084218398
C        0.1569267203   -0.3984277372    1.1183732451
H        0.4065051032   -0.6263326205    2.1458552608
13   
From optimize.out: Frame 10 / 19, Energy=    -286.8174505746
C        1.3636653598    0.2977562426    0.1333562597
C        0.6147122714   -0.9837395352   -0.1631097606
C       -0.6765238673   -0.4540018702   -0.8559298476
C       -1.0960635856    0.1816200240    0.4532898025
C       -0.5226919146    1.0518799547   -0.6750054089
N        0.8349897076    1.4191003266   -0.4444235308
H        2.3554383494    0.3119855430    0.5710343228
H        1.0621513374   -1.9577784833   -0.3457324936
H       -1.2530818265   -0.9545586536   -1.6243861837
H       -2.0892672424    0.3327398023    0.8597146480
H       -1.1689662205    1.7664455726   -1.1724552068
C        0.1437862490   -0.4054418328    1.1202606302
H        0.4318513825   -0.6060070908    2.1433867690
13   
From optimize.out: Frame 9 / 19, Energy=    -286.8145446746
C        1.3784643138    0.2961908050    0.1062348445
C        0.6163055720   -0.9815712675   -0.1616565656
C       -0.6742002260   -0.4551070881   -0.8715371372
C       -1.1007041841    0.1687265200    0.4504521681
C       -0.5257412571    1.0440146744   -0.6727794145
N        0.8398105149    1.4163011671   -0.4536973236
H        2.3463431018    0.3141084457    0.5945561940
H        1.0382219657   -1.9717444240   -0.3194353970
H       -1.2475241971   -0.9546526097   -1.6440997332
H       -2.0979980839    0.3258534715    0.8445091283
H       -1.1755029693    1.7833446760   -1.1285389728
C        0.1377288416   -0.4061178118    1.1198507913
H        0.4647966075   -0.5793465586    2.1361414176
13   
From optimize.out: Frame 8 / 19, Energy=    -286.8102267050
C        1.3925837800    0.2942072557    0.0836741556
C        0.6179517229   -0.9792612848   -0.1603909911
C       -0.6712087547   -0.4556107744   -0.8938815579
C       -1.1040433084    0.1527715032    0.4461303471
C       -0.5299861811    1.0345208867   -0.6718916036
N        0.8460076895    1.4125633193   -0.4700354652
H        2.3316852517    0.3136622275    0.6254515130
H        1.0095832102   -1.9867931298   -0.2856487466
H       -1.2466208896   -0.9512481335   -1.6687680223
H       -2.1049699154    0.3128932526    0.8298971497
H       -1.1828256639    1.8004833069   -1.0776921169
C        0.1387209450   -0.3963992293    1.1183963463
H        0.5031221139   -0.5517892000    2.1247589920
13   
From optimize.out: Frame 7 / 19, Energy=    -286.8033831382
C        1.4067679282    0.2917901365    0.0662369197
C        0.6193020053   -0.9758114783   -0.1581989563
C       -0.6689318523   -0.4549736425   -0.9242001949
C       -1.1070398471    0.1348916652    0.4425066708
C       -0.5349319329    1.0229155085   -0.6716887521
N        0.8552162726    1.4085237941   -0.4899498832
H        2.3148372613    0.3069826910    0.6589535090
H        0.9808071380   -1.9984253773   -0.2482292299
H       -1.2524742676   -0.9431403603   -1.7001496196
H       -2.1111900700    0.2924414646    0.8194174587
H       -1.1896636326    1.8135464007   -1.0257224483
C        0.1437966617   -0.3773991411    1.1180461704
H        0.5435043353   -0.5213416611    2.1129783558
13   
From optimize.out: Frame 6 / 19, Energy=    -286.7928827523
C        1.4212617379    0.2887994410    0.0542596938
C        0.6209369856   -0.9717428382   -0.1555469723
C       -0.6698703501   -0.4539995243   -0.9635340886
C       -1.1105182804    0.1168302375    0.4425602595
C       -0.5403112799    1.0084335134   -0.6724245822
N        0.8690513753    1.4049604397   -0.5104229321
H        2.2971833170    0.2936757458    0.6939362246
H        0.9565701945   -2.0053685038   -0.2119790549
H       -1.2660880614   -0.9309275018   -1.7417540783
H       -2.1170061694    0.2675474242    0.8173165690
H       -1.1959709471    1.8200156736   -0.9771165070
C        0.1503098655   -0.3523148823    1.1207204224
H        0.5844516125   -0.4859092248    2.1039850461
13   
From optimize.out: Frame 5 / 19, Energy=    -286.7774195889
C        1.4373230929    0.2855074198    0.0486924094
C        0.6243099757   -0.9683135824   -0.1532938470
C       -0.6767593577   -0.4537222775   -1.0114597175
C       -1.1151100582    0.1004656305    0.4475485534
C       -0.5469700506    0.9918271391   -0.6754527219
N        0.8901749171    1.4033709158   -0.5296473910
H        2.2799177701    0.2755820191    0.7314849596
H        0.9403493674   -2.0089299016   -0.1801883906
H       -1.2891038320   -0.9170645562   -1.7952153975
H       -2.1225833995    0.2423893246    0.8256980110
H       -1.2038312700    1.8199460216   -0.9352601128
C        0.1571794084   -0.3242819814    1.1273809035
H        0.6251034363   -0.4467761716    2.0997127414
13   
From optimize.out: Frame 4 / 19, Energy=    -286.7557894188
C        1.4572497664    0.2823661550    0.0502577908
C        0.6304966875   -0.9666332789   -0.1517203319
C       -0.6911392696   -0.4547795113   -1.0652919106
C       -1.1216072979    0.0869785443    0.4559651868
C       -0.5561292306    0.9756032545   -0.6818906283
N        0.9199585728    1.4052498757   -0.5460024397
H        2.2652082761    0.2550282102    0.7723634722
H        0.9329136562   -2.0113014961   -0.1540396286
H       -1.3227067269   -0.9048434946   -1.8588319878
H       -2.1288116378    0.2198874874    0.8424123037
H       -1.2159571518    1.8157143924   -0.9022054772
C        0.1648385816   -0.2961910939    1.1379304726
H        0.6656857740   -0.4070790447    2.1010531779
13   
From optimize.out: Frame 3 / 19, Energy=    -286.7271383926
C        1.4822472284    0.2800893380    0.0584792605
C        0.6391666893   -0.9671717195   -0.1504272324
C       -0.7119731889   -0.4576447601   -1.1213623612
C       -1.1306360230    0.0763764602    0.4655548932
C       -0.5672458514    0.9623291694   -0.6913436667
N        0.9561493145    1.4113870258   -0.5585051157
H        2.2546877654    0.2343711906    0.8158020671
H        0.9321736517   -2.0142155977   -0.1328765244
H       -1.3678238159   -0.8980844760   -1.9315397985
H       -2.1370318567    0.2010525596    0.8629931647
H       -1.2320463658    1.8107872526   -0.8774793085
C        0.1743902899   -0.2698872312    1.1522325805
H        0.7079421625   -0.3693892117    2.1084720415
13   
From optimize.out: Frame 2 / 19, Energy=    -286.6905882509
C        1.5124014129    0.2797742682    0.0724691610
C        0.6495560100   -0.9700552121   -0.1490030877
C       -0.7372077959   -0.4629816749   -1.1766970923
C       -1.1429059887    0.0682076448    0.4748690668
C       -0.5787321893    0.9541708422   -0.7035518629
N        0.9945340726    1.4224496897   -0.5667804119
H        2.2494372448    0.2153553387    0.8603908458
H        0.9355096312   -2.0187512157   -0.1154576621
H       -1.4253608207   -0.9001300526   -2.0131713461
H       -2.1489782125    0.1861369818    0.8835080873
H       -1.2497823328    1.8088493205   -0.8605238840
C        0.1870040050   -0.2467466656    1.1709230725
H        0.7545249634   -0.3362792649    2.1230251135
13   
From optimize.out: Frame 1 / 19, Energy=    -286.6473065449
C        1.5461430030    0.2790680493    0.0884111949
C        0.6566085985   -0.9738469354   -0.1499282345
C       -0.7631059301   -0.4701702528   -1.2271925198
C       -1.1577689698    0.0562553603    0.4790636638
C       -0.5856557054    0.9502141778   -0.7147475978
N        1.0312839811    1.4304019459   -0.5711480514
H        2.2446195376    0.2003682350    0.9071612258
H        0.9351789543   -2.0245709764   -0.1019298083
H       -1.4887999533   -0.9068780790   -2.0935704566
H       -2.1660096548    0.1666585535    0.8970956525
H       -1.2632480649    1.8119281451   -0.8413593256
C        0.2033096381   -0.2231981565    1.1881259467
H        0.8074445657   -0.2962300670    2.1400183102
13   
C6H6N->C6H6N atoms 1-13 frame 193 charge +0.000 sz -1.000 sz^2 0.798
C        1.5461430030    0.2790680493    0.0884111949
C        0.6566085985   -0.9738469354   -0.1499282345
C       -0.7631059301   -0.4701702528   -1.2271925198
C       -1.1577689698    0.0562553603    0.4790636638
C       -0.5856557054    0.9502141778   -0.7147475978
N        1.0312839811    1.4304019459   -0.5711480514
H        2.2446195376    0.2003682350    0.9071612258
H        0.9351789543   -2.0245709764   -0.1019298083
H       -1.4887999533   -0.9068780790   -2.0935704566
H       -2.1660096548    0.1666585535    0.8970956525
H       -1.2632480649    1.8119281451   -0.8413593256
C        0.2033096381   -0.2231981565    1.1881259467
H        0.8074445657   -0.2962300670    2.1400183102
13   
C6H6N->C6H6N atoms 1-13 frame 194 charge +0.000 sz -1.000 sz^2 0.785
C        1.5385546915    0.2852732959    0.0760801825
C        0.6490025816   -0.9740846164   -0.1567785870
C       -0.7588705876   -0.4492493195   -1.2484753793
C       -1.1540631243    0.0639986607    0.4773631701
C       -0.5775502864    0.9714932921   -0.7258782421
N        1.0405262387    1.4420911123   -0.5614932015
H        2.2085572148    0.1839251083    0.9081709812
H        0.9572530340   -2.0121152811   -0.1057317561
H       -1.4878334733   -0.9521297249   -2.0748273810
H       -2.1537933470    0.1785227162    0.9191508615
H       -1.2620451384    1.8147292531   -0.8527134475
C        0.1911103887   -0.2422582743    1.1916193207
H        0.8091518078   -0.3101962224    2.1535134784
13   
C6H6N->C6H6N atoms 1-13 frame 195 charge -0.000 sz -1.000 sz^2 0.770
C        1.5298332893    0.2914585163    0.0635160534
C        0.6408973120   -0.9743364733   -0.1634621888
C       -0.7551735774   -0.4283891217   -1.2682590972
C       -1.1503109555    0.0717014746    0.4760416368
C       -0.5701201452    0.9926220515   -0.7362642624
N        1.0487788692    1.4532281401   -0.5515169284
H        2.1762745523    0.1690529681    0.9065343253
H        0.9795945243   -1.9999914913   -0.1103437482
H       -1.4828367747   -0.9954519148   -2.0508567921
H       -2.1406196892    0.1904191503    0.9415039264
H       -1.2603014720    1.8172764910   -0.8659612720
C        0.1785826401   -0.2621136001    1.1945688500
H        0.8054014269   -0.3254761906    2.1644994971
13   
C6H6N->C6H6N atoms 1-13 frame 196 charge -0.000 sz -1.000 sz^2 0.756
C        1.5200453533    0.2975350614    0.0507028623
C        0.6323581756   -0.9746326455   -0.1698277003
C       -0.7520330425   -0.4079444506   -1.2863516543
C       -1.1464842103    0.0792670714    0.4752395659
C       -0.5633900765    1.0132750960   -0.7458524894
N        1.0559873980    1.4636751184   -0.5413209175
H        2.1483644352    0.1559421736    0.9026217719
H        1.0021611851   -1.9885693347   -0.1157282189
H       -1.4739315599   -1.0364668541   -2.0217893600
H       -2.1264787460    0.2022462210    0.9639268156
H       -1.2584815225    1.8201462052   -0.8810986508
C        0.1658103935   -0.2827536994    1.1970796480
H        0.7960722170   -0.3417199628    2.1723983275
13   
C6H6N->C6H6N atoms 1-13 frame 197 charge -0.000 sz -1.000 sz^2 0.747
C        1.5092850164    0.3033992106    0.0376594245
C        0.6234643545   -0.9750240166   -0.1757247453
C       -0.7494341723   -0.3882661380   -1.3025917390
C       -1.1425509497    0.0865985604    0.4750734910
C       -0.5573530666    1.0331381959   -0.7546116119
N        1.0621257230    1.4732972432   -0.5309935648
H        2.1252302688    0.1447327071    0.8967094198
H        1.0248860175   -1.9780892092   -0.1218508143
H       -1.4612711841   -1.0748229332   -1.9878614862
H       -2.1114044196    0.2139286665    0.9861631865
H       -1.2570397389    1.8238943173   -0.8981151661
C        0.1528559721   -0.3041787836    1.1992479368
H        0.7812061789   -0.3586078204    2.1768956690
13   
C6H6N->C6H6N atoms 1-13 frame 198 charge +0.000 sz -1.000 sz^2 0.736
C        1.4976711480    0.3089375269    0.0244387002
C        0.6143101422   -0.9755754452   -0.1810092798
C       -0.7473291065   -0.3696862365   -1.3168500526
C       -1.1384763313    0.0936016674    0.4756365025
C       -0.5519764108    1.0519236613   -0.7625280377
N        1.0671912441    1.4819709920   -0.5206031932
H        2.1070896182    0.1355274670    0.8889600039
H        1.0476618813   -1.9686415098   -0.1286808461
H       -1.4450498793   -1.1102015195   -1.9494166911
H       -2.0954865388    0.2254188994    1.0079416126
H       -1.2563577396    1.8289832897   -0.9169785435
C        0.1397569811   -0.3263981259    1.2011595855
H        0.7609949913   -0.3758606667    2.1779302393
13   
C6H6N->C6H6N atoms 1-13 frame 199 charge -0.000 sz -1.000 sz^2 0.725
C        1.4853399101    0.3140330364    0.0111301217
C        0.6050011837   -0.9763571717   -0.1855492699
C       -0.7456417958   -0.3525029061   -1.3290285582
C       -1.1342268392    0.1001897953    0.4769951977
C       -0.5472156593    1.0693860289   -0.7696018943
N        1.0711971765    1.4895953707   -0.5101979724
H        2.0939804852    0.1284069834    0.8794167736
H        1.0703333471   -1.9601678663   -0.1361973761
H       -1.4255097422   -1.1423197985   -1.9069057652
H       -2.0788744303    0.2366977138    1.0289853716
H       -1.2566848345    1.8357161053   -0.9376228287
C        0.1265269578   -0.3494232667    1.2028817076
H        0.7357742410   -0.3932540246    2.1756944925
13   
C6H6N->C6H6N atoms 1-13 frame 200 charge +0.000 sz -1.000 sz^2 0.717
C        1.4724363964    0.3185782458   -0.0021556713
C        0.5956510253   -0.9774313684   -0.1892367712
C       -0.7442757170   -0.3369651197   -1.3390636472
C       -1.1297759699    0.1062872193    0.4791873655
C       -0.5430272398    1.0853367107   -0.7758470706
N        1.0741613391    1.4961025423   -0.4998055451
H        2.0857844000    0.1234360019    0.8680244621
H        1.0926959725   -1.9524790424   -0.1443918945
H       -1.4029543866   -1.1709380529   -1.8608857149
H       -2.0617799309    0.2477723328    1.0490207552
H       -1.2580896388    1.8441857050   -0.9599321783
C        0.1131502311   -0.3732644298    1.2044538815
H        0.7060235185   -0.4106207445    2.1706320287
13   
C6H6N->C6H6N atoms 1-13 frame 201 charge +0.000 sz -1.000 sz^2 0.713
C        1.4591078416    0.3224817214   -0.0152928857
C        0.5863763248   -0.9788416632   -0.1919956878
C       -0.7431201822   -0.3232599127   -1.3469291959
C       -1.1251081299    0.1118351795    0.4822173704
C       -0.5393805318    1.0996542962   -0.7812914815
N        1.0760979576    1.5014679282   -0.4894389193
H        2.0822447114    0.1206691824    0.8546515101
H        1.1145029769   -1.9452838196   -0.1532763082
H       -1.3777568589   -1.1958733895   -1.8120174508
H       -2.0444785538    0.2586762121    1.0677856615
H       -1.2604349213    1.8542553719   -0.9837333344
C        0.0995838808   -0.3979226777    1.2058752601
H        0.6723654851   -0.4278584290    2.1634454615
13   
C6H6N->C6H6N atoms 1-13 frame 202 charge +0.000 sz -1.000 sz^2 0.714
C        1.4454979750    0.3256764765   -0.0281556138
C        0.5772929593   -0.9806036094   -0.1937918690
C       -0.7420563657   -0.3115042758   -1.3526418449
C       -1.1202231179    0.1167937744    0.4860521970
C       -0.5362616442    1.1122873691   -0.7859806786
N        1.0770120489    1.5057141304   -0.4791012024
H        2.0829935033    0.1201467531    0.8391239045
H        1.1354796467   -1.9382281961   -0.1628835843
H       -1.3503604738   -1.2170136359   -1.7610515305
H       -2.0273018537    0.2694673117    1.0850302081
H       -1.2633911035    1.8655798614   -1.0087925213
C        0.0857549834   -0.4233873480    1.2070937115
H        0.6355634423   -0.4449286114    2.1550988238
13   
C6H6N->C6H6N atoms 1-13 frame 203 charge -0.000 sz -1.000 sz^2 0.715
C        1.4317464970    0.3281237218   -0.0406245394
C        0.5685147353   -0.9826997060   -0.1946360631
C       -0.7409586600   -0.3017401543   -1.3562635098
C       -1.1151356658    0.1211449151    0.4906205030
C       -0.5336707337    1.1232524038   -0.7899781332
N        1.0768993653    1.5089117397   -0.4687902529
H        2.0875769214    0.1218890215    0.8212540399
H        1.1553436409   -1.9309366823   -0.1732687006
H       -1.3212791947   -1.2343410487   -1.7088111311
H       -2.0106258980    0.2802263577    1.1005207290
H       -1.2664758881    1.8776559609   -1.0348214265
C        0.0715662798   -0.4496325618    1.2079997776
H        0.5964986006   -0.4618539673    2.1467987072
13   
C6H6N->C6H6N atoms 1-13 frame 204 charge -0.000 sz -1.000 sz^2 0.720
C        1.4179916041    0.3298121927   -0.0525926188
C        0.5601530057   -0.9850810539   -0.1945812304
C       -0.7396960253   -0.2939378281   -1.3578947286
C       -1.1098737254    0.1248920009    0.4958145623
C       -0.5316152732    1.1326230544   -0.7933621798
N        1.0757496921    1.5111738693   -0.4585019050
H        2.0954862189    0.1258886616    0.8008703241
H        1.1738263115   -1.9230457407   -0.1845037592
H       -1.2910916757   -1.2479488970   -1.6561661873
H       -1.9948485412    0.2910509465    1.1140426217
H       -1.2691159377    1.8898944058   -1.0614894689
C        0.0569082186   -0.4766184121    1.2084316158
H        0.5561261278   -0.4787031994    2.1399329542
13   
C6H6N->C6H6N atoms 1-13 frame 205 charge -0.000 sz -1.000 sz^2 0.724
C        1.4043766399    0.3307568347   -0.0639664392
C        0.5523218618   -0.9876700883   -0.1937121915
C       -0.7381297159   -0.2880047449   -1.3576639148
C       -1.1044699903    0.1280589359    0.5015046667
C       -0.5300982521    1.1405158407   -0.7962184583
N        1.0735539789    1.5126480983   -0.4482314249
H        2.1061909926    0.1321073325    0.7778382881
H        1.1906947099   -1.9142313632   -0.1966650804
H       -1.2604303089   -1.2580606581   -1.6039948190
H       -1.9803623356    0.3020536667    1.1254147776
H       -1.2707156608    1.9016919860   -1.0884363302
C        0.0416790371   -0.5042897889    1.2081950699
H        0.5153890434   -0.4955760515    2.1359358562
13   
C6H6N->C6H6N atoms 1-13 frame 206 charge +0.000 sz -1.000 sz^2 0.736
C        1.3910561266    0.3310009196   -0.0746649377
C        0.5451427149   -0.9903634136   -0.1921279316
C       -0.7361143954   -0.2837959502   -1.3557070201
C       -1.0989522793    0.1306899904    0.5075610730
C       -0.5291082314    1.1470772366   -0.7986267245
N        1.0703111948    1.5135071632   -0.4379721216
H        2.1191734312    0.1404738238    0.7520794606
H        1.2057755639   -1.9042326931   -0.2098135642
H       -1.2299671727   -1.2650474907   -1.5531327459
H       -1.9675199695    0.3133595212    1.1345058089
H       -1.2707148857    1.9124887777   -1.1152803389
C        0.0258090589   -0.5325734091    1.2070999281
H        0.4751088435   -0.5125844758    2.1360791139
13   
C6H6N->C6H6N atoms 1-13 frame 207 charge -0.000 sz -1.000 sz^2 0.739
C        1.3782005261    0.3306130420   -0.0846142472
C        0.5387492773   -0.9930375770   -0.1899180779
C       -0.7335004603   -0.2811343816   -1.3521441391
C       -1.0933347932    0.1328503537    0.5138799499
C       -0.5286151038    1.1524659431   -0.8006475175
N        1.0660324313    1.5139388107   -0.4277163934
H        2.1339613725    0.1508916175    0.7235888585
H        1.2189701189   -1.8928632268   -0.2239697342
H       -1.2003912920   -1.2694233772   -1.5043126859
H       -1.9565976704    0.3251047291    1.1412536820
H       -1.2686328556    1.9218053569   -1.1416282549
C        0.0092864601   -0.5613716091    1.2050064027
H        0.4358719890   -0.5298396812    2.1412221572
13   
C6H6N->C6H6N atoms 1-13 frame 208 charge +0.000 sz -1.000 sz^2 0.743
C        1.3659966030    0.3296867322   -0.0937380836
C        0.5332877914   -0.9955540789   -0.1871367456
C       -0.7301393118   -0.2798266057   -1.3470545338
C       -1.0876132557    0.1346268679    0.5204028194
C       -0.5285656387    1.1568411109   -0.8023105713
N        1.0607451641    1.5141354690   -0.4174529118
H        2.1501476094    0.1632440473    0.6924427946
H        1.2302648369   -1.8800237847   -0.2390912226
H       -1.1723817010   -1.2718305569   -1.4581155152
H       -1.9477725979    0.3374345274    1.1456759534
H       -1.2641010306    1.9292652980   -1.1670873019
C       -0.0078276123   -0.5905556835    1.2018703667
H        0.3979591431   -0.5474433429    2.1515949515
13   
C6H6N->C6H6N atoms 1-13 frame 209 charge -0.000 sz -1.000 sz^2 0.746
C        1.3546407434    0.3283371976   -0.1019532607
C        0.5289115525   -0.9977645228   -0.1837892558
C       -0.7258883861   -0.2796821726   -1.3404699944
C       -1.0817693754    0.1361286763    0.5271250028
C       -0.5288879382    1.1603495937   -0.8036136148
N        1.0544901222    1.5142846696   -0.4071683190
H        2.1674005084    0.1774015295    0.6588047862
H        1.2397292192   -1.8657084854   -0.2550588378
H       -1.1465811709   -1.2729917854   -1.4149403648
H       -1.9411079820    0.3504982978    1.1478614578
H       -1.2568808990    1.9346026725   -1.1912853043
C       -0.0254051515   -0.6199614754    1.1977655881
H        0.3613487576   -0.5654941954    2.1667221166
13   
C6H6N->C6H6N atoms 1-13 frame 210 charge -0.000 sz -1.000 sz^2 0.749
C        1.3443269034    0.3266983233   -0.1091707837
C        0.5257693044   -0.9995150591   -0.1798328534
C       -0.7206168469   -0.2805267047   -1.3323824545
C       -1.0757810797    0.1374826193    0.5340887264
C       -0.5294960262    1.1631188377   -0.8045321041
N        1.0473146205    1.5145601015   -0.3968499808
H        2.1854619110    0.1932213547    0.6229204101
H        1.2475116913   -1.8500120404   -0.2716782821
H       -1.1235732238   -1.2736441294   -1.3750076670
H       -1.9365580875    0.3644414669    1.1479482991
H       -1.2468739151    1.9376635243   -1.2138949584
C       -0.0432776914   -0.6493923659    1.1928760446
H        0.3257924399   -0.5840959283    2.1855156038
13   
C6H6N->C6H6N atoms 1-13 frame 211 charge -0.000 sz -1.000 sz^2 0.740
C        1.3352339649    0.3249161933   -0.1153001386
C        0.5239921572   -1.0006534016   -0.1751888041
C       -0.7142116393   -0.2822127306   -1.3227594845
C       -1.0696365299    0.1388271039    0.5413631743
C       -0.5302979201    1.1652505082   -0.8050315352
N        1.0392648682    1.5151129115   -0.3864904923
H        2.2041342989    0.2105430377    0.5851029267
H        1.2538255409   -1.8331316074   -0.2886988863
H       -1.1038623433   -1.2744606406   -1.3383936469
H       -1.9339816569    0.3793875797    1.1460936987
H       -1.2341254175    1.9384065025   -1.2346619495
C       -0.0612662487   -0.6786305019    1.1874649370
H        0.2909309256   -0.6033549546    2.2065002008
13   
C6H6N->C6H6N atoms 1-13 frame 212 charge +0.000 sz -1.000 sz^2 0.734
C        1.3275146507    0.3231419999   -0.1202575519
C        0.5236808890   -1.0010356647   -0.1697570224
C       -0.7065872201   -0.2846272852   -1.3115545333
C       -1.0633449873    0.1403019758    0.5490244695
C       -0.5312035725    1.1668172091   -0.8050790912
N        1.0303776481    1.5160646679   -0.3760941430
H        2.2232661352    0.2291804109    0.5457150392
H        1.2589382780   -1.8153683338   -0.3058402946
H       -1.0878587739   -1.2759757572   -1.3050805133
H       -1.9331607182    0.3954195099    1.1424414523
H       -1.2188224424    1.9368996361   -1.2534252616
C       -0.0792066018   -0.7074509257    1.1818370551
H        0.2564067151   -0.6233674429    2.2280703952
13   
C6H6N->C6H6N atoms 1-13 frame 213 charge +0.000 sz -1.000 sz^2 0.724
C        1.3212906742    0.3215277295   -0.1239739004
C        0.5249018841   -1.0005323026   -0.1634344271
C       -0.6976836202   -0.2877003800   -1.2987275718
C       -1.0569401947    0.1420398254    0.5571410084
C       -0.5321285605    1.1678565275   -0.8046550812
N        1.0206767254    1.5175008466   -0.3656836186
H        2.2427378154    0.2489167790    0.5051444874
H        1.2631593202   -1.7971161759   -0.3228140674
H       -1.0758656676   -1.2785270266   -1.2749930343
H       -1.9338209494    0.4125673440    1.1371174598