13   
From optimize.out: Frame 2 / 3, Energy=    -286.8249551859
C        1.3118553965    0.3025645483    0.2420680501
C        0.6068016140   -1.0007437408   -0.1830377253
C       -0.6883432701   -0.4654887350   -0.8439833543
C       -1.0780816294    0.1914248105    0.4506992150
C       -0.5189778790    1.0592796455   -0.6927874810
N        0.8291126319    1.4230372465   -0.4714120611
H        2.3483758206    0.2894064774    0.5607696643
H        1.1233254710   -1.9344691093   -0.3753888304
H       -1.2958121827   -0.9367535784   -1.6085309573
H       -2.0520569287    0.3366788924    0.9044507955
H       -1.1651298397    1.7418607690   -1.2337022453
C        0.2167204484   -0.3451412793    1.1120381956
H        0.3622103476   -0.6616559464    2.1388167342
13   
From optimize.out: Frame 1 / 3, Energy=    -286.8249527070
C        1.3116773640    0.3021187270    0.2418766372
C        0.6063531284   -1.0013814904   -0.1826491112
C       -0.6883734871   -0.4653182003   -0.8441101648
C       -1.0783348807    0.1911144244    0.4506308062
C       -0.5190601940    1.0594221418   -0.6922625839
N        0.8285955266    1.4230484223   -0.4701668596
H        2.3487411746    0.2882882274    0.5586868318
H        1.1246429835   -1.9340476492   -0.3756521238
H       -1.2953207030   -0.9361550871   -1.6091301400
H       -2.0522388891    0.3363185858    0.9045795286
H       -1.1647864012    1.7417840695   -1.2338818909
C        0.2166845207   -0.3454429348    1.1122562639
H        0.3614198572   -0.6597492365    2.1398228063
13   
From optimize.out: Frame 18 / 19, Energy=    -286.8249527070
C        1.3116773640    0.3021187270    0.2418766372
C        0.6063531284   -1.0013814904   -0.1826491112
C       -0.6883734871   -0.4653182003   -0.8441101648
C       -1.0783348807    0.1911144244    0.4506308062
C       -0.5190601940    1.0594221418   -0.6922625839
N        0.8285955266    1.4230484223   -0.4701668596
H        2.3487411746    0.2882882274    0.5586868318
H        1.1246429835   -1.9340476492   -0.3756521238
H       -1.2953207030   -0.9361550871   -1.6091301400
H       -2.0522388891    0.3363185858    0.9045795286
H       -1.1647864012    1.7417840695   -1.2338818909
C        0.2166845207   -0.3454429348    1.1122562639
H        0.3614198572   -0.6597492365    2.1398228063
13   
From optimize.out: Frame 16 / 19, Energy=    -286.8249299358
C        1.3206255984    0.2952644314    0.2139307820
C        0.6109755707   -0.9939286619   -0.1755630571
C       -0.6819064129   -0.4544827555   -0.8347934497
C       -1.0806589364    0.1999027989    0.4555746046
C       -0.5183595481    1.0638557049   -0.6850836756
N        0.8248808275    1.4232032501   -0.4393385200
H        2.3509310364    0.3025137375    0.5512297442
H        1.1011423845   -1.9370858953   -0.3958640484
H       -1.2733384219   -0.9473736235   -1.5944735090
H       -2.0616450276    0.3389032251    0.8945991749
H       -1.1575265422    1.7333575422   -1.2486761725
C        0.1842981321   -0.3794863590    1.1141442565
H        0.3805813394   -0.6446433949    2.1443138702
13   
From optimize.out: Frame 14 / 19, Energy=    -286.8245969484
C        1.3651359630    0.2975917771    0.1306656306
C        0.6148639864   -0.9835283513   -0.1629655585
C       -0.6762957045   -0.4541067052   -0.8574794275
C       -1.0965232426    0.1803474854    0.4530075394
C       -0.5229871354    1.0511031250   -0.6747843817
N        0.8354778433    1.4188171796   -0.4453427442
H        2.3545373871    0.3121803771    0.5733704244
H        1.0597637164   -1.9591714040   -0.3431227958
H       -1.2525355193   -0.9545589758   -1.6263438823
H       -2.0901320948    0.3320698542    0.8582043510
H       -1.1696024710    1.7681309732   -1.1680967634
C        0.1431816598   -0.4055103519    1.1202198753
H        0.4351156116   -0.6033649835    2.1426677328
13   
From optimize.out: Frame 12 / 19, Energy=    -286.8222658817
C        1.3923688652    0.2942202879    0.0840227102
C        0.6179135534   -0.9793058796   -0.1604055981
C       -0.6712606786   -0.4555985924   -0.8935334830
C       -1.1039897646    0.1530351667    0.4461961312
C       -0.5299067238    1.0346715644   -0.6719105885
N        0.8459302377    1.4126079354   -0.4697889432
H        2.3319161417    0.3136418638    0.6249723019
H        1.0100011015   -1.9865745504   -0.2861620522
H       -1.2466466205   -0.9512927774   -1.6683817563
H       -2.1048581649    0.3131254065    0.8301211710
H       -1.1826884268    1.8002279616   -1.0784889292
C        0.1387000009   -0.3965461311    1.1184208567
H        0.5025204787   -0.5522122552    2.1249381794
13   
From optimize.out: Frame 10 / 19, Energy=    -286.8174505746
C        1.4149565420    0.2900754996    0.0594692874
C        0.6202064072   -0.9735281200   -0.1566902432
C       -0.6694715473   -0.4544228337   -0.9464010800
C       -1.1090007986    0.1247210205    0.4425367670
C       -0.5379506269    1.0147409293   -0.6721162497
N        0.8630534803    1.4064892804   -0.5015274695
H        2.3048766066    0.2994344970    0.6786976435
H        0.9670849359   -2.0023666089   -0.2277389100
H       -1.2601804173   -0.9362428336   -1.7236256403
H       -2.1144674439    0.2784370223    0.8182305079
H       -1.1931914188    1.8172090028   -0.9983014241
C        0.1474684585   -0.3632256190    1.1195603936
H        0.5666158223   -0.5013212366    2.1079064175
13   
From optimize.out: Frame 8 / 19, Energy=    -286.8102267050
C        1.4377430144    0.2854076805    0.0487116544
C        0.6244132480   -0.9682977284   -0.1532427670
C       -0.6770732049   -0.4537497703   -1.0125610458
C       -1.1152399622    0.1002240576    0.4477259042
C       -0.5471382331    0.9914898556   -0.6756054024
N        0.8908239987    1.4033759002   -0.5300213805
H        2.2796235361    0.2751159556    0.7323144172
H        0.9401445601   -2.0090063855   -0.1796069000
H       -1.2898309481   -0.9168192524   -1.7965061323
H       -2.1227024068    0.2419945588    0.8260488153
H       -1.2040414962    1.8198676457   -0.9346103333
C        0.1573353012   -0.3236792656    1.1276057639
H        0.6259425930   -0.4459232519    2.0997474063
13   
From optimize.out: Frame 5 / 19, Energy=    -286.7774195889
C        1.4658172747    0.2815439374    0.0530487361
C        0.6334342375   -0.9668417862   -0.1512522524
C       -0.6982968731   -0.4557748615   -1.0844669835
C       -1.1246913726    0.0833978273    0.4592569341
C       -0.5599126572    0.9710530966   -0.6851533187
N        0.9323864566    1.4073047689   -0.5503384356
H        2.2616217179    0.2479130494    0.7872049492
H        0.9325978295   -2.0123322867   -0.1467373341
H       -1.3381997420   -0.9025505514   -1.8836822068
H       -2.1316110624    0.2135313834    0.8494729082
H       -1.2214195849    1.8140352167   -0.8937871672
C        0.1681115268   -0.2871530229    1.1428348525
H        0.6801622494   -0.3941267711    2.1035993183
13   
From optimize.out: Frame 3 / 19, Energy=    -286.7271383926
C        1.4993314947    0.2798608908    0.0663646399
C        0.6450125856   -0.9688335520   -0.1495894110
C       -0.7262955250   -0.4606904644   -1.1526616794
C       -1.1375733231    0.0718116547    0.4708434762
C       -0.5737266674    0.9577001340   -0.6982880813
N        0.9779239450    1.4175919942   -0.5632670062
H        2.2517360899    0.2235610934    0.8410031081
H        0.9339893756   -2.0168219191   -0.1229419744
H       -1.4004643252   -0.8992783072   -1.9776989012
H       -2.1437752837    0.1927205979    0.8746343255
H       -1.2420383451    1.8096965032   -0.8679373178
C        0.1815415025   -0.2567414162    1.1628233357
H        0.7343384764   -0.3505772092    2.1167154860
13   
From optimize.out: Frame 1 / 19, Energy=    -286.6473065449
C        1.5371031650    0.2792000973    0.0840858909
C        0.6546739889   -0.9728638097   -0.1496431752
C       -0.7562026373   -0.4682748246   -1.2136035484
C       -1.1537684433    0.0595336779    0.4779601867
C       -0.5837753044    0.9512618854   -0.7117810209
N        1.0214690314    1.4281973311   -0.5700733588
H        2.2459397861    0.2043458766    0.8945531815
H        0.9351839858   -2.0230526967   -0.1054734748
H       -1.4718605953   -0.9051171083   -2.0719198277
H       -2.1614137784    0.1720184951    0.8934880173
H       -1.2595807126    1.8111083427   -0.8465688946
C        0.1989512940   -0.2294621290    1.1835181238
H        0.7932802201   -0.3068951379    2.1354579002
13   
C6H6N->C6H6N atoms 1-13 frame 194 charge +0.000 sz -1.000 sz^2 0.785
C        1.5336002103    0.2887321206    0.0688622630
C        0.6443356352   -0.9742664496   -0.1605492311
C       -0.7568186762   -0.4374006552   -1.2597023102
C       -1.1519088538    0.0684670437    0.4766381221
C       -0.5732922911    0.9835167480   -0.7318363773
N        1.0452788061    1.4483580032   -0.5559201347
H        2.1901955618    0.1754034557    0.9071678414
H        0.9698894380   -2.0052572262   -0.1082722677
H       -1.4850875918   -0.9768649177   -2.0610721959
H       -2.1462528155    0.1854515903    0.9319364606
H       -1.2609931506    1.8161887640   -0.8603306541
C        0.1839935915   -0.2535122077    1.1933093199
H        0.8070601362   -0.3188162690    2.1597691641
13   
C6H6N->C6H6N atoms 1-13 frame 196 charge -0.000 sz -1.000 sz^2 0.756
C        1.5131264638    0.3012436735    0.0422314301
C        0.6265737075   -0.9749253237   -0.1735909388
C       -0.7504180614   -0.3953017588   -1.2967712865
C       -1.1439302960    0.0840751390    0.4751636275
C       -0.5594734016    1.0260595247   -0.7515399152
N        1.0599976501    1.4697938401   -0.5347844668
H        2.1334904792    0.1486673095    0.8987355539
H        1.0167072160   -1.9818712954   -0.1195902340
H       -1.4658865016   -1.0612324916   -1.9998154548
H       -2.1167227522    0.2099348329    0.9783119988
H       -1.2574922747    1.8225704324   -0.8921323678
C        0.1574849521   -0.2964992219    1.1984894387
H        0.7865428188   -0.3525146609    2.1752926150
13   
C6H6N->C6H6N atoms 1-13 frame 198 charge +0.000 sz -1.000 sz^2 0.736
C        1.4889693082    0.3124679180    0.0149636775
C        0.6076754730   -0.9761685103   -0.1841817204
C       -0.7461967257   -0.3575791385   -1.3254146564
C       -1.1354518787    0.0983423966    0.4766281440
C       -0.5485836739    1.0642508488   -0.7675730806
N        1.0700792816    1.4872788887   -0.5133684948
H        2.0978570767    0.1304424617    0.8821377503
H        1.0635892681   -1.9627108251   -0.1339149150
H       -1.4313535557   -1.1329494038   -1.9192511068
H       -2.0836979808    0.2335538615    1.0228725469
H       -1.2565295850    1.8337502416   -0.9316390662
C        0.1304262420   -0.3426121781    1.2023927612
H        0.7432167500   -0.3880665611    2.1763481603
13   
C6H6N->C6H6N atoms 1-13 frame 200 charge +0.000 sz -1.000 sz^2 0.717
C        1.4630216201    0.3212704742   -0.0115129673
C        0.5890376429   -0.9784675269   -0.1911516974
C       -0.7435150065   -0.3273098926   -1.3445869403
C       -1.1264536216    0.1102922060    0.4813594912
C       -0.5404198905    1.0954474290   -0.7797438100
N        1.0755866953    1.4998201480   -0.4925890397
H        2.0833123390    0.1214290482    0.8584925278
H        1.1080276123   -1.9474491745   -0.1506018665
H       -1.3852400476   -1.1886167021   -1.8262034735
H       -2.0494950514    0.2556424978    1.0623450612
H       -1.2596919998    1.8513138493   -0.9768360855
C        0.1035712761   -0.3906463493    1.2054782551
H        0.6822584316   -0.4227260071    2.1655505449
13   
C6H6N->C6H6N atoms 1-13 frame 202 charge +0.000 sz -1.000 sz^2 0.714
C        1.4366606475    0.3271877551   -0.0362369344
C        0.5715957284   -0.9819874769   -0.1942991779
C       -0.7413999488   -0.3052593623   -1.3549365052
C       -1.1169303650    0.1196679484    0.4890165025
C       -0.5345674271    1.1193260395   -0.7885976736
N        1.0769915736    1.5077009082   -0.4725736478
H        2.0859711563    0.1212217314    0.8275596758
H        1.1481762049   -1.9335937377   -0.1694971352
H       -1.3317437604   -1.2281989407   -1.7273288744
H       -2.0165274903    0.2765361794    1.0950403091
H       -1.2653237453    1.8733526274   -1.0256086262
C        0.0766371057   -0.4402185812    1.2076978953
H        0.6104603205   -0.4557350905    2.1497641920
13   
C6H6N->C6H6N atoms 1-13 frame 204 charge -0.000 sz -1.000 sz^2 0.720
C        1.4104579253    0.3302798809   -0.0589425567
C        0.5557718963   -0.9865457359   -0.1940660770
C       -0.7388694748   -0.2906855939   -1.3577366583
C       -1.1068632578    0.1267118846    0.4989866981
C       -0.5307497114    1.1369797130   -0.7949861547
N        1.0745796141    1.5119292698   -0.4529052050
H        2.1014408664    0.1292925286    0.7880538128
H        1.1830975639   -1.9182146415   -0.1911800176
H       -1.2741842660   -1.2535804156   -1.6271681170
H       -1.9867846247    0.2972751530    1.1203752864
H       -1.2699552943    1.8964295744   -1.0764821691
C        0.0484775593   -0.4918980076    1.2083224097
H        0.5335812037   -0.4879736097    2.1377287484
13   
C6H6N->C6H6N atoms 1-13 frame 206 charge +0.000 sz -1.000 sz^2 0.736
C        1.3848473349    0.3307674397   -0.0795132354
C        0.5420165671   -0.9916808643   -0.1910304090
C       -0.7348819750   -0.2825377631   -1.3539604752
C       -1.0962225761    0.1317883150    0.5106308708
C       -0.5288477957    1.1496692620   -0.7996390795
N        1.0682811933    1.5136663107   -0.4330880416
H        2.1263427721    0.1454749197    0.7382580351
H        1.2120947413   -1.8987795869   -0.2166082463
H       -1.2157279367   -1.2671848446   -1.5294514769
H       -1.9622080834    0.3191443926    1.1377906853
H       -1.2696678329    1.9169908822   -1.1280753574
C        0.0178214856   -0.5464561750    1.2061079984
H        0.4561521056   -0.5208622878    2.1385787318
13   
C6H6N->C6H6N atoms 1-13 frame 209 charge -0.000 sz -1.000 sz^2 0.746
C        1.3608879608    0.3290444071   -0.0974632278
C        0.5312911146   -0.9965672187   -0.1856079266
C       -0.7282465447   -0.2797810709   -1.3440725449
C       -1.0849717012    0.1353429186    0.5234396441
C       -0.5286930284    1.1584120179   -0.8029229067
N        1.0579582043    1.5141667460   -0.4128736225
H        2.1579308882    0.1695892400    0.6772611704
H        1.2344814309   -1.8736110394   -0.2462470950
H       -1.1608062717   -1.2723656203   -1.4386194569
H       -1.9447492950    0.3433956391    1.1466735168
H       -1.2608172310    1.9316669260   -1.1780251506
C       -0.0157455988   -0.6037684233    1.2000379779
H        0.3814800719   -0.5555245222    2.1584196218
13   
C6H6N->C6H6N atoms 1-13 frame 211 charge -0.000 sz -1.000 sz^2 0.740
C        1.3402944880    0.3258853157   -0.1119047682
C        0.5249641227   -1.0000308541   -0.1777604194
C       -0.7177859299   -0.2812830109   -1.3281020615
C       -1.0730478660    0.1381032836    0.5373228542
C       -0.5298394240    1.1640618502   -0.8047668863
N        1.0437615525    1.5147841923   -0.3922789125
H        2.1937580172    0.2008863317    0.6061154658
H        1.2502849768   -1.8425411266   -0.2792161656
H       -1.1148507078   -1.2740088509   -1.3587286232
H       -1.9354015373    0.3711219678    1.1471318605
H       -1.2411927577    1.9379949318   -1.2231336081
C       -0.0512659754   -0.6623545888    1.1904835210
H        0.3103210409   -0.5926194418    2.1948377431
13   
C6H6N->C6H6N atoms 1-13 frame 213 charge +0.000 sz -1.000 sz^2 0.724
C        1.3246868331    0.3223994932   -0.1219488266
C        0.5242293645   -1.0008102254   -0.1668828477
C       -0.7025425464   -0.2860202061   -1.3057218229
C       -1.0604314632    0.1410990489    0.5527159043
C       -0.5316175362    1.1672930093   -0.8048859206
N        1.0259764372    1.5167109374   -0.3713624677
H        2.2321211659    0.2381393269    0.5272668097
H        1.2608453609   -1.8070781195   -0.3135586084
H       -1.0824158231   -1.2771289741   -1.2913995984
H       -1.9334569516    0.4032285418    1.1400230731
H       -1.2108409619    1.9352776657   -1.2610218241
C       -0.0872841237   -0.7202640535    1.1793206045
H        0.2407302445   -0.6328464446    2.2374555247
13   
C6H6N->C6H6N atoms 1-13 frame 215 charge -0.000 sz -1.000 sz^2 0.697
C        1.3151997247    0.3198043170   -0.1269234138
C        0.5297917523   -0.9977849199   -0.1520690310
C       -0.6818814390   -0.2935148340   -1.2764206999
C       -1.0473631457    0.1453989620    0.5702063445
C       -0.5333572646    1.1683477412   -0.8030794312
N        1.0046907637    1.5206842526   -0.3502998069
H        2.2720842690    0.2797603146    0.4435622959
H        1.2685029457   -1.7702284812   -0.3470167800
H       -1.0663622849   -1.2844918671   -1.2364700088
H       -1.9369394278    0.4400875123    1.1261542718
H       -1.1720617128    1.9246300774   -1.2911152142
C       -0.1227456529   -0.7757473168    1.1689673601
H        0.1704414723   -0.6769457581    2.2745041134
13   
C6H6N->C6H6N atoms 1-13 frame 217 charge +0.000 sz -1.000 sz^2 0.670
C        1.3125306261    0.3192685435   -0.1264229820
C        0.5418359668   -0.9901477715   -0.1324667411
C       -0.6555879965   -0.3040393525   -1.2397529065
C       -1.0344380498    0.1518264245    0.5901595195
C       -0.5344760702    1.1668453921   -0.7993626926
N        0.9798008261    1.5268111223   -0.3296445233
H        2.3130295443    0.3236407779    0.3579588468
H        1.2759656203   -1.7361509757   -0.3773417308
H       -1.0678226965   -1.2953369229   -1.1935225370
H       -1.9432356123    0.4810607087    1.1060437993
H       -1.1292867401    1.9087603288   -1.3147745907
C       -0.1570437079   -0.8272521764    1.1617034988
H        0.0987282896   -0.7252860988    2.2974230395
13   
From optimize.out: Frame 2 / 26, Energy=    -286.7083720091
C        1.3375514140    0.3213432783   -0.1198349565
C        0.5629913702   -0.9735566944   -0.1168407262
C       -0.6336122888   -0.3156436511   -1.2003233067
C       -1.0371093506    0.1625034278    0.6037750418
C       -0.5355256626    1.1540330873   -0.7847890244
N        0.9550673383    1.5226450250   -0.3180592876
H        2.3650483190    0.3510053631    0.2989722597
H        1.2882953003   -1.7142740845   -0.3973845052
H       -1.0870878039   -1.3008923245   -1.1641767588
H       -1.9620918921    0.5172112554    1.0775525557
H       -1.1026789827    1.8883284726   -1.3176854937
C       -0.1887978097   -0.8509267790    1.1521536177
H        0.0379500488   -0.7617763758    2.2866405843
13   
From optimize.out: Frame 4 / 26, Energy=    -286.7632234201
C        1.4043664449    0.3279340809   -0.1100323820
C        0.5893916855   -0.9452312272   -0.1228192824
C       -0.6228322116   -0.3278198171   -1.1666303430
C       -1.0680297686    0.1832262971    0.5923715165
C       -0.5307812136    1.1139395153   -0.7403613211
N        0.9271463501    1.4906568825   -0.3259251569
H        2.4284797404    0.3501871349    0.3017634448
H        1.2981303670   -1.7145400079   -0.4023301758
H       -1.1124843190   -1.2943720832   -1.1429634678
H       -2.0012307443    0.5449901531    1.0329630313
H       -1.1053555114    1.8558623414   -1.2679385334
C       -0.2171259116   -0.8171158568    1.1253634335
H        0.0103250922   -0.7677174131    2.2265392362
13   
From optimize.out: Frame 6 / 26, Energy=    -286.7928728770
C        1.4548685496    0.3422943330   -0.1047676205
C        0.6119157285   -0.9176700970   -0.1280096710
C       -0.5895350254   -0.3526208803   -1.1339472051
C       -1.0872615164    0.2132440482    0.5724965242
C       -0.5184492650    1.0710917199   -0.6861532776
N        0.8877807385    1.4628599637   -0.3358311637
H        2.4756692994    0.3701766630    0.2941440378
H        1.2851731379   -1.7281768478   -0.4003658332
H       -1.1370371442   -1.2873375241   -1.1319835487
H       -2.0304785207    0.5822100846    0.9764461055
H       -1.1031453058    1.8190342432   -1.2036669007
C       -0.2404220760   -0.7839819360    1.1012200947
H       -0.0090786002   -0.7911237704    2.1804184582
13   
From optimize.out: Frame 8 / 26, Energy=    -286.8101099511
C        1.4990644100    0.3641992659   -0.1077075974
C        0.6398599955   -0.8906137852   -0.1227081825
C       -0.5358282483   -0.3842116415   -1.1062442331
C       -1.1014873281    0.2430576384    0.5606392902
C       -0.5115791979    1.0379896330   -0.6392181887
N        0.8672917450    1.4496484244   -0.3538833820
H        2.5230881646    0.4007546285    0.2679373269
H        1.2548445173   -1.7566436325   -0.3730562916
H       -1.1733784402   -1.2591701124   -1.1530911391
H       -2.0602715978    0.6031712031    0.9308364741
H       -1.1131003348    1.7811370115   -1.1518153734
C       -0.2558023146   -0.7530513965    1.0906334087
H       -0.0327013706   -0.8362672367    2.1576778879
13   
From optimize.out: Frame 10 / 26, Energy=    -286.8228651580
C        1.5271252665    0.3847225277   -0.1172411594
C        0.6659701083   -0.8714905677   -0.1077990228
C       -0.4728678714   -0.4114673363   -1.0902249620
C       -1.1074973591    0.2674702906    0.5753032346
C       -0.5126148679    1.0119888940   -0.6162941656
N        0.8601574192    1.4476732131   -0.3786213884
H        2.5591948154    0.4305251561    0.2274587549
H        1.2229675811   -1.7870154782   -0.3190322049
H       -1.2029971277   -1.2019857763   -1.2196529201
H       -2.0777098843    0.6093788909    0.9313803779
H       -1.1331133550    1.7409328731   -1.1311674031
C       -0.2648330017   -0.7270476356    1.0949024674
H       -0.0637817233   -0.8936850514    2.1509883916
13   
From optimize.out: Frame 12 / 26, Energy=    -286.8348362135
C        1.5434740363    0.4003265843   -0.1277311563
C        0.6827954091   -0.8578433524   -0.0971634451
C       -0.4140686234   -0.4346407075   -1.0970783068
C       -1.1091444227    0.2965852222    0.6081509753
C       -0.5190417228    0.9830707073   -0.6034754740
N        0.8526791564    1.4448524236   -0.4017986673
H        2.5824872372    0.4546943818    0.1894773279
H        1.1938643394   -1.8089698426   -0.2634205356
H       -1.1967577167   -1.1568182229   -1.3023412093
H       -2.0770864226    0.6311467550    0.9766858674
H       -1.1576534200    1.6990830337   -1.1173150007
C       -0.2778446186   -0.6997956245    1.0979303702
H       -0.1037032317   -0.9516913580    2.1380792544
13   
From optimize.out: Frame 15 / 26, Energy=    -286.8469086510
C        1.5529218894    0.4122188662   -0.1347715883
C        0.6931422314   -0.8477830698   -0.0909009337
C       -0.3613594906   -0.4550427298   -1.1199281022
C       -1.1110237947    0.3269718726    0.6492118947
C       -0.5279704131    0.9513942236   -0.5952337257
N        0.8453799849    1.4402940068   -0.4219996961
H        2.5963823200    0.4740173086    0.1623739758
H        1.1660556087   -1.8246575484   -0.2132681466
H       -1.1722353607   -1.1236150923   -1.3886509052
H       -2.0669994474    0.6617210819    1.0457936034
H       -1.1812987494    1.6575528290   -1.1069495894
C       -0.2934088112   -0.6703947835    1.0984179174
H       -0.1395859673   -1.0026769649    2.1159052960
13   
From optimize.out: Frame 17 / 26, Energy=    -286.8504925930
C        1.5527644555    0.4224644262   -0.1378385791
C        0.6990486385   -0.8440123692   -0.0815511651
C       -0.3215380580   -0.4713091365   -1.1431019219
C       -1.1085770308    0.3580721730    0.6921639267
C       -0.5401473226    0.9235031213   -0.5963741251
N        0.8368449164    1.4398410244   -0.4376643291
H        2.6019521932    0.4899073870    0.1363105804
H        1.1528557237   -1.8342039565   -0.1602588387
H       -1.1464328183   -1.0934226260   -1.4766147562
H       -2.0456357139    0.6977752534    1.1240883312
H       -1.2034154866    1.6196365065   -1.1112479914
C       -0.3038112064   -0.6460573707    1.1016779853
H       -0.1739082907   -1.0621944330    2.0904108830
13   
From optimize.out: Frame 19 / 26, Energy=    -286.8510741305
C        1.5432076144    0.4310191208   -0.1414608723
C        0.6980222016   -0.8449668641   -0.0699748801
C       -0.2974027023   -0.4815067221   -1.1607652085
C       -1.0974147378    0.3885777550    0.7307276405
C       -0.5563343534    0.9049063601   -0.6002238710
N        0.8277579098    1.4454314026   -0.4481509089
H        2.6008892358    0.4993706061    0.1004356548
H        1.1586560886   -1.8335970659   -0.1074307120
H       -1.1130564136   -1.0806784481   -1.5558248129
H       -2.0073897295    0.7401539684    1.2052781469
H       -1.2233253140    1.5912438401   -1.1236959164
C       -0.3059592431   -0.6310725960    1.1071234793
H       -0.2276505564   -1.1288813567    2.0639622606
13   
From optimize.out: Frame 21 / 26, Energy=    -286.8515232469
C        1.5283414490    0.4369394668   -0.1453622962
C        0.6892113647   -0.8481154330   -0.0590870912
C       -0.2856284922   -0.4860992727   -1.1733209663
C       -1.0820979115    0.4135159391    0.7602861380
C       -0.5759505822    0.8967405991   -0.6024108860
N        0.8189565575    1.4532656169   -0.4546407123
H        2.5944392877    0.5028937605    0.0619549368
H        1.1769692978   -1.8231445687   -0.0675490348
H       -1.0673266579   -1.0979724764   -1.6157168862
H       -1.9521615020    0.7911217337    1.2854865979
H       -1.2399201002    1.5772085102   -1.1354692472
C       -0.3045845086   -0.6239182953    1.1118532549
H       -0.3002482021   -1.1924355804    2.0339761925
13   
From optimize.out: Frame 23 / 26, Energy=    -286.8516203310
C        1.5133409223    0.4394305648   -0.1441577354
C        0.6750328909   -0.8522941060   -0.0556951158
C       -0.2879539372   -0.4836025876   -1.1833485623
C       -1.0738899602    0.4196470282    0.7723798405
C       -0.5954961403    0.8949331741   -0.6069194298
N        0.8100675775    1.4587301264   -0.4532491243
H        2.5834876068    0.5034451828    0.0459119672
H        1.2036526468   -1.8051074763   -0.0714049165
H       -1.0192119633   -1.1485244618   -1.6358233072
H       -1.8790165353    0.8545062767    1.3542595538
H       -1.2488826842    1.5795523662   -1.1448913600
C       -0.3086028418   -0.6325106054    1.1094285488
H       -0.3725275823   -1.2282054821    2.0135096411
13   
From optimize.out: Frame 25 / 26, Energy=    -286.8516452122
C        1.5112798226    0.4411874797   -0.1333489374
C        0.6763030072   -0.8531720431   -0.0651134598
C       -0.2806988121   -0.4770748989   -1.1996092507
C       -1.0849685920    0.4078340412    0.7580059451
C       -0.5929735257    0.8947503755   -0.6140878017
N        0.8084819659    1.4610741319   -0.4398073906
H        2.5777348702    0.5068071411    0.0758162693
H        1.2123103143   -1.8019708848   -0.0914357383
H       -1.0445361797   -1.1594329026   -1.5688383679
H       -1.8796206543    0.8694122942    1.3338757905
H       -1.2396863957    1.5838799695   -1.1550399083
C       -0.3197753657   -0.6435755800    1.0936728013
H       -0.3438504550   -1.2297191237    2.0059100485
13   
From optimize.out: Frame 1 / 2, Energy=    -286.8516502831
C        1.5112798226    0.4411874797   -0.1333489374
C        0.6763030072   -0.8531720431   -0.0651134598
C       -0.2806988120   -0.4770748989   -1.1996092507
C       -1.0849685920    0.4078340412    0.7580059451
C       -0.5929735257    0.8947503755   -0.6140878017
N        0.8084819660    1.4610741319   -0.4398073906
H        2.5777348701    0.5068071411    0.0758162693
H        1.2123103143   -1.8019708848   -0.0914357383
H       -1.0445361797   -1.1594329026   -1.5688383679
H       -1.8796206543    0.8694122942    1.3338757905
H       -1.2396863957    1.5838799695   -1.1550399084
C       -0.3197753656   -0.6435755800    1.0936728013
H       -0.3438504550   -1.2297191237    2.0059100486
