13   
From optimize.out: Frame 18 / 19, Energy=    -286.8249527070
C        1.3116773640    0.3021187270    0.2418766374
C        0.6063531285   -1.0013814904   -0.1826491112
C       -0.6883734870   -0.4653182002   -0.8441101649
C       -1.0783348807    0.1911144244    0.4506308061
C       -0.5190601939    1.0594221419   -0.6922625839
N        0.8285955267    1.4230484224   -0.4701668594
H        2.3487411746    0.2882882274    0.5586868321
H        1.1246429836   -1.9340476491   -0.3756521238
H       -1.2953207028   -0.9361550870   -1.6091301402
H       -2.0522388892    0.3363185857    0.9045795284
H       -1.1647864011    1.7417840696   -1.2338818909
C        0.2166845206   -0.3454429348    1.1122562639
H        0.3614198570   -0.6597492366    2.1398228063
13   
From optimize.out: Frame 16 / 19, Energy=    -286.8249299358
C        1.3206247095    0.2952674334    0.2139321260
C        0.6109778814   -0.9939275603   -0.1755612525
C       -0.6819044119   -0.4544850634   -0.8347938277
C       -1.0806599271    0.1999010021    0.4555730429
C       -0.5183609287    1.0638538976   -0.6850854374
N        0.8248783833    1.4232045258   -0.4393389765
H        2.3509297100    0.3025192600    0.5512323702
H        1.1011469551   -1.9370839930   -0.3958606436
H       -1.2733344332   -0.9473779705   -1.5944741116
H       -2.0616468602    0.3388998239    0.8945962399
H       -1.1575286259    1.7333538007   -1.2486794348
C        0.1842975359   -0.3794848057    1.1141448842
H        0.3805800117   -0.6446403508    2.1443150210
13   
From optimize.out: Frame 14 / 19, Energy=    -286.8245969484
C        1.3651340764    0.2976008813    0.1306646050
C        0.6148703979   -0.9835243463   -0.1629655388
C       -0.6762932584   -0.4541115571   -0.8574787872
C       -1.0965241401    0.1803404130    0.4530081825
C       -0.5229945454    1.0510993679   -0.6747844910
N        0.8354681468    1.4188225251   -0.4453439049
H        2.3545356949    0.3121962297    0.5733687421
H        1.0597764759   -1.9591645279   -0.3431226481
H       -1.2525302616   -0.9545679782   -1.6263426476
H       -2.0901337315    0.3320563710    0.8582055819
H       -1.1696149577    1.7681227178   -1.1680967565
C        0.1431850838   -0.4055089201    1.1202199559
H        0.4351210191   -0.6033611762    2.1426677068
13   
From optimize.out: Frame 12 / 19, Energy=    -286.8222658817
C        1.3923650717    0.2942379805    0.0840236170
C        0.6179262243   -0.9792970661   -0.1604105947
C       -0.6712550922   -0.4556029724   -0.8935354465
C       -1.1039915859    0.1530186438    0.4461972914
C       -0.5299204279    1.0346679439   -0.6719053557
N        0.8459116963    1.4126212180   -0.4697823900
H        2.3319122994    0.3136691394    0.6249729495
H        1.0100268199   -1.9865600278   -0.2861720964
H       -1.2466348817   -0.9513008683   -1.6683859145
H       -2.1048619228    0.3130940043    0.8301234869
H       -1.1827122366    1.8002178323   -1.0784797265
C        0.1387055775   -0.3965497686    1.1184188755
H        0.5025284580   -0.5522160590    2.1249353039
13   
From optimize.out: Frame 10 / 19, Energy=    -286.8174505746
C        1.4149509572    0.2901016261    0.0594747234
C        0.6202250953   -0.9735143735   -0.1567016784
C       -0.6694617168   -0.4544236672   -0.9464076337
C       -1.1090037283    0.1246944024    0.4425369263
C       -0.5379690469    1.0147391499   -0.6721041928
N        0.8630274036    1.4065119675   -0.5015087180
H        2.3048700587    0.2994697513    0.6787043254
H        0.9671232540   -2.0023453823   -0.2277628213
H       -1.2601604503   -0.9362451286   -1.7236389918
H       -2.1144737691    0.2783865916    0.8182313219
H       -1.1932246658    1.8171988736   -0.9982801240
C        0.1474739375   -0.3632368731    1.1195560206
H        0.5666226708   -0.5013369378    2.1079008423
13   
From optimize.out: Frame 8 / 19, Energy=    -286.8102267050
C        1.4377356798    0.2854423791    0.0487248210
C        0.6244380731   -0.9682787912   -0.1532612670
C       -0.6770570974   -0.4537441678   -1.0125743268
C       -1.1152445852    0.1001863769    0.4477228219
C       -0.5471596937    0.9914912194   -0.6755860204
N        0.8907915953    1.4034098201   -0.5299860265
H        2.2796132062    0.2751564473    0.7323313597
H        0.9401954091   -2.0089790060   -0.1796469738
H       -1.2897995885   -0.9168115160   -1.7965325952
H       -2.1227123567    0.2419234183    0.8260440847
H       -1.2040823395    1.8198584047   -0.9345757082
C        0.1573379935   -0.3237003525    1.1275993350
H        0.6259437040   -0.4459542324    2.0997404955
13   
From optimize.out: Frame 5 / 19, Energy=    -286.7774195889
C        1.4658082092    0.2815866356    0.0530725957
C        0.6334650575   -0.9668176261   -0.1512776103
C       -0.6982722300   -0.4557604936   -1.0844888893
C       -1.1246984848    0.0833486826    0.4592484383
C       -0.5599352555    0.9710585732   -0.6851270884
N        0.9323492864    1.4073510669   -0.5502830118
H        2.2616063429    0.2479558154    0.7872356512
H        0.9326602990   -2.0122992043   -0.1467939643
H       -1.3381535762   -0.9025293927   -1.8837251406
H       -2.1316260145    0.2134389267    0.8494586239
H       -1.2214656558    1.8140274754   -0.8937399177
C        0.1681088236   -0.2871853755    1.1428271206
H        0.6801531981   -0.3941750834    2.1035931926
13   
From optimize.out: Frame 3 / 19, Energy=    -286.7271383926
C        1.4993205693    0.2799109450    0.0664003615
C        0.6450491370   -0.9688043570   -0.1496208797
C       -0.7262610582   -0.4606665286   -1.1526929623
C       -1.1375832945    0.0717512656    0.4708285911
C       -0.5737494318    0.9577099133   -0.6982559642
N        0.9778828175    1.4176507214   -0.5631905998
H        2.2517149134    0.2236043890    0.8410482951
H        0.9340624879   -2.0167836709   -0.1230139405
H       -1.4004013474   -0.8992426843   -1.9777596934
H       -2.1437958999    0.1926073388    0.8746087422
H       -1.2420884948    1.8096899927   -0.8678791238
C        0.1815321928   -0.2567850110    1.1628151628
H        0.7343174087   -0.3506423141    2.1167120109
13   
From optimize.out: Frame 1 / 19, Energy=    -286.6473065449
C        1.5370901032    0.2792575285    0.0841339325
C        0.6547163825   -0.9728296125   -0.1496800167
C       -0.7561574368   -0.4682415507   -1.2136445500
C       -1.1537812183    0.0594621693    0.4779382496
C       -0.5837981197    0.9512757545   -0.7117437717
N        1.0214239467    1.4282683483   -0.5699762097
H        2.2459121329    0.2043892887    0.8946126896
H        0.9352676752   -2.0230095292   -0.1055593440
H       -1.4717791755   -0.9050675773   -2.0719993010
H       -2.1614401031    0.1718846338    0.8934500962
H       -1.2596351965    1.8111020936   -0.8465011943
C        0.1989348217   -0.2295162433    1.1835103997
H        0.7932461876   -0.3069753038    2.1354590198
13   
C6H6N->C6H6N atoms 1-13 frame 194 charge +0.000 sz -1.000 sz^2 0.785
C        1.5335852290    0.2887976398    0.0689211308
C        0.6443841920   -0.9742281247   -0.1605869091
C       -0.7567640280   -0.4373631608   -1.2597481589
C       -1.1519251353    0.0683877307    0.4766101593
C       -0.5733165855    0.9835324774   -0.7317962054
N        1.0452285947    1.4484370004   -0.5558087125
H        2.1901625258    0.1754509499    0.9072384133
H        0.9699832345   -2.0052071352   -0.1083596732
H       -1.4849863501   -0.9768147461   -2.0611689187
H       -2.1462869854    0.1853013146    0.9318876572
H       -1.2610515958    1.8161806714   -0.8602620693
C        0.1839720667   -0.2535718561    1.1932999650
H        0.8070148375   -0.3189027615    2.1597733213
13   
C6H6N->C6H6N atoms 1-13 frame 196 charge -0.000 sz -1.000 sz^2 0.756
C        1.5131105651    0.3013143699    0.0422966684
C        0.6266263136   -0.9748848751   -0.1736282094
C       -0.7503581308   -0.3952622334   -1.2968180132
C       -1.1439493148    0.0839920464    0.4751325345
C       -0.5594993633    1.0260764044   -0.7514975412
N        1.0599434064    1.4698763552   -0.5346651776
H        2.1334550001    0.1487179318    0.8988113977
H        1.0168068139   -1.9818151362   -0.1196740900
H       -1.4657722406   -1.0611864598   -1.9999236302
H       -2.1167636913    0.2097752868    0.9782576422
H       -1.2575523263    1.8225617767   -0.8920654012
C        0.1574615685   -0.2965616705    1.1984770600
H        0.7864913993   -0.3526037963    2.1752967601
13   
C6H6N->C6H6N atoms 1-13 frame 198 charge +0.000 sz -1.000 sz^2 0.736
C        1.4889535498    0.3125398096    0.0150301688
C        0.6077291517   -0.9761280886   -0.1842188366
C       -0.7461362582   -0.3575384399   -1.3254596763
C       -1.1354721427    0.0982591602    0.4765970353
C       -0.5486107862    1.0642687238   -0.7675289175
N        1.0700232476    1.4873610648   -0.5132471975
H        2.0978220853    0.1304936241    0.8822133944
H        1.0636895283   -1.9626510472   -0.1339946749
H       -1.4312359326   -1.1329076137   -1.9193634903
H       -2.0837425690    0.2333924842    1.0228185484
H       -1.2565889801    1.8337430698   -0.9315730703
C        0.1304039845   -0.3426758043    1.2023770438
H        0.7431651215   -0.3881569427    2.1763496728
13   
C6H6N->C6H6N atoms 1-13 frame 200 charge +0.000 sz -1.000 sz^2 0.717
C        1.4630068848    0.3213398256   -0.0114498159
C        0.5890894815   -0.9784291053   -0.1911886134
C       -0.7434582144   -0.3272691392   -1.3446282627
C       -1.1264736276    0.1102122176    0.4813309937
C       -0.5404473146    1.0954659288   -0.7796988112
N        1.0755314326    1.4998983753   -0.4924715003
H        2.0832801874    0.1214785686    0.8585635410
H        1.1081237066   -1.9473886603   -0.1506773233
H       -1.3851279694   -1.1885789786   -1.8263130348
H       -2.0495397790    0.2554864667    1.0622963056
H       -1.2597488486    1.8513096612   -0.9767707088
C        0.1035524871   -0.3907093244    1.2054594598
H        0.6822115734   -0.4228158360    2.1655477702
13   
C6H6N->C6H6N atoms 1-13 frame 202 charge +0.000 sz -1.000 sz^2 0.714
C        1.4366475440    0.3272515200   -0.0361805960
C        0.5716433072   -0.9819526541   -0.1943351911
C       -0.7413498839   -0.3052201016   -1.3549727431
C       -1.1169488412    0.1195941622    0.4889923520
C       -0.5345941380    1.1193444493   -0.7885534345
N        1.0769395259    1.5077721070   -0.4724650904
H        2.0859433844    0.1212680745    0.8276228859
H        1.1482640842   -1.9335353885   -0.1695674299
H       -1.3316438053   -1.2281655333   -1.7274296861
H       -2.0165692331    0.2763918179    1.0949998846
H       -1.2653764663    1.8733520213   -1.0255446865
C        0.0766231546   -0.4402787291    1.2076768543
H        0.6104213675   -0.4558217456    2.1497568809
13   
C6H6N->C6H6N atoms 1-13 frame 204 charge -0.000 sz -1.000 sz^2 0.720
C        1.4104468280    0.3303356691   -0.0588954579
C        0.5558133522   -0.9865157756   -0.1940996497
C       -0.7388280499   -0.2906499910   -1.3577668224
C       -1.1068792283    0.1266469681    0.4989677520
C       -0.5307746111    1.1369968672   -0.7949449957
N        1.0745329306    1.5119908181   -0.4528104855
H        2.1014183036    0.1293347580    0.7881070475
H        1.1831739886   -1.9181612251   -0.1912429944
H       -1.2741005809   -1.2535523619   -1.6272552562
H       -1.9868209639    0.2971481392    1.1203445384
H       -1.2700024294    1.8964320727   -1.0764221586
C        0.0484689188   -0.4919525944    1.2083005331
H        0.5335515418   -0.4880533445    2.1377179495
13   
C6H6N->C6H6N atoms 1-13 frame 206 charge +0.000 sz -1.000 sz^2 0.736
C        1.3848384575    0.3308133208   -0.0794769661
C        0.5420505000   -0.9916567848   -0.1910591259
C       -0.7348501539   -0.2825086705   -1.3539838166
C       -1.0962353568    0.1317348598    0.5106172263
C       -0.5288697280    1.1496835088   -0.7996040901
N        1.0682417516    1.5137159314   -0.4330118924
H        2.1263256857    0.1455124367    0.7382998524
H        1.2121571700   -1.8987337995   -0.2166602597
H       -1.2156626646   -1.2671639079   -1.5295207037
H       -1.9622373503    0.3190401440    1.1377694482
H       -1.2697079024    1.9169947833   -1.1280236273
C        0.0178178294   -0.5465017885    1.2060873851
H        0.4561317619   -0.5209300337    2.1385665700
13   
C6H6N->C6H6N atoms 1-13 frame 209 charge -0.000 sz -1.000 sz^2 0.746
C        1.3608814002    0.3290788396   -0.0974385782
C        0.5313165316   -0.9965497648   -0.1856288818
C       -0.7282244988   -0.2797615464   -1.3440885536
C       -1.0849809025    0.1353033516    0.5234308008
C       -0.5287108173    1.1584214933   -0.8028975222
N        1.0579276048    1.5142026758   -0.4128202569
H        2.1579191107    0.1696212301    0.6772906844
H        1.2345280311   -1.8735755137   -0.2462837728
H       -1.1607599525   -1.2723536277   -1.4386674364
H       -1.9447705475    0.3433190520    1.1466604054
H       -1.2608487504    1.9316694976   -1.1779871981
C       -0.0157453465   -0.6038014082    1.2000213851
H        0.3814681372   -0.5555742793    2.1584089243
13   
C6H6N->C6H6N atoms 1-13 frame 211 charge -0.000 sz -1.000 sz^2 0.740
C        1.3402902546    0.3259071783   -0.1118918021
C        0.5249803714   -1.0000204060   -0.1777712101
C       -0.7177733685   -0.2812751860   -1.3281105076
C       -1.0730533158    0.1380794794    0.5373180885
C       -0.5298520128    1.1640651550   -0.8047538177
N        1.0437410757    1.5148055117   -0.3922510696
H        2.1937511865    0.2009110087    0.6061320090
H        1.2503146129   -1.8425182715   -0.2792342775
H       -1.1148229280   -1.2740066051   -1.3587535221
H       -1.9354143268    0.3710765286    1.1471249821
H       -1.2412144457    1.9379933563   -1.2231140958
C       -0.0512633924   -0.6623721179    1.1904738794
H        0.3103162888   -0.5926456315    2.1948313435
13   
C6H6N->C6H6N atoms 1-13 frame 213 charge +0.000 sz -1.000 sz^2 0.724
C        1.3246848961    0.3224080657   -0.1219472039
C        0.5242360191   -1.0008068092   -0.1668824304
C       -0.7025391645   -0.2860244794   -1.3057227064
C       -1.0604330240    0.1410920957    0.5527146848
C       -0.5316241218    1.1672897392   -0.8048863134
N        1.0259670867    1.5167176320   -0.3713609584
H        2.2321190088    0.2381536258    0.5272694832
H        1.2608573909   -1.8070699207   -0.3135574851
H       -1.0824060624   -1.2771357016   -1.2914011264
H       -1.9334608948    0.4032158380    1.1400208788
H       -1.2108519668    1.9352701034   -1.2610228630
C       -0.0872808632   -0.7202648518    1.1793203583
H        0.2407316960   -0.6328453370    2.2374556818
13   
C6H6N->C6H6N atoms 1-13 frame 215 charge -0.000 sz -1.000 sz^2 0.697
C        1.3152000539    0.3197992763   -0.1269327031
C        0.5297886162   -0.9977882849   -0.1520578771
C       -0.6818871012   -0.2935299672   -1.2764141951
C       -1.0473605798    0.1454091789    0.5702084523
C       -0.5333573679    1.1683384866   -0.8030928263
N        1.0046933035    1.5206770523   -0.3503237791
H        2.2720866911    0.2797603703    0.4435498538
H        1.2684970846   -1.7702363123   -0.3469982557
H       -1.0663703269   -1.2845054890   -1.2364489219
H       -1.9369339691    0.4401073541    1.1261559064
H       -1.1720617606    1.9246160029   -1.2911361510
C       -0.1227431379   -0.7757315471    1.1689780891
H        0.1704484941   -0.6769161208    2.2745124077
13   
C6H6N->C6H6N atoms 1-13 frame 217 charge +0.000 sz -1.000 sz^2 0.670
C        1.3125332294    0.3192499854   -0.1264428183
C        0.5418231939   -0.9901574635   -0.1324465394
C       -0.6556026600   -0.3040630522   -1.2397393398
C       -1.0344309864    0.1518534628    0.5901649437
C       -0.5344695770    1.1668314185   -0.7993874312
N        0.9798157389    1.5267913149   -0.3296919354
H        2.3130365378    0.3236227693    0.3579299374
H        1.2759419243   -1.7361754545   -0.3773092279
H       -1.0678485454   -1.2953546285   -1.1934801933
H       -1.9432200749    0.4811114356    1.1060490330
H       -1.1292761825    1.9087402730   -1.3148127747
C       -0.1570429813   -0.8272209421    1.1617258384
H        0.0987403832   -0.7252291187    2.2974405073
13   
From optimize.out: Frame 2 / 26, Energy=    -286.7083720091
C        1.3375559263    0.3213128660   -0.1198661368
C        0.5629702831   -0.9735716670   -0.1168175704
C       -0.6336370867   -0.3156703754   -1.2003031885
C       -1.0370968027    0.1625437234    0.6037857485
C       -0.5355149326    1.1540180152   -0.7848185091
N        0.9550925798    1.5226157014   -0.3181238642
H        2.3650598895    0.3509683035    0.2989242331
H        1.2882552082   -1.7143126010   -0.3973483197
H       -1.0871315562   -1.3009088840   -1.1641173972
H       -1.9620649983    0.5172853723    1.0775659478
H       -1.1026619437    1.8883071969   -1.3177302409
C       -0.1887968601   -0.8508853415    1.1521843759
H        0.0379702934   -0.7617023098    2.2866649215
13   
From optimize.out: Frame 4 / 26, Energy=    -286.7632234201
C        1.4043717943    0.3278959251   -0.1100778084
C        0.5893654757   -0.9452498087   -0.1228020484
C       -0.6228688622   -0.3278436367   -1.1666040818
C       -1.0680107463    0.1832723661    0.5923915612
C       -0.5307720285    1.1139277240   -0.7403856467
N        0.9271749417    1.4906232012   -0.3259978579
H        2.4284957325    0.3501376480    0.3016921618
H        1.2980784227   -1.7145853526   -0.4023045311
H       -1.1125441102   -1.2943830912   -1.1428928009
H       -2.0011920398    0.5450738940    1.0329938301
H       -1.1053410537    1.8558469664   -1.2679736406
C       -0.2171183714   -0.8170728044    1.1253961469
H        0.0103608453   -0.7676430311    2.2265647158
13   
From optimize.out: Frame 6 / 26, Energy=    -286.7928728770
C        1.4548748246    0.3422491344   -0.1048281257
C        0.6118855356   -0.9176922820   -0.1279949551
C       -0.5895820854   -0.3526470696   -1.1339145930
C       -1.0872367579    0.2132965221    0.5725239955
C       -0.5184413375    1.0710804548   -0.6861768519
N        0.8878112193    1.4628220952   -0.3359155255
H        2.4756894034    0.3701176236    0.2940491102
H        1.2851110706   -1.7282284174   -0.4003424606
H       -1.1371106306   -1.2873481205   -1.1318976780
H       -2.0304300999    0.5823045731    0.9764904486
H       -1.1031330967    1.8190199709   -1.2036996586
C       -0.2404082979   -0.7839334604    1.1012576118
H       -0.0090297477   -0.7910410242    2.1804486822
13   
From optimize.out: Frame 8 / 26, Energy=    -286.8101099511
C        1.4990721961    0.3641448381   -0.1077832306
C        0.6398256760   -0.8906404571   -0.1226935486
C       -0.5358847201   -0.3842435275   -1.1062058031
C       -1.1014571073    0.2431192252    0.5606719596
C       -0.5115701438    1.0379778884   -0.6392445056
N        0.8673257038    1.4496038562   -0.3539827069
H        2.5231120188    0.4006831682    0.2678195460
H        1.2547716424   -1.7567018778   -0.3730271422
H       -1.1734657108   -1.2591830047   -1.1529882467
H       -2.0602148175    0.6032811140    0.9308909183
H       -1.1130869717    1.7811221774   -1.1518512257
C       -0.2557840837   -0.7529940177    1.0906773005
H       -0.0326436822   -0.8361693827    2.1577166849
13   
From optimize.out: Frame 10 / 26, Energy=    -286.8228651580
C        1.5271348290    0.3846577900   -0.1173289865
C        0.6659318366   -0.8715217319   -0.1077835049
C       -0.4729321561   -0.4115056255   -1.0901826252
C       -1.1074615004    0.2675426267    0.5753386277
C       -0.5126033981    1.0119766705   -0.6163237765
N        0.8601961915    1.4476205602   -0.3787346030
H        2.5592214635    0.4304386203    0.2273226635
H        1.2228847469   -1.7870789764   -0.3189940431
H       -1.2030975331   -1.2020027176   -1.2195371803
H       -2.0776450561    0.6095069366    0.9314412054
H       -1.1330967780    1.7409178231   -1.1312071706
C       -0.2648122421   -0.7269807625    1.0949518911
H       -0.0637204036   -0.8935712136    2.1510375023
13   
From optimize.out: Frame 12 / 26, Energy=    -286.8348362135
C        1.5434849584    0.4002532032   -0.1278291037
C        0.6827538427   -0.8578780870   -0.0971488610
C       -0.4141409721   -0.4346843266   -1.0970337152
C       -1.1091019265    0.2966668464    0.6081886647
C       -0.5190290782    0.9830592094   -0.6035050788
N        0.8527214843    1.4447933470   -0.4019212528
H        2.5825160166    0.4545941647    0.1893254823
H        1.1937738224   -1.8090358087   -0.2633777418
H       -1.1968710986   -1.1568397396   -1.3022178960
H       -2.0770115297    0.6312905362    0.9767522107
H       -1.1576352022    1.6990701852   -1.1173534139
C       -0.2778209040   -0.6997222638    1.0979831259
H       -0.1036394129   -0.9515672664    2.1381375795
13   
From optimize.out: Frame 15 / 26, Energy=    -286.8469086510
C        1.5529337870    0.4121396097   -0.1348768495
C        0.6930983938   -0.8478202023   -0.0908888726
C       -0.3614393550   -0.4550901666   -1.1198830539
C       -1.1109745839    0.3270602067    0.6492516131
C       -0.5279578902    0.9513844835   -0.5952604008
N        0.8454241379    1.4402309079   -0.4221265773
H        2.5964126903    0.4739069832    0.1622102990
H        1.1659603322   -1.8247234677   -0.2132250545
H       -1.1723601559   -1.1236405474   -1.3885249505
H       -2.0669139551    0.6618761508    1.0458644416
H       -1.1812806080    1.6575439039   -1.1069823131
C       -0.2933819222   -0.6703184092    1.0984717090
H       -0.1395208710   -1.0025494525    2.1159700096
13   
From optimize.out: Frame 17 / 26, Energy=    -286.8504925930
C        1.5527775483    0.4223801519   -0.1379493114
C        0.6990026159   -0.8440514304   -0.0815413804
C       -0.3216248104   -0.4713592424   -1.1430568554
C       -1.1085209248    0.3581665742    0.6922049409
C       -0.5401351047    0.9234952818   -0.5963973302
N        0.8368913379    1.4397746496   -0.4377939034
H        2.6019838481    0.4897873480    0.1361375975
H        1.1527566524   -1.8342698598   -0.1602171986
H       -1.1465686985   -1.0934514135   -1.4764879308
H       -2.0455388815    0.6979406193    1.1241618791
H       -1.2033976921    1.6196315795   -1.1112744423
C       -0.3037816765   -0.6459789115    1.1017321351
H       -0.1738442141   -1.0620653467    2.0904817998
13   
From optimize.out: Frame 19 / 26, Energy=    -286.8510741305
C        1.5432222183    0.4309286341   -0.1415771848
C        0.6979729968   -0.8450081363   -0.0699673102
C       -0.2974971085   -0.4815580297   -1.1607197313
C       -1.0973507457    0.3886785638    0.7307701266
C       -0.5563216358    0.9049012938   -0.6002432963
N        0.8278084519    1.4453613207   -0.4482835639
H        2.6009218042    0.4992377107    0.1002527630
H        1.1585519441   -1.8336650681   -0.1073932033
H       -1.1132061609   -1.0807091157   -1.5556963673
H       -2.0072788876    0.7403307659    1.2053541635
H       -1.2233069894    1.5912440508   -1.1237155671
C       -0.3059273414   -0.6309922117    1.1071781107
H       -0.2275885461   -1.1287497781    2.0640410603
13   
From optimize.out: Frame 21 / 26, Energy=    -286.8515232469
C        1.5283576054    0.4368424189   -0.1454840559
C        0.6891583640   -0.8481588252   -0.0590824316
C       -0.2857310829   -0.4861495505   -1.1732751558
C       -1.0820257081    0.4136221123    0.7603311443
C       -0.5759366821    0.8967397142   -0.6024254923
N        0.8190121372    1.4531921390   -0.4547754389
H        2.5944724096    0.5027466113    0.0617618543
H        1.1768591353   -1.8232167677   -0.0675197155
H       -1.0674928174   -1.0980025656   -1.6155866615
H       -1.9520340805    0.7913083681    1.2855652205
H       -1.2399004642    1.5772158055   -1.1354805558
C       -0.3045502744   -0.6238372387    1.1119081134
H       -0.3001885421   -1.1923022217    2.0340631749
13   
From optimize.out: Frame 23 / 26, Energy=    -286.8516203310
C        1.5133585009    0.4393292763   -0.1442818626
C        0.6749765866   -0.8523388134   -0.0556933336
C       -0.2880621228   -0.4836493157   -1.1833031333
C       -1.0738129215    0.4197554294    0.7724280433
C       -0.5954810664    0.8949368504   -0.6069287988
N        0.8101276229    1.4586554029   -0.4533822676
H        2.5835217146    0.5032881880    0.0457135140
H        1.2035364804   -1.8051856722   -0.0713861808
H       -1.0193911454   -1.1485507077   -1.6356932237
H       -1.8788741302    0.8546961018    1.3543373406
H       -1.2488609553    1.5795670520   -1.1448948009
C       -0.3085684479   -0.6324310736    1.1094834540
H       -0.3724701160   -1.2280727183    2.0136012495
13   
From optimize.out: Frame 25 / 26, Energy=    -286.8516452122
C        1.5112975328    0.4410895933   -0.1334719881
C        0.6762476027   -0.8532161416   -0.0651110651
C       -0.2808059319   -0.4771236761   -1.1995647806
C       -1.0848945239    0.4079405316    0.7580546539
C       -0.5929600890    0.8947523342   -0.6140979223
N        0.8085407511    1.4610016109   -0.4399402184
H        2.5777702011    0.5066567657    0.0756198237
H        1.2121963132   -1.8020485502   -0.0914165359
H       -1.0447083667   -1.1594560826   -1.5687065793
H       -1.8794812201    0.8695979113    1.3339512666
H       -1.2396670597    1.5838911086   -1.1550453864
C       -0.3197423502   -0.6434965978    1.0937289271
H       -0.3437928594   -1.2295888074    2.0059998046
