13   
From optimize.out: Frame 23 / 24, Energy=    -286.8568459332
C        1.5870652534    0.3115518464    0.1267216970
C        1.0215815176   -0.9083749137    0.2855610216
C       -0.4329636366   -1.0944262623    0.1727617238
C       -1.2410022657    0.2902820537    0.0321549352
C       -0.4009609007    1.4970703397    0.1630320294
N        0.8875236918    1.5238103250    0.1176442601
H        2.6680848805    0.4248334914    0.1289018472
H        1.6433408653   -1.7754195058    0.4940218413
H       -0.9035079651   -1.8892285098    0.7524279463
H       -2.2274361209    0.3356255424    0.4971265749
H       -0.9119776441    2.4430759432    0.3566101985
C       -1.0653034798   -0.6536244720   -1.0737404309
H       -0.6244441963   -0.5051758780   -2.0532236450
13   
From optimize.out: Frame 22 / 24, Energy=    -286.8568447983
C        1.5867271353    0.3114379393    0.1254687614
C        1.0212657661   -0.9084379815    0.2859258112
C       -0.4331494648   -1.0944641949    0.1732237576
C       -1.2413247116    0.2906771282    0.0316064913
C       -0.4012649740    1.4970922023    0.1631950984
N        0.8872038700    1.5235932338    0.1167925410
H        2.6677585943    0.4246422837    0.1270059102
H        1.6430378641   -1.7752737189    0.4951649085
H       -0.9039676752   -1.8892389267    0.7525991087
H       -2.2278377008    0.3353400945    0.4964802075
H       -0.9117433080    2.4429955535    0.3586212111
C       -1.0644011321   -0.6539163356   -1.0736409945
H       -0.6223042635   -0.5044472777   -2.0524428124
13   
From optimize.out: Frame 21 / 24, Energy=    -286.8568438397
C        1.5865770245    0.3111083966    0.1246163011
C        1.0213770191   -0.9086107504    0.2860308870
C       -0.4329328152   -1.0943205203    0.1735359908
C       -1.2416485904    0.2906921683    0.0314666823
C       -0.4015615449    1.4968002086    0.1635622080
N        0.8869250353    1.5230863609    0.1166607564
H        2.6675725666    0.4245371793    0.1257640556
H        1.6432146187   -1.7754062360    0.4952168484
H       -0.9037972308   -1.8887961214    0.7532113851
H       -2.2287129503    0.3366214804    0.4950408429
H       -0.9121384393    2.4424717010    0.3598258160
C       -1.0641664652   -0.6544124203   -1.0734361047
H       -0.6207082279   -0.5037714468   -2.0514956687
13   
From optimize.out: Frame 19 / 24, Energy=    -286.8568388879
C        1.5862749345    0.3112955134    0.1240047919
C        1.0206135493   -0.9084777874    0.2874738471
C       -0.4332898995   -1.0947806705    0.1741161783
C       -1.2423423372    0.2911198559    0.0299508058
C       -0.4016288903    1.4966169959    0.1637661165
N        0.8868899707    1.5230844204    0.1151738491
H        2.6673876911    0.4239403404    0.1197591544
H        1.6423415837   -1.7745226859    0.4999939718
H       -0.9049220891   -1.8891108994    0.7534196769
H       -2.2292017483    0.3341688019    0.4941410469
H       -0.9112032502    2.4420485719    0.3636729299
C       -1.0629271723   -0.6538523449   -1.0741629381
H       -0.6179923424   -0.5015301116   -2.0513094306
13   
From optimize.out: Frame 18 / 24, Energy=    -286.8568301721
C        1.5870599541    0.3114743234    0.1219602456
C        1.0210020510   -0.9089107605    0.2833446577
C       -0.4334919255   -1.0933404789    0.1757392886
C       -1.2435347204    0.2911153704    0.0297235565
C       -0.4016393615    1.4959686746    0.1624110826
N        0.8870149080    1.5225260825    0.1132867979
H        2.6680728486    0.4252554885    0.1276713519
H        1.6427177586   -1.7752611804    0.4947908571
H       -0.9052499980   -1.8867720847    0.7563280961
H       -2.2306309840    0.3337002298    0.4934677109
H       -0.9102638961    2.4413716712    0.3645817416
C       -1.0632393945   -0.6542928460   -1.0731266860
H       -0.6178172401   -0.5028344899   -2.0501787005
13   
From optimize.out: Frame 17 / 24, Energy=    -286.8568248852
C        1.5848143762    0.3098974144    0.1192260556
C        1.0201877299   -0.9081047371    0.2905943057
C       -0.4324785037   -1.0946254823    0.1740244594
C       -1.2421723352    0.2909962147    0.0296013708
C       -0.4024435675    1.4960894589    0.1626266866
N        0.8858832537    1.5215693440    0.1126740928
H        2.6658195235    0.4234012059    0.1189635141
H        1.6428529650   -1.7737611246    0.5020097500
H       -0.9038262558   -1.8904190587    0.7514465765
H       -2.2291558597    0.3381238202    0.4931375685
H       -0.9115362052    2.4408290218    0.3670097823
C       -1.0636379351   -0.6560132600   -1.0734377675
H       -0.6143071861   -0.4979828171   -2.0478763950
13   
From optimize.out: Frame 16 / 24, Energy=    -286.8567654320
C        1.5843027440    0.3090272256    0.1234296784
C        1.0210117676   -0.9131192526    0.2804266618
C       -0.4304190665   -1.0989240820    0.1694561127
C       -1.2429361578    0.2927513039    0.0291907325
C       -0.4050173787    1.4988967136    0.1590976303
N        0.8848243483    1.5211380583    0.1144967352
H        2.6653341933    0.4218283959    0.1154819930
H        1.6421579604   -1.7749559172    0.5110659321
H       -0.9009748881   -1.8902639954    0.7529108273
H       -2.2280031308    0.3396352658    0.4966506064
H       -0.9149807918    2.4428641401    0.3654173554
C       -1.0624336605   -0.6566813347   -1.0720573673
H       -0.6128659395   -0.4921965213   -2.0455668977
13   
From optimize.out: Frame 15 / 24, Energy=    -286.8567076464
C        1.5876322616    0.3121139886    0.1095157610
C        1.0198807055   -0.9081331880    0.2888408235
C       -0.4311051344   -1.0995531371    0.1761536100
C       -1.2494568273    0.2941862020    0.0249853052
C       -0.4002368337    1.4945697904    0.1615512914
N        0.8888399185    1.5211373280    0.1027754870
H        2.6688078383    0.4251333514    0.1257329899
H        1.6442405945   -1.7697752126    0.5115287399
H       -0.9086075616   -1.8928879966    0.7528802492
H       -2.2341604118    0.3276412187    0.4937327013
H       -0.9043644485    2.4399311471    0.3742097923
C       -1.0652111680   -0.6505646091   -1.0736229857
H       -0.6162589331   -0.4937988827   -2.0482837650
13   
From optimize.out: Frame 13 / 24, Energy=    -286.8564479494
C        1.5761798827    0.3046571099    0.1079159495
C        1.0177200489   -0.9142734899    0.2795230014
C       -0.4253058802   -1.1126703763    0.1593473218
C       -1.2457474978    0.2926535179    0.0239329948
C       -0.4066968070    1.4963899881    0.1567130164
N        0.8819432685    1.5154601458    0.1093000603
H        2.6571869695    0.4179712984    0.1135626277
H        1.6445652701   -1.7676651694    0.5280810661
H       -0.8918609033   -1.8937424835    0.7617088304
H       -2.2287722781    0.3501681562    0.4948059135
H       -0.9114791352    2.4409910437    0.3724093651
C       -1.0651753899   -0.6609739006   -1.0719988396
H       -0.6025575481   -0.4689658402   -2.0353013072
13   
From optimize.out: Frame 12 / 24, Energy=    -286.8557469705
C        1.5987946974    0.3120169866    0.1351550493
C        1.0309527534   -0.9200232209    0.2876314234
C       -0.4135780551   -1.0991653931    0.1657970342
C       -1.2522734186    0.2972299821    0.0140261405
C       -0.4068764252    1.5032943479    0.1454156710
N        0.8891866242    1.5216831601    0.1084877294
H        2.6794040531    0.4294199734    0.1489394250
H        1.6449238109   -1.7861572711    0.5211954966
H       -0.8959217770   -1.9025039829    0.7178387882
H       -2.2133367116    0.3392302633    0.5314584055
H       -0.9190368480    2.4502967186    0.3355346313
C       -1.0917955658   -0.6728936056   -1.0697719386
H       -0.6504431379   -0.4724279583   -2.0417078557
13   
From optimize.out: Frame 11 / 24, Energy=    -286.8541058530
C        1.5904076511    0.3075511150    0.1020052476
C        1.0200667249   -0.9073748892    0.2748855176
C       -0.4201339081   -1.0851465988    0.1411696508
C       -1.2544496709    0.2780170612   -0.0103468782
C       -0.4101088918    1.4657148401    0.1512282731
N        0.8789705259    1.5068708213    0.0901704669
H        2.6711907423    0.4181934650    0.1502445280
H        1.6220852859   -1.7637743991    0.5700073345
H       -0.9160452629   -1.8201509600    0.7780456508
H       -2.1788523364    0.2490360811    0.5668594499
H       -0.8928123441    2.4264198687    0.3551306363
C       -1.0777853115   -0.6479117768   -1.1030254487
H       -0.6325332044   -0.4274446284   -2.0663744286
13   
From optimize.out: Frame 10 / 24, Energy=    -286.8514208108
C        1.5746140782    0.3076154928    0.1331272666
C        1.0184988769   -0.9138647402    0.2814724683
C       -0.3976376378   -1.1252580224    0.1128785862
C       -1.2870780958    0.3161310907    0.0023641879
C       -0.4245109478    1.4702455365    0.1241881692
N        0.8686524631    1.4926625579    0.0664202641
H        2.6556684235    0.4212922283    0.1830047536
H        1.6455520526   -1.7662321244    0.5390512175
H       -0.9084709933   -1.8827793516    0.7205286927
H       -2.1821195449    0.2610451201    0.6179266182
H       -0.8673035546    2.4590472648    0.2841602129
C       -1.0743187239   -0.6131692732   -1.0499208099
H       -0.6215463962   -0.4267357795   -2.0152016272
13   
From optimize.out: Frame 9 / 24, Energy=    -286.8453304356
C        1.5759139079    0.3033640603    0.1249432275
C        1.0222382211   -0.9300494296    0.3100833768
C       -0.3669451337   -1.1710616910    0.0532337234
C       -1.2976086054    0.3211759916    0.0274415930
C       -0.4418668871    1.4663375316    0.0973374891
N        0.8633122027    1.4777572026    0.0138341315
H        2.6559818416    0.4238745597    0.1907010533
H        1.6589670713   -1.7586269383    0.6204215494
H       -0.9595867844   -1.8559322307    0.6732699893
H       -2.1461104794    0.2076394565    0.6998528123
H       -0.8664557875    2.4630585420    0.2588076385
C       -1.0543521390   -0.5676583684   -1.0434211775
H       -0.6434874280   -0.3798786862   -2.0265054066
13   
From optimize.out: Frame 8 / 24, Energy=    -286.8362891396
C        1.5710655248    0.2896209571    0.1132714862
C        1.0392114322   -0.9592441536    0.2932665424
C       -0.3399830642   -1.1940519924    0.0871651943
C       -1.3681190431    0.3494952167    0.0168779347
C       -0.4746809759    1.4497355785    0.1137421804
N        0.8416296296    1.4387647682    0.0379074802
H        2.6525398463    0.4225362361    0.1524798002
H        1.7036226625   -1.7801741759    0.5689065461
H       -0.9512788311   -1.8341492761    0.7442509501
H       -2.2349213941    0.2193012004    0.6568492552
H       -0.8420963455    2.4740609406    0.2454330143
C       -1.0325801847   -0.5091347209   -1.0332164519
H       -0.5644092569   -0.3667605787   -1.9969339321
13   
From optimize.out: Frame 7 / 24, Energy=    -286.8225675642
C        1.5340257739    0.2916096338    0.1067867770
C        1.0116373439   -0.9812641766    0.2697199089
C       -0.3290926764   -1.2991995492    0.0494781433
C       -1.3901592068    0.3898833240    0.0594993383
C       -0.4844279909    1.4795268238    0.0952811690
N        0.8342248182    1.4318322432    0.0198829638
H        2.6146379178    0.4270853241    0.1557426693
H        1.7158984053   -1.7670199247    0.5500596883
H       -0.9568473117   -1.9246479865    0.7088563166
H       -2.2490586468    0.2450799918    0.6999452229
H       -0.8264013588    2.5177244974    0.1746642003
C       -0.9808094638   -0.4421370620   -0.9642841101
H       -0.4936276041   -0.3684731391   -1.9256322877
13   
From optimize.out: Frame 6 / 24, Energy=    -286.7999150663
C        1.5113443975    0.2742486833    0.0960818458
C        1.0265633546   -1.0223039989    0.2767643664
C       -0.2984807294   -1.3745545899    0.0870865393
C       -1.4576631610    0.4349013682    0.0642449440
C       -0.5109866717    1.4905389000    0.0967839165
N        0.8124721384    1.3957860844    0.0168661831
H        2.5879057534    0.4315378283    0.1122017115
H        1.7768962796   -1.7771089776    0.5181197284
H       -0.9583343892   -1.9721869899    0.7321709915
H       -2.3286112252    0.2755648632    0.6839430676
H       -0.7992923941    2.5454568090    0.1373613674
C       -0.9499057696   -0.3662373796   -0.9422475552
H       -0.4119075833   -0.3356426006   -1.8793771064
13   
From optimize.out: Frame 5 / 24, Energy=    -286.7731617345
C        1.4953650466    0.2639366887    0.0787151751
C        1.0214339836   -1.0517788906    0.2647961726
C       -0.3046754051   -1.4158157423    0.1364344399
C       -1.4934526212    0.4491545475    0.0707097701
C       -0.5320780630    1.5023854657    0.1083253362
N        0.7953126480    1.3873320401    0.0231497392
H        2.5674681885    0.4314132117    0.0430428917
H        1.7964072865   -1.7967989874    0.4440724767
H       -1.0050100670   -1.9651086069    0.7705179554
H       -2.3825724162    0.2613481527    0.6618318688
H       -0.8012048930    2.5604251561    0.1126805022
C       -0.8801701857   -0.3056722242   -0.9089665820
H       -0.2768235021   -0.3208208111   -1.8053097460
13   
From optimize.out: Frame 4 / 24, Energy=    -286.7515998571
C        1.5738600645    0.2535695388    0.0835516167
C        1.0769065201   -1.0337663270    0.2614927568
C       -0.2545742002   -1.2105951844    0.0935498887
C       -1.5328761393    0.3520244078    0.0983543873
C       -0.5578421224    1.4299340661    0.1257022751
N        0.8006017930    1.3379976542    0.0373467685
H        2.6386457472    0.4467531759    0.0413599707
H        1.7934299779   -1.8348341398    0.4403170707
H       -1.1203622487   -1.6156095518    0.6027250586
H       -2.4230829694    0.1375165987    0.6867833023
H       -0.8077721163    2.4901267426    0.1237191037
C       -0.8981610905   -0.3472528261   -0.8566414692
H       -0.2887732160   -0.4058641551   -1.7382607299
13   
From optimize.out: Frame 3 / 24, Energy=    -286.7103034649
C        1.5967000806    0.2320345828    0.1066161599
C        1.1463257824   -1.1226912868    0.2503048274
C       -0.1748266923   -1.3945667756    0.0016567233
C       -1.6404768303    0.4805788250    0.1535387202
C       -0.6022597645    1.5332275502    0.0945249341
N        0.7828212783    1.3542813157    0.0206570293
H        2.6523468625    0.4557213699    0.0940204343
H        1.9042627953   -1.8768469760    0.4417750529
H       -1.0573885831   -1.8244699964    0.3911819058
H       -2.5657156177    0.3254780042    0.7332668493
H       -0.8174931771    2.5908090270   -0.0151113341
C       -0.9382285809   -0.2876517047   -0.7223507519
H       -0.2860675531   -0.4659039354   -1.5500805505
13   
From optimize.out: Frame 2 / 24, Energy=    -286.6853128800
C        1.5572483127    0.2073652944    0.0371401762
C        1.0864202990   -1.1706780654    0.2902559614
C       -0.2699961357   -1.4821955438    0.2581227643
C       -1.6040983670    0.4574795287    0.0780399710
C       -0.6190031213    1.5738820111    0.0973705656
N        0.7770705228    1.3930022550   -0.0132527392
H        2.6114138721    0.3911628944   -0.0842750340
H        1.8658142845   -1.9133936347    0.4133870815
H       -1.0717000049   -1.8933133025    0.7756521073
H       -2.5269192893    0.1802219698    0.6353837218
H       -0.9025573142    2.6175775148    0.0629369587
C       -0.7939539192   -0.1567234119   -0.8658994036
H       -0.1097391395   -0.2043875099   -1.6848621312
13   
From optimize.out: Frame 1 / 24, Energy=    -286.5857843898
C        1.5032219898    0.1806916257   -0.0392147871
C        1.0002945220   -1.1966275841    0.3239143341
C       -0.3624222828   -1.4773899814    0.5435677106
C       -1.5390954292    0.3894109636   -0.0190781092
C       -0.6337026465    1.5708639117    0.1131014686
N        0.7702663769    1.4203086712   -0.0366762655
H        2.5418159801    0.3108505060   -0.2856699393
H        1.7667843053   -1.9593338979    0.3508264816
H       -1.0699628063   -1.8424235900    1.1916551056
H       -2.4475628952   -0.0257582402    0.4902322056
H       -0.9943487946    2.5876517875    0.1646692690
C       -0.6233200570   -0.0323982345   -1.0037886066
H        0.0880317376    0.0741540624   -1.7935388674
13   
CH+C5H5N->C6H6N atoms 1-13 frame 113 charge +0.000 sz -1.000 sz^2 0.807
C        1.5032219898    0.1806916257   -0.0392147871
C        1.0002945220   -1.1966275841    0.3239143341
C       -0.3624222828   -1.4773899814    0.5435677106
C       -1.5390954292    0.3894109636   -0.0190781092
C       -0.6337026465    1.5708639117    0.1131014686
N        0.7702663769    1.4203086712   -0.0366762655
H        2.5418159801    0.3108505060   -0.2856699393
H        1.7667843053   -1.9593338979    0.3508264816
H       -1.0699628063   -1.8424235900    1.1916551056
H       -2.4475628952   -0.0257582402    0.4902322056
H       -0.9943487946    2.5876517875    0.1646692690
C       -0.6233200570   -0.0323982345   -1.0037886066
H        0.0880317376    0.0741540624   -1.7935388674
13   
CH+C5H5N->C6H6N atoms 1-13 frame 114 charge -0.000 sz -1.000 sz^2 0.799
C        1.5030175032    0.1818052802   -0.0393675290
C        1.0029120205   -1.2005670930    0.3424444353
C       -0.3458791805   -1.4794687256    0.5556548777
C       -1.5369876305    0.4069829424   -0.0152861334
C       -0.6366402638    1.5832042076    0.1238503994
N        0.7747488146    1.4193846193   -0.0361556882
H        2.5382074626    0.3085976145   -0.2987152297
H        1.7737446169   -1.9576007983    0.3768730568
H       -1.0669148610   -1.8596144991    1.1663407145
H       -2.4472314719   -0.0413436769    0.4714284215
H       -0.9860485318    2.6024957298    0.1729202504
C       -0.6276083394   -0.0205077679   -1.0058103774
H        0.0546798612    0.0566321670   -1.8141771980
13   
CH+C5H5N->C6H6N atoms 1-13 frame 115 charge +0.000 sz -1.000 sz^2 0.760
C        1.5023561433    0.1833148239   -0.0399673435
C        1.0058487347   -1.2037089465    0.3601511645
C       -0.3282062463   -1.4810815591    0.5662688505
C       -1.5342372748    0.4244899795   -0.0116853280
C       -0.6393659448    1.5956076556    0.1350790748
N        0.7788443774    1.4186501078   -0.0354799588
H        2.5352322115    0.3069595248   -0.3116851798
H        1.7818874333   -1.9558408194    0.4036552914
H       -1.0670340987   -1.8809878205    1.1442979509
H       -2.4449655600   -0.0554868411    0.4506004588
H       -0.9779696532    2.6178562260    0.1823277459
C       -0.6333613152   -0.0091487121   -1.0077407941
H        0.0209711928    0.0393763812   -1.8358219326
13   
CH+C5H5N->C6H6N atoms 1-13 frame 116 charge +0.000 sz -1.000 sz^2 0.729
C        1.5011918270    0.1852296463   -0.0410466899
C        1.0091168652   -1.2061046538    0.3769952083
C       -0.3095105172   -1.4822820207    0.5755223581
C       -1.5309461760    0.4418221444   -0.0082802970
C       -0.6419121709    1.6079986257    0.1467369533
N        0.7825175467    1.4180565142   -0.0347198446
H        2.5328695246    0.3059310013   -0.3244910322
H        1.7912630537   -1.9539955879    0.4312190916
H       -1.0702091552   -1.9065742978    1.1253105505
H       -2.4406948432   -0.0678028678    0.4280682069
H       -0.9701839501    2.6336904593    0.1928774657
C       -0.6406360634    0.0016814365   -1.0094813196
H       -0.0128659411    0.0223496003   -1.8587106512
13   
CH+C5H5N->C6H6N atoms 1-13 frame 117 charge +0.000 sz -1.000 sz^2 0.972
C        1.4994700848    0.1875149334   -0.0425591823
C        1.0126771791   -1.2078634984    0.3930212195
C       -0.2900547610   -1.4831885657    0.5836463379
C       -1.5272385147    0.4588800485   -0.0051085235
C       -0.6443129043    1.6202834382    0.1587463340
N        0.7857671131    1.4175046455   -0.0339200339
H        2.5310035029    0.3054135067   -0.3369706293
H        1.8017754307   -1.9519998750    0.4596429145
H       -1.0756073181   -1.9359547982    1.1085941913
H       -2.4344636921   -0.0779006257    0.4041988501
H       -0.9627160624    2.6499018938    0.2044456522
C       -0.6494587578    0.0119952515   -1.0109686896
H       -0.0468413001    0.0054136453   -1.8827684410
13   
From optimize.out: Frame 1 / 52, Energy=    -286.5936382329
C        1.4971286318    0.1899646566   -0.0444959883
C        1.0165588491   -1.2090842235    0.4082926963
C       -0.2702625888   -1.4839400822    0.5908137654
C       -1.5232075130    0.4756267605   -0.0022534172
C       -0.6465506972    1.6324146663    0.1710053271
N        0.7884758963    1.4169157706   -0.0331858043
H        2.5294569784    0.3052129983   -0.3488875311
H        1.8131953130   -1.9497343007    0.4891012403
H       -1.0818835045   -1.9682499261    1.0931813456
H       -2.4264707704   -0.0853932595    0.3792121373
H       -0.9554961914    2.6663145400    0.2171459311
C       -0.6597747599    0.0214748627   -1.0122297011
H       -0.0811696435   -0.0115224630   -1.9077000012
13   
From optimize.out: Frame 2 / 52, Energy=    -286.6605506822
C        1.5394868356    0.2050816766    0.0482141061
C        1.1256622288   -1.2177245683    0.3881047814
C       -0.1401434829   -1.6112596040    0.3486675453
C       -1.6312914831    0.6124524722    0.0482463516
C       -0.6303848481    1.6678161827    0.1312376776
N        0.7884463448    1.3776319941    0.0000379374
H        2.5932448189    0.3934959460   -0.1165770831
H        1.9642498086   -1.8920188685    0.5735219189
H       -0.9565753856   -2.1996732583    0.7167308593
H       -2.5863963781    0.2323804354    0.4884786264
H       -0.8214935865    2.7317666496    0.0929675136
C       -0.8905336732   -0.0516162786   -0.9090291954
H       -0.3542711992   -0.2483327789   -1.8106010392
13   
From optimize.out: Frame 3 / 52, Energy=    -286.7027366867
C        1.5662965824    0.2360903660    0.1201021928
C        1.1742514671   -1.1778860199    0.3397595630
C       -0.0596681053   -1.5877117640    0.0845858268
C       -1.6660459251    0.6588456748    0.1154352731
C       -0.6051515294    1.6444549093    0.1122355771
N        0.7957659245    1.3480253618    0.0318122134
H        2.6246541287    0.4680072700    0.0828296890
H        1.9986825949   -1.8415444095    0.6136754943
H       -0.8916444840   -2.2245442642    0.3173924234
H       -2.6315541544    0.4269672508    0.5998276709
H       -0.7202735003    2.7147379560   -0.0133761992
C       -1.0360773330   -0.1661554372   -0.7566713280
H       -0.5492356660   -0.4992868939   -1.6476083967
13   
From optimize.out: Frame 4 / 52, Energy=    -286.7446722733
C        1.5684882556    0.2870702546    0.1118506561
C        1.1064610956   -1.0542917198    0.3236147129
C       -0.1645520041   -1.3471956472    0.0693477155
C       -1.5534199567    0.4987995214    0.1115435065
C       -0.5460844900    1.5113487491    0.1466767758
N        0.8297041738    1.3352970385    0.0499174098
H        2.6351937775    0.4901453780    0.0814388111
H        1.8762559153   -1.7813427978    0.6014409757
H       -1.0165697963   -1.9433126715    0.3486846777
H       -2.4795135388    0.2596779323    0.6254904991
H       -0.6954863228    2.5870163027    0.0905049174
C       -0.9950024576   -0.2862243576   -0.8086572633
H       -0.5654746515   -0.5569879828   -1.7518533944
13   
From optimize.out: Frame 5 / 52, Energy=    -286.7724429653
C        1.5203667845    0.3296878673    0.0828591737
C        0.9893062408   -0.9853564001    0.2795613963
C       -0.2968616800   -1.3108325955    0.0261733339
C       -1.4285769557    0.4500044067    0.1361302701
C       -0.4951857799    1.5013969591    0.1546639253
N        0.8470622468    1.3999419809    0.0304811999
H        2.6010701567    0.4667393596    0.0804696282
H        1.7326850895   -1.7258200037    0.5878049842
H       -1.0422023956   -1.9905643361    0.4201700710
H       -2.3234100019    0.2130057229    0.6916637606
H       -0.7329103178    2.5655732926    0.1192808601
C       -0.8797554041   -0.3519081151   -0.8136613722
H       -0.4915879833   -0.5618681387   -1.7955972312
13   
From optimize.out: Frame 6 / 52, Energy=    -286.8007023353
C        1.5024453865    0.3161939979    0.0695278201
C        0.9845649560   -0.9753971915    0.3025893232
C       -0.3220989350   -1.3116635632    0.1013744083
C       -1.4078639916    0.4495717142    0.0722772147
C       -0.4867791664    1.4777979566    0.1611433577
N        0.8343619389    1.3968595924    0.0311515479
H        2.5876769681    0.4376250074    0.0696001740
H        1.7285468930   -1.7101949074    0.6208730795
H       -0.9550187671   -2.0340117552    0.6138981578
H       -2.3018531829    0.2414970056    0.6340589217
H       -0.7346224447    2.5425877235    0.2004384624
C       -0.8936695912   -0.3691490272   -0.9297661108
H       -0.5356900634   -0.4617165532   -1.9471663565
13   
From optimize.out: Frame 7 / 52, Energy=    -286.8244297084
C        1.5431245980    0.3046466581    0.0971796588
C        1.0274363446   -0.9758361703    0.3255531895
C       -0.2897743651   -1.2734173961    0.0573620250
C       -1.4051928865    0.4425681524    0.0634864469
C       -0.4893969610    1.4720521567    0.1473821466
N        0.8388799913    1.4057070268    0.0213846882
H        2.6290662720    0.4295313001    0.1275100094
H        1.7367108185   -1.7249717387    0.6846848597
H       -0.9034816408   -2.0156164174    0.5692850888
H       -2.2950224878    0.2885225382    0.6548887634
H       -0.7642403818    2.5311316414    0.2121030405
C       -0.9648036302   -0.4340697290   -0.9600860203
H       -0.6633056711   -0.4502480221   -2.0007338964
13   
From optimize.out: Frame 8 / 52, Energy=    -286.8385012177
C        1.5453947663    0.3003792201    0.0938519929
C        1.0315258500   -0.9775773415    0.3174781521
C       -0.2996632117   -1.2862018715    0.0509976569
C       -1.3913417127    0.4468060233    0.0468812062
C       -0.4759618641    1.4867890417    0.1507038982
N        0.8478174918    1.4273721058    0.0180465634
H        2.6290719466    0.4285875397    0.1422549285
H        1.7226025139   -1.7323683879    0.6939877026
H       -0.8461639782   -2.0679007718    0.5834576045
H       -2.3051146128    0.3535740675    0.6213684175
H       -0.7857622119    2.5352361974    0.2314084499
C       -0.9870448790   -0.4887509291   -0.9558421615
H       -0.6853600982   -0.4259448937   -1.9945944113
13   
From optimize.out: Frame 9 / 52, Energy=    -286.8470042230
C        1.5528369814    0.2981696966    0.0849910518
C        1.0387962054   -0.9788601955    0.3199632551
C       -0.2910065130   -1.3109945465    0.0381658136
C       -1.3807847814    0.4512098571    0.0319607236
C       -0.4626849963    1.4961413323    0.1538614245
N        0.8604026606    1.4377769799   -0.0000847763
H        2.6343692533    0.4328006056    0.1371395069
H        1.7085067894   -1.7256445427    0.7440454052
H       -0.8098293453   -2.1091849835    0.5736931333
H       -2.3144712245    0.4125042472    0.5875810096
H       -0.8051393022    2.5294026073    0.2716617585
C       -1.0194769686   -0.5334560130   -0.9558693118
H       -0.7115187589   -0.3998650449   -1.9871089940
13   
From optimize.out: Frame 10 / 52, Energy=    -286.8517841686
C        1.5513164351    0.2982209370    0.0910189940
C        1.0464452862   -0.9898079713    0.3005115722
C       -0.2904131373   -1.3305804697    0.0655644388
C       -1.3951851020    0.4829766306    0.0077582862
C       -0.4645770811    1.5143770459    0.1595390719
N        0.8625749374    1.4461999237    0.0174840181
H        2.6327033816    0.4349785771    0.1334033595
H        1.7223560980   -1.7449105247    0.6985852194
H       -0.7459511537   -2.1775436904    0.5825987461
H       -2.3617664339    0.5163230855    0.5068312069
H       -0.8175740822    2.5401403853    0.2991097399
C       -1.0479212843   -0.5700141771   -0.9237100320
H       -0.6920078638   -0.4203597519   -1.9386946210
13   
From optimize.out: Frame 11 / 52, Energy=    -286.8560381504
C        1.5451630003    0.2973391564    0.0636038875
C        1.0393604234   -0.9952454616    0.3080142989
C       -0.2691460091   -1.3915903867    0.0252317790
C       -1.3859027181    0.5036632892    0.0016198785
C       -0.4561841013    1.5344894196    0.1555017810
N        0.8722384018    1.4556462284   -0.0134271756
H        2.6253342526    0.4336496954    0.1218857239
H        1.6995229612   -1.7161509934    0.7874742467
H       -0.7046531296   -2.2478418431    0.5422119642
H       -2.3616077732    0.5732858252    0.4838225297
H       -0.8231958108    2.5454388851    0.3454644347
C       -1.0632572873   -0.5900967725   -0.9035832022
H       -0.7176722100   -0.4025870420   -1.9178201464
13   
From optimize.out: Frame 12 / 52, Energy=    -286.8599503146
C        1.5374433739    0.3023196408    0.0723667544
C        1.0387611867   -1.0063673948    0.3192045177
C       -0.2407423433   -1.4496761213    0.0143152243
C       -1.4019477898    0.5487475698   -0.0142679625
C       -0.4567939095    1.5576580581    0.1540857950
N        0.8781025963    1.4592910321   -0.0236490690
H        2.6186450907    0.4365050043    0.1124625512
H        1.7056908211   -1.7097350655    0.8154333612
H       -0.6293349463   -2.3478967787    0.4949156562
H       -2.3950477868    0.6718120931    0.4233282648
H       -0.8145634777    2.5635222386    0.3785511321
C       -1.0897907315   -0.6011518261   -0.8629972586
H       -0.7504220838   -0.4250284504   -1.8837489668
13   
From optimize.out: Frame 13 / 52, Energy=    -286.8638354203
C        1.5301711814    0.3089269992    0.0680717629
C        1.0351027548   -1.0154087002    0.3188548351
C       -0.2234677299   -1.4798413823    0.0134619771
C       -1.4104284551    0.5821608567   -0.0271875311
C       -0.4641720150    1.5740684444    0.1486257058
N        0.8841777417    1.4622794551   -0.0217255937
H        2.6124601112    0.4373995921    0.1074462009
H        1.7073901069   -1.7036896850    0.8300592870
H       -0.5744176159   -2.4126985470    0.4545262822
H       -2.4184181038    0.7465980804    0.3622148440
H       -0.8053627455    2.5733768452    0.4186726019
C       -1.0957405704   -0.6171252557   -0.8200819539