13   
From optimize.out: Frame 1 / 2, Energy=    -286.8568459332
C        1.5870652534    0.3115518464    0.1267216970
C        1.0215815176   -0.9083749137    0.2855610216
C       -0.4329636366   -1.0944262623    0.1727617238
C       -1.2410022657    0.2902820537    0.0321549352
C       -0.4009609007    1.4970703397    0.1630320294
N        0.8875236918    1.5238103250    0.1176442601
H        2.6680848805    0.4248334914    0.1289018472
H        1.6433408653   -1.7754195058    0.4940218413
H       -0.9035079651   -1.8892285098    0.7524279463
H       -2.2274361209    0.3356255424    0.4971265749
H       -0.9119776441    2.4430759432    0.3566101985
C       -1.0653034798   -0.6536244720   -1.0737404309
H       -0.6244441963   -0.5051758780   -2.0532236450
13   
From optimize.out: Frame 23 / 24, Energy=    -286.8568459332
C        1.5946396781    0.3099351334    0.1201738326
C        1.0258514407   -0.9142241498    0.2817883408
C       -0.4162889942   -1.0932452409    0.1538750771
C       -1.2537911919    0.2888565537    0.0028546388
C       -0.4086059490    1.4858373945    0.1477099460
N        0.8842629251    1.5145558667    0.0995787324
H        2.6753342424    0.4242317738    0.1500529325
H        1.6346337242   -1.7757559585    0.5434839129
H       -0.9051904874   -1.8650602911    0.7450324600
H       -2.1973038325    0.2973495019    0.5487560764
H       -0.9064128806    2.4396635264    0.3435804267
C       -1.0852078817   -0.6607069247   -1.0844627831
H       -0.6419207932   -0.4514371853   -2.0524235929
13   
From optimize.out: Frame 22 / 24, Energy=    -286.8568447983
C        1.5788879521    0.3067444159    0.1235749893
C        1.0196489772   -0.9154697326    0.2855509962
C       -0.3971825786   -1.1242757289    0.1080750958
C       -1.2809055273    0.3074619931    0.0041764224
C       -0.4243412185    1.4683087799    0.1256598990
N        0.8702002722    1.4932757247    0.0618822203
H        2.6596750708    0.4210241090    0.1762289013
H        1.6422870270   -1.7640787392    0.5632749403
H       -0.9206718041   -1.8614704086    0.7256405526
H       -2.1740500982    0.2472572384    0.6214230649
H       -0.8736139398    2.4515643113    0.2970941665
C       -1.0711853103   -0.6128463845   -1.0621059932
H       -0.6287488223   -0.4174955787   -2.0304752554
13   
From optimize.out: Frame 21 / 24, Energy=    -286.8568438397
C        1.5748210948    0.3006185343    0.1228144391
C        1.0256961022   -0.9355643921    0.3052234263
C       -0.3625505916   -1.1739377374    0.0631247218
C       -1.3121954202    0.3269983321    0.0240734942
C       -0.4481026180    1.4629663984    0.1020313410
N        0.8589199025    1.4700936481    0.0213071945
H        2.6552330637    0.4234742417    0.1821992591
H        1.6679058475   -1.7635647638    0.6058124324
H       -0.9555448980   -1.8524728084    0.6905215034
H       -2.1666695412    0.2124989889    0.6870362362
H       -0.8612926296    2.4652295799    0.2570770901
C       -1.0505897599   -0.5571829118   -1.0415308580
H       -0.6256305521   -0.3791571101   -2.0196902800
13   
From optimize.out: Frame 18 / 24, Energy=    -286.8568301721
C        1.5688350868    0.2897407101    0.1128809938
C        1.0375509920   -0.9605701424    0.2918486251
C       -0.3393272732   -1.2003837063    0.0848957775
C       -1.3694462448    0.3519272841    0.0194444854
C       -0.4752679160    1.4515295303    0.1126305061
N        0.8411837310    1.4383473094    0.0368220904
H        2.6502574902    0.4228101704    0.1526762818
H        1.7043618760   -1.7793820609    0.5677716371
H       -0.9516141506   -1.8395988744    0.7421195768
H       -2.2357727029    0.2208535325    0.6594443829
H       -0.8411512340    2.4766902471    0.2411714993
C       -1.0294626858   -0.5051002952   -1.0290655246
H       -0.5601469688   -0.3668637046   -1.9926403315
13   
From optimize.out: Frame 17 / 24, Energy=    -286.8568248852
C        1.5420946767    0.2909827964    0.1081292573
C        1.0179757192   -0.9767544063    0.2750730879
C       -0.3312155662   -1.2764080396    0.0583204883
C       -1.3859207124    0.3812964110    0.0499919692
C       -0.4825192345    1.4729616142    0.0994362675
N        0.8356584768    1.4330110456    0.0238930891
H        2.6228579285    0.4261117017    0.1545572939
H        1.7137815453   -1.7700745907    0.5539527855
H       -0.9556142112   -1.9048512478    0.7170356822
H       -2.2467177530    0.2396174113    0.6901152246
H       -0.8296380702    2.5082230030    0.1901436590
C       -0.9920957446   -0.4563686986   -0.9795108793
H       -0.5086470546   -0.3677470001   -1.9411379252
13   
From optimize.out: Frame 16 / 24, Energy=    -286.8567654320
C        1.5206198937    0.2814043441    0.1001732052
C        1.0200033439   -1.0055372341    0.2733900069
C       -0.3118086588   -1.3433935460    0.0723728203
C       -1.4297145354    0.4159823035    0.0623952312
C       -0.5001949506    1.4861547146    0.0964749444
N        0.8213143727    1.4110209102    0.0183450101
H        2.5987910421    0.4296219147    0.1288858814
H        1.7512673939   -1.7733498541    0.5296789521
H       -0.9590563170   -1.9515633938    0.7232755233
H       -2.2960176127    0.2620576671    0.6901711982
H       -0.8109910210    2.5339825440    0.1526629003
C       -0.9611456192   -0.3970696235   -0.9507417653
H       -0.4430673318   -0.3493107467   -1.8970839081
13   
From optimize.out: Frame 15 / 24, Energy=    -286.8567076464
C        1.5051564233    0.2702130917    0.0893008638
C        1.0245979972   -1.0338059566    0.2720866718
C       -0.3008659734   -1.3905311388    0.1063347012
C       -1.4716717261    0.4404020943    0.0667896033
C       -0.5192439325    1.4951165796    0.1013046442
N        0.8057724056    1.3924493002    0.0193307092
H        2.5799710954    0.4314997777    0.0851834771
H        1.7845162404   -1.7848272894    0.4891903795
H       -0.9766483039   -1.9691795870    0.7470350439
H       -2.3497193763    0.2699252498    0.6753225640
H       -0.8000440679    2.5512555125    0.1277273751
C       -0.9226758555   -0.3426062651   -0.9292099957
H       -0.3591449266   -0.3299113689   -1.8503960373
13   
From optimize.out: Frame 13 / 24, Energy=    -286.8564479494
C        1.5006097600    0.2632439985    0.0790383262
C        1.0251404297   -1.0505753654    0.2645754520
C       -0.3013278493   -1.4021037510    0.1335690711
C       -1.4960867380    0.4426647122    0.0725568694
C       -0.5337995112    1.4975445620    0.1094863916
N        0.7956660468    1.3840357199    0.0240983261
H        2.5722239794    0.4324381649    0.0429304459
H        1.7962083550   -1.7993403394    0.4438215560
H       -1.0127174240   -1.9417565215    0.7593067261
H       -2.3852791643    0.2530742390    0.6634990206
H       -0.8016436877    2.5557281061    0.1134180561
C       -0.8813722637   -0.3084504685   -0.9054704337
H       -0.2776219327   -0.3265030566   -1.8008298073
13   
From optimize.out: Frame 12 / 24, Energy=    -286.8557469705
C        1.5277086420    0.2596649411    0.0807080138
C        1.0442912467   -1.0443568773    0.2634350118
C       -0.2840313803   -1.3312553350    0.1187640118
C       -1.5096969428    0.4091324159    0.0821006372
C       -0.5426940528    1.4725321219    0.1154854426
N        0.7974920216    1.3670039803    0.0289995751
H        2.5967966507    0.4377339899    0.0423494500
H        1.7951804970   -1.8124712379    0.4425250749
H       -1.0525405268   -1.8210987534    0.7013794838
H       -2.3992646468    0.2103237974    0.6721130190
H       -0.8039108942    2.5314589427    0.1172289190
C       -0.8875832746   -0.3228053646   -0.8874062037
H       -0.2817473396   -0.3558626212   -1.7776824353
13   
From optimize.out: Frame 11 / 24, Energy=    -286.8541058530
C        1.5550690745    0.2559356551    0.0825291100
C        1.0639597315   -1.0386666275    0.2622196779
C       -0.2661608569   -1.2612454176    0.1033199525
C       -1.5240390316    0.3762561125    0.0920310058
C       -0.5519050879    1.4480552415    0.1213160430
N        0.7992149307    1.3499992558    0.0338180621
H        2.6215627003    0.4431090694    0.0420948764
H        1.7948405046   -1.8259221895    0.4412320149
H       -1.0921449151   -1.7012164777    0.6418766319
H       -2.4142025047    0.1685600301    0.6810551858
H       -0.8062487733    2.5077122871    0.1201892223
C       -0.8940718321   -0.3368508989   -0.8684238192
H       -0.2858739402   -0.3857260401   -1.7532579635
13   
From optimize.out: Frame 9 / 24, Energy=    -286.8453304356
C        1.5767007248    0.2508911916    0.0864202019
C        1.0855403382   -1.0448261093    0.2601012908
C       -0.2446558367   -1.2334761140    0.0821209446
C       -1.5462586611    0.3680129882    0.1052177776
C       -0.5633664369    1.4427808916    0.1218246843
N        0.7983903934    1.3400228871    0.0352710309
H        2.6403497834    0.4478685689    0.0479094621
H        1.8072144860   -1.8400593637    0.4404984030
H       -1.1125300829   -1.6415859599    0.5764149966
H       -2.4408224886    0.1608937498    0.6925645577
H       -0.8089811448    2.5026488078    0.1064524733
C       -0.9031443676   -0.3398401106   -0.8399394533
H       -0.2884367071   -0.4133314275   -1.7148563695
13   
From optimize.out: Frame 8 / 24, Energy=    -286.8362891396
C        1.5836653127    0.2443245546    0.0934532547
C        1.1067082985   -1.0719419264    0.2566897644
C       -0.2203384927   -1.2895744247    0.0541000349
C       -1.5790692541    0.4072129841    0.1220450923
C       -0.5769106732    1.4742780914    0.1123178026
N        0.7929685952    1.3449882510    0.0301818420
H        2.6445276536    0.4506032331    0.0639671753
H        1.8410106487   -1.8528703043    0.4409429844
H       -1.0933275732   -1.7052736088    0.5119093115
H       -2.4843153484    0.2182086713    0.7067387487
H       -0.8119453802    2.5333497765    0.0641190185
C       -0.9153621156   -0.3216659881   -0.7989902919
H       -0.2876116715   -0.4316393098   -1.6574747374
13   
From optimize.out: Frame 7 / 24, Energy=    -286.8225675642
C        1.5906297519    0.2377580578    0.1004861573
C        1.1278758069   -1.0990571645    0.2532783108
C       -0.1960216680   -1.3456715375    0.0260797235
C       -1.6118791464    0.4464121431    0.1388720476
C       -0.5904546202    1.5057746187    0.1028111239
N        0.7875469128    1.3499535089    0.0250927618
H        2.6487054346    0.4533378390    0.0800245456
H        1.8748060897   -1.8656809714    0.4413875562
H       -1.0741254736   -1.7689598977    0.4474050040
H       -2.5278072794    0.2755223690    0.7209126370
H       -0.8149095522    2.5640500897    0.0217864677
C       -0.9275796026   -0.3034922538   -0.7580420049
H       -0.2867866534   -0.4499468012   -1.6000943305
13   
From optimize.out: Frame 6 / 24, Energy=    -286.7999150663
C        1.5921334636    0.2303779600    0.0991484956
C        1.1382288324   -1.1243393544    0.2545295410
C       -0.1866678616   -1.3968537863    0.0294491227
C       -1.6333692135    0.4740495832    0.1444154803
C       -0.6023865899    1.5336880225    0.0958427725
N        0.7828622243    1.3574679179    0.0179476879
H        2.6479434007    0.4491994675    0.0750748200
H        1.8968474926   -1.8789628060    0.4389904085
H       -1.0608757319   -1.8241134891    0.4353155145
H       -2.5572023626    0.3051875952    0.7222775942
H       -0.8253656939    2.5900186671   -0.0029425100
C       -0.9229831860   -0.2770287389   -0.7406801021
H       -0.2691647743   -0.4386910386   -1.5693688252
13   
From optimize.out: Frame 5 / 24, Energy=    -286.7731617345
C        1.5824144861    0.2231017651    0.0814587136
C        1.1246338408   -1.1400674324    0.2647712438
C       -0.2092878116   -1.4262973955    0.0945237878
C       -1.6273040879    0.4722145058    0.1262004138
C       -0.6083225804    1.5479486432    0.0955553452
N        0.7807389138    1.3683022751    0.0083782081
H        2.6375249132    0.4323445670    0.0294591509
H        1.8903404830   -1.8900806224    0.4314956898
H       -1.0625707886   -1.8493983484    0.5303996317
H       -2.5516673596    0.2728803914    0.6978230975
H       -0.8482951370    2.6005019706    0.0131501691
C       -0.8859863259   -0.2402422069   -0.7743301167
H       -0.2222185457   -0.3712081126   -1.5988853346
13   
From optimize.out: Frame 4 / 24, Energy=    -286.7515998571
C        1.5723185520    0.2167887524    0.0636794101
C        1.1093036834   -1.1523475247    0.2749949685
C       -0.2336422190   -1.4487221008    0.1601549213
C       -1.6179946301    0.4663032631    0.1068798501
C       -0.6126073016    1.5583523534    0.0962835586
N        0.7792672624    1.3782111860   -0.0002994965
H        2.6270499258    0.4158236821   -0.0161676839
H        1.8805012881   -1.8994331224    0.4242310448
H       -1.0662331637   -1.8670157460    0.6287877653
H       -2.5417391563    0.2357085376    0.6727742428
H       -0.8700635385    2.6073521805    0.0331231757
C       -0.8490656110   -0.2067369045   -0.8110650414
H       -0.1770950915   -0.3042845568   -1.6333767155
13   
From optimize.out: Frame 3 / 24, Energy=    -286.7103034649
C        1.5622232594    0.2104761409    0.0459012364
C        1.0939745000   -1.1646268368    0.2852180436
C       -0.2579950789   -1.4711453812    0.2257818846
C       -1.6086857639    0.4603923961    0.0875605140
C       -0.6168917506    1.5687554024    0.0970117258
N        0.7777957045    1.3881194672   -0.0089766497
H        2.6165756039    0.3993038470   -0.0617916195
H        1.8706627185   -1.9087850281    0.4169668614
H       -1.0698953060   -1.8846320242    0.7271696474
H       -2.5318115837    0.1985390457    0.6477269796
H       -0.8918305567    2.6142019551    0.0530949132
C       -0.8121472420   -0.1732337310   -0.8477976321
H       -0.1319745044   -0.2373652531   -1.6678659048
13   
From optimize.out: Frame 1 / 24, Energy=    -286.5857843898
C        1.5508073145    0.2042524039    0.0282145824
C        1.0761137960   -1.1733962410    0.2940698992
C       -0.2806572272   -1.4804440235    0.2915323436
C       -1.5962053398    0.4490203413    0.0665208181
C       -0.6206778807    1.5729679466    0.0993577517
N        0.7762694498    1.3960148396   -0.0158279578
H        2.6029885435    0.3816645326   -0.1078813864
H        1.8535700043   -1.9188318249    0.4057049593
H       -1.0712914152   -1.8858753899    0.8242043243
H       -2.5172107706    0.1555983897    0.6179739170
H       -0.9132674302    2.6133810073    0.0750168217
C       -0.7738654168   -0.1424205300   -0.8817842670
H       -0.0865736276   -0.1719314517   -1.6971018059
13   
CH+C5H5N->C6H6N atoms 1-13 frame 114 charge -0.000 sz -1.000 sz^2 0.799
C        1.5385136421    0.1981156847    0.0106626184
C        1.0565545228   -1.1796765621    0.3019276520
C       -0.3020466868   -1.4805291223    0.3571063110
C       -1.5815573432    0.4338754395    0.0443624015
C       -0.6241004655    1.5728354269    0.1028255600
N        0.7747110538    1.4024712820   -0.0213752992
H        2.5872794592    0.3633130230   -0.1541126061
H        1.8314737271   -1.9293243080    0.3916929855
H       -1.0710975977   -1.8756663121    0.9199091795
H       -2.4994009274    0.1087943548    0.5850496309
H       -0.9343877824    2.6072001910    0.0982146016
C       -0.7347833328   -0.1136112561   -0.9137151472
H       -0.0411582692   -0.1077978414   -1.7225478879
13   
CH+C5H5N->C6H6N atoms 1-13 frame 115 charge +0.000 sz -1.000 sz^2 0.760
C        1.5261249395    0.1919991821   -0.0068462344
C        1.0368051381   -1.1856270109    0.3096458077
C       -0.3232408009   -1.4794271653    0.4225613033
C       -1.5666516080    0.4182667294    0.0220923867
C       -0.6274711936    1.5721433506    0.1064327920
N        0.7731508044    1.4087328792   -0.0267465162
H        2.5713200613    0.3448966985   -0.2002941978
H        1.8087652973   -1.9398588073    0.3773472995
H       -1.0706992431   -1.8639968613    1.0153022610
H       -2.4812038206    0.0615613130    0.5517651342
H       -0.9554363619    2.6003379632    0.1215426993
C       -0.6956555140   -0.0851024188   -0.9453343327
H        0.0041923016   -0.0439258524   -1.7474684024
13   
CH+C5H5N->C6H6N atoms 1-13 frame 116 charge +0.000 sz -1.000 sz^2 0.729
C        1.5137367813    0.1858829482   -0.0243543177
C        1.0170566213   -1.1915771982    0.3173636241
C       -0.3444339835   -1.4783252567    0.4880134190
C       -1.5517465278    0.4026587053   -0.0001766495
C       -0.6308417736    1.5714513048    0.1100398654
N        0.7715906235    1.4149942012   -0.0321174971
H        2.5553613647    0.3264811833   -0.2464737600
H        1.7860578654   -1.9503928436    0.3630022439
H       -1.0703009060   -1.8523279234    1.1106911504
H       -2.4630075136    0.0143303471    0.5184821002
H       -0.9764840163    2.5934760369    0.1448697718
C       -0.6565294147   -0.0565948344   -0.9769521287
H        0.0495408793    0.0199433296   -1.7723878218
13   
CH+C5H5N->C6H6N atoms 1-13 frame 117 charge +0.000 sz -1.000 sz^2 0.972
C        1.5028434014    0.1821248373   -0.0395259686
C        1.0034882021   -1.2010755177    0.3456356401
C       -0.3425101378   -1.4797279452    0.5574867085
C       -1.5364264662    0.4102037387   -0.0146401077
C       -0.6371273148    1.5854968705    0.1259704215
N        0.7754642734    1.4192609863   -0.0360229678
H        2.5377162928    0.3083539607   -0.3010961737
H        1.7753740889   -1.9572652286    0.3819102657
H       -1.0672289521   -1.8639868221    1.1625538173
H       -2.4466109872   -0.0437699119    0.4674087635
H       -0.9845832483    2.6053846198    0.1747741468
C       -0.6288269107   -0.0184584113   -1.0061473428
H        0.0484277587    0.0534588236   -1.8183072027
13   
From optimize.out: Frame 1 / 52, Energy=    -286.5936382329
C        1.5005287643    0.1863112414   -0.0414196322
C        1.0111148967   -1.2068708332    0.3839671697
C       -0.3003860595   -1.4831288167    0.5781750120
C       -1.5296633734    0.4498531957   -0.0067185193
C       -0.6429051784    1.6135613729    0.1519409921
N        0.7839134717    1.4176674541   -0.0342511719
H        2.5322979236    0.3060453166   -0.3291436411
H        1.7965440653   -1.9528804845    0.4442148899
H       -1.0722260878   -1.9206797976    1.1166524223
H       -2.4383591392   -0.0709213871    0.4177816597
H       -0.9664109408    2.6411323091    0.1976560743
C       -0.6455031309    0.0059232139   -1.0097510846
H       -0.0289452115    0.0139872154   -1.8691041710
13   
From optimize.out: Frame 2 / 52, Energy=    -286.6605506822
C        1.5007212587    0.1912468123   -0.0366327471
C        1.0258124930   -1.2098170576    0.4065804508
C       -0.2592264882   -1.4947387349    0.5702760434
C       -1.5323746953    0.4872316843    0.0020297395
C       -0.6451795847    1.6354172591    0.1676324191
N        0.7884733899    1.4135839024   -0.0303679203
H        2.5348671679    0.3127007495   -0.3291840338
H        1.8260070565   -1.9448391448    0.4962614117
H       -1.0712554497   -1.9878781823    1.0612525571
H       -2.4400349205   -0.0584411650    0.3884796154
H       -0.9441307105    2.6718658851    0.2066136923
C       -0.6793466632    0.0152756103   -1.0034767117
H       -0.1043328538   -0.0316076183   -1.8994645165
13   
From optimize.out: Frame 3 / 52, Energy=    -286.7027366867
C        1.5092367521    0.1942858667   -0.0179947471
C        1.0477461216   -1.2115540717    0.4025219676
C       -0.2330679571   -1.5203344509    0.5215961098
C       -1.5541033867    0.5147384798    0.0121819748
C       -0.6419296786    1.6425342129    0.1596377185
N        0.7884674490    1.4056864774   -0.0236887760
H        2.5476907744    0.3304487367   -0.2824814374
H        1.8563743395   -1.9332363066    0.5132329466
H       -1.0460640967   -2.0344024371    0.9855727276
H       -2.4721856101    0.0054425593    0.4104460348
H       -0.9171914591    2.6850240684    0.1816494492
C       -0.7257373464    0.0005817121   -0.9827297690
H       -0.1592359020   -0.0792148469   -1.8799441994
13   
From optimize.out: Frame 5 / 52, Energy=    -286.7724429653
C        1.5177523727    0.1973249664    0.0006435311
C        1.0696800778   -1.2132911118    0.3984634239
C       -0.2069090355   -1.5459305489    0.4729154495
C       -1.5758324024    0.5422456859    0.0223343616
C       -0.6386797241    1.6496512730    0.1516428985
N        0.7884615080    1.3977889344   -0.0170095320
H        2.5605145723    0.3481969889   -0.2357781438
H        1.8867420760   -1.9216332952    0.5302047349
H       -1.0208723676   -2.0809273865    0.9098917681
H       -2.5043367797    0.0693272373    0.4324127822
H       -0.8902518055    2.6981824481    0.1566848333
C       -0.7721287221   -0.0141124055   -0.9619825165
H       -0.2141397699   -0.1268227862   -1.8604235907
13   
From optimize.out: Frame 6 / 52, Energy=    -286.8007023353
C        1.5262680745    0.2003640951    0.0192819871
C        1.0916142431   -1.2150281685    0.3944048414
C       -0.1807498644   -1.5715268911    0.4242343248
C       -1.5975616255    0.5697531545    0.0324868453
C       -0.6354297385    1.6567684010    0.1436480023
N        0.7884555669    1.3898913161   -0.0103302243
H        2.5733384926    0.3659454105   -0.1890744047
H        1.9171101021   -1.9100301731    0.5471766850
H       -0.9956803982   -2.1274527797    0.8342100868
H       -2.5364882559    0.1332125247    0.4543797391
H       -0.8633118949    2.7113409534    0.1317199793
C       -0.8185205404   -0.0288066632   -0.9412350661
H       -0.2690441614   -0.1744311796   -1.8409027959
13   
From optimize.out: Frame 7 / 52, Energy=    -286.8244297084
C        1.5347234342    0.2036395292    0.0379472216
C        1.1131468705   -1.2162080619    0.3899472893
C       -0.1547986747   -1.5956895906    0.3745654550
C       -1.6187321480    0.5965821764    0.0429910098
C       -0.6320223781    1.6632847029    0.1357839327
N        0.7885379164    1.3819926246   -0.0035690172
H        2.5859637453    0.3837921607   -0.1420718098
H        1.9465272768   -1.8983415752    0.5638686854
H       -0.9708398723   -2.1721861192    0.7571276718
H       -2.5677376975    0.1965664565    0.4766984186
H       -0.8363655862    2.7237032489    0.1065983402
C       -0.8645774892   -0.0442178883   -0.9195879185
H       -0.3238253974   -0.2229176641   -1.8202992789
13   
From optimize.out: Frame 8 / 52, Energy=    -286.8385012177
C        1.5425355000    0.2086078228    0.0563888439
C        1.1311875432   -1.2131943366    0.3826072157
C       -0.1309922433   -1.6085818666    0.3186375514
C       -1.6352435768    0.6177280649    0.0558867249
C       -0.6275154469    1.6651596607    0.1290768580
N        0.7892786891    1.3742652825    0.0036511421
H        2.5968165216    0.4019689846   -0.0939015864
H        1.9681653252   -1.8862791766    0.5780879738
H       -0.9491917826   -2.2025014592    0.6713201779
H       -2.5915314846    0.2545078319    0.5011406583
H       -0.8099833670    2.7298302355    0.0808746620
C       -0.9070841381   -0.0646410736   -0.8917038544
H       -0.3764415401   -0.2768699703   -1.7920663672
13   
From optimize.out: Frame 9 / 52, Energy=    -286.8470042230
C        1.5490946842    0.2161943064    0.0739767460
C        1.1430752260   -1.2034475688    0.3707792340
C       -0.1113034029   -1.6028207298    0.2540281894
C       -1.6437464839    0.6290784728    0.0723249448
C       -0.6213419464    1.6594441686    0.1244278668
N        0.7910694734    1.3670218215    0.0114249317
H        2.6045010197    0.4201986794   -0.0451153834
H        1.9765895372   -1.8739302620    0.5879118151
H       -0.9333060024   -2.2085863174    0.5736193536
H       -2.6025796371    0.3021148002    0.5283829481
H       -0.7852191946    2.7256640515    0.0548569600
C       -0.9426923698   -0.0926638462   -0.8544284812
H       -0.4241409034   -0.3382675761   -1.7521891249
13   
From optimize.out: Frame 10 / 52, Energy=    -286.8517841686
C        1.5556543481    0.2237813449    0.0915659344
C        1.1549637781   -1.1937000882    0.3589503874
C       -0.0916131226   -1.5970591716    0.1894141025
C       -1.6522500128    0.6404297108    0.0887643668
C       -0.6151679944    1.6537282585    0.1197785356
N        0.7928603885    1.3597778308    0.0191992897
H        2.6121860798    0.4384297072    0.0036743873
H        1.9850143651   -1.8615804443    0.5977363748
H       -0.9174190605   -2.2146716207    0.4759113845
H       -2.6136285976    0.3497252499    0.5556272302
H       -0.7604532112    2.7214975628    0.0288373554
C       -0.9783032054   -0.1206886682   -0.8171503821
H       -0.4718437549   -0.3996696720   -1.7123089665
13   
From optimize.out: Frame 11 / 52, Energy=    -286.8560381504
C        1.5622506104    0.2317840292    0.1091443860
C        1.1663656607   -1.1829709061    0.3469615875
C       -0.0726719120   -1.5894268924    0.1244884484
C       -1.6599111998    0.6505817447    0.1052231936
C       -0.6085203231    1.6469694623    0.1153806375
N        0.7949182119    1.3524139904    0.0271365251
H        2.6199754490    0.4568861085    0.0526000363
H        1.9925210906   -1.8487296080    0.6074961750
H       -0.9024470544   -2.2186080464    0.3781509741
H       -2.6235391363    0.3961896263    0.5831511288
H       -0.7354218055    2.7163343363    0.0035400755
C       -1.0137045176   -0.1497229423   -0.7801608772
H       -0.5198150740   -0.4617009025   -1.6731122908
13   
From optimize.out: Frame 13 / 52, Energy=    -286.8638354203
C        1.5666030302    0.2432185616    0.1189484326
C        1.1647727680   -1.1606046101    0.3375021307
C       -0.0743333580   -1.5540819156    0.0824551780
C       -1.6502981478    0.6364674328    0.1148911120
C       -0.5968925586    1.6258435162    0.1170512723
N        0.8005112954    1.3462456408    0.0343437486
H        2.6261278212    0.4711027017    0.0826352113
H        1.9815644461   -1.8331267986    0.6119648189
H       -0.9091120009   -2.1852214281    0.3217678215
H       -2.6102952761    0.4035762427    0.6034159420
H       -0.7168076659    2.6968794445    0.0011488407
C       -1.0303340928   -0.1829439155   -0.7639401927
H       -0.5515062607   -0.5073548725   -1.6621843158
13   
From optimize.out: Frame 14 / 52, Energy=    -286.8676429333
C        1.5672588928    0.2584743954    0.1164791437
C        1.1444863635   -1.1236187682    0.3326707520
C       -0.1057200748   -1.4821069859    0.0778951427
C       -1.6165946012    0.5885733008    0.1137264930
C       -0.5792166288    1.5860112311    0.1273578700
N        0.8106673845    1.3424366646    0.0397617649
H        2.6292818322    0.4777275749    0.0822189883
H        1.9449280170   -1.8151113457    0.6083036147
H       -0.9464961508   -2.1010623107    0.3311320913
H       -2.5647968173    0.3535145791    0.6110955947
H       -0.7093900534    2.6586584839    0.0322354730
C       -1.0180423541   -0.2188747804   -0.7794970880
H       -0.5563658097   -0.5246220389   -1.6933798402
13   
From optimize.out: Frame 15 / 52, Energy=    -286.8712256467
C        1.5679148006    0.2737312797    0.1140096847
C        1.1241985620   -1.0866303793    0.3278390405
C       -0.1371089530   -1.4101270997    0.0733347933
C       -1.5828887336    0.5406758706    0.1125617939
C       -0.5615394817    1.5461762031    0.1376651774
N        0.8208241730    1.3386274261    0.0451801543
H        2.6324360604    0.4843529043    0.0818027367
H        1.9082890650   -1.7970946522    0.6046421584
H       -0.9838828751   -2.0168973978    0.3404970060
H       -2.5192952254    0.3034494680    0.6187757763
H       -0.7019719301    2.6204348913    0.0633242459
C       -1.0057497689   -0.2548081197   -0.7950550546
H       -0.5612256933   -0.5418903944   -1.7245775128
13   
From optimize.out: Frame 16 / 52, Energy=    -286.8745003328
C        1.5612497348    0.2910399941    0.1079311922
C        1.0922112570   -1.0497677157    0.3178253247
C       -0.1793387517   -1.3528956089    0.0636468703
C       -1.5400977642    0.4989440125    0.1153697452
C       -0.5412594936    1.5160119697    0.1462729011
N        0.8307134032    1.3454723243    0.0461995385
H        2.6296463991    0.4856526892    0.0813592125
H        1.8606080298   -1.7758842818    0.5999827644
H       -1.0146096988   -1.9632923954    0.3578441774
H       -2.4633726761    0.2604713732    0.6341217442
H       -0.7021803582    2.5897267812    0.0899816700
C       -0.9798033822   -0.2904286879   -0.8070017210
H       -0.5537666990   -0.5550504545   -1.7535334195
13   
From optimize.out: Frame 17 / 52, Energy=    -286.8778919223
C        1.5416114699    0.3108730274    0.0956583444
C        1.0410278106   -1.0157899912    0.2990100713
C       -0.2384495540   -1.3268861694    0.0452339763
C       -1.4836926912    0.4715464925    0.1252756964
C       -0.5176565618    1.5057904792    0.1511377555
N        0.8393989981    1.3714025072    0.0390619053
H        2.6161350658    0.4770726575    0.0808975034
H        1.7960687923   -1.7503322279    0.5938250069
H       -1.0308861059   -1.9697036533    0.3886106724
H       -2.3923266507    0.2336105877    0.6624495640
H       -0.7163883583    2.5750399609    0.1065768460
C       -0.9306347171   -0.3229100249   -0.8114521563
H       -0.5242074977   -0.5597136456   -1.7762851855
13   
From optimize.out: Frame 18 / 52, Energy=    -286.8815389521
C        1.5203721333    0.3243051407    0.0823982571
C        0.9964414748   -0.9882418599    0.2867882679
C       -0.2924447530   -1.3134689568    0.0428951293
C       -1.4333123661    0.4532586506    0.1227565780
C       -0.4971233923    1.4977549138    0.1553049159
N        0.8435504834    1.3949611897    0.0319317713
H        2.6009485228    0.4630063745    0.0785452114
H        1.7417354063   -1.7267515250    0.5947926182
H       -1.0244845044   -1.9952932342    0.4507657585
H       -2.3301264639    0.2214120635    0.6765933413
H       -0.7306672184    2.5628286254    0.1321781733
C       -0.8901768603   -0.3505783573   -0.8345828864