13   
From optimize.out: Frame 23 / 24, Energy=    -286.8568459332
C        1.5870652534    0.3115518464    0.1267216970
C        1.0215815176   -0.9083749137    0.2855610216
C       -0.4329636366   -1.0944262623    0.1727617238
C       -1.2410022657    0.2902820537    0.0321549352
C       -0.4009609007    1.4970703397    0.1630320294
N        0.8875236918    1.5238103250    0.1176442601
H        2.6680848805    0.4248334914    0.1289018472
H        1.6433408653   -1.7754195058    0.4940218413
H       -0.9035079651   -1.8892285098    0.7524279463
H       -2.2274361209    0.3356255424    0.4971265749
H       -0.9119776441    2.4430759432    0.3566101985
C       -1.0653034798   -0.6536244720   -1.0737404309
H       -0.6244441963   -0.5051758780   -2.0532236450
13   
From optimize.out: Frame 22 / 24, Energy=    -286.8568447983
C        1.5795206968    0.3057443609    0.1119398943
C        1.0196748739   -0.9151228792    0.2807208326
C       -0.4235733662   -1.1106753284    0.1603001171
C       -1.2467115512    0.2933295843    0.0224694870
C       -0.4067233414    1.4974099470    0.1550440958
N        0.8830133062    1.5163794518    0.1091800573
H        2.6604690280    0.4196625744    0.1187887285
H        1.6446182362   -1.7703969483    0.5270638830
H       -0.8924608032   -1.8950367918    0.7552280497
H       -2.2264920313    0.3485523363    0.5002204686
H       -0.9125956119    2.4423657412    0.3669619789
C       -1.0691079032   -0.6627347604   -1.0716698667
H       -0.6096315327   -0.4694772878   -2.0362477261
13   
From optimize.out: Frame 21 / 24, Energy=    -286.8568438397
C        1.5950589737    0.3100278165    0.1203896010
C        1.0261039434   -0.9143894531    0.2819541945
C       -0.4164981361   -1.0929211994    0.1548276064
C       -1.2532427560    0.2886722419    0.0031700108
C       -0.4083162171    1.4865558381    0.1480046963
N        0.8846362117    1.5150855091    0.1003289297
H        2.6757457139    0.4244195082    0.1495207386
H        1.6347511691   -1.7761875843    0.5429370646
H       -0.9048850973   -1.8658226382    0.7446558813
H       -2.1979768230    0.2990563417    0.5472265931
H       -0.9073560373    2.4396615904    0.3442630033
C       -1.0855551760   -0.6617663022   -1.0845835803
H       -0.6424657690   -0.4523916685   -2.0526947391
13   
From optimize.out: Frame 19 / 24, Energy=    -286.8568388879
C        1.5839731036    0.3075773436    0.1146848427
C        1.0194279592   -0.9100189556    0.2775691439
C       -0.4109685773   -1.1014886174    0.1296434305
C       -1.2677429993    0.2935453103   -0.0051681919
C       -0.4159765136    1.4675607163    0.1402117137
N        0.8747667865    1.5010821536    0.0804942645
H        2.6648667079    0.4194559494    0.1635915540
H        1.6316460121   -1.7647757147    0.5573953304
H       -0.9129593875   -1.8456667419    0.7546123465
H       -2.1801834480    0.2539287506    0.5876650094
H       -0.8824196660    2.4397127779    0.3262161808
C       -1.0763729697   -0.6337571399   -1.0813897920
H       -0.6280570077   -0.4271558323   -2.0455258325
13   
From optimize.out: Frame 18 / 24, Energy=    -286.8568301721
C        1.5750715230    0.3061193000    0.1302470843
C        1.0198148521   -0.9195605654    0.2915414123
C       -0.3868361245   -1.1413775587    0.0918879635
C       -1.2907840639    0.3179065263    0.0111895976
C       -0.4306189671    1.4688702050    0.1147386966
N        0.8667730826    1.4874169647    0.0479137973
H        2.6557787237    0.4222010198    0.1857132873
H        1.6502731566   -1.7635556560    0.5676876139
H       -0.9264600076   -1.8733311315    0.7038970908
H       -2.1694469915    0.2422502385    0.6467586375
H       -0.8670052027    2.4604589405    0.2752379638
C       -1.0672919486   -0.5971527684   -1.0476334154
H       -0.6292680322   -0.4102455149   -2.0191797295
13   
From optimize.out: Frame 17 / 24, Energy=    -286.8568248852
C        1.5748026882    0.3002142252    0.1222681359
C        1.0261283771   -0.9367406815    0.3062290614
C       -0.3607655925   -1.1763309273    0.0610106087
C       -1.3137691659    0.3276665845    0.0250204672
C       -0.4493876753    1.4625324656    0.1010973438
N        0.8583426898    1.4688203754    0.0193515956
H        2.6551929574    0.4235678241    0.1819409762
H        1.6692018593   -1.7635654332    0.6086146261
H       -0.9576826524   -1.8509397109    0.6895383908
H       -2.1664653972    0.2103122568    0.6899966604
H       -0.8608727526    2.4655802244    0.2557422565
C       -1.0493621404   -0.5542451068   -1.0410823169
H       -0.6253631955   -0.3768720963   -2.0197278057
13   
From optimize.out: Frame 16 / 24, Energy=    -286.8567654320
C        1.5691122554    0.2897258288    0.1129295189
C        1.0377573289   -0.9604053665    0.2920248246
C       -0.3394087660   -1.1995968870    0.0851777898
C       -1.3692813182    0.3516250598    0.0191255493
C       -0.4751949790    1.4513066023    0.1127686498
N        0.8412391412    1.4383991855    0.0369569679
H        2.6505411104    0.4227761296    0.1526518657
H        1.7042700166   -1.7794804942    0.5679126682
H       -0.9515724817   -1.8389216724    0.7423844349
H       -2.2356669138    0.2206606298    0.6591218957
H       -0.8412686796    2.4763635126    0.2417010625
C       -1.0298500862   -0.5056016388   -1.0295813454
H       -0.5606766280   -0.3668508896   -1.9931738818
13   
From optimize.out: Frame 15 / 24, Energy=    -286.8567076464
C        1.5425012818    0.2911545809    0.1082706208
C        1.0179469005   -0.9762255121    0.2751078954
C       -0.3315846361   -1.2751394806    0.0581017677
C       -1.3851159336    0.3806416387    0.0497466258
C       -0.4821976600    1.4727099331    0.0995054536
N        0.8359192016    1.4334185571    0.0240073687
H        2.6233107109    0.4260443930    0.1549960532
H        1.7130894460   -1.7700299061    0.5543722630
H       -0.9555731212   -1.9039398955    0.7169553855
H       -2.2458237331    0.2391812386    0.6900839197
H       -0.8299927162    2.5077333173    0.1908576581
C       -0.9926557409   -0.4574675967   -0.9800573427
H       -0.5098239996   -0.3680812677   -1.9419476688
13   
From optimize.out: Frame 13 / 24, Energy=    -286.8564479494
C        1.5222575424    0.2826019051    0.1012325238
C        1.0193817042   -1.0025576872    0.2733749255
C       -0.3132096686   -1.3382975099    0.0689912585
C       -1.4251836315    0.4132409349    0.0619615957
C       -0.4982079617    1.4852404392    0.0960608695
N        0.8229384410    1.4131296948    0.0183177072
H        2.6007679351    0.4293955058    0.1331514446
H        1.7475471506   -1.7722546295    0.5334876411
H       -0.9576188818   -1.9493135970    0.7209531350
H       -2.2903344998    0.2608970664    0.6916425051
H       -0.8123358733    2.5321134064    0.1553096265
C       -0.9647750829   -0.4027565140   -0.9528504442
H       -0.4512271737   -0.3514390151   -1.9016327882
13   
From optimize.out: Frame 12 / 24, Energy=    -286.8557469705
C        1.5070065020    0.2714492983    0.0913673363
C        1.0251708904   -1.0303055128    0.2735153750
C       -0.3001623907   -1.3857557061    0.1004829555
C       -1.4673788834    0.4387706619    0.0659999427
C       -0.5167123267    1.4937548731    0.0999170521
N        0.8078138719    1.3934910750    0.0185719727
H        2.5823575918    0.4315039988    0.0934272485
H        1.7821929095   -1.7824542012    0.4980182087
H       -0.9710053802   -1.9702654296    0.7425809964
H       -2.3432600058    0.2717054696    0.6779405666
H       -0.7998115779    2.5495202485    0.1306612821
C       -0.9309747332   -0.3497958286   -0.9332128088
H       -0.3752364677   -0.3316189470   -1.8592701278
13   
From optimize.out: Frame 11 / 24, Energy=    -286.8541058530
C        1.4956975742    0.2638927704    0.0787356636
C        1.0216689814   -1.0517025842    0.2647821784
C       -0.3044631619   -1.4149463686    0.1362527686
C       -1.4936196306    0.4487430761    0.0708268807
C       -0.5321872070    1.5020785406    0.1083989500
N        0.7953350543    1.3871230453    0.0232098819
H        2.5677697173    0.4314781963    0.0430357624
H        1.7963946738   -1.7969601153    0.4440565677
H       -1.0054987322   -1.9636280277    0.7698071361
H       -2.3827440307    0.2608235663    0.6619375703
H       -0.8012327136    2.5601273517    0.1127272650
C       -0.8802464004   -0.3058483716   -0.9087449176
H       -0.2768741246   -0.3211810794   -1.8050257070
13   
From optimize.out: Frame 10 / 24, Energy=    -286.8514208108
C        1.5225774812    0.2603426340    0.0803918592
C        1.0406650484   -1.0455343451    0.2636509536
C       -0.2873064587   -1.3446704497    0.1215673429
C       -1.5071198568    0.4154817407    0.0802935292
C       -0.5410098755    1.4772682159    0.1143495251
N        0.7971462741    1.3702289323    0.0280715258
H        2.5921438267    0.4367312279    0.0424594613
H        1.7953751214   -1.8099849083    0.4427705630
H       -1.0450000407   -1.8439452459    0.7123479803
H       -2.3966165022    0.2184185737    0.6704819624
H       -0.8034815997    2.5360542975    0.1165073339
C       -0.8864072226   -0.3200872717   -0.8908266573
H       -0.2809661957   -0.3503034012   -1.7820653795
13   
From optimize.out: Frame 9 / 24, Energy=    -286.8453304356
C        1.5494573882    0.2567924975    0.0820480548
C        1.0596611154   -1.0393661061    0.2625197288
C       -0.2701497554   -1.2743945309    0.1068819173
C       -1.5206200831    0.3822204052    0.0897601776
C       -0.5498325440    1.4524578912    0.1203001002
N        0.7989574938    1.3533348193    0.0329331698
H        2.6165179362    0.4419842595    0.0418831603
H        1.7943555691   -1.8230097013    0.4414845583
H       -1.0845013492   -1.7242624642    0.6548888246
H       -2.4104889737    0.1760135811    0.6790263545
H       -0.8057304858    2.5119812434    0.1202874028
C       -0.8925680447   -0.3343261717   -0.8729083970
H       -0.2850582669   -0.3794257231   -1.7591050520
13   
From optimize.out: Frame 8 / 24, Energy=    -286.8362891396
C        1.5744967108    0.2529692700    0.0841945215
C        1.0788415237   -1.0362450355    0.2611809027
C       -0.2523513054   -1.2157232380    0.0909884439
C       -1.5358754181    0.3556077542    0.0998926042
C       -0.5590802268    1.4328132852    0.1248332329
N        0.8001061761    1.3384515476    0.0368815560
H        2.6390276543    0.4470031568    0.0428278369
H        1.7965193496   -1.8360052124    0.4403577108
H       -1.1186069107   -1.6214313613    0.5968284709
H       -2.4270587346    0.1427558650    0.6880789921
H       -0.8080430827    2.4929331767    0.1198493218
C       -0.8992779381   -0.3455914949   -0.8528982283
H       -0.2886977979   -0.4075377135   -1.7330153655
13   
From optimize.out: Frame 7 / 24, Energy=    -286.8225675642
C        1.5814048248    0.2464558800    0.0911705452
C        1.0998378391   -1.0631409782    0.2577970394
C       -0.2282311438   -1.2713666634    0.0631947478
C       -1.5684199593    0.3944898886    0.1165834710
C       -0.5725146367    1.4640550831    0.1154034398
N        0.7947283418    1.3433766488    0.0318336340
H        2.6431716473    0.4497156464    0.0587553426
H        1.8300414688   -1.8487122727    0.4407986871
H       -1.0995601087   -1.6846025851    0.5328458442
H       -2.4701989232    0.1996060361    0.7021382486
H       -0.8109832819    2.5233852000    0.0778591370
C       -0.9113966158   -0.3275647412   -0.8122811120
H       -0.2878794523   -0.4256971425   -1.6760990247
13   
From optimize.out: Frame 6 / 24, Energy=    -286.7999150663
C        1.5883129388    0.2399424901    0.0981465689
C        1.1208341545   -1.0900369208    0.2544131761
C       -0.2041109823   -1.3270100888    0.0354010517
C       -1.6009645005    0.4333720229    0.1332743377
C       -0.5859490466    1.4952968811    0.1059736467
N        0.7893505074    1.3483017500    0.0267857119
H        2.6473156403    0.4524281361    0.0746828484
H        1.8635635880   -1.8614193331    0.4412396635
H       -1.0805133068   -1.7477738090    0.4688632175
H       -2.5133391117    0.2564562073    0.7161975051
H       -0.8139234811    2.5538372233    0.0358689522
C       -0.9235152935   -0.3095379876   -0.7716639957
H       -0.2870611066   -0.4438565714   -1.6191826840
13   
From optimize.out: Frame 5 / 24, Energy=    -286.7731617345
C        1.5952210529    0.2334291001    0.1051225927
C        1.1418304698   -1.1169328635    0.2510293128
C       -0.1799908207   -1.3826535142    0.0076073557
C       -1.6335090417    0.4722541573    0.1499652044
C       -0.5993834564    1.5265386790    0.0965438535
N        0.7839726730    1.3532268512    0.0217377898
H        2.6514596333    0.4551406257    0.0906103542
H        1.8970857072   -1.8741263935    0.4416806399
H       -1.0614665048   -1.8109450328    0.4048805908
H       -2.5564793002    0.3133063784    0.7302567615
H       -0.8168636803    2.5842892466   -0.0061212326
C       -0.9356339711   -0.2915112339   -0.7310468794
H       -0.2862427610   -0.4620160003   -1.5622663432
13   
From optimize.out: Frame 4 / 24, Energy=    -286.7515998571
C        1.5888297462    0.2271132432    0.0927562177
C        1.1343750839   -1.1322642923    0.2582747816
C       -0.1938122887   -1.4120480634    0.0528197918
C       -1.6332195974    0.4759706871    0.1384772811
C       -0.6055999397    1.5413378129    0.0950926165
N        0.7816740453    1.3620058552    0.0138922826
H        2.6441810353    0.4428424340    0.0584518140
H        1.8965926033   -1.8841377627    0.4361118637
H       -1.0602436054   -1.8382037241    0.4678808526
H       -2.5579760386    0.2965005052    0.7137398931
H       -0.8344628401    2.5961491413    0.0004587200
C       -0.9094468585   -0.2615324837   -0.7509876407
H       -0.2508913455   -0.4137333528   -1.5769684738
13   
From optimize.out: Frame 3 / 24, Energy=    -286.7103034649
C        1.5788153231    0.2208511995    0.0751204580
C        1.1191686967   -1.1444452396    0.2684159636
C       -0.2179700672   -1.4342917195    0.1179210427
C       -1.6239853009    0.4701071698    0.1193127047
C       -0.6098500676    1.5516575272    0.0958149506
N        0.7802142755    1.3718347650    0.0052846387
H        2.6337906192    0.4264549330    0.0131933541
H        1.8868328466   -1.8934147539    0.4289058709
H       -1.0638764117   -1.8556788851    0.5654746352
H       -2.5481279921    0.2596287638    0.6888932740
H       -0.8560554911    2.6029440450    0.0202704716
C       -0.8728242284   -0.2282976912   -0.7874259806
H       -0.2061322022   -0.3473501140   -1.6111813835
13   
From optimize.out: Frame 1 / 24, Energy=    -286.5857843898
C        1.5688009001    0.2145891559    0.0574846984
C        1.1039623096   -1.1566261869    0.2785571456
C       -0.2421278457   -1.4565353757    0.1830222936
C       -1.6147510043    0.4642436524    0.1001481284
C       -0.6141001955    1.5619772414    0.0965372847
N        0.7787545058    1.3816636748   -0.0033230051
H        2.6234002031    0.4100674320   -0.0320651058
H        1.8770730900   -1.9026917450    0.4216998780
H       -1.0675092180   -1.8731540460    0.6630684179
H       -2.5382799455    0.2227570224    0.6640466548
H       -0.8776481422    2.6097389486    0.0400822232
C       -0.8362015983   -0.1950628988   -0.8238643206
H       -0.1613730588   -0.2809668752   -1.6453942932
13   
CH+C5H5N->C6H6N atoms 1-13 frame 113 charge +0.000 sz -1.000 sz^2 0.807
C        1.5587864770    0.2083271123    0.0398489388
C        1.0887559224   -1.1688071341    0.2886983276
C       -0.2662856242   -1.4787790318    0.2481235446
C       -1.6055167078    0.4583801351    0.0809835521
C       -0.6183503234    1.5722969557    0.0972596188
N        0.7772947360    1.3914925846   -0.0119306490
H        2.6130097870    0.3936799309   -0.0773235656
H        1.8673133333   -1.9119687362    0.4144938852
H       -1.0711420244   -1.8906292070    0.7606622006
H       -2.5284318990    0.1858852810    0.6392000357
H       -0.8992407933    2.6165338523    0.0598939748
C       -0.7995789682   -0.1618281063   -0.8603026606
H       -0.1166139154   -0.2145836364   -1.6796072029
13   
CH+C5H5N->C6H6N atoms 1-13 frame 114 charge -0.000 sz -1.000 sz^2 0.799
C        1.5468471684    0.2022300814    0.0224403234
C        1.0698393698   -1.1756738651    0.2967358692
C       -0.2877900117   -1.4812703772    0.3130766075
C       -1.5915840055    0.4443749728    0.0593428043
C       -0.6218330730    1.5733009668    0.1003990781
N        0.7757605890    1.3982592845   -0.0177622350
H        2.5980148903    0.3757011584   -0.1230475686
H        1.8467490391   -1.9222380513    0.4013429187
H       -1.0713655595   -1.8835160182    0.8557409785
H       -2.5116416013    0.1405666727    0.6074391610
H       -0.9202290043    2.6118162157    0.0825224567
C       -0.7611034987   -0.1327883366   -0.8924458243
H       -0.0716643026   -0.1507627038   -1.7057845696
13   
CH+C5H5N->C6H6N atoms 1-13 frame 115 charge +0.000 sz -1.000 sz^2 0.760
C        1.5345585560    0.1961629948    0.0050729273
C        1.0502495433   -1.1815762394    0.3043916687
C       -0.3088128954   -1.4801773231    0.3780027791
C       -1.5767986959    0.4288923679    0.0372527122
C       -0.6251765685    1.5726144819    0.1039771667
N        0.7742129451    1.4044702933   -0.0230900571
H        2.5821844307    0.3574336221   -0.1688560523
H        1.8242240741   -1.9326874408    0.3871131336
H       -1.0709704232   -1.8719408467    0.9503633651
H       -2.4935915117    0.0937152337    0.5744235747
H       -0.9411075291    2.6050094288    0.1056620832
C       -0.7222917994   -0.1045098264   -0.9238095537
H       -0.0266801259   -0.0874067462   -1.7305037476
13   
CH+C5H5N->C6H6N atoms 1-13 frame 116 charge +0.000 sz -1.000 sz^2 0.729
C        1.5222699435    0.1900959083   -0.0122944688
C        1.0306597167   -1.1874786137    0.3120474682
C       -0.3298357790   -1.4790842690    0.4429289508
C       -1.5620133863    0.4134097629    0.0151626202
C       -0.6285200640    1.5719279971    0.1075552553
N        0.7726653012    1.4106813021   -0.0284178792
H        2.5663539711    0.3391660858   -0.2146645361
H        1.8016991091   -1.9431368302    0.3728833485
H       -1.0705752870   -1.8603656752    1.0449857518
H       -2.4755414220    0.0468637948    0.5414079884
H       -0.9619860540    2.5982026419    0.1288017097
C       -0.6834801001   -0.0762313163   -0.9551732832
H        0.0183040508   -0.0240507885   -1.7552229256
13   
CH+C5H5N->C6H6N atoms 1-13 frame 117 charge +0.000 sz -1.000 sz^2 0.972
C        1.5099813311    0.1840288218   -0.0296618649
C        1.0110698902   -1.1933809879    0.3197032677
C       -0.3508586627   -1.4779912149    0.5078551224
C       -1.5472280767    0.3979271579   -0.0069274719
C       -0.6318635595    1.5712415122    0.1111333439
N        0.7711176572    1.4168923108   -0.0337457013
H        2.5505235116    0.3208985496   -0.2604730199
H        1.7791741441   -1.9535862197    0.3586535634
H       -1.0701801507   -1.8487905037    1.1396081384
H       -2.4574913324    0.0000123558    0.5083924021
H       -0.9828645789    2.5913958551    0.1519413362
C       -0.6446684008   -0.0479528061   -0.9865370126
H        0.0632882276    0.0393051692   -1.7799421036
13   
From optimize.out: Frame 1 / 52, Energy=    -286.5936382329
C        1.5029889292    0.1818705000   -0.0393934440
C        1.0030389013   -1.2007028369    0.3432094552
C       -0.3451156208   -1.4795384081    0.5561134548
C       -1.5368688013    0.4077393345   -0.0151305605
C       -0.6367580269    1.5837400990    0.1243355347
N        0.7749257636    1.4193528847   -0.0361264933
H        2.5380789167    0.3085268408   -0.2992755969
H        1.7740964276   -1.9575247584    0.3780301841
H       -1.0669200127   -1.8605379342    1.1653883562
H       -2.4471335731   -0.0419547328    0.4705285487
H       -0.9856994836    2.6031593806    0.1733267016
C       -0.6278568969   -0.0200169995   -1.0058937812
H        0.0532234770    0.0558866302   -1.8151123595
13   
From optimize.out: Frame 2 / 52, Energy=    -286.6605506822
C        1.5006723616    0.1859191384   -0.0415030227
C        1.0101910446   -1.2066353133    0.3818304029
C       -0.3036405371   -1.4825555337    0.5779734373
C       -1.5298275406    0.4469686705   -0.0073233438
C       -0.6426364942    1.6117050663    0.1503602936
N        0.7834979707    1.4178900104   -0.0344785344
H        2.5323065287    0.3057748685   -0.3282562411
H        1.7944347343   -1.9533934630    0.4397948197
H       -1.0718378305   -1.9154386643    1.1202670716
H       -2.4388148478   -0.0708494539    0.4208666030
H       -0.9679308199    2.6385815978    0.1963676937
C       -0.6432979513    0.0047932091   -1.0099300728
H       -0.0231166186    0.0172398673   -1.8659691070
13   
From optimize.out: Frame 3 / 52, Energy=    -286.7027366867
C        1.4989524286    0.1906155428   -0.0405042146
C        1.0212564606   -1.2094562467    0.4074234750
C       -0.2646601133   -1.4894220173    0.5803877926
C       -1.5278612323    0.4815179991   -0.0000790730
C       -0.6458546520    1.6339389323    0.1692930707
N        0.7884746239    1.4152243480   -0.0317553057
H        2.5322034606    0.3090141545   -0.3388850523
H        1.8196991935   -1.9472492752    0.4927361007
H       -1.0764881734   -1.9782142087    1.0769726988
H       -2.4333566101   -0.0717110310    0.3839167718
H       -0.9497265060    2.6691326799    0.2117992410
C       -0.6697104350    0.0183278127   -1.0077862468
H       -0.0929284452   -0.0217186904   -1.9035192581
13   
From optimize.out: Frame 4 / 52, Energy=    -286.7446722733
C        1.5073993135    0.1936301118   -0.0220163792
C        1.0430133722   -1.2111792659    0.4033976907
C       -0.2387123389   -1.5148115110    0.5321000685
C       -1.5494148577    0.5088031750    0.0099913666
C       -0.6426309302    1.6409985455    0.1613627826
N        0.7884687309    1.4073905517   -0.0251299747
H        2.5449237486    0.3266191480   -0.2925587343
H        1.8498218103   -1.9357399200    0.5095708976
H       -1.0514997847   -2.0243636220    1.0019026144
H       -2.4652482646   -0.0083420117    0.4057062099
H       -0.9230043015    2.6821848489    0.1870361323
C       -0.7157273528    0.0037523019   -0.9872064601
H       -0.1473891449   -0.0689423521   -1.8841562143
13   
From optimize.out: Frame 5 / 52, Energy=    -286.7724429653
C        1.5158461984    0.1966446808   -0.0035285438
C        1.0647702837   -1.2129022851    0.3993719063
C       -0.2127645646   -1.5402010048    0.4838123445
C       -1.5709684831    0.5360883508    0.0200618063
C       -0.6394072083    1.6480581587    0.1534324945
N        0.7884628379    1.3995567555   -0.0185046436
H        2.5576440365    0.3442241414   -0.2462324163
H        1.8799444271   -1.9242305648    0.5264056945
H       -1.0265113960   -2.0705130354    0.9268325299
H       -2.4971399192    0.0550270075    0.4274956480
H       -0.8962820971    2.6952370180    0.1622730237
C       -0.7617442707   -0.0108232090   -0.9666266735
H       -0.2018498445   -0.1161660138   -1.8647931704
13   
From optimize.out: Frame 6 / 52, Energy=    -286.8007023353
C        1.5242930833    0.1996592498    0.0149592916
C        1.0865271952   -1.2146253042    0.3953461220
C       -0.1868167903   -1.5655904985    0.4355246205
C       -1.5925221085    0.5633735267    0.0301322460
C       -0.6361834865    1.6551177719    0.1455022064
N        0.7884569448    1.3917229592   -0.0118793126
H        2.5703643244    0.3618291348   -0.1999060983
H        1.9100670439   -1.9127212095    0.5432404913
H       -1.0015230073   -2.1166624487    0.8517624455
H       -2.5290315738    0.1183960268    0.4492850861
H       -0.8695598926    2.7082891871    0.1375099151
C       -0.8077611886   -0.0253987199   -0.9460468869
H       -0.2563105441   -0.1633896755   -1.8454301265
13   
From optimize.out: Frame 7 / 52, Energy=    -286.8244297084
C        1.5327399683    0.2026738188    0.0334471270
C        1.1082841068   -1.2163483234    0.3913203376
C       -0.1608690159   -1.5909799922    0.3872368964
C       -1.6140757339    0.5906587026    0.0402026856
C       -0.6329597646    1.6621773851    0.1375719183
N        0.7884510518    1.3838891629   -0.0052539815
H        2.5830846123    0.3794341283   -0.1535797802
H        1.9401896607   -1.9012118543    0.5600752882
H       -0.9765346186   -2.1628118621    0.7766923610
H       -2.5609232284    0.1817650460    0.4710745241
H       -0.8428376881    2.7213413562    0.1127468064
C       -0.8537781065   -0.0399742307   -0.9254671003
H       -0.3107712437   -0.2106133372   -1.8260670827
13   
From optimize.out: Frame 8 / 52, Energy=    -286.8385012177
C        1.5407963871    0.2065963300    0.0517255586
C        1.1280356235   -1.2157786107    0.3857433062
C       -0.1362125748   -1.6101093839    0.3357681840
C       -1.6329891020    0.6147185990    0.0515282682
C       -0.6291522990    1.6666750756    0.1303094992
N        0.7888038777    1.3761858257    0.0015899867
H        2.5947790411    0.3971355334   -0.1068368406
H        1.9659317158   -1.8895533881    0.5754832644
H       -0.9534037645   -2.2008881098    0.6972247353
H       -2.5886021592    0.2418852419    0.4939175927
H       -0.8165493804    2.7309348644    0.0877730383
C       -0.8976429129   -0.0572110695   -0.9015871082
H       -0.3637944524   -0.2605909080   -1.8026394848
13   
From optimize.out: Frame 9 / 52, Energy=    -286.8470042230
C        1.5473031616    0.2141221956    0.0691729286
C        1.1398283204   -1.2061097222    0.3740098334
C       -0.1166810537   -1.6043942801    0.2716750685
C       -1.6414240685    0.6259783141    0.0678351422
C       -0.6230281264    1.6610052519    0.1256976547
N        0.7905803530    1.3690002419    0.0093016616
H        2.6024021379    0.4152195678   -0.0584404527
H        1.9742886160   -1.8773031447    0.5852286104
H       -0.9376449161   -2.2069243484    0.6003045674
H       -2.5995620340    0.2891118175    0.5209422092
H       -0.7919830805    2.7268019693    0.0619632249
C       -0.9329666250   -0.0850099325   -0.8646095755
H       -0.4111126847   -0.3214979301   -1.7630808727
13   
From optimize.out: Frame 10 / 52, Energy=    -286.8517841686
C        1.5538099362    0.2216480612    0.0866202985
C        1.1516210173   -1.1964408338    0.3622763606
C       -0.0971495325   -1.5986791764    0.2075819531
C       -1.6498590351    0.6372380291    0.0841420162
C       -0.6169039539    1.6553354282    0.1210858102
N        0.7923568284    1.3618146582    0.0170133364
H        2.6100252348    0.4333036023   -0.0100440649
H        1.9826455161   -1.8650529014    0.5949739565
H       -0.9218860676   -2.2129605870    0.5033843995
H       -2.6105219088    0.3363383930    0.5479668257
H       -0.7674167807    2.7226690743    0.0361534116
C       -0.9682903372   -0.1128087955   -0.8276320428
H       -0.4584309169   -0.3824049522   -1.7235222606
13   
From optimize.out: Frame 11 / 52, Energy=    -286.8560381504
C        1.5603167107    0.2291739267    0.1040676685
C        1.1634137142   -1.1867719453    0.3505428877
C       -0.0776180114   -1.5929640726    0.1434888376
C       -1.6582940016    0.6484977442    0.1004488901
C       -0.6107797814    1.6496656044    0.1164739657
N        0.7941333038    1.3546290745    0.0247250113
H        2.6176483317    0.4513876367    0.0383523230
H        1.9910024162   -1.8528026580    0.6047193026
H       -0.9061272192   -2.2189968255    0.4064642317
H       -2.6214817836    0.3835649685    0.5749914421
H       -0.7428504809    2.7185361792    0.0103435982
C       -1.0036140493   -0.1406076585   -0.7906545100
H       -0.5057491492   -0.4433119744   -1.6839636485
13   
From optimize.out: Frame 12 / 52, Energy=    -286.8599503146
C        1.5663492654    0.2373158098    0.1199038441
C        1.1726219365   -1.1749150861    0.3393714765
C       -0.0621892824   -1.5819302883    0.0842195363
C       -1.6633386458    0.6549985191    0.1153417236
C       -0.6037316884    1.6412553314    0.1130634674
N        0.7965817249    1.3477194011    0.0322474223
H        2.6249074786    0.4685394212    0.0827962554
H        1.9957397282   -1.8400972958    0.6133814035
H       -0.8946474124   -2.2177840784    0.3181446200
H       -2.6278994341    0.4229459854    0.6004445485
H       -0.7196776713    2.7116678098   -0.0108791268
C       -1.0350899838   -0.1690416286   -0.7579209549
H       -0.5496260153   -0.5006739006   -1.6501142160
13   
From optimize.out: Frame 13 / 52, Energy=    -286.8638354203
C        1.5669998527    0.2524489368    0.1174544164
C        1.1524987011   -1.1382267315    0.3345789579
C       -0.0933235472   -1.5105342727    0.0796961786
C       -1.6299061860    0.6074896127    0.1141864720
C       -0.5861979309    1.6017434284    0.1232871663
N        0.8066561258    1.3439410615    0.0376218600
H        2.6280361210    0.4751110087    0.0823833802
H        1.9593979759   -1.8222267462    0.6097496474
H       -0.9317308713   -2.1343018758    0.3274335704
H       -2.5827669319    0.3732869815    0.6080624317
H       -0.7123197207    2.6737542709    0.0199574671
C       -1.0228971109   -0.2046834918   -0.7733527218
H       -0.5544464776   -0.5178021824   -1.6810588262
13   
From optimize.out: Frame 14 / 52, Energy=    -286.8676429333
C        1.5676504400    0.2675820637    0.1150049886
C        1.1323754658   -1.1015383769    0.3297864393
C       -0.1244578120   -1.4391382571    0.0751728209
C       -1.5964737263    0.5599807064    0.1130312204
C       -0.5686641734    1.5622315253    0.1335108652
N        0.8167305267    1.3401627219    0.0429962977
H        2.6311647634    0.4816825962    0.0819705049
H        1.9230562237   -1.8043561965    0.6061178913
H       -0.9688143302   -2.0508196733    0.3367225208
H       -2.5376344297    0.3236279775    0.6156803149
H       -0.7049617701    2.6358407320    0.0507940610
C       -1.0107042380   -0.2403253549   -0.7887844887