13   
From optimize.out: Frame 1 / 2, Energy=    -286.8549117567
C        1.6766486773    0.4031423996   -0.1918642777
C        1.1282007034   -0.8292677530   -0.2746751194
C       -0.3108954007   -1.0646849315   -0.0774503053
C       -1.1574502219    0.3247619811    0.0611268453
C       -0.3360814165    1.5304213908   -0.1504490947
N        0.9506007858    1.5940531829   -0.1791971504
H        2.7521717286    0.5365429016   -0.2744071056
H        1.7516913487   -1.6895276794   -0.5057336480
H       -0.7536594289   -1.9049524985   -0.6150243458
H       -2.1693372430    0.3822252724   -0.3446568584
H       -0.8817838171    2.4546204173   -0.3561880328
C       -0.9441731845   -0.6183577630    1.1612753437
H       -1.7059325314   -1.1189769209    1.7472437488
13   
From optimize.out: Frame 23 / 24, Energy=    -286.8549117567
C        1.6884248615    0.4077316649   -0.2121267895
C        1.1316473797   -0.8202832592   -0.2696236773
C       -0.3182119814   -1.0332696114   -0.0707615253
C       -1.1439282301    0.3237026613    0.0767565662
C       -0.3204787831    1.5386456475   -0.1524561735
N        0.9574264684    1.6052281172   -0.2249289089
H        2.7637884335    0.5418806929   -0.2954155399
H        1.7463464665   -1.6957594589   -0.4636676234
H       -0.7613794211   -1.8844439903   -0.5975547582
H       -2.1499648947    0.4108824141   -0.3410121232
H       -0.8931642603    2.4475342943   -0.3556226532
C       -0.9716278960   -0.6536991122    1.1844268440
H       -1.7288781430   -1.1881500602    1.7219863623
13   
From optimize.out: Frame 22 / 24, Energy=    -286.8549083360
C        1.6854697775    0.4031215451   -0.2143488920
C        1.1199195661   -0.8186054194   -0.2587264933
C       -0.3348574339   -1.0133795600   -0.0770110232
C       -1.1588260577    0.3292035589    0.0564308741
C       -0.3204852040    1.5424922037   -0.1701080496
N        0.9576191277    1.6018333626   -0.2353793135
H        2.7623179837    0.5320314332   -0.2805885511
H        1.7300847182   -1.7051865027   -0.4109548445
H       -0.7804209542   -1.8490400233   -0.6215275392
H       -2.1632780782    0.4133375907   -0.3672512248
H       -0.8779264052    2.4638018084   -0.3579156090
C       -1.0010045976   -0.6194184075    1.1776248510
H       -1.6186124424   -1.2801915898    1.7597558150
13   
From optimize.out: Frame 21 / 24, Energy=    -286.8548964481
C        1.6777745068    0.3954684758   -0.2162913900
C        1.1075755507   -0.8217856730   -0.2452576501
C       -0.3509369204   -1.0024416817   -0.0921383126
C       -1.1719013541    0.3289121380    0.0361171753
C       -0.3286051063    1.5359671087   -0.1881862320
N        0.9505390752    1.5919953774   -0.2434122448
H        2.7554576940    0.5215936971   -0.2613091360
H        1.7164337774   -1.7165460268   -0.3419007259
H       -0.8002917086   -1.8045222994   -0.6752996455
H       -2.1810063553    0.4050808257   -0.3781210844
H       -0.8675620389    2.4735111939   -0.3481949995
C       -1.0115880365   -0.5828222898    1.1691685211
H       -1.4958890840   -1.3244108457    1.7848257243
13   
From optimize.out: Frame 18 / 24, Energy=    -286.8547032022
C        1.6666317215    0.3864006754   -0.2182958971
C        1.0938086064   -0.8291061944   -0.2315973344
C       -0.3639113507   -1.0028272756   -0.1102994715
C       -1.1864817704    0.3252524367    0.0186036483
C       -0.3419685831    1.5231623173   -0.2030213146
N        0.9393611646    1.5782387285   -0.2456457380
H        2.7445333115    0.5106541853   -0.2366219438
H        1.7039986900   -1.7271797436   -0.2713195922
H       -0.8188265875   -1.7564480777   -0.7428311329
H       -2.2034918441    0.3862974662   -0.3761191740
H       -0.8614259889    2.4766191586   -0.3331729609
C       -0.9924900095   -0.5442040761    1.1553013764
H       -1.3797373598   -1.3268596007    1.7950195347
13   
From optimize.out: Frame 17 / 24, Energy=    -286.8543910833
C        1.6527079726    0.3762343671   -0.2124151535
C        1.0784208394   -0.8381094007   -0.2171157312
C       -0.3729022650   -1.0141312362   -0.1240650243
C       -1.2050216677    0.3227943547    0.0022128147
C       -0.3571934843    1.5120339441   -0.2075540979
N        0.9272942811    1.5627017357   -0.2378238498
H        2.7298262912    0.4976487802   -0.2106337453
H        1.6919063890   -1.7342216602   -0.2245725259
H       -0.8395592133   -1.7149613158   -0.7952349595
H       -2.2248810660    0.3547640596   -0.3838851158
H       -0.8572371694    2.4784268849   -0.3167054527
C       -0.9541259103   -0.4980075422    1.1359400863
H       -1.2692349972   -1.3051729712    1.7918527549
13   
From optimize.out: Frame 16 / 24, Energy=    -286.8528833501
C        1.6435304434    0.3636484868   -0.1953047571
C        1.0746761354   -0.8498192560   -0.2138335251
C       -0.3704706909   -1.0325190231   -0.1568515214
C       -1.2320864800    0.3167636845   -0.0028385067
C       -0.3755292721    1.4913519485   -0.2133987117
N        0.9105606449    1.5375674036   -0.2256403158
H        2.7194271146    0.4890484235   -0.1722385171
H        1.6946384232   -1.7416450118   -0.2070648146
H       -0.8504690838   -1.6691366697   -0.8754033235
H       -2.2523461409    0.3214347386   -0.3849231129
H       -0.8526330910    2.4700114337   -0.3150786936
C       -0.9259289134   -0.4417607277    1.1428584403
H       -1.1833690894   -1.2549454310    1.8197173591
13   
From optimize.out: Frame 15 / 24, Energy=    -286.8525253875
C        1.6273127156    0.3511462724   -0.1783770750
C        1.0602248727   -0.8646186694   -0.2029018518
C       -0.3744892932   -1.0598116341   -0.1789723452
C       -1.2578751219    0.3116934854   -0.0125095477
C       -0.3930630524    1.4822913331   -0.2140261817
N        0.8963959271    1.5208483005   -0.2112347136
H        2.7018282009    0.4750453143   -0.1373207062
H        1.6883229945   -1.7502147544   -0.1813572007
H       -0.8654714533   -1.6360909645   -0.9325568656
H       -2.2770261321    0.2856007956   -0.3904584760
H       -0.8532216272    2.4701725344   -0.3018527354
C       -0.8762469894   -0.3806665356    1.1270582814
H       -1.0766910411   -1.2053954776    1.8145094176
13   
From optimize.out: Frame 14 / 24, Energy=    -286.8489399815
C        1.6105779910    0.3372004220   -0.1580391337
C        1.0492656932   -0.8834919136   -0.1959717731
C       -0.3746550765   -1.0967597093   -0.2062773403
C       -1.2869310580    0.3072290232   -0.0185368106
C       -0.4112801590    1.4773097933   -0.2110210372
N        0.8810749689    1.5053212449   -0.1932632342
H        2.6838106562    0.4616432399   -0.1015152412
H        1.6893417880   -1.7606342023   -0.1671674410
H       -0.8743179210   -1.6194656085   -0.9897236890
H       -2.3030548391    0.2546365996   -0.3964879439
H       -0.8576304127    2.4722449967   -0.2876806510
C       -0.8276114825   -0.3120907694    1.1147458177
H       -0.9785901483   -1.1431431164    1.8109384775
13   
From optimize.out: Frame 13 / 24, Energy=    -286.8450709302
C        1.5935608476    0.3227973363   -0.1381379218
C        1.0402923100   -0.9062788142   -0.1906801141
C       -0.3742707026   -1.1411203904   -0.2343310507
C       -1.3167625456    0.3051554126   -0.0231790338
C       -0.4298215227    1.4794922871   -0.2042643498
N        0.8659606843    1.4946000902   -0.1732205985
H        2.6659885820    0.4486627881   -0.0687867220
H        1.6947872265   -1.7736659600   -0.1557972409
H       -0.8790666638   -1.6255148655   -1.0411512421
H       -2.3296169022    0.2311129616   -0.4025080541
H       -0.8667441531    2.4794497653   -0.2682396883
C       -0.7791191965   -0.2399716651    1.0991894111
H       -0.8851879639   -1.0747189460    1.8011066051
13   
From optimize.out: Frame 12 / 24, Energy=    -286.8405099957
C        1.5791853886    0.3086280402   -0.1195264700
C        1.0348916499   -0.9316916310   -0.1880713301
C       -0.3741987662   -1.1878856078   -0.2636147924
C       -1.3459158008    0.3052031353   -0.0270798715
C       -0.4496891704    1.4862694044   -0.1944122530
N        0.8515822397    1.4873450199   -0.1511429722
H        2.6515114924    0.4367925623   -0.0386543903
H        1.7047022790   -1.7893664256   -0.1467818075
H       -0.8823793403   -1.6508136629   -1.0903745785
H       -2.3558840989    0.2136536327   -0.4086750934
H       -0.8818020989    2.4892462149   -0.2448585997
C       -0.7336890569   -0.1669984427    1.0830640507
H       -0.7983147172   -1.0003822396    1.7901281080
13   
From optimize.out: Frame 9 / 24, Energy=    -286.8102856693
C        1.5693572124    0.2960376766   -0.1017850998
C        1.0322412473   -0.9581981882   -0.1886203774
C       -0.3758581285   -1.2327537867   -0.2946411427
C       -1.3722963115    0.3059868113   -0.0309417111
C       -0.4711798106    1.4949464566   -0.1822367793
N        0.8390409084    1.4822540990   -0.1270656646
H        2.6423757120    0.4263742699   -0.0089020273
H        1.7169616742   -1.8073411546   -0.1403951981
H       -0.8885301368   -1.6883038352   -1.1409803127
H       -2.3794335079    0.1982776810   -0.4163461036
H       -0.9041732623    2.4986523619   -0.2202058123
C       -0.6913777679   -0.0952383972    1.0695092212
H       -0.7171278290   -0.9206939945    1.7826110076
13   
From optimize.out: Frame 8 / 24, Energy=    -286.7921980867
C        1.5619248661    0.2863300253   -0.0839518487
C        1.0289741559   -0.9850166139   -0.1909839216
C       -0.3806393291   -1.2742876274   -0.3281698777
C       -1.3936395986    0.3063548538   -0.0352741972
C       -0.4927518914    1.5038962723   -0.1690128495
N        0.8282610891    1.4796916256   -0.1025255764
H        2.6362455334    0.4180083569    0.0227405860
H        1.7273864677   -1.8272253837   -0.1346468014
H       -0.8993571860   -1.7311683989   -1.1961204654
H       -2.3975753951    0.1829155454   -0.4267144888
H       -0.9319285089    2.5063097880   -0.1970830254
C       -0.6491192106   -0.0269965411    1.0608598037
H       -0.6377809926   -0.8388119022    1.7808826625
13   
From optimize.out: Frame 7 / 24, Energy=    -286.7700382923
C        1.5536075414    0.2798844331   -0.0665049561
C        1.0227395788   -1.0123351302   -0.1919848067
C       -0.3904419761   -1.3121041992   -0.3627953294
C       -1.4090764750    0.3069498374   -0.0408870268
C       -0.5125901151    1.5137342907   -0.1561286191
N        0.8173001019    1.4817825692   -0.0802418171
H        2.6297649703    0.4122249829    0.0560188611
H        1.7328253320   -1.8495309200   -0.1221703471
H       -0.9177321368   -1.7762723077   -1.2543193851
H       -2.4100351046    0.1703646535   -0.4397084483
H       -0.9617481639    2.5135300915   -0.1761506322
C       -0.6016191899    0.0337264354    1.0551212393
H       -0.5529943629   -0.7619547368    1.7797512675
13   
From optimize.out: Frame 6 / 24, Energy=    -286.7442965040
C        1.5438892176    0.2754955433   -0.0498999301
C        1.0134466746   -1.0374504804   -0.1856501211
C       -0.4068904141   -1.3421955722   -0.3904786096
C       -1.4198918190    0.3102098743   -0.0479497109
C       -0.5298976573    1.5245176004   -0.1479805516
N        0.8042857949    1.4869149665   -0.0638660379
H        2.6225029846    0.4083458325    0.0876604824
H        1.7315510222   -1.8723937167   -0.0949037582
H       -0.9497441304   -1.8184469981   -1.3016710477
H       -2.4209347193    0.1662914741   -0.4497459110
H       -0.9901878493    2.5211649505   -0.1567302732
C       -0.5445663705    0.0802172495    1.0406367256
H       -0.4535627340   -0.7026707238    1.7605787432
13   
From optimize.out: Frame 5 / 24, Energy=    -286.7154163631
C        1.5332040391    0.2719300379   -0.0333778330
C        0.9993219994   -1.0587550893   -0.1716593761
C       -0.4254707940   -1.3641251886   -0.4055936255
C       -1.4278111267    0.3192844436   -0.0541834294
C       -0.5449722546    1.5381480854   -0.1514098878
N        0.7931364917    1.4906988192   -0.0557290602
H        2.6129887809    0.4045827660    0.1197183903
H        1.7237125744   -1.8905099315   -0.0580486963
H       -0.9965746189   -1.8534931645   -1.3192141833
H       -2.4356479652    0.1642281896   -0.4455529222
H       -1.0115374997    2.5330563620   -0.1398518998
C       -0.4783739165    0.1178444566    1.0110712407
H       -0.3419757099   -0.6728897864    1.7038312825
13   
From optimize.out: Frame 4 / 24, Energy=    -286.6834694100
C        1.5299882845    0.2685765844   -0.0223788711
C        0.9899394609   -1.0865177204   -0.1856133916
C       -0.4190585739   -1.3900293029   -0.4331637014
C       -1.4347408221    0.3397534370   -0.0523677046
C       -0.5596956486    1.5648337176   -0.1725195295
N        0.7977871602    1.4893404103   -0.0538964873
H        2.5972616514    0.4031375414    0.1700683869
H        1.7294455558   -1.8958992027   -0.0635952804
H       -1.0306155517   -1.8754316041   -1.2907399425
H       -2.4549317270    0.1314278970   -0.4136330670
H       -1.0082320825    2.5625307739   -0.1426733467
C       -0.4393578462    0.1764593463    1.0144316813
H       -0.2977898608   -0.6881818778    1.6460812539
13   
From optimize.out: Frame 2 / 24, Energy=    -286.6091528493
C        1.5306348809    0.2642912211   -0.0127426417
C        0.9880790276   -1.0985521036   -0.2179426071
C       -0.4008043704   -1.3887200428   -0.4854277805
C       -1.4307989113    0.3391769377   -0.0348402937
C       -0.5653882109    1.5701334365   -0.1907630732
N        0.8060468903    1.4829301125   -0.0521431836
H        2.5829749231    0.3979839723    0.2200118050
H        1.7323811059   -1.8939974258   -0.1000174903
H       -1.0192287875   -1.8526179385   -1.3022772692
H       -2.4518637233    0.0784213222   -0.3768527897
H       -0.9996666806    2.5674385897   -0.1745468499
C       -0.4459240421    0.2224499629    1.0570539461
H       -0.3264421016   -0.6889380441    1.6704882279
13   
C5H5N+CH->C6H6N atoms 1-13 frame 103 charge -0.000 sz -1.000 sz^2 0.662
C        1.5308005894    0.2605146028   -0.0025989923
C        0.9899279523   -1.0911272030   -0.2429748082
C       -0.3893748602   -1.3603410847   -0.5408626898
C       -1.4190613837    0.3146985925   -0.0091701888
C       -0.5622923779    1.5481073624   -0.1950016663
N        0.8075750354    1.4756236251   -0.0483041910
H        2.5776750165    0.3898443694    0.2508852309
H        1.7257778867   -1.8930765394   -0.1283951723
H       -0.9871423934   -1.8031142491   -1.3734695522
H       -2.4306233721    0.0324610270   -0.3555878378
H       -1.0019569841    2.5412399622   -0.2152897133
C       -0.4712633257    0.2393822062    1.1078667144
H       -0.3700417833   -0.6542126717    1.7529028667
13   
C5H5N+CH->C6H6N atoms 1-13 frame 104 charge -0.000 sz -1.000 sz^2 0.653
C        1.5310365579    0.2570454157    0.0071867671
C        0.9921707230   -1.0819797341   -0.2660477889
C       -0.3790914083   -1.3302092283   -0.5942359058
C       -1.4071136997    0.2886345729    0.0165730797
C       -0.5583864240    1.5238956871   -0.1974878833
N        0.8083571107    1.4684827620   -0.0443654084
H        2.5739142777    0.3818323059    0.2783525629
H        1.7187513677   -1.8923630924   -0.1542075244
H       -0.9552765096   -1.7530684090   -1.4489763039
H       -2.4087708647   -0.0111118495   -0.3369882568
H       -1.0054878100    2.5128082254   -0.2552305336
C       -0.4971532623    0.2528923027    1.1577891660
H       -0.4129500584   -0.6168589584    1.8376380294
13   
C5H5N+CH->C6H6N atoms 1-13 frame 105 charge -0.000 sz -1.000 sz^2 0.656
C        1.5306429508    0.2547373243    0.0170349550
C        0.9905283441   -1.0694396242   -0.2871365661
C       -0.3725951841   -1.2915889539   -0.6431535416
C       -1.3900430627    0.2583347734    0.0405288488
C       -0.5525024091    1.4973517796   -0.2006356663
N        0.8101774709    1.4626170454   -0.0408052158
H        2.5697330081    0.3730729827    0.3050383426
H        1.7050664570   -1.8902939199   -0.1786864916
H       -0.9284309137   -1.6930964142   -1.5185989365
H       -2.3802602378   -0.0609886630   -0.3204147170
H       -1.0092866774    2.4800385939   -0.2952434978
C       -0.5204559012    0.2626437871    1.2046377141
H       -0.4525738450   -0.5833887113    1.9174347721
13   
C5H5N+CH->C6H6N atoms 1-13 frame 106 charge +0.000 sz -1.000 sz^2 0.682
C        1.5283372650    0.2563141612    0.0259134471
C        0.9769934451   -1.0478271282   -0.2995601438
C       -0.3786487094   -1.2311257187   -0.6724286148
C       -1.3590525142    0.2184385312    0.0560925259
C       -0.5411600873    1.4666894390   -0.2054695473
N        0.8150127760    1.4614115258   -0.0388435714
H        2.5647376394    0.3630241712    0.3261388650
H        1.6722847722   -1.8842516575   -0.1961242735
H       -0.9203760877   -1.6093321439   -1.5616878263
H       -2.3344058632   -0.1245822031   -0.3121028989
H       -1.0134704471    2.4376467405   -0.3307519617
C       -0.5329554808    0.2595498214    1.2363866047
H       -0.4772967079   -0.5659555388    1.9724373950
13   
C5H5N+CH->C6H6N atoms 1-13 frame 107 charge -0.000 sz -1.000 sz^2 0.726
C        1.5256845067    0.2586023318    0.0345960144
C        0.9612982701   -1.0245889991   -0.3103655296
C       -0.3869982030   -1.1667652590   -0.6980333113
C       -1.3255634305    0.1768565085    0.0700820148
C       -0.5288364296    1.4353304549   -0.2106039322
N        0.8203929638    1.4610654291   -0.0371797952
H        2.5596024520    0.3527581279    0.3461704192
H        1.6360560496   -1.8774906962   -0.2122325924
H       -0.9157929414   -1.5213583311   -1.5998116439
H       -2.2854527449   -0.1905723090   -0.3053269237
H       -1.0177167122    2.3935693106   -0.3653616647
C       -0.5434435545    0.2540996421    1.2652956804
H       -0.4992302259   -0.5515062105    2.0227712642
13   
From optimize.out: Frame 2 / 79, Energy=    -286.6114745262
C        1.5230315941    0.2608906356    0.0432790868
C        0.9456021820   -1.0013495181   -0.3211715440
C       -0.3953481824   -1.1024010552   -0.7236394974
C       -1.2920723985    0.1352720668    0.0840723175
C       -0.5165120551    1.4039696465   -0.2157386156
N        0.8257734646    1.4607193123   -0.0355159222
H        2.5544669659    0.3424914873    0.3662031387
H        1.5998252194   -1.8707293416   -0.2283418484
H       -0.9112095284   -1.4333794006   -1.6379376793
H       -2.2364967789   -0.2565662536   -0.2985505543
H       -1.0219632243    2.3494893166   -0.3999733812
C       -0.5539322383    0.2486491458    1.2942064378
H       -0.5211650200   -0.5370560417    2.0731080615
13   
From optimize.out: Frame 4 / 79, Energy=    -286.6771220943
C        1.5305910133    0.2675528006    0.0426521228
C        0.9427888965   -0.9755254454   -0.3325489735
C       -0.3994265324   -1.0402937836   -0.7067549022
C       -1.2601527553    0.0948968091    0.0806262757
C       -0.5007209036    1.3762950309   -0.2135590397
N        0.8350804798    1.4608534569   -0.0295645466
H        2.5650842778    0.3421906456    0.3559945617
H        1.5828795229   -1.8570081685   -0.2675698614
H       -0.9225667402   -1.3527362691   -1.6185359561
H       -2.1897447960   -0.3076107919   -0.3202497764
H       -1.0201054432    2.3119682248   -0.4175966405
C       -0.5852221949    0.2259087082    1.3177958682
H       -0.5784848248   -0.5464912177    2.1093108680
13   
From optimize.out: Frame 5 / 79, Energy=    -286.7099515391
C        1.5473935564    0.2766719603    0.0308514923
C        0.9570513883   -0.9578477556   -0.3396397137
C       -0.3964635478   -1.0081978761   -0.6450235568
C       -1.2441632304    0.0737143183    0.0572498507
C       -0.4875915534    1.3652895427   -0.2033408862
N        0.8451345341    1.4615193555   -0.0209506683
H        2.5904168769    0.3542767374    0.3130748572
H        1.5970800988   -1.8407456309   -0.3180244312
H       -0.9485457414   -1.3164785760   -1.5369002581
H       -2.1662052862   -0.3178873094   -0.3674498167
H       -1.0115558704    2.2989668399   -0.4066007324
C       -0.6283699720    0.1918791222    1.3244969194
H       -0.6541812530   -0.5811607284    2.1122569437
13   
From optimize.out: Frame 6 / 79, Energy=    -286.7292026538
C        1.5630900097    0.2846598729    0.0194179253
C        0.9729476738   -0.9427304193   -0.3490530446
C       -0.3900935397   -0.9815387352   -0.5930999021
C       -1.2310726740    0.0544516580    0.0383752013
C       -0.4755672305    1.3543584848   -0.1922097829
N        0.8545929568    1.4610930508   -0.0130706350
H        2.6138726249    0.3658468722    0.2730474235
H        1.6143361749   -1.8256137053   -0.3685808635
H       -0.9637367706   -1.2885877064   -1.4686969702
H       -2.1467999036   -0.3254358361   -0.4087506569
H       -1.0031552634    2.2862003122   -0.3965179205
C       -0.6744836072    0.1635657078    1.3362799833
H       -0.7339304510   -0.6062695564    2.1228592422
13   
From optimize.out: Frame 7 / 79, Energy=    -286.7445586283
C        1.5713744009    0.2851185057    0.0104837416
C        0.9995433530   -0.9446352545   -0.3737605312
C       -0.3612410633   -0.9909905621   -0.6063432647
C       -1.2372298858    0.0480032204    0.0493809376
C       -0.4709245597    1.3439890812   -0.1751142691
N        0.8600535636    1.4534491602   -0.0100920617
H        2.6247715737    0.3739324529    0.2523950252
H        1.6516815548   -1.8180523563   -0.4194887216
H       -0.9075143000   -1.3161855695   -1.4897265476
H       -2.1548478493   -0.3149021823   -0.4107902461
H       -0.9957929333    2.2750676733   -0.3925355854
C       -0.7399101669    0.1732208766    1.3815840043
H       -0.8399636879   -0.5680150457    2.1840075187
13   
From optimize.out: Frame 8 / 79, Energy=    -286.7572719023
C        1.5786380720    0.2872042984    0.0001339477
C        1.0230384698   -0.9453839648   -0.3960014778
C       -0.3358751726   -1.0052797463   -0.6148167327
C       -1.2397602234    0.0440777515    0.0578868374
C       -0.4653744036    1.3379853901   -0.1574793534
N        0.8658974773    1.4483479813   -0.0073001164
H        2.6348957372    0.3828006660    0.2286661653
H        1.6862663499   -1.8085212560   -0.4671268076
H       -0.8544428984   -1.3570326756   -1.5022586921
H       -2.1597562335   -0.2997570168   -0.4145472981
H       -0.9885250469    2.2685089099   -0.3841686429
C       -0.8026718869    0.1816306569    1.4209982913
H       -0.9423302409   -0.5345809947    2.2360138793
13   
From optimize.out: Frame 10 / 79, Energy=    -286.7750637501
C        1.5843849844    0.2983769773   -0.0185801144
C        1.0338437852   -0.9376984208   -0.4067389827
C       -0.3267150619   -1.0346864043   -0.5908031842
C       -1.2233481445    0.0481327007    0.0504875726
C       -0.4537017305    1.3500062978   -0.1367511791
N        0.8750030603    1.4549493943   -0.0046304419
H        2.6458209028    0.3972583671    0.1844144784
H        1.7084832241   -1.7879883095   -0.5049256671
H       -0.8224502079   -1.4514421794   -1.4602020112
H       -2.1475127994   -0.2641649411   -0.4331065028
H       -0.9807053467    2.2807304921   -0.3534028438
C       -0.8574277719    0.1776583849    1.4315140283
H       -1.0356748940   -0.5311323591    2.2427248480
13   
From optimize.out: Frame 11 / 79, Energy=    -286.7827216821
C        1.5963360937    0.3098807320   -0.0388981501
C        1.0489288381   -0.9290595506   -0.4169708729
C       -0.3120991489   -1.0506570100   -0.5678878798
C       -1.2123333240    0.0473890401    0.0427534990
C       -0.4421198361    1.3548945040   -0.1183255643
N        0.8847660684    1.4574952893   -0.0052578414
H        2.6624260936    0.4140171492    0.1389877696
H        1.7295507862   -1.7706445706   -0.5396630967
H       -0.7897766562   -1.5359039953   -1.4113021846
H       -2.1459285085   -0.2222283418   -0.4474070013
H       -0.9732858480    2.2862716257   -0.3205299429
C       -0.9142225671    0.1686376965    1.4383465302
H       -1.1322419913   -0.5300925684    2.2461547351
13   
From optimize.out: Frame 13 / 79, Energy=    -286.8007646203
C        1.6164965032    0.3208054239   -0.0592215404
C        1.0711386573   -0.9215482315   -0.4299750510
C       -0.2885081384   -1.0528685922   -0.5501453280
C       -1.2092780001    0.0404331354    0.0366540257
C       -0.4325131050    1.3501498963   -0.1013336876
N        0.8944549306    1.4541332983   -0.0063687284
H        2.6860222655    0.4337447668    0.0951355690
H        1.7516755535   -1.7585988902   -0.5761633121
H       -0.7576766259   -1.6034275909   -1.3578181940
H       -2.1553898700   -0.1785301407   -0.4581757996
H       -0.9681718307    2.2818091018   -0.2872213666
C       -0.9747422049    0.1584735321    1.4438921301
H       -1.2335081351   -0.5245757092    2.2507412829
13   
From optimize.out: Frame 14 / 79, Energy=    -286.8094448778
C        1.6338203559    0.3320862950   -0.0756823411
C        1.0904325159   -0.9179420463   -0.4480983603
C       -0.2687170384   -1.0758649102   -0.5305968902
C       -1.1990257919    0.0380936094    0.0304120879
C       -0.4261562803    1.3539797466   -0.0780801981
N        0.9022152676    1.4551551489    0.0048946451
H        2.7061366499    0.4543511879    0.0538138605
H        1.7753765294   -1.7448051588   -0.6253587217
H       -0.7401184258   -1.6818185752   -1.2978563089
H       -2.1450252595   -0.1493924648   -0.4820601999
H       -0.9684167037    2.2830430964   -0.2531218195
C       -1.0324136157    0.1612569386    1.4485363306
H       -1.3281082034   -0.5081428677    2.2531979157
13   
From optimize.out: Frame 15 / 79, Energy=    -286.8189380596
C        1.6505998131    0.3436647545   -0.0928345852
C        1.1075358200   -0.9116292018   -0.4656629177
C       -0.2505165504   -1.0878568783   -0.5165451443
C       -1.1825760261    0.0283992031    0.0249047476
C       -0.4190304014    1.3534688307   -0.0530236866
N        0.9102968445    1.4559469856    0.0150459556
H        2.7250372144    0.4743953477    0.0126132622
H        1.7930954605   -1.7310070232   -0.6730956533
H       -0.7208277876   -1.7539109188   -1.2346839035
H       -2.1280247842   -0.1233881951   -0.5041311123
H       -0.9707065162    2.2777983848   -0.2186928213
C       -1.0905241333    0.1636807197    1.4516165642
H       -1.4243589534   -0.4895620087    2.2544892945
13   
From optimize.out: Frame 16 / 79, Energy=    -286.8294900065
C        1.6636708900    0.3555777435   -0.1123575750
C        1.1197614817   -0.9023197397   -0.4787162994
C       -0.2329044715   -1.0831754307   -0.5104806934
C       -1.1639387781    0.0097511161    0.0167557304
C       -0.4096419964    1.3442932253   -0.0287081693
N        0.9194438545    1.4556580300    0.0189486818
H        2.7390333871    0.4926460283   -0.0283549350
H        1.8001824424   -1.7188007973   -0.7107562644
H       -0.6880377945   -1.8196189506   -1.1639992320
H       -2.1135825758   -0.0889100876   -0.5185430488
H       -0.9728850236    2.2632527441   -0.1779730995
C       -1.1443361126    0.1618754818    1.4460922178
H       -1.5167653033   -0.4702293632    2.2480926866
13   
From optimize.out: Frame 18 / 79, Energy=    -286.8446698047
C        1.6695069723    0.3664082104   -0.1299374465
C        1.1294190947   -0.9013073363   -0.4890350925
C       -0.2122476472   -1.1029345298   -0.4983785623
C       -1.1606551043    0.0033688166    0.0010535797
C       -0.4024025049    1.3392872321   -0.0073838901
N        0.9277496722    1.4557138311    0.0244649284
H        2.7454841534    0.5096309005   -0.0666928302
H        1.8112525464   -1.7083767851   -0.7452826244
H       -0.6452625573   -1.9015902685   -1.0880650388
H       -2.1158983452   -0.0393544393   -0.5344418405
H       -0.9715161157    2.2580935166   -0.1246136440
C       -1.1854378081    0.1653185864    1.4282692306
H       -1.5899923564   -0.4442577346    2.2300432307
13   
From optimize.out: Frame 19 / 79, Energy=    -286.8478463389
C        1.6790021804    0.3746511988   -0.1417922281
C        1.1426987242   -0.9012571678   -0.5055049575
C       -0.1919614952   -1.1190657532   -0.4914618214
C       -1.1482679660   -0.0153134259   -0.0073498185
C       -0.4011011416    1.3295158182    0.0231325872
N        0.9343132114    1.4511562697    0.0389678976
H        2.7553426679    0.5259512106   -0.1021647490
H        1.8248401663   -1.6952045511   -0.7973769237
H       -0.6148240491   -1.9663821955   -1.0207180232
H       -2.0995181789   -0.0203888438   -0.5571225875
H       -0.9780901838    2.2446906407   -0.0751829793
C       -1.2315397136    0.1845538578    1.4153211250
H       -1.6708942220   -0.3929070585    2.2212524784
13   
From optimize.out: Frame 20 / 79, Energy=    -286.8507304996
C        1.6890146067    0.3809664202   -0.1479768821
C        1.1557464593   -0.9019790055   -0.5253021266
C       -0.1752139818   -1.1317159705   -0.4921404761
C       -1.1288936987   -0.0460185054   -0.0107286696
C       -0.4050500231    1.3134420333    0.0605712040
N        0.9394142277    1.4425427938    0.0609039714
H        2.7654379922    0.5403777300   -0.1309603249
H        1.8372756593   -1.6806754864   -0.8569208951
H       -0.5938586382   -2.0150405164   -0.9668780675
H       -2.0710716854   -0.0244595206   -0.5808289604
H       -0.9920291132    2.2216137061   -0.0300657118
C       -1.2735855512    0.2177024708    1.4024896127
H       -1.7471862537   -0.3167561495    2.2178373259
13   
From optimize.out: Frame 22 / 79, Energy=    -286.8528936190
C        1.6957719981    0.3877821904   -0.1504409794
C        1.1637214343   -0.9033559738   -0.5445080547
C       -0.1647920497   -1.1436090232   -0.5011994962
C       -1.1071856253   -0.0846410412   -0.0153128455
C       -0.4118072228    1.2912279141    0.1009195741
N        0.9448586613    1.4327674616    0.0861149528
H        2.7723730991    0.5525082926   -0.1517288030
H        1.8446435150   -1.6667471421   -0.9105296342
H       -0.5753261062   -2.0596434477   -0.9222708775
H       -2.0426494561   -0.0334331626   -0.6004871699
H       -1.0113167359    2.1900277789    0.0170541779
C       -1.3018938505    0.2581117151    1.3814717328