13   
From optimize.out: Frame 23 / 24, Energy=    -286.8549117567
C        1.6766486773    0.4031423996   -0.1918642777
C        1.1282007034   -0.8292677530   -0.2746751194
C       -0.3108954007   -1.0646849315   -0.0774503053
C       -1.1574502219    0.3247619811    0.0611268453
C       -0.3360814165    1.5304213908   -0.1504490947
N        0.9506007858    1.5940531829   -0.1791971504
H        2.7521717286    0.5365429016   -0.2744071056
H        1.7516913487   -1.6895276794   -0.5057336480
H       -0.7536594289   -1.9049524985   -0.6150243458
H       -2.1693372430    0.3822252724   -0.3446568584
H       -0.8817838171    2.4546204173   -0.3561880328
C       -0.9441731845   -0.6183577630    1.1612753437
H       -1.7059325314   -1.1189769209    1.7472437488
13   
From optimize.out: Frame 22 / 24, Energy=    -286.8549083360
C        1.6766523606    0.4034088900   -0.1941772750
C        1.1281995137   -0.8289580667   -0.2762843094
C       -0.3111411570   -1.0641282730   -0.0780301778
C       -1.1573169261    0.3255168437    0.0612726081
C       -0.3360130191    1.5307966057   -0.1514516430
N        0.9506515169    1.5943693907   -0.1802425543
H        2.7525919509    0.5367188010   -0.2720876799
H        1.7518651949   -1.6903154243   -0.5030200015
H       -0.7556126821   -1.9051922274   -0.6132805969
H       -2.1700979500    0.3822756045   -0.3423258572
H       -0.8815268095    2.4553638185   -0.3562551680
C       -0.9427976636   -0.6178920347    1.1620958912
H       -1.7054543295   -1.1219639280    1.7437867638
13   
From optimize.out: Frame 21 / 24, Energy=    -286.8548964481
C        1.6769004580    0.4034133627   -0.1943236618
C        1.1282225247   -0.8291825846   -0.2747164523
C       -0.3121819273   -1.0629232606   -0.0784969707
C       -1.1566562530    0.3259272744    0.0620025073
C       -0.3359790922    1.5309841504   -0.1528194613
N        0.9504937124    1.5945339870   -0.1823324867
H        2.7528025545    0.5367430093   -0.2733831947
H        1.7522598321   -1.6906380714   -0.5003290305
H       -0.7554144307   -1.9059720786   -0.6125355492
H       -2.1707463931    0.3846112265   -0.3380228964
H       -0.8821445619    2.4554500252   -0.3564387279
C       -0.9401909380   -0.6181316591    1.1640354894
H       -1.7073654854   -1.1248153813    1.7373604348
13   
From optimize.out: Frame 20 / 24, Energy=    -286.8548863439
C        1.6768789221    0.4034217316   -0.1951367269
C        1.1281496685   -0.8293906001   -0.2755192949
C       -0.3123619776   -1.0629458001   -0.0787452173
C       -1.1564080618    0.3258745471    0.0624703549
C       -0.3361609812    1.5310174079   -0.1527462973
N        0.9502199570    1.5945330332   -0.1821466846
H        2.7529000317    0.5366743882   -0.2731815207
H        1.7530688276   -1.6904787819   -0.5002868367
H       -0.7551124850   -1.9076972124   -0.6107382938
H       -2.1708325065    0.3855746859   -0.3364706211
H       -0.8826605241    2.4552777343   -0.3561337672
C       -0.9383069733   -0.6180429595    1.1648667630
H       -1.7093738975   -1.1238181741    1.7337681427
13   
From optimize.out: Frame 19 / 24, Energy=    -286.8548662600
C        1.6777774931    0.4038552375   -0.1923862427
C        1.1269983558   -0.8278150578   -0.2784534258
C       -0.3130038029   -1.0626529116   -0.0773417081
C       -1.1556568800    0.3242098841    0.0629529242
C       -0.3353188295    1.5299765044   -0.1525397509
N        0.9515578620    1.5948003269   -0.1791409945
H        2.7535794361    0.5365269452   -0.2755966114
H        1.7532618622   -1.6881966048   -0.5024490105
H       -0.7567538226   -1.9086736552   -0.6076895630
H       -2.1694818338    0.3849326218   -0.3372886737
H       -0.8838140897    2.4526667213   -0.3569937007
C       -0.9364715848   -0.6181574922    1.1663102772
H       -1.7126741659   -1.1214725197    1.7306164800
13   
From optimize.out: Frame 18 / 24, Energy=    -286.8547032022
C        1.6793478598    0.4047632934   -0.2011059009
C        1.1270927603   -0.8264254709   -0.2709991798
C       -0.3159922052   -1.0519393593   -0.0768610042
C       -1.1557154168    0.3261108450    0.0665817861
C       -0.3303231198    1.5385879087   -0.1507814835
N        0.9538882716    1.5998443252   -0.1948305869
H        2.7555694541    0.5362040377   -0.2792460452
H        1.7476578592   -1.6911356028   -0.4941796439
H       -0.7564238132   -1.9055707714   -0.5978530624
H       -2.1634513454    0.3899876454   -0.3483357301
H       -0.8818095139    2.4591912836   -0.3564977768
C       -0.9493896452   -0.6245521403    1.1724382289
H       -1.7104511457   -1.1550659943    1.7316703987
13   
From optimize.out: Frame 17 / 24, Energy=    -286.8543910833
C        1.6816960492    0.4060850351   -0.1946553172
C        1.1274605797   -0.8232437598   -0.2764440875
C       -0.3153039607   -1.0513043485   -0.0763419788
C       -1.1573443910    0.3254122623    0.0679963664
C       -0.3263281319    1.5427166587   -0.1486374398
N        0.9570544808    1.6026530098   -0.1996625050
H        2.7571210420    0.5380171919   -0.2791601966
H        1.7463121691   -1.6880684932   -0.5036963641
H       -0.7648409612   -1.9099834667   -0.5825341413
H       -2.1597672743    0.3837855655   -0.3598803004
H       -0.8772306707    2.4635439671   -0.3567204408
C       -0.9566197559   -0.6236184528    1.1776495190
H       -1.7122091752   -1.1659951693    1.7320868861
13   
From optimize.out: Frame 16 / 24, Energy=    -286.8528833501
C        1.6890515500    0.4100805299   -0.2098469857
C        1.1392266435   -0.8225364961   -0.2751388550
C       -0.3072999772   -1.0483865534   -0.0688138240
C       -1.1326532163    0.3180910746    0.0906971060
C       -0.3224982963    1.5329829195   -0.1407346258
N        0.9554512788    1.6059183251   -0.2176821878
H        2.7631818023    0.5483342444   -0.3049339978
H        1.7575067975   -1.6898334248   -0.4953032853
H       -0.7483748539   -1.9057515816   -0.5897347937
H       -2.1415620310    0.4058001298   -0.3189075131
H       -0.9050005072    2.4344084762   -0.3505929852
C       -0.9474992535   -0.6771488137    1.1889371392
H       -1.7995299366   -1.1119588301    1.6920548083
13   
From optimize.out: Frame 15 / 24, Energy=    -286.8525253875
C        1.6883637990    0.4062101019   -0.2142022969
C        1.1262199007   -0.8183385902   -0.2663943695
C       -0.3260349130   -1.0218636731   -0.0714936860
C       -1.1526805780    0.3284891718    0.0663211441
C       -0.3184508766    1.5438372243   -0.1609334104
N        0.9593829444    1.6051845476   -0.2301835066
H        2.7647125919    0.5371959403   -0.2885005788
H        1.7382446874   -1.7000066262   -0.4414394940
H       -0.7711576602   -1.8697148531   -0.6005474870
H       -2.1560239350    0.4157732131   -0.3587611290
H       -0.8839731347    2.4579862946   -0.3602641290
C       -0.9905711809   -0.6361640729    1.1809921978
H       -1.6780316452   -1.2485886781    1.7454067452
13   
From optimize.out: Frame 14 / 24, Energy=    -286.8489399815
C        1.6840539540    0.4013442595   -0.2136974484
C        1.1150397188   -0.8179062813   -0.2519711885
C       -0.3420535866   -1.0046357887   -0.0801523267
C       -1.1633890106    0.3300600584    0.0497100194
C       -0.3205516010    1.5422663316   -0.1774948899
N        0.9575634139    1.6002310805   -0.2403033875
H        2.7613309642    0.5282298258   -0.2753228932
H        1.7227418190   -1.7087170484   -0.3910535921
H       -0.7862740643   -1.8336636046   -0.6348477972
H       -2.1680541479    0.4123430262   -0.3746025267
H       -0.8727588678    2.4681565076   -0.3586043891
C       -1.0116259303   -0.6080595029    1.1761277239
H       -1.5760226615   -1.3096488635    1.7722126962
13   
From optimize.out: Frame 13 / 24, Energy=    -286.8450709302
C        1.6771348286    0.3949816299   -0.2168222657
C        1.1068728742   -0.8217271957   -0.2451630984
C       -0.3520980750   -1.0019727963   -0.0916473233
C       -1.1721107150    0.3298229699    0.0332852789
C       -0.3289787523    1.5373927364   -0.1883105559
N        0.9502497333    1.5920762530   -0.2435867808
H        2.7548981187    0.5207737851   -0.2617579653
H        1.7160878727   -1.7172785808   -0.3373036630
H       -0.8033520776   -1.8044198831   -0.6732823580
H       -2.1806896833    0.4057640900   -0.3826331139
H       -0.8667780241    2.4762689638   -0.3459392029
C       -1.0154048756   -0.5801714602    1.1675005070
H       -1.4858312245   -1.3315105122    1.7856605413
13   
From optimize.out: Frame 12 / 24, Energy=    -286.8405099957
C        1.6701089098    0.3880306457   -0.2188254178
C        1.0983268666   -0.8275976019   -0.2356640904
C       -0.3611733864   -1.0003453173   -0.1108313011
C       -1.1838531295    0.3250727483    0.0229568716
C       -0.3394961614    1.5233732733   -0.2035262922
N        0.9409530839    1.5797596607   -0.2475445925
H        2.7481960685    0.5138340406   -0.2397507539
H        1.7080294744   -1.7262573331   -0.2809248975
H       -0.8135312564   -1.7621491083   -0.7392416957
H       -2.2006988274    0.3928397699   -0.3725631756
H       -0.8618220540    2.4747998871   -0.3383235446
C       -1.0024783160   -0.5522037751    1.1629482698
H       -1.4025612720   -1.3291568900    1.8012906199
13   
From optimize.out: Frame 11 / 24, Energy=    -286.8328965848
C        1.6545415361    0.3799866025   -0.2176150031
C        1.0780502913   -0.8349190478   -0.2169548448
C       -0.3745874184   -1.0094784771   -0.1129302334
C       -1.1968092463    0.3246781781    0.0029598734
C       -0.3517054305    1.5193988886   -0.2053414672
N        0.9325569502    1.5710851563   -0.2412656862
H        2.7319985998    0.4994745790   -0.2223645163
H        1.6896905263   -1.7321366974   -0.2281308343
H       -0.8371205651   -1.7294078289   -0.7689159310
H       -2.2164611208    0.3640574475   -0.3841028559
H       -0.8590834642    2.4819202492   -0.3157314203
C       -0.9596790495   -0.5141667978    1.1309099661
H       -1.2913916088   -1.3204922522    1.7794829532
13   
From optimize.out: Frame 10 / 24, Energy=    -286.8241357342
C        1.6491796591    0.3678084482   -0.2006488840
C        1.0802505851   -0.8450971773   -0.2182590597
C       -0.3684572347   -1.0241062860   -0.1499646067
C       -1.2235575811    0.3185110879    0.0010690997
C       -0.3695163992    1.4947652425   -0.2127869477
N        0.9153063243    1.5433255035   -0.2301945212
H        2.7255540584    0.4940399350   -0.1841303193
H        1.6978531354   -1.7388222010   -0.2178153853
H       -0.8444412783   -1.6821689343   -0.8558157456
H       -2.2439142365    0.3343731765   -0.3830661406
H       -0.8528220071    2.4699540099   -0.3198486489
C       -0.9435377007   -0.4621077392    1.1491986405
H       -1.2218973247   -1.2704750657    1.8222625188
13   
From optimize.out: Frame 9 / 24, Energy=    -286.8102856693
C        1.6347763875    0.3574614495   -0.1877321314
C        1.0654425161   -0.8566936177   -0.2062938872
C       -0.3742968284   -1.0444426401   -0.1664588909
C       -1.2447071879    0.3141573568   -0.0094617756
C       -0.3846644716    1.4860418567   -0.2146958977
N        0.9034955766    1.5289449599   -0.2191236306
H        2.7099507830    0.4812125434   -0.1543386088
H        1.6885586771   -1.7458631163   -0.1884342199
H       -0.8605926079   -1.6479120244   -0.9049167857
H       -2.2651403032    0.3011600942   -0.3877022401
H       -0.8520017379    2.4702896971   -0.3073666587
C       -0.8983663353   -0.4114073278    1.1319215046
H       -1.1224544683   -1.2329492313    1.8146032222
13   
From optimize.out: Frame 8 / 24, Energy=    -286.7921980867
C        1.6204428510    0.3451917184   -0.1694854120
C        1.0552369421   -0.8716048604   -0.1995747750
C       -0.3747353417   -1.0731483326   -0.1909745301
C       -1.2702874788    0.3090526679   -0.0156193667
C       -0.4011270195    1.4775192289   -0.2139384538
N        0.8895439371    1.5123486338   -0.2039931790
H        2.6942859726    0.4692158551   -0.1206756979
H        1.6876659443   -1.7540580662   -0.1741968729
H       -0.8707090724   -1.6216569546   -0.9601686278
H       -2.2883330821    0.2698212210   -0.3930650195
H       -0.8537620427    2.4691834568   -0.2973838067
C       -0.8555131351   -0.3520003640    1.1231906372
H       -1.0327084749   -1.1798642039    1.8158851043
13   
From optimize.out: Frame 7 / 24, Energy=    -286.7700382923
C        1.6043262587    0.3322891864   -0.1507386986
C        1.0449300012   -0.8903138593   -0.1933109280
C       -0.3747943031   -1.1105257319   -0.2154883806
C       -1.2972096767    0.3056629939   -0.0206241770
C       -0.4175356703    1.4762533168   -0.2097555038
N        0.8758552857    1.5002858341   -0.1868561416
H        2.6770875743    0.4566901607   -0.0890065983
H        1.6894352672   -1.7642938827   -0.1622610005
H       -0.8773777039   -1.6145253644   -1.0086163399
H       -2.3121001321    0.2437715401   -0.3986564226
H       -0.8594110512    2.4734921193   -0.2823388680
C       -0.8096876096   -0.2875416054    1.1095385957
H       -0.9435182402   -1.1212447075    1.8081144633
13   
From optimize.out: Frame 6 / 24, Energy=    -286.7442965040
C        1.5879995125    0.3183546359   -0.1320097926
C        1.0375991010   -0.9132787622   -0.1890944671
C       -0.3737818877   -1.1551439265   -0.2430681844
C       -1.3260003533    0.3045433468   -0.0243492405
C       -0.4351673778    1.4801809282   -0.2022279016
N        0.8611566769    1.4913476568   -0.1672797852
H        2.6601413929    0.4448698713   -0.0589884923
H        1.6966904621   -1.7775275699   -0.1527166985
H       -0.8797750798   -1.6273315995   -1.0567792834
H       -2.3377813477    0.2243871456   -0.4043250050
H       -0.8689176178    2.4817660578   -0.2625435375
C       -0.7646268898   -0.2180514890    1.0948931081
H       -0.8575365916   -1.0541162953    1.7984892799
13   
From optimize.out: Frame 5 / 24, Energy=    -286.7154163631
C        1.5741058352    0.3039355859   -0.1139521153
C        1.0330139315   -0.9397556281   -0.1867659174
C       -0.3741339860   -1.2030157213   -0.2720793005
C       -1.3552981762    0.3055353250   -0.0283508617
C       -0.4557355388    1.4889963880   -0.1913736760
N        0.8469393142    1.4854937226   -0.1444882033
H        2.6463516754    0.4328434418   -0.0298460321
H        1.7076536626   -1.7942364373   -0.1431572650
H       -0.8827273314   -1.6596885048   -1.1043201107
H       -2.3645527626    0.2089281147   -0.4101092600
H       -0.8859836761    2.4930393946   -0.2368741742
C       -0.7190596989   -0.1441632500    1.0765933042
H       -0.7705732488   -0.9779124311    1.7847236120
13   
From optimize.out: Frame 4 / 24, Energy=    -286.6834694100
C        1.5666748161    0.2907160889   -0.0945227044
C        1.0324764390   -0.9692834932   -0.1898385180
C       -0.3761624041   -1.2511746967   -0.3079645739
C       -1.3836053985    0.3063557159   -0.0323169768
C       -0.4807470897    1.4984275339   -0.1767271835
N        0.8340578915    1.4796154440   -0.1163429656
H        2.6401009218    0.4221532595    0.0032963897
H        1.7235664351   -1.8149529231   -0.1392767653
H       -0.8912609378   -1.7050932010   -1.1624158156
H       -2.3895123120    0.1918512294   -0.4196745907
H       -0.9146794403    2.5021914756   -0.2098288793
C       -0.6753836843   -0.0649103437    1.0647165590
H       -0.6855252367   -0.8858960894    1.7808960243
13   
From optimize.out: Frame 3 / 24, Energy=    -286.6482611424
C        1.5569417210    0.2816864000   -0.0728256611
C        1.0253034188   -1.0015300321   -0.1922199283
C       -0.3852688818   -1.2986260894   -0.3493929624
C       -1.4042393968    0.3063335447   -0.0383617321
C       -0.5053865131    1.5096245294   -0.1608984464
N        0.8222074256    1.4797045842   -0.0879644638
H        2.6321916196    0.4136095245    0.0431656916
H        1.7314368062   -1.8400724364   -0.1299389944
H       -0.9077073045   -1.7585427117   -1.2315078373
H       -2.4060910802    0.1734352709   -0.4340771935
H       -0.9500375446    2.5106299780   -0.1836640107
C       -0.6216169578    0.0129724097    1.0567789919
H       -0.5877333125   -0.7892249719    1.7809065466
13   
From optimize.out: Frame 2 / 24, Energy=    -286.6091528493
C        1.5458212089    0.2756762875   -0.0517441706
C        1.0167522258   -1.0375683496   -0.1914357257
C       -0.4025227385   -1.3435797208   -0.3940939683
C       -1.4203725368    0.3083890700   -0.0467843648
C       -0.5294127359    1.5233318445   -0.1449896089
N        0.8058399955    1.4866353018   -0.0622070676
H        2.6240979995    0.4089916535    0.0860349555
H        1.7360679656   -1.8716193813   -0.1040281723
H       -0.9411431962   -1.8176763541   -1.3075913483
H       -2.4192456117    0.1631938199   -0.4528591558
H       -0.9890960530    2.5203027463   -0.1586045879
C       -0.5549182661    0.0821934533    1.0512498783
H       -0.4718682571   -0.6982703709    1.7770533363
13   
From optimize.out: Frame 1 / 24, Energy=    -286.5661002864
C        1.5282588024    0.2706757920   -0.0279087588
C        0.9937807941   -1.0613020675   -0.1608111024
C       -0.4368983578   -1.3667496906   -0.4054872411
C       -1.4287712570    0.3192489768   -0.0585362937
C       -0.5481668206    1.5387601749   -0.1497997956
N        0.7866980106    1.4927722939   -0.0534352597
H        2.6103333484    0.4025125529    0.1234521164
H        1.7157010248   -1.8969597673   -0.0390610598
H       -1.0084711374   -1.8616346126   -1.3281965169
H       -2.4369187625    0.1723878691   -0.4493538245
H       -1.0211624433    2.5313223987   -0.1319253208
C       -0.4560106477    0.1186783695    0.9923083460
H       -0.2983725541   -0.6597122899    1.6887547109
13   
C5H5N+CH->C6H6N atoms 1-13 frame 103 charge -0.000 sz -1.000 sz^2 0.662
C        1.5282588024    0.2706757920   -0.0279087588
C        0.9937807941   -1.0613020675   -0.1608111024
C       -0.4368983578   -1.3667496906   -0.4054872411
C       -1.4287712570    0.3192489768   -0.0585362937
C       -0.5481668206    1.5387601749   -0.1497997956
N        0.7866980106    1.4927722939   -0.0534352597
H        2.6103333484    0.4025125529    0.1234521164
H        1.7157010248   -1.8969597673   -0.0390610598
H       -1.0084711374   -1.8616346126   -1.3281965169
H       -2.4369187625    0.1723878691   -0.4493538245
H       -1.0211624433    2.5313223987   -0.1319253208
C       -0.4560106477    0.1186783695    0.9923083460
H       -0.2983725541   -0.6597122899    1.6887547109
13   
C5H5N+CH->C6H6N atoms 1-13 frame 104 charge -0.000 sz -1.000 sz^2 0.653
C        1.5292409475    0.2705662057   -0.0260971506
C        0.9927191096   -1.0704421078   -0.1681546557
C       -0.4305520178   -1.3753233217   -0.4132384293
C       -1.4318567994    0.3264704264   -0.0552375842
C       -0.5523978311    1.5473428743   -0.1570334476
N        0.7904219379    1.4915549195   -0.0534799516
H        2.6080144600    0.4034970106    0.1385746500
H        1.7226016325   -1.8972775878   -0.0444509600
H       -1.0225777298   -1.8698976551   -1.3189955016
H       -2.4453085816    0.1577751481   -0.4374325869
H       -1.0178616900    2.5429472929   -0.1344655869
C       -0.4476548696    0.1405275203    1.0010864643
H       -0.2947885682   -0.6677407255    1.6689247400
13   
C5H5N+CH->C6H6N atoms 1-13 frame 105 charge -0.000 sz -1.000 sz^2 0.656
C        1.5300696391    0.2700059514   -0.0241996675
C        0.9914812014   -1.0794630324   -0.1765095871
C       -0.4242290399   -1.3836557239   -0.4224659500
C       -1.4342446091    0.3337918339   -0.0528162777
C       -0.5564805915    1.5563943362   -0.1648952124
N        0.7943904748    1.4903278521   -0.0536034569
H        2.6040291527    0.4039572199    0.1546715280
H        1.7280298172   -1.8970037984   -0.0520633009
H       -1.0324236703   -1.8755302647   -1.3067419782
H       -2.4525768718    0.1431864355   -0.4251846774
H       -1.0135676425    2.5541502045   -0.1378761442
C       -0.4409561616    0.1613774082    1.0090945081
H       -0.2935216984   -0.6775384221    1.6525902162
13   
C5H5N+CH->C6H6N atoms 1-13 frame 106 charge +0.000 sz -1.000 sz^2 0.682
C        1.5306235060    0.2690181523   -0.0222047477
C        0.9900307923   -1.0883230770   -0.1858232429
C       -0.4179489891   -1.3917587295   -0.4330614028
C       -1.4359847286    0.3411213525   -0.0511341454
C       -0.5604646261    1.5658752941   -0.1732840128
N        0.7984712102    1.4891053319   -0.0538139580
H        2.5984782425    0.4038893356    0.1716778725
H        1.7320592948   -1.8962796419   -0.0619075100
H       -1.0379531848   -1.8788762772   -1.2917804686
H       -2.4583930327    0.1287148213   -0.4124405367
H       -1.0084240436    2.5649375155   -0.1421520819
C       -0.4359475831    0.1812872893    1.0164620082
H       -0.2945468577   -0.6887113669    1.6394622260
13   
C5H5N+CH->C6H6N atoms 1-13 frame 107 charge -0.000 sz -1.000 sz^2 0.726
C        1.5307814784    0.2676395561   -0.0200963287
C        0.9883475657   -1.0969796775   -0.1960242618
C       -0.4116935196   -1.3996410440   -0.4448690814
C       -1.4371201848    0.3483385557   -0.0500193739
C       -0.5644105353    1.5757179513   -0.1820728940
N        0.8025132828    1.4879039788   -0.0541018474
H        2.5915560470    0.4033253180    0.1895103003
H        1.7348681100   -1.8952781638   -0.0739632846
H       -1.0392952278   -1.8804845627   -1.2745899790
H       -2.4624901899    0.1144244742   -0.3989807048
H       -1.0026371391    2.5753655706   -0.1472371729
C       -0.4326173297    0.2002750636    1.0233798416
H       -0.2978023575   -0.7006070203    1.6290647867
13   
From optimize.out: Frame 1 / 79, Energy=    -286.5547152113
C        1.5304328762    0.2659206875   -0.0178482835
C        0.9864330102   -1.1053818366   -0.2070198468
C       -0.4053997129   -1.4072959946   -0.4576904312
C       -1.4376796335    0.3553145332   -0.0492862983
C       -0.5683790825    1.5858367681   -0.1911273583
N        0.8063563163    1.4867513360   -0.0544420532
H        2.5835354305    0.4023296845    0.2080824881
H        1.7367274135   -1.8941883143   -0.0881714087
H       -1.0367994634   -1.8811014093   -1.2558062833
H       -2.4646764521    0.1003612740   -0.3845718354
H       -0.9964548469    2.5855455511   -0.1530493523
C       -0.4309186611    0.2183292265    1.0300718322
H       -0.3031771944   -0.7124215061    1.6208588307
13   
From optimize.out: Frame 2 / 79, Energy=    -286.6114745262
C        1.5312576351    0.2537951585    0.0163549770
C        0.9942719592   -1.0734095342   -0.2876647040
C       -0.3694569137   -1.3019789017   -0.6442409006
C       -1.3959199976    0.2642153743    0.0406917687
C       -0.5547269631    1.5012119369   -0.1998172026
N        0.8090898315    1.4617925370   -0.0406751904
H        2.5703908677    0.3743258593    0.3040865152
H        1.7121682709   -1.8916946688   -0.1783909375
H       -0.9254215847   -1.7061808097   -1.5197180543
H       -2.3882974025   -0.0519349744   -0.3195624387
H       -1.0087958161    2.4861707289   -0.2926508103
C       -0.5214093638    0.2655498181    1.2045611636
H       -0.4531505229   -0.5818625244    1.9170258138
13   
From optimize.out: Frame 3 / 79, Energy=    -286.6624815463
C        1.5212102735    0.2624616390    0.0492403304
C        0.9348262493   -0.9853947732   -0.3285902640
C       -0.4010807455   -1.0582126994   -0.7412190710
C       -1.2690795927    0.1067228423    0.0936771667
C       -0.5080509259    1.3824393163   -0.2192637617
N        0.8294673731    1.4604816905   -0.0343736132
H        2.5509412687    0.3354430670    0.3799563259
H        1.5749514430   -1.8660874269   -0.2394014357
H       -0.9080628495   -1.3729786799   -1.6641125827
H       -2.2028867360   -0.3018734856   -0.2938983314
H       -1.0248786086    2.3192268050   -0.4237355774
C       -0.5611330994    0.2449071828    1.3140547193
H       -0.5362240501   -0.5271354777    2.1076660950
13   
From optimize.out: Frame 4 / 79, Energy=    -286.6771220943
C        1.5626405455    0.2849468819    0.0201433465
C        0.9699934801   -0.9418066396   -0.3460740039
C       -0.3937748718   -0.9790733592   -0.5890072063
C       -1.2296539916    0.0544928705    0.0360375799
C       -0.4756776987    1.3553029260   -0.1940687139
N        0.8542577992    1.4621236063   -0.0131342499
H        2.6134042222    0.3652439171    0.2741285943
H        1.6099660067   -1.8259886546   -0.3638079931
H       -0.9721196458   -1.2835775654   -1.4628222698
H       -2.1448450288   -0.3272124424   -0.4102801484
H       -1.0037978041    2.2871691036   -0.3966228088
C       -0.6675231929    0.1609999440    1.3305775974
H       -0.7228698200   -0.6126205881    2.1149302761
13   
From optimize.out: Frame 5 / 79, Energy=    -286.7099515391
C        1.5785072980    0.2852586701    0.0025947894
C        1.0236765899   -0.9469453705   -0.3963719828
C       -0.3346708608   -1.0007232834   -0.6205015389
C       -1.2434170815    0.0427031548    0.0602783926
C       -0.4670426943    1.3347491193   -0.1596342665
N        0.8647869361    1.4463647825   -0.0076075214
H        2.6340552342    0.3810283377    0.2346453255
H        1.6857504391   -1.8115708203   -0.4649629005
H       -0.8547514296   -1.3428163672   -1.5116991399
H       -2.1630171040   -0.3048484531   -0.4112068405
H       -0.9892553943    2.2651844944   -0.3891975700
C       -0.7990282549    0.1832016527    1.4232406877
H       -0.9355936778   -0.5315859171    2.2404225654
13   
From optimize.out: Frame 6 / 79, Energy=    -286.7292026538
C        1.5856193713    0.3043884862   -0.0279080705
C        1.0371785881   -0.9335747504   -0.4112447942
C       -0.3247092241   -1.0532152574   -0.5765223448
C       -1.2127380678    0.0518025646    0.0458180544
C       -0.4475630476    1.3588207625   -0.1259126278
N        0.8795119855    1.4599528469   -0.0025710645
H        2.6498627947    0.4041535129    0.1616918572
H        1.7186574543   -1.7764653310   -0.5233046168
H       -0.8085814198   -1.5035376466   -1.4374063127
H       -2.1378293113   -0.2468654811   -0.4441948097
H       -0.9767704622    2.2895915149   -0.3373182868
C       -0.8829910674    0.1760111238    1.4353960321
H       -1.0796475935   -0.5310623452    2.2434769841
13   
From optimize.out: Frame 7 / 79, Energy=    -286.7445586283
C        1.6149593849    0.3194250393   -0.0579964756
C        1.0693481715   -0.9212131330   -0.4269215299
C       -0.2901856298   -1.0462113424   -0.5528830910
C       -1.2116299688    0.0397193115    0.0374279803
C       -0.4326607394    1.3480715359   -0.1051409276
N        0.8938965013    1.4532245983   -0.0099268648
H        2.6842583261    0.4311579657    0.0995330913
H        1.7484809856   -1.7605293776   -0.5680905133
H       -0.7570981400   -1.5921495445   -1.3659389886
H       -2.1600031203   -0.1794144476   -0.4529890794
H       -0.9672303597    2.2805023933   -0.2913555176
C       -0.9684959997    0.1558243121    1.4434738428
H       -1.2236394117   -0.5284073110    2.2508080735
13   
From optimize.out: Frame 8 / 79, Energy=    -286.7572719023
C        1.6441966586    0.3390156607   -0.0852490032
C        1.1022223054   -0.9165339447   -0.4598954309
C       -0.2568027565   -1.0938341341   -0.5176718212
C       -1.1926940981    0.0381481541    0.0264678416
C       -0.4227319502    1.3578936151   -0.0633058267
N        0.9067134775    1.4563237289    0.0133977588
H        2.7182377395    0.4671786776    0.0287221999
H        1.7908872826   -1.7361325856   -0.6572340703
H       -0.7312585406   -1.7320333483   -1.2607003529
H       -2.1372081017   -0.1327949215   -0.4984898287
H       -0.9689273539    2.2853042845   -0.2321353952
C       -1.0674342345    0.1645228624    1.4514852174
H       -1.3852004280   -0.4970580491    2.2546087113
13   
From optimize.out: Frame 9 / 79, Energy=    -286.7672367467
C        1.6630704211    0.3527192019   -0.1076080565
C        1.1178842753   -0.9020768590   -0.4768955167
C       -0.2382737079   -1.0762157390   -0.5143508593
C       -1.1628703470    0.0094124138    0.0218605088
C       -0.4118213666    1.3448512421   -0.0329984726
N        0.9172757117    1.4552132505    0.0182559385
H        2.7382796852    0.4884503361   -0.0187600626
H        1.7973960472   -1.7210246186   -0.7039872368
H       -0.7005131393   -1.7965190745   -1.1840149810
H       -2.1101396072   -0.1050679132   -0.5151179215
H       -0.9741715639    2.2631801006   -0.1925124335
C       -1.1354933862    0.1620405857    1.4518723717
H       -1.5006230223   -0.4749629264    2.2542567216
13   
From optimize.out: Frame 10 / 79, Energy=    -286.7750637501
C        1.6691876980    0.3696347472   -0.1356478781
C        1.1300607592   -0.9010100512   -0.4889959644
C       -0.2076568353   -1.1092277030   -0.4938906552
C       -1.1635911522    0.0065501783   -0.0051630373
C       -0.3988506436    1.3398873082   -0.0060491081
N        0.9301327843    1.4573254576    0.0226016927
H        2.7453732298    0.5134641460   -0.0757762569
H        1.8127868037   -1.7071521856   -0.7463360072
H       -0.6313479744   -1.9257994602   -1.0686595045
H       -2.1235287982   -0.0174251318   -0.5354196681
H       -0.9683876714    2.2600077133   -0.1112965413
C       -1.1919351164    0.1607925487    1.4221718511
H       -1.6022430836   -0.4470475675    2.2224610772
13   
From optimize.out: Frame 11 / 79, Energy=    -286.7827216821
C        1.6851619545    0.3776003721   -0.1456624630
C        1.1506048058   -0.9013341083   -0.5153746564
C       -0.1822331651   -1.1248054422   -0.4894122587
C       -1.1392734160   -0.0276377980   -0.0085312889
C       -0.4022385751    1.3239204020    0.0401717614
N        0.9367977947    1.4476703389    0.0483678712
H        2.7616122043    0.5335075679   -0.1184147764
H        1.8323819761   -1.6880953738   -0.8281678017
H       -0.6051368166   -1.9906453291   -0.9914494647
H       -2.0851060846   -0.0220746993   -0.5704832848
H       -0.9835073843    2.2363170171   -0.0538942102
C       -1.2561231102    0.1979848220    1.4119935639