13   
From optimize.out: Frame 23 / 24, Energy=    -286.8549117567
C        1.6766486773    0.4031423996   -0.1918642777
C        1.1282007034   -0.8292677530   -0.2746751194
C       -0.3108954007   -1.0646849315   -0.0774503053
C       -1.1574502219    0.3247619811    0.0611268453
C       -0.3360814165    1.5304213908   -0.1504490947
N        0.9506007858    1.5940531829   -0.1791971504
H        2.7521717286    0.5365429016   -0.2744071056
H        1.7516913487   -1.6895276794   -0.5057336480
H       -0.7536594289   -1.9049524985   -0.6150243458
H       -2.1693372430    0.3822252724   -0.3446568584
H       -0.8817838171    2.4546204173   -0.3561880328
C       -0.9441731845   -0.6183577630    1.1612753437
H       -1.7059325314   -1.1189769209    1.7472437488
13   
From optimize.out: Frame 22 / 24, Energy=    -286.8549083360
C        1.6848940212    0.4078221677   -0.2012602421
C        1.1325761447   -0.8229362607   -0.2758766078
C       -0.3118240460   -1.0500357704   -0.0730689415
C       -1.1466093388    0.3222292087    0.0778660315
C       -0.3246630234    1.5384846933   -0.1452015109
N        0.9563574521    1.6040726802   -0.2074969737
H        2.7597560960    0.5425027662   -0.2903659455
H        1.7511792895   -1.6888358375   -0.5000472814
H       -0.7576819449   -1.9081435580   -0.5856647894
H       -2.1518521289    0.3933569002   -0.3420664452
H       -0.8893042415    2.4508766469   -0.3540563895
C       -0.9526544092   -0.6468920000    1.1825570697
H       -1.7501738709   -1.1425016365    1.7146820258
13   
From optimize.out: Frame 21 / 24, Energy=    -286.8548964481
C        1.6887570735    0.4084233167   -0.2117118128
C        1.1336575061   -0.8207390657   -0.2713947015
C       -0.3153217728   -1.0370301694   -0.0699612688
C       -1.1412283940    0.3225432602    0.0802599747
C       -0.3207653000    1.5376304409   -0.1493832021
N        0.9571347123    1.6056041413   -0.2230349163
H        2.7638372453    0.5435651222   -0.2978976498
H        1.7492592800   -1.6941893160   -0.4722402585
H       -0.7581298388   -1.8903216236   -0.5943644982
H       -2.1477542294    0.4100703359   -0.3359717596
H       -0.8959971518    2.4445038639   -0.3547339089
C       -0.9659414944   -0.6596002500    1.1855353289
H       -1.7475076358   -1.1704600565    1.7148986728
13   
From optimize.out: Frame 20 / 24, Energy=    -286.8548863439
C        1.6869005220    0.4045580528   -0.2140308909
C        1.1224240093   -0.8181918128   -0.2614974161
C       -0.3314735674   -1.0160144678   -0.0744334647
C       -1.1563163012    0.3290225186    0.0606813409
C       -0.3191641138    1.5433038754   -0.1665563581
N        0.9587651780    1.6035027482   -0.2336194050
H        2.7635644628    0.5341517682   -0.2840264956
H        1.7329811590   -1.7029639857   -0.4243324903
H       -0.7762899764   -1.8574747459   -0.6121931162
H       -2.1601084287    0.4146085972   -0.3641395948
H       -0.8801656707    2.4614392818   -0.3597006147
C       -0.9977196820   -0.6266220192    1.1793406133
H       -1.6433975909   -1.2693198108    1.7545078922
13   
From optimize.out: Frame 18 / 24, Energy=    -286.8547032022
C        1.6798416317    0.3974707285   -0.2155998186
C        1.1100677925   -0.8202324312   -0.2478264638
C       -0.3481686112   -1.0030145748   -0.0871504121
C       -1.1686987322    0.3299157203    0.0397107353
C       -0.3256820005    1.5392993159   -0.1840794029
N        0.9531108887    1.5952664701   -0.2423022978
H        2.7574146862    0.5236906327   -0.2670646460
H        1.7186909362   -1.7139292583   -0.3583309558
H       -0.7966710569   -1.8158602014   -0.6582465286
H       -2.1757465865    0.4083378091   -0.3794915003
H       -0.8691177658    2.4730953226   -0.3508938993
C       -1.0139265296   -0.5910814288    1.1708755257
H       -1.5211146525   -1.3229581048    1.7803996641
13   
From optimize.out: Frame 17 / 24, Energy=    -286.8543910833
C        1.6707267793    0.3886419254   -0.2186492577
C        1.0990784149   -0.8270813498   -0.2364994470
C       -0.3603752903   -1.0004884402   -0.1091442342
C       -1.1828204845    0.3254904897    0.0238651668
C       -0.3385712451    1.5246061653   -0.2021881982
N        0.9417706447    1.5808427997   -0.2471965368
H        2.7487854565    0.5144443318   -0.2416861001
H        1.7087381417   -1.7254677286   -0.2858829281
H       -0.8126360846   -1.7658664617   -0.7334411357
H       -2.1989391941    0.3939763534   -0.3734487406
H       -0.8622578893    2.4749290799   -0.3389932766
C       -1.0036150964   -0.5546632940    1.1633486002
H       -1.4098841527   -1.3293638709    1.7999160881
13   
From optimize.out: Frame 16 / 24, Energy=    -286.8528833501
C        1.6544238066    0.3797192096   -0.2172424819
C        1.0780986026   -0.8351425267   -0.2169834812
C       -0.3744528194   -1.0097996566   -0.1137433886
C       -1.1973965534    0.3245427687    0.0029183581
C       -0.3520965018    1.5188580133   -0.2055049459
N        0.9321781822    1.5704756440   -0.2410225992
H        2.7318570984    0.4993552518   -0.2215250168
H        1.6898697508   -1.7322834895   -0.2279043404
H       -0.8372813043   -1.7283706154   -0.7708239703
H       -2.2170639025    0.3634056768   -0.3840800930
H       -0.8589459828    2.4816575092   -0.3158218214
C       -0.9593246376   -0.5130237490    1.1313115264
H       -1.2898657388   -1.3193940363    1.7804222543
13   
From optimize.out: Frame 15 / 24, Energy=    -286.8525253875
C        1.6482197809    0.3671188925   -0.1997880720
C        1.0792637300   -0.8458699996   -0.2174616639
C       -0.3688464031   -1.0254615630   -0.1510638363
C       -1.2249670558    0.3182209419    0.0003672898
C       -0.3705259132    1.4941838894   -0.2129141660
N        0.9145192199    1.5423671400   -0.2294567231
H        2.7245142083    0.4931850783   -0.1821449084
H        1.6972337242   -1.7392914292   -0.2158573344
H       -0.8455176524   -1.6798859488   -0.8590879894
H       -2.2453288067    0.3321597548   -0.3833751045
H       -0.8527673419    2.4699763811   -0.3190168108
C       -0.9405273424   -0.4587289084    1.1480472392
H       -1.2152701479   -1.2679742290    1.8217520798
13   
From optimize.out: Frame 14 / 24, Energy=    -286.8489399815
C        1.6322622854    0.3553093388   -0.1845316571
C        1.0636524586   -0.8593090495   -0.2051153550
C       -0.3743737436   -1.0494776182   -0.1707589337
C       -1.2491939706    0.3132619944   -0.0105418170
C       -0.3875520023    1.4845469879   -0.2145630420
N        0.9010484592    1.5260339645   -0.2164697496
H        2.7072031755    0.4791083244   -0.1484341347
H        1.6884020918   -1.7473005104   -0.1859369894
H       -0.8623670356   -1.6433068855   -0.9146079581
H       -2.2692083163    0.2956632563   -0.3886428715
H       -0.8523104953    2.4700956626   -0.3056156666
C       -0.8908498845   -0.4009873472    1.1303901106
H       -1.1067130222   -1.2236381182    1.8148280643
13   
From optimize.out: Frame 13 / 24, Energy=    -286.8450709302
C        1.6160913021    0.3417079795   -0.1644237191
C        1.0524540239   -0.8766563702   -0.1978835095
C       -0.3747512615   -1.0832403904   -0.1975933747
C       -1.2775565875    0.3081374414   -0.0169706869
C       -0.4055574255    1.4771774272   -0.2128090394
N        0.8858479426    1.5090916262   -0.1993661055
H        2.6896423315    0.4658338640   -0.1121249054
H        1.6881436690   -1.7568217805   -0.1709741362
H       -0.8725096314   -1.6197313948   -0.9732497175
H       -2.2947502873    0.2627876956   -0.3945747223
H       -0.8552872992    2.4703468141   -0.2933216088
C       -0.8431400470   -0.3345962232    1.1195045275
H       -1.0086267297   -1.1640366889    1.8137869979
13   
From optimize.out: Frame 12 / 24, Energy=    -286.8405099957
C        1.5987545875    0.3275338767   -0.1443472654
C        1.0424282556   -0.8981508703   -0.1918720171
C       -0.3744488059   -1.1257521530   -0.2249002743
C       -1.3070347933    0.3052809027   -0.0218953935
C       -0.4235526731    1.4775936549   -0.2071866316
N        0.8708392332    1.4972355885   -0.1801755072
H        2.6713045144    0.4526563645   -0.0787626087
H        1.6919111776   -1.7688100155   -0.1590039086
H       -0.8781958333   -1.6188956248   -1.0250524433
H       -2.3208641129    0.2371564147   -0.4005908850
H       -0.8626552655    2.4763156865   -0.2755835064
C       -0.7943101722   -0.2638273834    1.1045406714
H       -0.9141761120   -1.0983364415    1.8048297698
13   
From optimize.out: Frame 10 / 24, Energy=    -286.8241357342
C        1.5830006045    0.3131667002   -0.1255126885
C        1.0359493693   -0.9228050678   -0.1882566611
C       -0.3739085717   -1.1723680704   -0.2535063065
C       -1.3365416317    0.3049002579   -0.0257890131
C       -0.4425677472    1.4833527071   -0.1983225802
N        0.8560413078    1.4892414269   -0.1590794349
H        2.6551798894    0.4405427941   -0.0485031130
H        1.7006349923   -1.7835393757   -0.1492772398
H       -0.8808372920   -1.6389735276   -1.0738843461
H       -2.3474136312    0.2188250276   -0.4064061645
H       -0.8750579400    2.4858221742   -0.2533077692
C       -0.7482319363   -0.1914666980    1.0883088875
H       -0.8262474132   -1.0266983485    1.7935364294
13   
From optimize.out: Frame 9 / 24, Energy=    -286.8102856693
C        1.5718146515    0.2998596584   -0.1079615038
C        1.0328482080   -0.9488598654   -0.1877132830
C       -0.3747594020   -1.2178644325   -0.2831436983
C       -1.3640260564    0.3057882736   -0.0295737220
C       -0.4634472747    1.4919042647   -0.1868577673
N        0.8429676241    1.4836812907   -0.1358102673
H        2.6444243995    0.4295473702   -0.0196273294
H        1.7125599996   -1.8006238887   -0.1419608023
H       -0.8853584724   -1.6736879974   -1.1222325837
H       -2.3722484650    0.2036628504   -0.4130585095
H       -0.8948313543    2.4958612280   -0.2285353803
C       -0.7055932054   -0.1197274412    1.0729313833
H       -0.7443506525   -0.9495413108    1.7835434635
13   
From optimize.out: Frame 8 / 24, Energy=    -286.7921980867
C        1.5648426827    0.2890163629   -0.0904385074
C        1.0311262076   -0.9753535009   -0.1902867887
C       -0.3778765847   -1.2601068279   -0.3157629499
C       -1.3874894907    0.3063515424   -0.0334548264
C       -0.4853851530    1.5005352282   -0.1737476217
N        0.8318271895    1.4796322235   -0.1110010675
H        2.6386120946    0.4205450082    0.0108012872
H        1.7250479340   -1.8196813573   -0.1375190467
H       -0.8943567606   -1.7151544029   -1.1754215246
H       -2.3926330578    0.1883846556   -0.4223857005
H       -0.9213351612    2.5037799181   -0.2049036700
C       -0.6652627704   -0.0502498894    1.0632224113
H       -0.6671171300   -0.8676989605    1.7808980050
13   
From optimize.out: Frame 7 / 24, Energy=    -286.7700382923
C        1.5567949413    0.2816070725   -0.0725474064
C        1.0251905516   -1.0020057020   -0.1922095776
C       -0.3854966156   -1.2992194326   -0.3499829712
C       -1.4044523381    0.3063606756   -0.0384729025
C       -0.5057036353    1.5098054523   -0.1606884656
N        0.8219913918    1.4797960627   -0.0876244918
H        2.6320847919    0.4135485732    0.0437315232
H        1.7314979329   -1.8404888246   -0.1295969973
H       -0.9081486250   -1.7593232169   -1.2325120639
H       -2.4062647069    0.1733000940   -0.4343250967
H       -0.9505530780    2.5107576489   -0.1833332513
C       -0.6207366015    0.0138860585    1.0567060131
H       -0.5862040091   -0.7880244617    1.7808556881
13   
From optimize.out: Frame 6 / 24, Energy=    -286.7442965040
C        1.5482185299    0.2769719264   -0.0562888442
C        1.0185956620   -1.0297993358   -0.1916047813
C       -0.3988032127   -1.3338887750   -0.3844574825
C       -1.4168946111    0.3079459470   -0.0449686432
C       -0.5242332472    1.5203768697   -0.1484191802
N        0.8093684285    1.4851412021   -0.0677597566
H        2.6258427937    0.4099871579    0.0767933502
H        1.7350695966   -1.8648186018   -0.1096139362
H       -0.9339352042   -1.8049285313   -1.2911895324
H       -2.4164098040    0.1654016359   -0.4488102064
H       -0.9806759570    2.5182175249   -0.1640068102
C       -0.5692969357    0.0672710240    1.0524418252
H       -0.4968460385   -0.7178780442    1.7778839978
13   
From optimize.out: Frame 5 / 24, Energy=    -286.7154163631
C        1.5373280743    0.2732580607   -0.0402174267
C        1.0056433005   -1.0490459146   -0.1766257366
C       -0.4191466996   -1.3547846587   -0.3996037257
C       -1.4244341363    0.3136408930   -0.0524675674
C       -0.5384821631    1.5307929454   -0.1473158028
N        0.7965829808    1.4896031354   -0.0579650439
H        2.6174414496    0.4058583771    0.1041297983
H        1.7262185654   -1.8838739268   -0.0726102437
H       -0.9737028155   -1.8389344549   -1.3175559549
H       -2.4277923020    0.1676400385   -0.4511639866
H       -1.0046032769    2.5256318219   -0.1457025629
C       -0.5070867961    0.0998374650    1.0227459048
H       -0.3879661811   -0.6796237820    1.7343523480
13   
From optimize.out: Frame 4 / 24, Energy=    -286.6834694100
C        1.5290388332    0.2705887573   -0.0264699590
C        0.9929375922   -1.0685611915   -0.1666434360
C       -0.4318580224   -1.3735589660   -0.4116433230
C       -1.4312218299    0.3249843342   -0.0559164211
C       -0.5515271373    1.5455766524   -0.1555448443
N        0.7896555960    1.4918054413   -0.0534707545
H        2.6084916608    0.4032944204    0.1354626046
H        1.7211815659   -1.8972121839   -0.0433417798
H       -1.0196747535   -1.8681972149   -1.3208889659
H       -2.4435820522    0.1607822799   -0.4398858420
H       -1.0185409475    2.5405550219   -0.1339428290
C       -0.4493743937    0.1360312136    0.9992800274
H       -0.2955261117   -0.6660885647    1.6730055225
13   
From optimize.out: Frame 2 / 24, Energy=    -286.6091528493
C        1.5306759488    0.2671192167   -0.0194157959
C        0.9877679875   -1.0995231963   -0.1993528677
C       -0.4097882457   -1.4019583662   -0.4487503866
C       -1.4372895422    0.3504503378   -0.0497974558
C       -0.5656119020    1.5787811401   -0.1848138799
N        0.8036766537    1.4875550484   -0.0542048352
H        2.5891280296    0.4030239178    0.1951325108
H        1.7354309621   -1.8949482424   -0.0782643969
H       -1.0385397049   -1.8806712957   -1.2689037404
H       -2.4631520196    0.1101672336   -0.3946188225
H       -1.0007656230    2.5784472750   -0.1489966477
C       -0.4321031053    0.2057404566    1.0254056547
H       -0.2994294391   -0.7041835255    1.6265806630
13   
From optimize.out: Frame 1 / 24, Energy=    -286.5661002864
C        1.5306188405    0.2631866576   -0.0101362292
C        0.9882005142   -1.0981728124   -0.2252034208
C       -0.3972954324   -1.3835493948   -0.4997533026
C       -1.4282637891    0.3347737529   -0.0289982986
C       -0.5653008413    1.5667558009   -0.1930867198
N        0.8069726615    1.4811236967   -0.0513379400
H        2.5805716317    0.3960154613    0.2297292042
H        1.7311898876   -1.8936260542   -0.1085138525
H       -1.0116862948   -1.8416608080   -1.3153123618
H       -2.4474547204    0.0660219473   -0.3699137008
H       -0.9992374537    2.5631387977   -0.1845262936
C       -0.4513222484    0.2289763917    1.0694151924
H       -0.3369927556   -0.6829834367    1.6876377231
13   
C5H5N+CH->C6H6N atoms 1-13 frame 103 charge -0.000 sz -1.000 sz^2 0.662
C        1.5308527763    0.2597473548   -0.0004347664
C        0.9904239652   -1.0891041418   -0.2480776461
C       -0.3871005642   -1.3536771004   -0.5526667508
C       -1.4164190248    0.3089342541   -0.0034767880
C       -0.5614285341    1.5427526899   -0.1955515200
N        0.8077479998    1.4740443464   -0.0474330868
H        2.5768432887    0.3880724154    0.2569599269
H        1.7242238964   -1.8929187529   -0.1341038517
H       -0.9800949103   -1.7920460731   -1.3901686828
H       -2.4257904549    0.0228244165   -0.3514743404
H       -1.0027378642    2.5349519777   -0.2241230555
C       -0.4769891637    0.2423701094    1.1189076017
H       -0.3795314100   -0.6459514961    1.7716429596
13   
C5H5N+CH->C6H6N atoms 1-13 frame 104 charge -0.000 sz -1.000 sz^2 0.653
C        1.5310867122    0.2563080520    0.0092666965
C        0.9926474161   -1.0800354711   -0.2709518715
C       -0.3769056960   -1.3238048060   -0.6055801990
C       -1.4045742606    0.2830947554    0.0220447227
C       -0.5575562270    1.5187495789   -0.1980163201
N        0.8085233381    1.4669649962   -0.0435282337
H        2.5731149456    0.3801293694    0.2841906497
H        1.7172579053   -1.8922114516   -0.1596938508
H       -0.9485035258   -1.7424313382   -1.4650250038
H       -2.4041261895   -0.0203731143   -0.3330349799
H       -1.0062382748    2.5067651577   -0.2637198173
C       -0.5026560791    0.2557638272    1.1684000111
H       -0.4220700644   -0.6089195554    1.8556481962
13   
C5H5N+CH->C6H6N atoms 1-13 frame 105 charge -0.000 sz -1.000 sz^2 0.656
C        1.5305493686    0.2544060828    0.0186731571
C        0.9900814655   -1.0672051286   -0.2905496608
C       -0.3716861657   -1.2847951431   -0.6510771619
C       -1.3869786642    0.2531132870    0.0444268570
C       -0.5514366392    1.4928393241   -0.2011880447
N        0.8105263012    1.4617001318   -0.0402309746
H        2.5690198113    0.3715849030    0.3094347895
H        1.7024954745   -1.8898895430   -0.1826917374
H       -0.9241979191   -1.6826924635   -1.5298968268
H       -2.3752272882   -0.0695538362   -0.3177533043
H       -1.0099295370    2.4744023868   -0.3018913406
C       -0.5242096005    0.2640946613    1.2122796693
H       -0.4590066072   -0.5780046624    1.9304645782
13   
C5H5N+CH->C6H6N atoms 1-13 frame 106 charge +0.000 sz -1.000 sz^2 0.682
C        1.5279199229    0.2566741449    0.0272794216
C        0.9745242206   -1.0441712175   -0.3012600882
C       -0.3799622835   -1.2210002868   -0.6764568429
C       -1.3537838844    0.2118966895    0.0582934055
C       -0.5392212826    1.4617559245   -0.2062773083
N        0.8158592076    1.4613570766   -0.0385818198
H        2.5639297522    0.3614090782    0.3292903052
H        1.6665851319   -1.8831879974   -0.1986584955
H       -0.9196550498   -1.5954917695   -1.5676856101
H       -2.3267043727   -0.1349640172   -0.3110368767
H       -1.0141384856    2.4307123118   -0.3361968916
C       -0.5346055044    0.2586923785    1.2409346903
H       -0.4807473722   -0.5636823156    1.9803561105
13   
C5H5N+CH->C6H6N atoms 1-13 frame 107 charge -0.000 sz -1.000 sz^2 0.726
C        1.5252904773    0.2589422070    0.0358856860
C        0.9589669756   -1.0211373064   -0.3119705156
C       -0.3882384013   -1.1572054305   -0.7018365239
C       -1.3205891046    0.1706800920    0.0721599539
C       -0.5270059260    1.4306725249   -0.2113665718
N        0.8211921140    1.4610140214   -0.0369326650
H        2.5588396931    0.3512332535    0.3491458210
H        1.6306747894   -1.8764864518   -0.2146252535
H       -0.9151121804   -1.5082910756   -1.6054743934
H       -2.2781814572   -0.2003741982   -0.3043204492
H       -1.0183474343    2.3870222369   -0.3705024426
C       -0.5450014083    0.2532900957    1.2695897114
H       -0.5024881373   -0.5493599689    2.0302476428
13   
From optimize.out: Frame 2 / 79, Energy=    -286.6114745262
C        1.5226610316    0.2612102690    0.0444919504
C        0.9434097307   -0.9981033953   -0.3226809430
C       -0.3965145191   -1.0934105741   -0.7272162049
C       -1.2873943248    0.1294634944    0.0860265023
C       -0.5147905694    1.3995891253   -0.2164558353
N        0.8265250204    1.4606709662   -0.0352835102
H        2.5537496341    0.3410574288    0.3690013367
H        1.5947644469   -1.8697849062   -0.2305920115
H       -0.9105693110   -1.4210903817   -1.6432631767
H       -2.2296585417   -0.2657843792   -0.2976040216
H       -1.0225563830    2.3433321620   -0.4048079936
C       -0.5553973122    0.2478878129    1.2982447324
H       -0.5242289024   -0.5350376221    2.0801391750
13   
From optimize.out: Frame 3 / 79, Energy=    -286.6624815463
C        1.5286759640    0.2665134556    0.0439970852
C        0.9411633465   -0.9775402384   -0.3317408151
C       -0.3997642349   -1.0439518754   -0.7137906566
C       -1.2619751418    0.0973110575    0.0832905751
C       -0.5022173052    1.3775493679   -0.2147236412
N        0.8339345812    1.4607775620   -0.0305463028
H        2.5621970258    0.3408131481    0.3608862824
H        1.5812610297   -1.8588616713   -0.2618193636
H       -0.9196058153   -1.3568686952   -1.6278402847
H       -2.1924276827   -0.3064395384   -0.3148702097
H       -1.0210798703    2.3134500417   -0.4188498857
C       -0.5803044799    0.2297871885    1.3170321241
H       -0.5698574172   -0.5425398027    2.1089750926
13   
From optimize.out: Frame 4 / 79, Energy=    -286.6771220943
C        1.5453306116    0.2755523486    0.0323003236
C        0.9553003002   -0.9600181472   -0.3387691428
C       -0.3968273304   -1.0121384752   -0.6526026690
C       -1.2461263563    0.0763150145    0.0601199088
C       -0.4892035192    1.3666407498   -0.2045954276
N        0.8439001400    1.4614375993   -0.0220082437
H        2.5873066480    0.3527928584    0.3183443561
H        1.5953366124   -1.8427422762   -0.3118298336
H       -0.9453561500   -1.3209301414   -1.5469231421
H       -2.1690953672   -0.3166256023   -0.3616547964
H       -1.0126055506    2.3005630947   -0.4079507632
C       -0.6230724713    0.1960571301    1.3236741928
H       -0.6448875673   -0.5769041532    2.1118952370
13   
From optimize.out: Frame 5 / 79, Energy=    -286.7099515391
C        1.5619852592    0.2845912417    0.0206035620
C        0.9694372539   -0.9424960560   -0.3457974704
C       -0.3938904260   -0.9803250750   -0.5914146814
C       -1.2302775708    0.0553189714    0.0369492425
C       -0.4761897333    1.3557321316   -0.1944672141
N        0.8538656988    1.4620976367   -0.0134701846
H        2.6124162703    0.3647725688    0.2758024299
H        1.6094121951   -1.8266228811   -0.3618403036
H       -0.9711064847   -1.2849915876   -1.4660059994
H       -2.1457630516   -0.3268116661   -0.4084393830
H       -1.0041312309    2.2876761476   -0.3970516408
C       -0.6658404627    0.1623270717    1.3303162615
H       -0.7199177174   -0.6112685038    2.1148153814
13   
From optimize.out: Frame 6 / 79, Energy=    -286.7292026538
C        1.5700553526    0.2850925859    0.0119426031
C        0.9950805233   -0.9442080572   -0.3695791170
C       -0.3661545480   -0.9891907422   -0.6037250512
C       -1.2360857209    0.0489833330    0.0473657298
C       -0.4716424122    1.3456977776   -0.1779769027
N        0.8591782465    1.4547592361   -0.0105515144
H        2.6230547963    0.3726202491    0.2556773817
H        1.6453813791   -1.8192509519   -0.4110794261
H       -0.9172714539   -1.3112608793   -1.4856632743
H       -2.1533371530   -0.3167613644   -0.4107132076
H       -0.9970018852    2.2768953165   -0.3931528667
C       -0.7289777767    0.1713751854    1.3738806578
H       -0.8222793480   -0.5747516886    2.1735749875
13   
From optimize.out: Frame 7 / 79, Energy=    -286.7445586283
C        1.5777738482    0.2852442575    0.0034059816
C        1.0211950572   -0.9467078297   -0.3940469297
C       -0.3374029778   -0.9997225032   -0.6190456952
C       -1.2427808748    0.0432481412    0.0591578470
C       -0.4674418523    1.3356992309   -0.1612260187
N        0.8643002207    1.4470932432   -0.0078629976
H        2.6331006293    0.3802986938    0.2364704624
H        1.6822472600   -1.8122372930   -0.4602869566
H       -0.8601768431   -1.3400780195   -1.5094397784
H       -2.1621770894   -0.3058822414   -0.4111640036
H       -0.9899276256    2.2662007456   -0.3895408060
C       -0.7929493576    0.1821753659    1.4189572829
H       -0.9257603948   -0.5353317915    2.2346216119
13   
From optimize.out: Frame 8 / 79, Energy=    -286.7572719023
C        1.5824169308    0.2957746691   -0.0141731734
C        1.0310988776   -0.9395953036   -0.4045478309
C       -0.3291947725   -1.0295790521   -0.5963253962
C       -1.2265522839    0.0477052616    0.0523292883
C       -0.4563343872    1.3479817283   -0.1410968839
N        0.8728815568    1.4538343824   -0.0048388918
H        2.6427449304    0.3937406565    0.1945415107
H        1.7038400087   -1.7922727105   -0.4970343762
H       -0.8293709567   -1.4311677037   -1.4708590558
H       -2.1491709278   -0.2729741855   -0.4293409119
H       -0.9823922058    2.2786014662   -0.3606786084
C       -0.8451841014    0.1792488915    1.4299226960
H       -1.0147826690   -0.5312981004    2.2421016335
13   
From optimize.out: Frame 10 / 79, Energy=    -286.7750637501
C        1.5910273824    0.3071600543   -0.0334540267
C        1.0431081513   -0.9312962319   -0.4141343621
C       -0.3183457648   -1.0519242815   -0.5721651093
C       -1.2125338208    0.0495753547    0.0442715788
C       -0.4448162238    1.3568394431   -0.1220839457
N        0.8821633687    1.4587126824   -0.0039269006
H        2.6562026491    0.4091310287    0.1502346268
H        1.7241545884   -1.7735279836   -0.5315596446
H       -0.7990919167   -1.5198707722   -1.4242333099
H       -2.1419164329   -0.2344327691   -0.4458157874
H       -0.9750120111    2.2879161895   -0.3288463355
C       -0.8987515108    0.1722902495    1.4368849506
H       -1.1061884589   -0.5305729639    2.2448282655
13   
From optimize.out: Frame 11 / 79, Energy=    -286.7827216821
C        1.6119302523    0.3178726299   -0.0548900773
C        1.0660269074   -0.9224893757   -0.4253030265
C       -0.2937499276   -1.0469344432   -0.5553236637
C       -1.2117443716    0.0409668152    0.0382941915
C       -0.4341992891    1.3491813115   -0.1072854473
N        0.8924114098    1.4539192386   -0.0091674345
H        2.6807072498    0.4283699619    0.1059505098
H        1.7454019335   -1.7621746433   -0.5634667111
H       -0.7624133960   -1.5830010418   -1.3733174447
H       -2.1577138437   -0.1863782524   -0.4520811381
H       -0.9682153026    2.2814407758   -0.2961008230
C       -0.9596682675    0.1579084465    1.4426398704
H       -1.2087733547   -0.5286814230    2.2500511945
13   
From optimize.out: Frame 12 / 79, Energy=    -286.7916891675
C        1.6291108186    0.3289072976   -0.0711872519
C        1.0852599193   -0.9189483109   -0.4428815671
C       -0.2740276418   -1.0692617399   -0.5358401220
C       -1.2024646232    0.0389588394    0.0321230508
C       -0.4278550040    1.3528256215   -0.0848918899
N        0.9001001779    1.4547246404    0.0013627263
H        2.7007050516    0.4485927212    0.0652591831
H        1.7690064938   -1.7487208353   -0.6112378037
H       -0.7445912496   -1.6598561439   -1.3150013535
H       -2.1489698688   -0.1568496510   -0.4750123653
H       -0.9680517394    2.2828266061   -0.2626917767
C       -1.0163841129    0.1600345870    1.4473515106
H       -1.3018382218   -0.5132336321    2.2526476593
13   
From optimize.out: Frame 13 / 79, Energy=    -286.8007646203
C        1.6456612977    0.3400790810   -0.0869841073
C        1.1034377034   -0.9154120480   -0.4612146692
C       -0.2553648679   -1.0924669138   -0.5174141083
C       -1.1903797195    0.0359182072    0.0261103040
C       -0.4218852686    1.3568815027   -0.0609539197
N        0.9075331265    1.4562375537    0.0137747626
H        2.7197930317    0.4688293979    0.0250374880
H        1.7913923749   -1.7349601793   -0.6608622030
H       -0.7288726403   -1.7370375606   -1.2547494253
H       -2.1351075361   -0.1306432541   -0.4997801996
H       -0.9693343144    2.2835874066   -0.2290605796
C       -1.0727157513    0.1643302331    1.4515152613
H       -1.3941574361   -0.4953434264    2.2545813962
13   
From optimize.out: Frame 14 / 79, Energy=    -286.8094448778
C        1.6622194660    0.3521013549   -0.1065999613
C        1.1171781293   -0.9027286808   -0.4761290395
C       -0.2391091209   -1.0770100937   -0.5145005904
C       -1.1642150005    0.0107080125    0.0220682381
C       -0.4123132885    1.3454392793   -0.0343649302
N        0.9167994958    1.4552633183    0.0180368993
H        2.7373760607    0.4874912679   -0.0166192457
H        1.7971025887   -1.7217057865   -0.7018792924
H       -0.7018993469   -1.7936116281   -1.1874724688
H       -2.1113600354   -0.1063180315   -0.5143682163
H       -0.9739351200    2.2641776063   -0.1942989007
C       -1.1324248260    0.1621525033    1.4518549162
H       -1.4954190024   -0.4759591218    2.2542725916
13   
From optimize.out: Frame 15 / 79, Energy=    -286.8189380596
C        1.6669086050    0.3633325801   -0.1252011773
C        1.1255242081   -0.9014075082   -0.4844877419
C       -0.2190636591   -1.0969285481   -0.5015134437
C       -1.1633226043    0.0076165516    0.0049050331
C       -0.4036831016    1.3417367042   -0.0160895410
N        0.9253426686    1.4565385198    0.0209826098
H        2.7427304121    0.5041448361   -0.0545339278
H        1.8070527220   -1.7123205907   -0.7305582702
H       -0.6571166041   -1.8776339076   -1.1116371011
H       -2.1185404329   -0.0500779041   -0.5278559156
H       -0.9705425565    2.2611896388   -0.1415548693
C       -1.1709068134    0.1612575256    1.4332372728
H       -1.5643828438   -0.4574478976    2.2343070720
13   
From optimize.out: Frame 16 / 79, Energy=    -286.8294900065
C        1.6744494903    0.3722585603   -0.1389466022
C        1.1368278037   -0.9011167930   -0.4976848944
C       -0.1992824818   -1.1143588856   -0.4924155072
C       -1.1555810846   -0.0047110675   -0.0062725124
C       -0.3999666011    1.3346279371    0.0091756764
N        0.9323281854    1.4541451387    0.0310888657
H        2.7507222180    0.5200662888   -0.0898210440
H        1.8192412967   -1.7008750243   -0.7732907454
H       -0.6227142288   -1.9471591704   -1.0432271353
H       -2.1108726639   -0.0189566621   -0.5469693428
H       -0.9733679838    2.2522041876   -0.0923886728
C       -1.2130781278    0.1730433858    1.4188192047