13   
From optimize.out: Frame 1 / 2, Energy=    -286.8707854440
C        0.0458880000   -0.1429620000   -0.0000000000
C        0.0293200000    0.0017460000    0.0000000000
C       -0.1925730000   -0.0048330000    0.0000000000
C       -0.1862100000   -0.0084950000    0.0000000000
C        0.0356790000    0.0008080000    0.0000000000
N       -0.4031900000    0.0421220000   -0.0000000000
H        0.1634600000    0.0348870000   -0.0000000000
H        0.1469570000    0.0002130000    0.0000000000
H        0.1295680000    0.0017690000    0.0000000000
H        0.1295140000    0.0010330000    0.0000000000
H        0.1454560000    0.0010860000   -0.0000000000
C       -0.2137330000    1.0795210000   -0.0000000000
H        0.1698650000   -0.0068950000   -0.0000000000
