13   
From optimize.out: Frame 1 / 2, Energy=    -286.8405101568
C       -0.0772350000   -0.0368770000    0.0000000000
C       -0.0990880000    0.0291680000    0.0000000000
C       -0.1351230000   -0.0105090000    0.0000000000
C       -0.1234680000    0.0144330000    0.0000000000
C        0.0233650000    0.0113760000   -0.0000000000
N       -0.3921510000    0.1202750000   -0.0000000000
H        0.1523910000    0.0040730000    0.0000000000
H        0.1377860000   -0.0015880000    0.0000000000
H        0.1332260000    0.0005900000    0.0000000000
H        0.1333610000    0.0031090000    0.0000000000
H        0.1487360000   -0.0009190000   -0.0000000000
C       -0.0547160000    0.8605940000   -0.0000000000
H        0.1529150000    0.0062750000   -0.0000000000
