13   
From optimize.out: Frame 1 / 2, Energy=    -286.8516580738
C        1.1257872283    0.1915103642    0.4753344904
C        0.8530562582   -0.9771834436   -0.4844585579
C       -0.4708821211   -0.9917798802   -0.7112761441
C       -1.0733753324    0.1689504635    0.1058247809
C       -0.4268768735    1.4516272469   -0.4559746898
N        0.8343480124    1.4888641751   -0.2636226176
H        2.1013688013    0.2175611497    0.9584965789
H        1.6121067179   -1.6257873646   -0.9077038328
H       -1.0351172358   -1.6489404257   -1.3639214750
H       -2.1544426050    0.1672496931    0.2459404249
H       -0.9623959612    2.2384269214   -0.9846100443
C       -0.1373892975    0.0439136282    1.3126277610
H       -0.2661875919   -0.7244125280    2.0733433255
13   
From optimize.out: Frame 23 / 24, Energy=    -286.8516580738
C        1.1272599363    0.1836145830    0.4635797427
C        0.8534697799   -0.9937018224   -0.4758170720
C       -0.4682047725   -0.9990875426   -0.7105192368
C       -1.0795131154    0.1625845125    0.0855883992
C       -0.4378079713    1.4567326760   -0.4632653638
N        0.8215576078    1.4928883294   -0.2653517449
H        2.1085432464    0.2451540500    0.9286287683
H        1.6092929499   -1.6684819930   -0.8589644506
H       -1.0248549949   -1.6467933971   -1.3787601878
H       -2.1591782381    0.1575546936    0.2327876418
H       -0.9626873319    2.2885181632   -0.9294301821
C       -0.1263104743    0.0322883350    1.2936929183
H       -0.2615666219   -0.7112705877    2.0778307678
13   
From optimize.out: Frame 22 / 24, Energy=    -286.8516562724
C        1.1290550758    0.1816748377    0.4652245945
C        0.8575725945   -0.9999313698   -0.4893213945
C       -0.4660407594   -1.0050081925   -0.7220634510
C       -1.0773446082    0.1581351856    0.1048929555
C       -0.4531082149    1.4375927176   -0.4792988019
N        0.8035387932    1.4819055709   -0.2637783019
H        2.1283100839    0.2662393966    0.8871135483
H        1.6010221219   -1.7233675993   -0.8008439825
H       -1.0128409530   -1.5742941988   -1.4638616176
H       -2.1607929684    0.1302347730    0.2382925258
H       -0.9694439568    2.2899845468   -0.9134719857
C       -0.1184370966    0.0368018920    1.3171851513
H       -0.2614901120   -0.6799675597    2.1199307596
13   
From optimize.out: Frame 21 / 24, Energy=    -286.8516375257
C        1.1296374000    0.1843453704    0.4460445743
C        0.8741157981   -1.0065867941   -0.4981178141
C       -0.4577886058   -1.0281208237   -0.7158189681
C       -1.0874242855    0.1722138793    0.1263200520
C       -0.4722366252    1.4232349263   -0.4974993151
N        0.7920316419    1.4593885172   -0.2902037675
H        2.1303640885    0.2907805161    0.8627247751
H        1.6014845826   -1.7795042242   -0.7156324617
H       -1.0045480178   -1.4878078744   -1.5293421193
H       -2.1708586510    0.1001150200    0.2501596916
H       -0.9752234083    2.3094538465   -0.8766723692
C       -0.1050713665    0.0323701840    1.3113691084
H       -0.2544825509   -0.6698825436    2.1266686136
13   
From optimize.out: Frame 20 / 24, Energy=    -286.8516119950
C        1.1526730336    0.2031422617    0.4227471174
C        0.8602834502   -1.0223936978   -0.4547657424
C       -0.4789136846   -1.0067477378   -0.7189958348
C       -1.0694701511    0.1658280541    0.1099602338
C       -0.4876773854    1.4292826367   -0.4961565393
N        0.7797008007    1.4748269393   -0.2846645459
H        2.1525174111    0.3076324140    0.8411244892
H        1.5658266518   -1.8295037928   -0.6147519937
H       -1.0169793578   -1.4266478652   -1.5583253221
H       -2.1520021865    0.0529761267    0.2171595054
H       -1.0011990938    2.3175759085   -0.8568971613
C       -0.0833953494    0.0231836054    1.2939250664
H       -0.2213641388   -0.6891548528    2.0996407273
13   
From optimize.out: Frame 19 / 24, Energy=    -286.8515658299
C        1.1735894505    0.2240310663    0.3667437637
C        0.8431515871   -1.0256872393   -0.4172749736
C       -0.4952337114   -1.0272813621   -0.7476088882
C       -1.0634847899    0.1759410059    0.1176215975
C       -0.5010602641    1.4278392702   -0.4897584903
N        0.7695141734    1.4860021463   -0.2790481221
H        2.1687438695    0.2969804978    0.7998951335
H        1.5441083541   -1.8528074844   -0.4953101557
H       -1.0051592208   -1.4054151984   -1.6264028051
H       -2.1402681444    0.0253782357    0.2215869428
H       -1.0126664791    2.3309280427   -0.8186728894
C       -0.0700627187    0.0288869504    1.2806079151
H       -0.2111721062   -0.6847959311    2.0876209720
13   
From optimize.out: Frame 19 / 24, Energy=    -286.8515658299
C        1.1909488201    0.2458254991    0.3139901965
C        0.8176614285   -1.0221600026   -0.3722871638
C       -0.5053161345   -1.0322463618   -0.7662097964
C       -1.0598242915    0.1825622063    0.1164826349
C       -0.5076689927    1.4278742995   -0.4867852383
N        0.7652187463    1.4971810958   -0.2857813323
H        2.1775786115    0.2977206076    0.7679764214
H        1.5041757668   -1.8672133471   -0.3712294468
H       -0.9873343966   -1.3974536038   -1.6692833160
H       -2.1283484064    0.0033714872    0.2297366278
H       -1.0178497710    2.3467532807   -0.7753941602
C       -0.0534475729    0.0205958141    1.2474912180
H       -0.1957938074   -0.7028109750    2.0512933552
13   
From optimize.out: Frame 18 / 24, Energy=    -286.8514974168
C        1.2083464514    0.2610118540    0.2564012678
C        0.7898563931   -1.0197084847   -0.3305362485
C       -0.5106047484   -1.0268238149   -0.7722124414
C       -1.0500541558    0.1853347287    0.1046632327
C       -0.5099417515    1.4338958862   -0.4801586580
N        0.7590449059    1.5122890027   -0.2810289712
H        2.1842827212    0.3003647388    0.7334688351
H        1.4534552869   -1.8828451214   -0.2550692945
H       -0.9733904893   -1.3910963658   -1.6889886436
H       -2.1082585078   -0.0339492974    0.2144974414
H       -1.0236817454    2.3644467628   -0.7275271665
C       -0.0382395862    0.0174771730    1.2145749660
H       -0.1808147741   -0.7203970620    2.0119156806
13   
From optimize.out: Frame 17 / 24, Energy=    -286.8511511751
C        1.2492676645    0.2651997540    0.1890652515
C        0.7908089600   -1.0168340908   -0.3177920413
C       -0.5000864790   -1.0254076594   -0.7587137202
C       -1.0583685283    0.1841428320    0.0969776447
C       -0.5086187628    1.4331128714   -0.4621532830
N        0.7568082785    1.5169402739   -0.2605401689
H        2.2256357019    0.3000384433    0.6654380567
H        1.4437931929   -1.8872231046   -0.2079352123
H       -0.9682141187   -1.3848651312   -1.6771149216
H       -2.1097764654   -0.0663366236    0.1801431950
H       -1.0189683633    2.3730803256   -0.6839908004
C       -0.0682961953    0.0252595444    1.2202474813
H       -0.2339848850   -0.7171074349    2.0163685185
13   
From optimize.out: Frame 16 / 24, Energy=    -286.8509243224
C        1.2789572139    0.2690276023    0.1374135626
C        0.8072484336   -1.0152504629   -0.3183800662
C       -0.4861170585   -1.0471096810   -0.7204631141
C       -1.0748887011    0.1934318772    0.0861301436
C       -0.5010777358    1.4424543117   -0.4377312243
N        0.7557202583    1.5176823828   -0.2462743511
H        2.2659309527    0.3117144685    0.5901509344
H        1.4716489858   -1.8782507172   -0.2087875451
H       -0.9723418397   -1.4148712028   -1.6288499598
H       -2.1239800169   -0.0648348445    0.1411767538
H       -0.9973399775    2.3943675594   -0.6399058644
C       -0.1124988071    0.0205370600    1.2293776970
H       -0.3112617077   -0.7288983534    2.0161430336
13   
From optimize.out: Frame 15 / 24, Energy=    -286.8495260980
C        1.3001909688    0.2735345088    0.0908650535
C        0.8246743716   -1.0146335773   -0.3194698177
C       -0.4722405024   -1.0767854046   -0.6753482199
C       -1.0913170514    0.2075449647    0.0728765536
C       -0.4916181355    1.4572207529   -0.4119208208
N        0.7534079188    1.5187751122   -0.2350529215
H        2.2992353969    0.3276487061    0.5160449516
H        1.5060493297   -1.8665260330   -0.2151107272
H       -0.9781116600   -1.4582516538   -1.5709897626
H       -2.1387639710   -0.0533016589    0.1015646610
H       -0.9708153246    2.4224631371   -0.5932437788
C       -0.1544597010    0.0108031779    1.2331814667
H       -0.3862316400   -0.7484920319    2.0066033620
13   
From optimize.out: Frame 14 / 24, Energy=    -286.8484613114
C        1.3334068498    0.2684738939    0.0382184279
C        0.8545610375   -1.0210469671   -0.3201829092
C       -0.4383250193   -1.0710748587   -0.6392444068
C       -1.1259443908    0.2084199182    0.0680969213
C       -0.4923260929    1.4507724669   -0.3909609629
N        0.7446904273    1.5027426003   -0.2246806199
H        2.3405060472    0.3409124905    0.4406416015
H        1.5366667326   -1.8730882494   -0.2111045421
H       -0.9749050511   -1.4353503369   -1.5252597542
H       -2.1726064535   -0.0552183646    0.0752012918
H       -0.9499773936    2.4283510085   -0.5577094319
C       -0.1988825272    0.0068835263    1.2380243836
H       -0.4568641660   -0.7507771278    2.0089600008
13   
From optimize.out: Frame 14 / 24, Energy=    -286.8484613114
C        1.3504322644    0.2676027249    0.0243624038
C        0.8401514072   -1.0160605122   -0.3180440641
C       -0.4450701834   -1.0370930203   -0.6620834730
C       -1.1218974437    0.1805905426    0.0708196391
C       -0.4890073006    1.4290432706   -0.3883836539
N        0.7504206185    1.4977840681   -0.2109033886
H        2.3505621605    0.3368042410    0.4392642755
H        1.4986293500   -1.8806102771   -0.1849064803
H       -0.9747726070   -1.3785452305   -1.5553854781
H       -2.1604775458   -0.1174083604    0.0674834384
H       -0.9537232797    2.3994110199   -0.5593829300
C       -0.1943715605    0.0334568436    1.2464627380
H       -0.4508758799   -0.7149753101    2.0306969733
13   
From optimize.out: Frame 13 / 24, Energy=    -286.8455816218
C        1.3470572298    0.2717316793    0.0421312686
C        0.8024958070   -1.0048799355   -0.3152184566
C       -0.4779700303   -1.0088919188   -0.7087695395
C       -1.0920558981    0.1507604005    0.0751213442
C       -0.4826060798    1.4124374368   -0.3973139438
N        0.7637473513    1.5055563133   -0.2012394052
H        2.3350335964    0.3244539466    0.4844353409
H        1.4367077796   -1.8813866605   -0.1593537126
H       -0.9784856611   -1.3411369896   -1.6157483449
H       -2.1216236557   -0.1850772412    0.0720527353
H       -0.9696906174    2.3670977685   -0.5808769202
C       -0.1612678018    0.0652784464    1.2529845718
H       -0.4013420201   -0.6759432457    2.0517950621
13   
From optimize.out: Frame 12 / 24, Energy=    -286.8405214169
C        1.3448477526    0.2755003827    0.0595611922
C        0.7653315454   -0.9942826686   -0.3131999141
C       -0.5104545186   -0.9823632992   -0.7573891843
C       -1.0634406835    0.1215792607    0.0804027057
C       -0.4766952913    1.3961908818   -0.4055258754
N        0.7776786789    1.5130424502   -0.1910084346
H        2.3205670848    0.3116713671    0.5293466144
H        1.3753285678   -1.8825275060   -0.1342771366
H       -0.9813736932   -1.3053382047   -1.6778831941
H       -2.0839093394   -0.2526849567    0.0780026393
H       -0.9857879627    2.3352339197   -0.6016682713
C       -0.1291349751    0.0987808230    1.2599025828
H       -0.3529571657   -0.6348024500    2.0737362759
13   
From optimize.out: Frame 11 / 24, Energy=    -286.8332354354
C        1.3584816024    0.2734576313    0.0674083335
C        0.7455849824   -0.9944274533   -0.3222965657
C       -0.5278984364   -0.9854916715   -0.8167951677
C       -1.0592870783    0.1095042492    0.0968847118
C       -0.4789272479    1.3894413952   -0.4019429117
N        0.7953594516    1.5145814892   -0.1764213467
H        2.3242279546    0.2970442468    0.5575613713
H        1.3392089125   -1.8880795503   -0.1228382384
H       -0.9726548254   -1.3011226792   -1.7446928743
H       -2.0722229534   -0.2994575292    0.1001798609
H       -0.9988083931    2.3186703211   -0.6071411784
C       -0.1191782083    0.1442557951    1.2699327960
H       -0.3338857607   -0.5783762444    2.1001612094
13   
From optimize.out: Frame 10 / 24, Energy=    -286.8230493891
C        1.3993082275    0.2644440239    0.0572926041
C        0.7599101602   -1.0116373132   -0.3437337480
C       -0.5194590699   -1.0391956042   -0.8693932820
C       -1.0972022953    0.1291537577    0.1198291568
C       -0.4941997034    1.4037805756   -0.3783782302
N        0.8172459137    1.5080056686   -0.1543000820
H        2.3625888455    0.2853134500    0.5480911432
H        1.3552229631   -1.8982141424   -0.1340945003
H       -0.9552785552   -1.3528824800   -1.7886294076
H       -2.1062077330   -0.3036178136    0.1315177212
H       -1.0040523147    2.3355051160   -0.5797455713
C       -0.1491344469    0.1964566965    1.2752834461
H       -0.3687419916   -0.5171119348    2.1162607499
13   
From optimize.out: Frame 9 / 24, Energy=    -286.8090541289
C        1.4307617011    0.2688060385    0.0481420261
C        0.7770657374   -1.0178161287   -0.3364142093
C       -0.5202278608   -1.0738857928   -0.8331575903
C       -1.1204785823    0.1459927235    0.0942668280
C       -0.5014924209    1.4279974708   -0.3627711179
N        0.8298303578    1.5119519702   -0.1343758666
H        2.4018204254    0.2943958721    0.5195365902
H        1.3841686755   -1.8959339528   -0.1345315726
H       -0.9818631256   -1.3912208143   -1.7292201664
H       -2.1274786464   -0.2986931691    0.0918848432
H       -1.0031795810    2.3662559362   -0.5400964556
C       -0.1715518009    0.1966993309    1.2459412823
H       -0.3973748792   -0.5345494844    2.0707954087
13   
From optimize.out: Frame 9 / 24, Energy=    -286.8090541289
C        1.4551973060    0.2769036359    0.0404678431
C        0.7929421224   -1.0196676778   -0.3208009464
C       -0.5238531897   -1.0980521136   -0.7730384969
C       -1.1360900098    0.1597828941    0.0563996924
C       -0.5052949000    1.4522960696   -0.3517072295
N        0.8378255887    1.5187712752   -0.1176969731
H        2.4363292883    0.3089984694    0.4884993285
H        1.4135730594   -1.8899610430   -0.1314414364
H       -1.0191635422   -1.4203644934   -1.6442258298
H       -2.1419580710   -0.2914814041    0.0345333136
H       -1.0004555120    2.3975511198   -0.5015709640
C       -0.1886919548    0.1802395266    1.2092086398
H       -0.4203601853   -0.5750162587    2.0113730586
13   
From optimize.out: Frame 8 / 24, Energy=    -286.7923231042
C        1.4796328384    0.2850012093    0.0327936829
C        0.8088184603   -1.0215192214   -0.3051877298
C       -0.5274785078   -1.1222183628   -0.7129195818
C       -1.1517013909    0.1735730238    0.0185326690
C       -0.5090973678    1.4765945964   -0.3406433740
N        0.8458207959    1.5255905600   -0.1010181290
H        2.4708380489    0.3236010234    0.4574621589
H        1.4429773559   -1.8839881509   -0.1283513093
H       -1.0564638482   -1.4495080860   -1.5592317453
H       -2.1564374527   -0.2842696606   -0.0228180460
H       -0.9977314511    2.4288462106   -0.4630455867
C       -0.2058320579    0.1637797712    1.1724761062
H       -0.4433454231   -0.6154829130    1.9519508848
13   
From optimize.out: Frame 7 / 24, Energy=    -286.7734394401
C        1.4975556757    0.2869734119    0.0215809438
C        0.8312695223   -1.0341269987   -0.2972962539
C       -0.5168812744   -1.1659882654   -0.6689144555
C       -1.1818590812    0.2032572419   -0.0049442875
C       -0.5172891167    1.5057343738   -0.3254374262
N        0.8484180486    1.5263447374   -0.0897304952
H        2.4964327106    0.3359551931    0.4256591377
H        1.4836220914   -1.8834801960   -0.1314006740
H       -1.0675625460   -1.5033795771   -1.4940443500
H       -2.1918241640   -0.2463776977   -0.0538210301
H       -0.9905718451    2.4669723044   -0.4166300887
C       -0.2244231491    0.1535719068    1.1379294873
H       -0.4668868721   -0.6454564344    1.8970494923
13   
From optimize.out: Frame 6 / 24, Energy=    -286.7440823765
C        1.5078855452    0.2833973448    0.0084850672
C        0.8570463386   -1.0547575170   -0.2969775492
C       -0.4950258233   -1.2221545631   -0.6436595757
C       -1.2214635107    0.2436132278   -0.0133700696
C       -0.5284285801    1.5359735880   -0.3082498827
N        0.8460339472    1.5217335206   -0.0843484799
H        2.5115208801    0.3450280118    0.3965927228
H        1.5297106422   -1.8877883392   -0.1394731487
H       -1.0546432481   -1.5730311575   -1.4530920746
H       -2.2416404566   -0.1858089397   -0.0585477597
H       -0.9803137425    2.5069697391   -0.3683076388
C       -0.2422886969    0.1499040239    1.1089850696
H       -0.4883932950   -0.6630789394    1.8519633194
13   
From optimize.out: Frame 5 / 24, Energy=    -286.7106062759
C        1.5173016830    0.2792204495   -0.0047433359
C        0.8830412908   -1.0761639293   -0.2975101531
C       -0.4720389344   -1.2793737855   -0.6206595596
C       -1.2618895403    0.2849237021   -0.0200570184
C       -0.5398317337    1.5661544104   -0.2909433561
N        0.8431054425    1.5165482079   -0.0796612042
H        2.5253399320    0.3536782614    0.3680079187
H        1.5761328451   -1.8926107881   -0.1480605284
H       -1.0391076246   -1.6440341578   -1.4151041958
H       -2.2927758821   -0.1230606192   -0.0602988321
H       -0.9697697411    2.5469367242   -0.3200616697
C       -0.2599655096    0.1469917330    1.0808429468
H       -0.5095422276   -0.6792102084    1.8082489878
13   
From optimize.out: Frame 4 / 24, Energy=    -286.7013606847
C        1.5267176990    0.2750436082   -0.0179715680
C        0.9090359068   -1.0975700648   -0.2980427501
C       -0.4490523427   -1.3365922678   -0.5976598410
C       -1.3023150471    0.3262336420   -0.0267438807
C       -0.5512347398    1.5963348424   -0.2736370534
N        0.8401769757    1.5113629623   -0.0749739891
H        2.5391588051    0.3623283991    0.3394234844
H        1.6225544475   -1.8974331747   -0.1566477969
H       -1.0235722021   -1.7150362397   -1.3771168083
H       -2.3439106461   -0.0603131104   -0.0620498818
H       -0.9592258761    2.5869031924   -0.2718163246
C       -0.2776420936    0.1440794797    1.0527011880
H       -0.5306908866   -0.6953412687    1.7645352216
13   
From optimize.out: Frame 4 / 24, Energy=    -286.7013606847
C        1.5361335759    0.2708668286   -0.0311996045
C        0.9350301386   -1.1189758839   -0.2985753393
C       -0.4260660908   -1.3938099046   -0.5746604623
C       -1.3427399566    0.3675429715   -0.0334306442
C       -0.5626375774    1.6265148285   -0.2563310065
N        0.8372485522    1.5061777934   -0.0702868432
H        2.5529774741    0.3709784089    0.3108394725
H        1.6689753641   -1.9022554900   -0.1652349386
H       -1.0080370091   -1.7860372726   -1.3391299822
H       -2.3950446545    0.0024334713   -0.0638009057
H       -0.9486821669    2.6268690700   -0.2235716925
C       -0.2953184165    0.1411672695    1.0245598450
H       -0.5518392332   -0.7114720906    1.7208221013
13   
From optimize.out: Frame 3 / 24, Energy=    -286.6721216232
C        1.5280879343    0.2650196424   -0.0322340426
C        0.9407263290   -1.1417182146   -0.3201546797
C       -0.3989812841   -1.4360407729   -0.5906931784
C       -1.3595590835    0.4079029154   -0.0470427286
C       -0.5764663072    1.6671782838   -0.2679146218
N        0.8326924781    1.5095991869   -0.0697607445
H        2.5412356018    0.3684089071    0.3365346519
H        1.6991179318   -1.9100957327   -0.2123148595
H       -0.9840791365   -1.8593078691   -1.2990508690
H       -2.4023480969    0.0352853111   -0.0145544528
H       -0.9363940770    2.6808351177   -0.2241010656
C       -0.3240862463    0.1452843972    1.0248606605
H       -0.5599460435   -0.7323511722    1.7164259302
13   
From optimize.out: Frame 2 / 24, Energy=    -286.6491115880
C        1.5047801717    0.2627220152   -0.0167827357
C        0.9222780117   -1.1463621958   -0.3453362604
C       -0.3850549266   -1.4289752989   -0.6307910306
C       -1.3356356392    0.4167600714   -0.0546180207
C       -0.5802023533    1.6891932875   -0.2985097016
N        0.8279355899    1.5221749049   -0.0726485899
H        2.5101535235    0.3560135731    0.4008917678
H        1.6930873154   -1.9155857766   -0.2664692194
H       -0.9816964538   -1.9013336861   -1.3049188068
H       -2.3526673105    0.0208610210    0.0513221756
H       -0.9337383375    2.7109075421   -0.2753156666
C       -0.3442355821    0.1505553651    1.0574530190
H       -0.5450040091   -0.7369308228    1.7557230694
13   
From optimize.out: Frame 1 / 24, Energy=    -286.5632287070
C        1.4867161184    0.2674746201    0.0013885499
C        0.8936661976   -1.1289446934   -0.3503241877
C       -0.4014270260   -1.3817939092   -0.6606865052
C       -1.2891541305    0.3860051724   -0.0515409333
C       -0.5700930211    1.6727158737   -0.3225001795
N        0.8284157023    1.5330036636   -0.0752654259
H        2.4835569542    0.3465360994    0.4461990389
H        1.6525376434   -1.9119117602   -0.2722886308
H       -1.0015473688   -1.8646393096   -1.3444931517
H       -2.2915013603   -0.0296215148    0.0709588924
H       -0.9439621159    2.6862698587   -0.3308125679
C       -0.3299603963    0.1517180366    1.0903877536
H       -0.5172471969   -0.7268121373    1.7989773472
13   
C5H5N+CH->C6H6N atoms 1-13 frame 114 charge +0.000 sz -1.000 sz^2 0.555
C        1.4740492883    0.2737343163    0.0166260781
C        0.8652007396   -1.1074376571   -0.3482488679
C       -0.4268998375   -1.3292208597   -0.6840340955
C       -1.2431002920    0.3465859497   -0.0466600479
C       -0.5576588751    1.6454363862   -0.3416241821
N        0.8311649767    1.5407696634   -0.0777589289
H        2.4630435030    0.3397971156    0.4779087458
H        1.6052377280   -1.9057656263   -0.2594415312
H       -1.0219305225   -1.7992243097   -1.3834336670
H       -2.2370185220   -0.0873581394    0.0716510653
H       -0.9565808846    2.6462789640   -0.3792484275
C       -0.3053106126    0.1521193912    1.1171099714
H       -0.4901966892   -0.7157151941    1.8371538872
13   
C5H5N+CH->C6H6N atoms 1-13 frame 115 charge -0.000 sz -1.000 sz^2 0.576
C        1.4613823431    0.2799940694    0.0318637447
C        0.8367350228   -1.0859304252   -0.3461735292
C       -0.4523728806   -1.2766473322   -0.7073818980
C       -1.1970460349    0.3071663686   -0.0417791181
C       -0.5452246160    1.6181566507   -0.3607483586
N        0.8339142760    1.5485357337   -0.0802524546
H        2.4425298653    0.3330580706    0.5096187410
H        1.5579373827   -1.8996194365   -0.2465943147
H       -1.0423138616   -1.7338087151   -1.4223745362
H       -2.1825351884   -0.1450952889    0.0723432446
H       -0.9691997681    2.6062877058   -0.4276847273
C       -0.2806606047    0.1525207494    1.1438324320
H       -0.4631459356   -0.7046181501    1.8753307743
13   
C5H5N+CH->C6H6N atoms 1-13 frame 115 charge -0.000 sz -1.000 sz^2 0.576
C        1.4487153026    0.2862538695    0.0471015259
C        0.8082690921   -1.0644230318   -0.3440981749
C       -0.4778461151   -1.2240734097   -0.7307298760
C       -1.1509914316    0.2677464913   -0.0368981516
C       -0.5327902635    1.5908767101   -0.3798726789
N        0.8366635960    1.5563018624   -0.0827459990
H        2.4220160734    0.3263189749    0.5413289745
H        1.5106366818   -1.8934732006   -0.2337470017
H       -1.0626973538   -1.6683926289   -1.4613156981
H       -2.1280514453   -0.2028328724    0.0730354291
H       -0.9818187463    2.5662961471   -0.4761213911
C       -0.2560104116    0.1529221106    1.1705550935
H       -0.4360949787   -0.6935210226    1.9135079482
13   
C5H5N+CH->C6H6N atoms 1-13 frame 116 charge +0.000 sz -1.000 sz^2 0.609
C        1.4360481879    0.2925137063    0.0623393964
C        0.7798029946   -1.0429155122   -0.3420228084
C       -0.5033194989   -1.1714991790   -0.7540779909
C       -1.1049365584    0.2283263829   -0.0320171565
C       -0.5203558382    1.5635966097   -0.3989971112
N        0.8394129322    1.5640680366   -0.0852395580
H        2.4015021614    0.3195798397    0.5730393939
H        1.4633357038   -1.8873269286   -0.2208996134
H       -1.0830809655   -1.6029761593   -1.5002570883
H       -2.0735673829   -0.2605707942    0.0737276176
H       -0.9944377986    2.5263043540   -0.5245583389
C       -0.2313600741    0.1533234742    1.1972779116
H       -0.4090438632   -0.6824238301    1.9516853460
13   
C5H5N+CH->C6H6N atoms 1-13 frame 117 charge -0.000 sz -1.000 sz^2 0.648
C        1.4210457381    0.2979811426    0.0737095665
C        0.7595835665   -1.0227721289   -0.3427645003
C       -0.5173858432   -1.1166424324   -0.7828314672
C       -1.0685238887    0.1934183073   -0.0132371565
C       -0.5077822379    1.5308974116   -0.4221554967
N        0.8390799567    1.5673897086   -0.1015362266
H        2.3778358115    0.3170967035    0.6007134532
H        1.4250397689   -1.8813145674   -0.2099092742
H       -1.0888662937   -1.5362323477   -1.5482140912
H       -2.0377063610   -0.2912452815    0.0968700629
H       -1.0027050291    2.4811688366   -0.5804678267
C       -0.2074273578    0.1399394674    1.2313920486
H       -0.3921878304   -0.6796848196    1.9984309081
13   
C5H5N+CH->C6H6N atoms 1-13 frame 118 charge +0.000 sz -1.000 sz^2 0.708
C        1.4057380584    0.3000971773    0.0734332033
C        0.7629589077   -1.0116993640   -0.3492132716
C       -0.5030916767   -1.0738517638   -0.8141282828
C       -1.0636276115    0.1787550610    0.0290494283
C       -0.4987833159    1.4968397208   -0.4466889795
N        0.8323553124    1.5603254754   -0.1419013640
H        2.3548078829    0.3243443650    0.6113702107
H        1.4174971305   -1.8774338712   -0.2062123984
H       -1.0621149184   -1.4872237749   -1.6004134345
H       -2.0521136913   -0.2554639008    0.1601936819
H       -0.9992602644    2.4390806833   -0.6349222143
C       -0.1923688012    0.1016283697    1.2705846712
H       -0.4019970124   -0.6953981778    2.0488487497
13   
From optimize.out: Frame 1 / 31, Energy=    -286.5887998382
C        1.3892043304    0.3022831259    0.0705121721
C        0.7723086538   -1.0025962886   -0.3544814021
C       -0.4825550815   -1.0355837606   -0.8407616623
C       -1.0661423259    0.1710272811    0.0748905154
C       -0.4905520734    1.4648008547   -0.4712495478
N        0.8231247110    1.5514711357   -0.1887466842
H        2.3315341837    0.3354629062    0.6163753419
H        1.4189157071   -1.8729125798   -0.2022092586
H       -1.0286234096   -1.4464862629   -1.6471893956
H       -2.0787934876   -0.1998034416    0.2305923763
H       -0.9921830542    2.4008164560   -0.6870998022
C       -0.1785976298    0.0531915258    1.3066429451
H       -0.4176405240   -0.7216709519    2.0927244019
13   
From optimize.out: Frame 1 / 31, Energy=    -286.5887998382
C        1.3730588040    0.3117404715    0.0708910672
C        0.7787819171   -0.9984526673   -0.3297326423
C       -0.4820716693   -1.0429849355   -0.7932854907
C       -1.0663574533    0.1912040007    0.0659798625
C       -0.4876391475    1.4807188564   -0.4744769516
N        0.8104970263    1.5560677640   -0.2089033562
H        2.3214694582    0.3545098133    0.6008705679
H        1.4367025571   -1.8599443905   -0.1802314770
H       -1.0298687378   -1.4780918215   -1.5928981101
H       -2.0896162281   -0.1425639817    0.2236252298
H       -0.9814655868    2.4230103867   -0.6805516089
C       -0.1666969833   -0.0028853789    1.2711746599
H       -0.4167939567   -0.7923281172    2.0275382494
13   
From optimize.out: Frame 2 / 31, Energy=    -286.6803572408
C        1.3569992991    0.3219052560    0.0716023542
C        0.7849457239   -0.9948222561   -0.3020221018
C       -0.4836162300   -1.0549799826   -0.7384574046
C       -1.0663395612    0.2141422728    0.0515618295
C       -0.4852721315    1.5014372419   -0.4755390756
N        0.7975626281    1.5620104242   -0.2263044627
H        2.3127687974    0.3743027619    0.5833379988
H        1.4560920362   -1.8461601409   -0.1565008725
H       -1.0346209571   -1.5169167676   -1.5285503195
H       -2.0988050922   -0.0853308289    0.2088596929
H       -0.9704112948    2.4512498923   -0.6680875730
C       -0.1550198601   -0.0595718755    1.2285806980
H       -0.4142833576   -0.8672659976    1.9515192363
13   
From optimize.out: Frame 3 / 31, Energy=    -286.7204458581
C        1.3409397456    0.3320700712    0.0723136434
C        0.7911095493   -0.9911918338   -0.2743114775
C       -0.4851607953   -1.0669750660   -0.6836291523
C       -1.0663216691    0.2370806145    0.0371437527
C       -0.4829051084    1.5221556902   -0.4766012029
N        0.7846281906    1.5679531024   -0.2437056220
H        2.3040681102    0.3940957704    0.5658053766
H        1.4754815740   -1.8323758495   -0.1327701961
H       -1.0393731908   -1.5557418314   -1.4642023338
H       -2.1079939843   -0.0280975027    0.1940941113
H       -0.9593569694    2.4794894835   -0.6556234993
C       -0.1433427015   -0.1162585438    1.1859866071
H       -0.4117727510   -0.9422041050    1.8754999928
13   
From optimize.out: Frame 5 / 31, Energy=    -286.7277716502
C        1.3248801439    0.3422349170    0.0730249348
C        0.7972733932   -0.9875614007   -0.2466007701
C       -0.4867053653   -1.0789701854   -0.6288007358
C       -1.0663037769    0.2600190248    0.0227256328
C       -0.4805380782    1.5428742006   -0.4776633333
N        0.7716937144    1.5738957985   -0.2611068334
H        2.2953673970    0.4138888382    0.5482727018
H        1.4948711699   -1.8185915168   -0.1090394485
H       -1.0441254388   -1.5945670114   -1.3998541555
H       -2.1171829038    0.0291359949    0.1793284854
H       -0.9483026108    2.5077291592   -0.6431593883
C       -0.1316655078   -0.1729453819    1.1433923885