[Molden Format]
[Title]
time=   0.0000000000 fs
[Atoms] Angs
C   1   6      1.36030    0.02560    0.00000
C   2   6      0.69710   -1.20200    0.00000
C   3   6     -0.69440   -1.21840    0.00000
C   4   6     -1.38950   -0.01290    0.00000
C   5   6     -0.67120    1.18340    0.00000
N   6   7      0.68160    1.19600    0.00000
H   7   1      2.45300    0.10830    0.00000
H   8   1      1.26650   -2.13650    0.00000
H   9   1     -1.23650   -2.16960    0.00000
H   10   1     -2.48370    0.00110    0.00000
H   11   1     -1.15690    2.16570    0.00000
C   12   6     -0.00000    0.00000    4.81135
H   13   1     -0.30326   -0.62249    5.65315
[GTO]
    1 0
 s    6 1.00
         3047.524900             0.001835
          457.369510             0.014037
          103.948690             0.068843
           29.210155             0.232184
            9.286663             0.467941
            3.163927             0.362312
 s    3 1.00
            7.868272            -0.119332
            1.881288            -0.160854
            0.544249             1.143456
 s    1 1.00
            0.168714             1.000000
 p    3 1.00
            7.868272             0.068999
            1.881288             0.316424
            0.544249             0.744308
 p    1 1.00
            0.168714             1.000000

    2 0
 s    6 1.00
         3047.524900             0.001835
          457.369510             0.014037
          103.948690             0.068843
           29.210155             0.232184
            9.286663             0.467941
            3.163927             0.362312
 s    3 1.00
            7.868272            -0.119332
            1.881288            -0.160854
            0.544249             1.143456
 s    1 1.00
            0.168714             1.000000
 p    3 1.00
            7.868272             0.068999
            1.881288             0.316424
            0.544249             0.744308
 p    1 1.00
            0.168714             1.000000

    3 0
 s    6 1.00
         3047.524900             0.001835
          457.369510             0.014037
          103.948690             0.068843
           29.210155             0.232184
            9.286663             0.467941
            3.163927             0.362312
 s    3 1.00
            7.868272            -0.119332
            1.881288            -0.160854
            0.544249             1.143456
 s    1 1.00
            0.168714             1.000000
 p    3 1.00
            7.868272             0.068999
            1.881288             0.316424
            0.544249             0.744308
 p    1 1.00
            0.168714             1.000000

    4 0
 s    6 1.00
         3047.524900             0.001835
          457.369510             0.014037
          103.948690             0.068843
           29.210155             0.232184
            9.286663             0.467941
            3.163927             0.362312
 s    3 1.00
            7.868272            -0.119332
            1.881288            -0.160854
            0.544249             1.143456
 s    1 1.00
            0.168714             1.000000
 p    3 1.00
            7.868272             0.068999
            1.881288             0.316424
            0.544249             0.744308
 p    1 1.00
            0.168714             1.000000

    5 0
 s    6 1.00
         3047.524900             0.001835
          457.369510             0.014037
          103.948690             0.068843
           29.210155             0.232184
            9.286663             0.467941
            3.163927             0.362312
 s    3 1.00
            7.868272            -0.119332
            1.881288            -0.160854
            0.544249             1.143456
 s    1 1.00
            0.168714             1.000000
 p    3 1.00
            7.868272             0.068999
            1.881288             0.316424
            0.544249             0.744308
 p    1 1.00
            0.168714             1.000000

    6 0
 s    6 1.00
         4173.511000             0.001835
          627.457900             0.013995
          142.902100             0.068587
           40.234330             0.232241
           12.820210             0.469070
            4.390437             0.360455
 s    3 1.00
           11.626358            -0.114961
            2.716280            -0.169118
            0.772218             1.145852
 s    1 1.00
            0.212031             1.000000
 p    3 1.00
           11.626358             0.067580
            2.716280             0.323907
            0.772218             0.740895
 p    1 1.00
            0.212031             1.000000

    7 0
 s    3 1.00
           18.731137             0.033495
            2.825394             0.234727
            0.640122             0.813757
 s    1 1.00
            0.161278             1.000000

    8 0
 s    3 1.00
           18.731137             0.033495
            2.825394             0.234727
            0.640122             0.813757
 s    1 1.00
            0.161278             1.000000

    9 0
 s    3 1.00
           18.731137             0.033495
            2.825394             0.234727
            0.640122             0.813757
 s    1 1.00
            0.161278             1.000000

   10 0
 s    3 1.00
           18.731137             0.033495
            2.825394             0.234727
            0.640122             0.813757
 s    1 1.00
            0.161278             1.000000

   11 0
 s    3 1.00
           18.731137             0.033495
            2.825394             0.234727
            0.640122             0.813757
 s    1 1.00
            0.161278             1.000000

   12 0
 s    6 1.00
         3047.524900             0.001835
          457.369510             0.014037
          103.948690             0.068843
           29.210155             0.232184
            9.286663             0.467941
            3.163927             0.362312
 s    3 1.00
            7.868272            -0.119332
            1.881288            -0.160854
            0.544249             1.143456
 s    1 1.00
            0.168714             1.000000
 p    3 1.00
            7.868272             0.068999
            1.881288             0.316424
            0.544249             0.744308
 p    1 1.00
            0.168714             1.000000

   13 0
 s    3 1.00
           18.731137             0.033495
            2.825394             0.234727
            0.640122             0.813757
 s    1 1.00
            0.161278             1.000000

[MO]
 Ene=   -14.3265
 Spin= Alpha
 Occup= 1.0
    1   -0.00004
    2    0.00113
    3   -0.01848
    4   -0.00014
    5    0.00018
    6    0.00000
    7    0.01165
    8   -0.00364
    9    0.00000
   10   -0.00014
   11   -0.00099
   12    0.01371
   13    0.00024
   14    0.00014
   15    0.00000
   16   -0.00621
   17    0.00776
   18   -0.00000
   19    0.00011
   20    0.00085
   21   -0.01492
   22    0.00003
   23    0.00006
   24    0.00000
   25   -0.00405
   26   -0.00711
   27   -0.00000
   28   -0.00014
   29   -0.00099
   30    0.01371
   31   -0.00001
   32    0.00028
   33    0.00000
   34    0.00984
   35   -0.00140
   36   -0.00000
   37   -0.00004
   38    0.00113
   39   -0.01849
   40    0.00022
   41   -0.00003
   42    0.00000
   43   -0.00907
   44    0.00816
   45    0.00000
   46   -0.99547
   47   -0.03408
   48    0.03867
   49    0.00140
   50    0.00246
   51    0.00001
   52   -0.00582
   53   -0.01021
   54   -0.00000
   55   -0.00025
   56   -0.00274
   57    0.00045
   58    0.00238
   59   -0.00017
   60   -0.00192
   61    0.00045
   62    0.00238
   63   -0.00025
   64   -0.00274
   65    0.00000
   66   -0.00000
   67   -0.00004
   68   -0.00000
   69   -0.00001
   70    0.00003
   71    0.00002
   72    0.00003
   73   -0.00007
   74    0.00000
   75    0.00006
 Ene=   -10.2732
 Spin= Alpha
 Occup= 1.0
    1   -0.00000
    2   -0.00000
    3    0.00001
    4   -0.00000
    5    0.00000
    6   -0.00000
    7   -0.00001
    8    0.00000
    9    0.00000
   10   -0.00000
   11   -0.00000
   12   -0.00001
   13    0.00000
   14   -0.00000
   15   -0.00000
   16    0.00001
   17   -0.00000
   18    0.00001
   19   -0.00000
   20   -0.00001
   21    0.00002
   22   -0.00000
   23   -0.00000
   24   -0.00001
   25    0.00001
   26    0.00001
   27    0.00001
   28   -0.00000
   29   -0.00000
   30   -0.00001
   31   -0.00000
   32    0.00000
   33   -0.00000
   34   -0.00001
   35    0.00000
   36    0.00001
   37    0.00000
   38    0.00000
   39    0.00001
   40    0.00000
   41    0.00000
   42   -0.00000
   43    0.00000
   44   -0.00001
   45    0.00000
   46    0.00000
   47    0.00001
   48   -0.00002
   49   -0.00000
   50   -0.00000
   51    0.00000
   52    0.00000
   53    0.00001
   54   -0.00000
   55    0.00000
   56    0.00000
   57   -0.00000
   58   -0.00000
   59   -0.00000
   60    0.00000
   61   -0.00000
   62   -0.00000
   63    0.00000
   64    0.00000
   65    0.99507
   66    0.03164
   67   -0.01521
   68   -0.00082
   69   -0.00167
   70    0.00226
   71    0.00117
   72    0.00239
   73   -0.00324
   74   -0.00172
   75    0.00657
 Ene=   -10.2204
 Spin= Alpha
 Occup= 1.0
    1   -0.52835
    2   -0.01948
    3    0.01689
    4    0.00071
    5   -0.00023
    6    0.00000
    7   -0.00612
    8   -0.00392
    9   -0.00000
   10   -0.00540
   11    0.00096
   12   -0.00908
   13    0.00026
   14    0.00036
   15   -0.00000
   16   -0.00144
   17   -0.00528
   18    0.00000
   19   -0.00005
   20   -0.00018
   21    0.00125
   22    0.00030
   23   -0.00021
   24    0.00000
   25   -0.00093
   26    0.00151
   27   -0.00000
   28    0.00860
   29   -0.00131
   30    0.00967
   31   -0.00038
   32   -0.00074
   33    0.00000
   34    0.00298
   35    0.00535
   36   -0.00000
   37    0.84334
   38    0.03025
   39   -0.02302
   40    0.00069
   41   -0.00059
   42   -0.00001
   43    0.00141
   44    0.00674
   45    0.00000
   46   -0.00000
   47   -0.00011
   48    0.00005
   49    0.00068
   50   -0.00026
   51    0.00000
   52    0.00117
   53   -0.00033
   54   -0.00000
   55    0.00099
   56    0.00001
   57    0.00006
   58   -0.00070
   59    0.00004
   60    0.00033
   61   -0.00022
   62    0.00034
   63   -0.00122
   64    0.00185
   65   -0.00000
   66    0.00000
   67   -0.00001
   68    0.00000
   69   -0.00000
   70    0.00000
   71   -0.00001
   72    0.00001
   73   -0.00001
   74    0.00000
   75    0.00001
 Ene=   -10.2204
 Spin= Alpha
 Occup= 1.0
    1   -0.84321
    2   -0.02915
    3    0.01793
    4    0.00050
    5   -0.00020
    6    0.00001
    7    0.00097
    8   -0.00257
    9   -0.00000
   10   -0.00852
   11    0.00104
   12   -0.00347
   13    0.00049
   14    0.00086
   15   -0.00000
   16   -0.00410
   17   -0.00122
   18    0.00000
   19    0.00023
   20    0.00077
   21   -0.00543
   22    0.00014
   23    0.00008
   24   -0.00000
   25   -0.00213
   26   -0.00302
   27    0.00000
   28   -0.00533
   29    0.00052
   30    0.00084
   31    0.00036
   32    0.00060
   33   -0.00000
   34    0.00260
   35   -0.00202
   36    0.00000
   37   -0.52816
   38   -0.01773
   39    0.00876
   40   -0.00014
   41    0.00008
   42    0.00000
   43   -0.00233
   44    0.00274
   45   -0.00000
   46    0.00001
   47    0.00048
   48   -0.00024
   49   -0.00009
   50   -0.00049
   51   -0.00000
   52   -0.00039
   53   -0.00123
   54    0.00000
   55    0.00075
   56   -0.00426
   57    0.00037
   58    0.00066
   59   -0.00017
   60   -0.00145
   61    0.00031
   62    0.00090
   63    0.00025
   64   -0.00384
   65   -0.00000
   66   -0.00000
   67    0.00003
   68    0.00000
   69    0.00001
   70   -0.00002
   71   -0.00002
   72   -0.00002
   73    0.00005
   74   -0.00000
   75   -0.00005
 Ene=   -10.2054
 Spin= Alpha
 Occup= 1.0
    1   -0.00022
    2   -0.00031
    3   -0.00337
    4    0.00019
    5    0.00024
    6    0.00000
    7    0.00146
    8    0.00012
    9   -0.00000
   10    0.02929
   11   -0.00132
   12    0.01425
   13    0.00103
   14   -0.00011
   15    0.00000
   16   -0.00667
   17    0.00395
   18   -0.00000
   19    0.99435
   20    0.03617
   21   -0.03673
   22    0.00028
   23    0.00050
   24   -0.00000
   25   -0.00449
   26   -0.00787
   27    0.00000
   28    0.02968
   29   -0.00131
   30    0.01424
   31   -0.00062
   32    0.00083
   33    0.00000
   34    0.00679
   35   -0.00373
   36   -0.00000
   37   -0.00023
   38   -0.00031
   39   -0.00337
   40    0.00011
   41    0.00028
   42    0.00000
   43   -0.00064
   44    0.00131
   45   -0.00000
   46   -0.00002
   47   -0.00035
   48    0.00231
   49    0.00003
   50    0.00006
   51    0.00000
   52   -0.00040
   53   -0.00069
   54    0.00000
   55    0.00001
   56    0.00012
   57   -0.00005
   58    0.00153
   59   -0.00127
   60    0.00222
   61   -0.00005
   62    0.00153
   63    0.00001
   64    0.00012
   65    0.00000
   66   -0.00001
   67   -0.00000
   68    0.00000
   69    0.00000
   70    0.00001
   71   -0.00000
   72   -0.00000
   73   -0.00003
   74    0.00000
   75    0.00002
 Ene=   -10.1975
 Spin= Alpha
 Occup= 1.0
    1   -0.00051
    2    0.00002
    3   -0.00336
    4   -0.00003
    5   -0.00005
    6   -0.00000
    7    0.00251
    8    0.00084
    9    0.00000
   10    0.04183
   11    0.00128
   12    0.00577
   13   -0.00026
   14   -0.00003
   15   -0.00000
   16   -0.00165
   17    0.00308
   18   -0.00000
   19    0.02873
   20    0.00341
   21   -0.01808
   22   -0.00047
   23    0.00098
   24   -0.00000
   25   -0.00056
   26   -0.00926
   27    0.00000
   28   -0.99392
   29   -0.03663
   30    0.03954
   31   -0.00070
   32    0.00007
   33    0.00001
   34    0.01097
   35   -0.00064
   36   -0.00000
   37    0.01032
   38    0.00246
   39   -0.01670
   40   -0.00056
   41   -0.00092
   42   -0.00000
   43   -0.00087
   44    0.00837
   45    0.00000
   46   -0.00005
   47   -0.00055
   48    0.00558
   49   -0.00006
   50    0.00004
   51   -0.00000
   52   -0.00202
   53   -0.00165
   54   -0.00000
   55   -0.00012
   56   -0.00073
   57   -0.00000
   58    0.00063
   59   -0.00005
   60   -0.00159
   61    0.00135
   62   -0.00168
   63    0.00001
   64   -0.00152
   65   -0.00000
   66    0.00000
   67   -0.00000
   68   -0.00001
   69   -0.00000
   70   -0.00001
   71    0.00001
   72    0.00000
   73    0.00001
   74   -0.00000
   75   -0.00000
 Ene=   -10.1974
 Spin= Alpha
 Occup= 1.0
    1   -0.01028
    2   -0.00247
    3    0.01704
    4    0.00051
    5    0.00096
    6    0.00000
    7   -0.00788
    8   -0.00360
    9   -0.00000
   10    0.99390
   11    0.03665
   12   -0.04015
   13   -0.00040
   14    0.00058
   15   -0.00001
   16    0.00629
   17   -0.00940
   18    0.00000
   19   -0.03083
   20   -0.00369
   21    0.01964
   22   -0.00105
   23   -0.00018
   24    0.00000
   25    0.00774
   26    0.00599
   27   -0.00000
   28    0.04102
   29    0.00178
   30   -0.00909
   31   -0.00005
   32    0.00023
   33   -0.00000
   34   -0.00441
   35   -0.00010
   36    0.00000
   37   -0.00035
   38   -0.00022
   39    0.00476
   40    0.00007
   41    0.00012
   42    0.00000
   43    0.00064
   44   -0.00329
   45   -0.00000
   46    0.00005
   47    0.00060
   48   -0.00607
   49   -0.00006
   50    0.00002
   51    0.00000
   52    0.00056
   53    0.00272
   54    0.00000
   55    0.00000
   56    0.00159
   57   -0.00135
   58    0.00163
   59    0.00006
   60    0.00173
   61   -0.00011
   62   -0.00049
   63    0.00012
   64    0.00086
   65    0.00000
   66   -0.00000
   67    0.00000
   68   -0.00000
   69    0.00001
   70    0.00001
   71    0.00000
   72   -0.00001
   73   -0.00001
   74    0.00000
   75    0.00000
 Ene=    -0.9446
 Spin= Alpha
 Occup= 1.0
    1    0.09679
    2   -0.19316
    3   -0.04406
    4    0.08397
    5   -0.06628
    6    0.00021
    7   -0.02360
    8    0.02240
    9    0.00028
   10    0.04997
   11   -0.09233
   12   -0.07351
   13    0.00991
   14   -0.04649
   15    0.00010
   16    0.02544
   17   -0.02360
   18    0.00008
   19    0.04061
   20   -0.07864
   21    0.00124
   22   -0.01848
   23   -0.03246
   24    0.00006
   25    0.00543
   26    0.00955
   27    0.00008
   28    0.05001
   29   -0.09236
   30   -0.07360
   31   -0.04504
   32   -0.01518
   33    0.00008
   34   -0.03327
   35    0.00987
   36    0.00004
   37    0.09683
   38   -0.19323
   39   -0.04414
   40   -0.09985
   41    0.03847
   42    0.00020
   43    0.03132
   44   -0.00888
   45    0.00026
   46    0.15614
   47   -0.31981
   48   -0.35646
   49    0.06728
   50    0.11800
   51    0.00035
   52    0.03688
   53    0.06472
   54    0.00045
   55   -0.02895
   56    0.00313
   57   -0.01567
   58   -0.00982
   59   -0.01198
   60    0.00087
   61   -0.01569
   62   -0.00982
   63   -0.02896
   64    0.00314
   65    0.00002
   66    0.00001
   67    0.00008
   68    0.00001
   69    0.00003
   70   -0.00010
   71   -0.00008
   72   -0.00016
   73    0.00048
   74   -0.00003
   75   -0.00036
 Ene=    -0.8055
 Spin= Alpha
 Occup= 1.0
    1    0.00715
    2   -0.01900
    3    0.01888
    4    0.00028
    5   -0.11480
    6    0.00002
    7   -0.02925
    8    0.00179
    9   -0.00000
   10   -0.10422
   11    0.20680
   12    0.12024
   13   -0.08334
   14    0.00794
   15   -0.00019
   16    0.00599
   17   -0.00968
   18   -0.00031
   19   -0.14765
   20    0.29226
   21    0.22079
   22    0.03306
   23    0.05830
   24   -0.00022
   25    0.00611
   26    0.01077
   27   -0.00021
   28   -0.10445
   29    0.20720
   30    0.12071
   31    0.04931
   32   -0.06763
   33   -0.00015
   34   -0.01140
   35    0.00021
   36   -0.00019
   37    0.00702
   38   -0.01873
   39    0.01901
   40   -0.09899
   41   -0.05837
   42    0.00003
   43    0.01643
   44   -0.02423
   45   -0.00003
   46    0.08991
   47   -0.19096
   48   -0.23451
   49    0.02404
   50    0.04228
   51    0.00021
   52    0.01751
   53    0.03076
   54    0.00035
   55   -0.00498
   56    0.00785
   57    0.04888
   58    0.00579
   59    0.07144
   60    0.01459
   61    0.04903
   62    0.00584
   63   -0.00491
   64    0.00785
   65   -0.00005
   66   -0.00002
   67    0.00030
   68    0.00001
   69    0.00000
   70    0.00005
   71   -0.00007
   72   -0.00013
   73   -0.00021
   74    0.00003
   75   -0.00002
 Ene=    -0.7648
 Spin= Alpha
 Occup= 1.0
    1    0.11759
    2   -0.24304
    3   -0.17492
    4    0.03253
    5    0.03818
    6    0.00030
    7    0.00206
    8    0.01568
    9    0.00049
   10    0.10814
   11   -0.21844
   12   -0.14860
   13   -0.03326
   14   -0.05599
   15    0.00024
   16   -0.00308
   17    0.01166
   18    0.00026
   19    0.00015
   20   -0.00029
   21   -0.00025
   22   -0.09687
   23    0.05512
   24    0.00001
   25   -0.00379
   26    0.00212
   27   -0.00002
   28   -0.10799
   29    0.21809
   30    0.14856
   31    0.03103
   32    0.05731
   33   -0.00018
   34   -0.01164
   35   -0.00326
   36   -0.00013
   37   -0.11759
   38    0.24301
   39    0.17495
   40   -0.01618
   41   -0.04731
   42   -0.00026
   43   -0.01250
   44   -0.00972
   45   -0.00045
   46   -0.00004
   47    0.00009
   48    0.00012
   49   -0.12977
   50    0.07394
   51    0.00001
   52   -0.03292
   53    0.01875
   54   -0.00001
   55   -0.06526
   56   -0.01385
   57   -0.06114
   58   -0.00906
   59   -0.00007
   60   -0.00003
   61    0.06113
   62    0.00907
   63    0.06528
   64    0.01382
   65    0.00000
   66    0.00000
   67   -0.00001
   68    0.00002
   69   -0.00001
   70    0.00000
   71   -0.00014
   72    0.00009
   73   -0.00001
   74    0.00000
   75    0.00002
 Ene=    -0.6580
 Spin= Alpha
 Occup= 1.0
    1    0.00002
    2    0.00014
    3   -0.00110
    4   -0.00006
    5    0.00001
    6    0.00001
    7    0.00071
    8   -0.00018
    9   -0.00032
   10   -0.00004
   11    0.00014
   12    0.00075
   13   -0.00009
   14   -0.00001
   15   -0.00000
   16   -0.00049
   17    0.00056
   18   -0.00018
   19   -0.00008
   20    0.00039
   21   -0.00108
   22    0.00002
   23    0.00003
   24    0.00000
   25   -0.00031
   26   -0.00054
   27   -0.00028
   28   -0.00003
   29    0.00013
   30    0.00076
   31    0.00004
   32   -0.00008
   33   -0.00001
   34    0.00074
   35   -0.00014
   36   -0.00017
   37    0.00002
   38    0.00014
   39   -0.00109
   40    0.00004
   41   -0.00005
   42    0.00000
   43   -0.00051
   44    0.00052
   45   -0.00031
   46   -0.00005
   47   -0.00010
   48    0.00153
   49   -0.00001
   50   -0.00001
   51   -0.00007
   52   -0.00027
   53   -0.00048
   54    0.00006
   55   -0.00003
   56   -0.00019
   57    0.00005
   58    0.00027
   59    0.00007
   60   -0.00011
   61    0.00005
   62    0.00027
   63   -0.00003
   64   -0.00019
   65    0.19615
   66   -0.41471
   67   -0.39295
   68    0.05576
   69    0.11444
   70   -0.15462
   71    0.01651
   72    0.03382
   73   -0.04551
   74   -0.24341
   75   -0.09514
 Ene=    -0.6299
 Spin= Alpha
 Occup= 1.0
    1    0.08024
    2   -0.17311
    3   -0.14999
    4   -0.03506
    5   -0.15126
    6    0.00021
    7   -0.01852
    8   -0.02818
    9    0.00055
   10   -0.09371
   11    0.18962
   12    0.16884
   13   -0.04485
   14   -0.08222
   15   -0.00016
   16   -0.00219
   17   -0.02884
   18   -0.00047
   19   -0.00041
   20    0.00085
   21    0.00075
   22    0.17299
   23   -0.09874
   24   -0.00002
   25    0.03498
   26   -0.02006
   27    0.00001
   28    0.09399
   29   -0.19014
   30   -0.16951
   31    0.04827
   32    0.07922
   33    0.00009
   34    0.02390
   35    0.01634
   36    0.00031
   37   -0.07983
   38    0.17224
   39    0.14927
   40    0.11326
   41    0.10746
   42   -0.00021
   43    0.01499
   44    0.03026
   45   -0.00048
   46   -0.00017
   47    0.00039
   48    0.00042
   49   -0.22735
   50    0.12949
   51    0.00000
   52   -0.05485
   53    0.03124
   54   -0.00002
   55   -0.08181
   56   -0.02827
   57    0.09567
   58    0.03727
   59    0.00039
   60    0.00013
   61   -0.09611
   62   -0.03749
   63    0.08137
   64    0.02810
   65   -0.00000
   66    0.00000
   67    0.00000
   68   -0.00000
   69    0.00000
   70    0.00000
   71    0.00002
   72   -0.00001
   73    0.00000
   74    0.00000
   75   -0.00000
 Ene=    -0.6264
 Spin= Alpha
 Occup= 1.0
    1    0.07061
    2   -0.14409
    3   -0.14780
    4   -0.04929
    5    0.17390
    6    0.00021
    7   -0.00597
    8    0.03253
    9    0.00046
   10    0.04889
   11   -0.10102
   12   -0.06422
   13   -0.18219
   14   -0.08201
   15    0.00015
   16   -0.05165
   17    0.00318
   18    0.00018
   19   -0.11285
   20    0.23329
   21    0.17630
   22   -0.03348
   23   -0.05725
   24   -0.00011
   25   -0.02751
   26   -0.04784
   27   -0.00030
   28    0.04825
   29   -0.09969
   30   -0.06321
   31    0.02211
   32   -0.19916
   33    0.00011
   34    0.02891
   35   -0.04300
   36    0.00012
   37    0.07106
   38   -0.14503
   39   -0.14863
   40    0.17412
   41    0.04551
   42    0.00018
   43    0.03103
   44    0.01124
   45    0.00041
   46   -0.07061
   47    0.15707
   48    0.19313
   49   -0.01002
   50   -0.01908
   51   -0.00012
   52   -0.00619
   53   -0.01127
   54   -0.00047
   55   -0.07290
   56   -0.03119
   57   -0.05003
   58   -0.01520
   59    0.12088
   60    0.04027
   61   -0.04949
   62   -0.01504
   63   -0.07340
   64   -0.03135
   65   -0.00006
   66    0.00016
   67    0.00017
   68   -0.00002
   69   -0.00004
   70    0.00006
   71   -0.00007
   72   -0.00013
   73    0.00025
   74    0.00010
   75   -0.00013
 Ene=    -0.5282
 Spin= Alpha
 Occup= 1.0
    1    0.02353
    2   -0.05190
    3   -0.05617
    4   -0.20137
    5   -0.05389
    6    0.00012
    7   -0.09382
    8   -0.01178
    9    0.00019
   10   -0.00527
   11    0.01061
   12   -0.02293
   13   -0.08801
   14    0.17335
   15   -0.00002
   16   -0.01956
   17    0.05101
   18   -0.00011
   19    0.02463
   20   -0.05305
   21   -0.04630
   22    0.12562
   23    0.22065
   24   -0.00002
   25    0.05098
   26    0.08930
   27   -0.00002
   28   -0.00537
   29    0.01081
   30   -0.02250
   31    0.19424
   32    0.01264
   33   -0.00003
   34    0.05399
   35    0.00914
   36   -0.00020
   37    0.02352
   38   -0.05187
   39   -0.05623
   40    0.05616
   41   -0.20100
   42    0.00011
   43    0.03772
   44   -0.08675
   45    0.00020
   46    0.02007
   47   -0.04425
   48   -0.07979
   49   -0.05236
   50   -0.09205
   51    0.00020
   52   -0.01896
   53   -0.03336
   54    0.00010
   55   -0.11854
   56   -0.05345
   57   -0.09094
   58   -0.05905
   59   -0.15180
   60   -0.08647
   61   -0.09106
   62   -0.05925
   63   -0.11864
   64   -0.05351
   65   -0.00000
   66    0.00000
   67    0.00011
   68    0.00000
   69    0.00001
   70   -0.00005
   71   -0.00002
   72   -0.00005
   73    0.00019
   74   -0.00000
   75   -0.00018
 Ene=    -0.4802
 Spin= Alpha
 Occup= 1.0
    1    0.01514
    2   -0.02663
    3    0.00193
    4   -0.04717
    5    0.27850
    6    0.00005
    7   -0.03938
    8    0.09655
    9    0.00009
   10   -0.00747
   11    0.01897
   12   -0.00179
   13   -0.22400
   14   -0.15294
   15    0.00001
   16   -0.04665
   17   -0.06339
   18    0.00004
   19   -0.00004
   20    0.00010
   21    0.00016
   22    0.23874
   23   -0.13614
   24   -0.00002
   25    0.08556
   26   -0.04881
   27   -0.00005
   28    0.00750
   29   -0.01904
   30    0.00174
   31    0.01744
   32    0.27062
   33   -0.00002
   34    0.03085
   35    0.07261
   36   -0.00005
   37   -0.01512
   38    0.02655
   39   -0.00208
   40   -0.26361
   41   -0.10132
   42   -0.00003
   43   -0.10318
   44   -0.01526
   45   -0.00002
   46   -0.00002
   47    0.00003
   48    0.00013
   49    0.25535
   50   -0.14551
   51    0.00001
   52    0.06129
   53   -0.03495
   54   -0.00002
   55   -0.03243
   56   -0.01505
   57    0.01629
   58    0.00073
   59    0.00009
   60    0.00004
   61   -0.01630
   62   -0.00073
   63    0.03241
   64    0.01502
   65   -0.00000
   66    0.00000
   67   -0.00000
   68    0.00000
   69    0.00000
   70    0.00000
   71   -0.00003
   72    0.00002
   73   -0.00000
   74    0.00000
   75    0.00000
 Ene=    -0.4688
 Spin= Alpha
 Occup= 1.0
    1    0.05263
    2   -0.10897
    3   -0.12947
    4   -0.15208
    5    0.02615
    6    0.00029
    7   -0.04564
    8   -0.01059
    9    0.00068
   10   -0.05089
   11    0.10443
   12    0.12432
   13    0.12677
   14   -0.18176
   15    0.00003
   16    0.03184
   17   -0.07889
   18   -0.00041
   19    0.05829
   20   -0.12380
   21   -0.15412
   22   -0.01173
   23   -0.02142
   24    0.00019
   25    0.00314
   26    0.00524
   27    0.00040
   28   -0.05074
   29    0.10406
   30    0.12411
   31   -0.22209
   32    0.01659
   33    0.00010
   34   -0.08443
   35   -0.01274
   36   -0.00023
   37    0.05267
   38   -0.10904
   39   -0.12966
   40    0.10005
   41   -0.11674
   42    0.00030
   43    0.01419
   44   -0.04446
   45    0.00060
   46   -0.04675
   47    0.10647
   48    0.17856
   49   -0.02736
   50   -0.04782
   51    0.00009
   52   -0.01367
   53   -0.02388
   54   -0.00029
   55   -0.14365
   56   -0.09331
   57    0.18575
   58    0.12315
   59   -0.05416
   60   -0.02038
   61    0.18638
   62    0.12388
   63   -0.14332
   64   -0.09302
   65    0.00001
   66   -0.00000
   67    0.00004
   68   -0.00001
   69   -0.00002
   70    0.00005
   71   -0.00010
   72   -0.00017
   73    0.00027
   74    0.00005
   75   -0.00019
 Ene=    -0.4348
 Spin= Alpha
 Occup= 1.0
    1    0.01384
    2   -0.03948
    3   -0.05200
    4    0.27491
    5    0.06460
    6    0.00010
    7    0.08553
    8   -0.00562
    9   -0.00010
   10    0.01736
   11   -0.04234
   12   -0.08302
   13    0.09478
   14   -0.25517
   15    0.00011
   16    0.05293
   17   -0.06581
   18    0.00008
   19    0.00010
   20   -0.00021
   21   -0.00033
   22   -0.06120
   23    0.03456
   24   -0.00001
   25    0.03216
   26   -0.01854
   27    0.00003
   28   -0.01755
   29    0.04274
   30    0.08374
   31    0.26691
   32    0.04874
   33   -0.00013
   34    0.08329
   35   -0.01197
   36   -0.00020
   37   -0.01373
   38    0.03927
   39    0.05165
   40    0.08472
   41   -0.26984
   42   -0.00011
   43    0.04847
   44   -0.07082
   45    0.00014
   46   -0.00007
   47    0.00016
   48    0.00024
   49   -0.05747
   50    0.03264
   51   -0.00000
   52    0.00585
   53   -0.00338
   54   -0.00001
   55    0.14837
   56    0.12543
   57    0.14545
   58    0.13050
   59    0.00004
   60    0.00001
   61   -0.14478
   62   -0.13023
   63   -0.14879
   64   -0.12574
   65    0.00000
   66   -0.00000
   67    0.00001
   68   -0.00001
   69   -0.00001
   70   -0.00001
   71    0.00011
   72   -0.00007
   73    0.00000
   74   -0.00000
   75   -0.00001
 Ene=    -0.4022
 Spin= Alpha
 Occup= 1.0
    1    0.02682
    2   -0.06017
    3   -0.08709
    4    0.16305
    5    0.11749
    6   -0.00099
    7    0.06455
    8    0.08835
    9   -0.00050
   10   -0.02329
   11    0.04923
   12    0.10570
   13   -0.15786
   14   -0.12023
   15   -0.00093
   16   -0.01573
   17   -0.01661
   18   -0.00050
   19   -0.00489
   20    0.01877
   21    0.03018
   22    0.18503
   23    0.32460
   24   -0.00094
   25    0.05683
   26    0.09915
   27   -0.00059
   28   -0.02330
   29    0.04922
   30    0.10609
   31   -0.02279
   32   -0.19699
   33   -0.00091
   34   -0.00612
   35   -0.02226
   36   -0.00045
   37    0.02681
   38   -0.06011
   39   -0.08707
   40    0.01803
   41    0.19995
   42   -0.00100
   43    0.04302
   44    0.10058
   45   -0.00053
   46   -0.03010
   47    0.06879
   48    0.05924
   49    0.08509
   50    0.14934
   51   -0.00152
   52    0.04527
   53    0.07949
   54   -0.00113
   55    0.07380
   56    0.06229
   57    0.04703
   58    0.03029
   59   -0.25329
   60   -0.23282
   61    0.04692
   62    0.03025