13   
From optimize.out: Frame 2 / 3, Energy=    -286.8249551859
C        1.3118553965    0.3025645483    0.2420680501
C        0.6068016140   -1.0007437408   -0.1830377253
C       -0.6883432701   -0.4654887350   -0.8439833543
C       -1.0780816294    0.1914248105    0.4506992150
C       -0.5189778790    1.0592796455   -0.6927874810
N        0.8291126319    1.4230372465   -0.4714120611
H        2.3483758206    0.2894064774    0.5607696643
H        1.1233254710   -1.9344691093   -0.3753888304
H       -1.2958121827   -0.9367535784   -1.6085309573
H       -2.0520569287    0.3366788924    0.9044507955
H       -1.1651298397    1.7418607690   -1.2337022453
C        0.2167204484   -0.3451412793    1.1120381956
H        0.3622103476   -0.6616559464    2.1388167342
13   
From optimize.out: Frame 1 / 3, Energy=    -286.8249527070
C        1.3425365733    0.2965514802    0.1730321430
C        0.6128688890   -0.9887249665   -0.1692802510
C       -0.6791953656   -0.4542989012   -0.8456515652
C       -1.0885068626    0.1905016314    0.4544152587
C       -0.5205641492    1.0576817912   -0.6800149581
N        0.8301173348    1.4211490886   -0.4420876261
H        2.3531465133    0.3072552194    0.5614993809
H        1.0812520544   -1.9476146787   -0.3702754452
H       -1.2631685577   -0.9510163032   -1.6097899402
H       -2.0756912105    0.3357251547    0.8768644332
H       -1.1633644341    1.7502316856   -1.2097388804
C        0.1638706617   -0.3924321514    1.1172706467
H        0.4066985531   -0.6250090501    2.1437568037
13   
From optimize.out: Frame 18 / 19, Energy=    -286.8249527070
C        1.3779775305    0.2959945716    0.1086403126
C        0.6163030498   -0.9815471773   -0.1617685823
C       -0.6739244163   -0.4548187462   -0.8744517680
C       -1.1000494012    0.1674718897    0.4497986314
C       -0.5262461106    1.0433574356   -0.6734222982
N        0.8403949518    1.4158894582   -0.4568385342
H        2.3438734047    0.3128910953    0.5977034938
H        1.0362987245   -1.9721135816   -0.3162939407
H       -1.2497208938   -0.9530379498   -1.6461573899
H       -2.0970836931    0.3231726578    0.8449455197
H       -1.1757762870    1.7832847517   -1.1258371101
C        0.1410410497   -0.4013432799    1.1193675840
H        0.4669120911   -0.5792011251    2.1343140820
13   
From optimize.out: Frame 16 / 19, Energy=    -286.8249299358
C        1.4026081003    0.2923333930    0.0730111284
C        0.6189252469   -0.9766359854   -0.1586788759
C       -0.6703804533   -0.4550062721   -0.9176932539
C       -1.1062246343    0.1400783333    0.4444502843
C       -0.5335838274    1.0256007167   -0.6720134456
N        0.8537219671    1.4097969501   -0.4843884540
H        2.3195429494    0.3070431005    0.6494527007
H        0.9903656297   -1.9936907513   -0.2593937482
H       -1.2529325159   -0.9443181799   -1.6934986985
H       -2.1091846045    0.2970812415    0.8246894624
H       -1.1874412918    1.8079094798   -1.0419268035
C        0.1428805317   -0.3810689817    1.1189000474
H        0.5317029020   -0.5291230445    2.1170896566
13   
From optimize.out: Frame 14 / 19, Energy=    -286.8245969484
C        1.4249575360    0.2880185778    0.0547954365
C        0.6220598572   -0.9712265781   -0.1551771282
C       -0.6728495724   -0.4541276787   -0.9755600349
C       -1.1117438192    0.1139664344    0.4448738092
C       -0.5419862049    1.0044871886   -0.6736590989
N        0.8753032040    1.4051259936   -0.5140455715
H        2.2937692261    0.2886896847    0.7022621838
H        0.9553176161   -2.0052325451   -0.2066285486
H       -1.2732765158   -0.9276672631   -1.7557565822
H       -2.1180739975    0.2624025642    0.8217779016
H       -1.1979460533    1.8182963900   -0.9703701679
C        0.1518012453   -0.3458040960    1.1231305731
H        0.5926674782   -0.4769286722    2.1043572281
13   
From optimize.out: Frame 10 / 19, Energy=    -286.8174505746
C        1.4495546426    0.2837302004    0.0506304665
C        0.6282675835   -0.9676657662   -0.1524331334
C       -0.6861650045   -0.4545849052   -1.0432221793
C       -1.1192068173    0.0931378578    0.4527706356
C       -0.5525895979    0.9826923697   -0.6796911897
N        0.9085960626    1.4050113086   -0.5386458681
H        2.2719324565    0.2634516737    0.7555787418
H        0.9371609339   -2.0102894400   -0.1658079267
H       -1.3102865341   -0.9105558433   -1.8334818136
H       -2.1263836726    0.2299254005    0.8362998577
H       -1.2114357857    1.8171457493   -0.9174642243
C        0.1618221271   -0.3081283581    1.1340784858
H        0.6487336058   -0.4238702475    2.1013881477
13   
From optimize.out: Frame 8 / 19, Energy=    -286.8102267050
C        1.4792615559    0.2808019654    0.0582785700
C        0.6380807868   -0.9675794566   -0.1505814367
C       -0.7095257693   -0.4576951617   -1.1121612326
C       -1.1298211211    0.0786231766    0.4639667985
C       -0.5655069821    0.9654808239   -0.6904002687
N        0.9507986916    1.4113309418   -0.5557117473
H        2.2574517573    0.2379821174    0.8090006489
H        0.9330398702   -2.0141053031   -0.1369689768
H       -1.3630918110   -0.9009578512   -1.9215639570
H       -2.1364349919    0.2049688555    0.8596848732
H       -1.2297367185    1.8121847344   -0.8830640387
C        0.1734690112   -0.2747174186    1.1508137748
H        0.7020157208   -0.3763174239    2.1087069925
13   
From optimize.out: Frame 6 / 19, Energy=    -286.7928827523
C        1.5138789777    0.2796053969    0.0731906629
C        0.6487207401   -0.9703873652   -0.1496172089
C       -0.7378074507   -0.4636149460   -1.1761008630
C       -1.1438139418    0.0670749693    0.4735669011
C       -0.5775801448    0.9552350443   -0.7034778483
N        0.9946775690    1.4216641111   -0.5658746545
H        2.2495066590    0.2161781864    0.8616187425
H        0.9344380390   -2.0192237519   -0.1162308956
H       -1.4279594227   -0.9015396196   -2.0139566228
H       -2.1505789266    0.1847394855    0.8818693274
H       -1.2487767120    1.8102550271   -0.8597068760
C        0.1882529210   -0.2462415977    1.1707833433
H        0.7570416930   -0.3337449403    2.1239359919
13   
From optimize.out: Frame 4 / 19, Energy=    -286.7557894188
C        1.5369143252    0.2849503750    0.0756843269
C        0.6488840997   -0.9738920580   -0.1563462816
C       -0.7576649138   -0.4498841611   -1.2443912829
C       -1.1533654290    0.0643896552    0.4772531236
C       -0.5775608033    0.9706698819   -0.7246861209
N        1.0379428050    1.4409557571   -0.5617935824
H        2.2108479420    0.1856383897    0.9051852166
H        0.9561329202   -2.0124491633   -0.1062936157
H       -1.4840542594   -0.9494834103   -2.0706646723
H       -2.1533069956    0.1792223396    0.9173656013
H       -1.2612337442    1.8144075677   -0.8534613365
C        0.1907565658   -0.2426909520    1.1904310236
H        0.8057074874   -0.3118342213    2.1517176001
13   
From optimize.out: Frame 2 / 19, Energy=    -286.6905882509
C        1.5204109882    0.2971352392    0.0512521582
C        0.6326823087   -0.9746679976   -0.1694117732
C       -0.7523281780   -0.4091024757   -1.2851382669
C       -1.1466459972    0.0789401137    0.4753935630
C       -0.5638033769    1.0121233255   -0.7452941783
N        1.0555260439    1.4629571526   -0.5419286527
H        2.1504622674    0.1568158107    0.9024429617
H        1.0009504971   -1.9893192111   -0.1154783952
H       -1.4739483524   -1.0340877020   -2.0224456962
H       -2.1270187876    0.2017904916    0.9628374924
H       -1.2585389673    1.8201001191   -0.8806698184
C        0.1664484201   -0.2817616934    1.1969094864
H        0.7958031340   -0.3409231726    2.1715311191
13   
C6H6N->C6H6N atoms 1-13 frame 193 charge +0.000 sz -1.000 sz^2 0.798
C        1.4977740618    0.3087082868    0.0245849877
C        0.6143873182   -0.9756374568   -0.1807743774
C       -0.7474939722   -0.3702462402   -1.3162458355
C       -1.1385029239    0.0935048066    0.4757747831
C       -0.5521391592    1.0513911384   -0.7623058680
N        1.0669974097    1.4815835409   -0.5209010696
H        2.1082009711    0.1359480197    0.8887455204
H        1.0471560522   -1.9690158860   -0.1285852567
H       -1.4449355663   -1.1091489128   -1.9493372189
H       -2.0956078719    0.2253486882    1.0075197372
H       -1.2564488469    1.8291343542   -0.9169881629
C        0.1399882411   -0.3260677396    1.2011083951
H        0.7606242862   -0.3755025993    2.1774043656
13   
C6H6N->C6H6N atoms 1-13 frame 195 charge -0.000 sz -1.000 sz^2 0.770
C        1.4728027710    0.3182946981   -0.0017902848
C        0.5958963127   -0.9774734578   -0.1889801995
C       -0.7444067920   -0.3376980751   -1.3384559192
C       -1.1298718781    0.1061160083    0.4792440979
C       -0.5431956855    1.0846331425   -0.7756014960
N        1.0740048131    1.4956870493   -0.5002552377
H        2.0866240211    0.1237934226    0.8680890090
H        1.0918401869   -1.9528526017   -0.1441351082
H       -1.4034593403   -1.1696596090   -1.8618672100
H       -2.0622373087    0.2475605774    1.0483061510
H       -1.2581019792    1.8441144616   -0.9594738886
C        0.1135726441   -0.3725429440    1.2044046953
H        0.7065322349   -0.4099726723    2.1705153909
13   
C6H6N->C6H6N atoms 1-13 frame 197 charge -0.000 sz -1.000 sz^2 0.747
C        1.4470512467    0.3252155888   -0.0267368669
C        0.5782871525   -0.9804542431   -0.1935093104
C       -0.7422345829   -0.3129680967   -1.3518599031
C       -1.1207514862    0.1162797961    0.4856755511
C       -0.5366127050    1.1107564044   -0.7854585102
N        1.0769175924    1.5051077523   -0.4803936535
H        2.0831216664    0.1202548148    0.8407350683
H        1.1329611389   -1.9390980667   -0.1617468141
H       -1.3534947554   -1.2144761177   -1.7666667895
H       -2.0292220991    0.2683819828    1.0830431021
H       -1.2630257531    1.8643447011   -1.0060544362
C        0.0873361889   -0.4204573876    1.2069663913
H        0.6396663960   -0.4428871286    2.1560061710
13   
C6H6N->C6H6N atoms 1-13 frame 199 charge -0.000 sz -1.000 sz^2 0.725
C        1.4212995262    0.3293161457   -0.0497546681
C        0.5621301325   -0.9845546101   -0.1945214751
C       -0.7400369400   -0.2959279948   -1.3573867713
C       -1.1111101960    0.1240374086    0.4946175741
C       -0.5321046925    1.1302921206   -0.7925679693
N        1.0760305125    1.5105262498   -0.4610694129
H        2.0937567606    0.1249816242    0.8055914348
H        1.1692574563   -1.9249675535   -0.1817808422
H       -1.2983692789   -1.2445609936   -1.6686707410
H       -1.9986282202    0.2885944629    1.1107540255
H       -1.2684154364    1.8869677083   -1.0551881307
C        0.0604120245   -0.4701255697    1.2083299760
H        0.5657783515   -0.4745789983    2.1416470001
13   
C6H6N->C6H6N atoms 1-13 frame 203 charge -0.000 sz -1.000 sz^2 0.715
C        1.3958934224    0.3308306674   -0.0708089577
C        0.5477290260   -0.9894218214   -0.1926368618
C       -0.7368596447   -0.2854276894   -1.3563099254
C       -1.1009273332    0.1297734032    0.5054048569
C       -0.5294664176    1.1446292345   -0.7977737386
N        1.0714792854    1.5131130532   -0.4417659576
H        2.1146049317    0.1375064974    0.7612221223
H        1.2001762404   -1.9078448145   -0.2050472475
H       -1.2410575676   -1.2624040975   -1.5714949156
H       -1.9722014306    0.3094003363    1.1311433906
H       -1.2706032485    1.9085406701   -1.1056302164
C        0.0315231617   -0.5223273373    1.2074798316
H        0.4897095746   -0.5063681020    2.1362176192
13   
C6H6N->C6H6N atoms 1-13 frame 205 charge -0.000 sz -1.000 sz^2 0.724
C        1.3715188508    0.3300399960   -0.0896304305
C        0.5357529120   -0.9944372811   -0.1883381736
C       -0.7316469631   -0.2804977906   -1.3492588614
C       -1.0901711962    0.1338571182    0.5174893105
C       -0.5285872792    1.1548174404   -0.8015773919
N        1.0631149125    1.5139932337   -0.4221326621
H        2.1429446764    0.1577369081    0.7063020401
H        1.2250509332   -1.8857771711   -0.2322876348
H       -1.1850944325   -1.2706757861   -1.4789404267
H       -1.9518039328    0.3320026701    1.1436051357
H       -1.2660027898    1.9258311821   -1.1556478352
C       -0.0001549830   -0.5774088380    1.2032557305
H        0.4150792917   -0.5394816817    2.1471611992
13   
C6H6N->C6H6N atoms 1-13 frame 207 charge -0.000 sz -1.000 sz^2 0.739
C        1.3495861993    0.3274887576   -0.1055029935
C        0.5273802495   -0.9986282840   -0.1817985607
C       -0.7232674337   -0.2801482915   -1.3364114708
C       -1.0787995056    0.1368228286    0.5305792425
C       -0.5291836380    1.1616845956   -0.8040733597
N        1.0509392222    1.5143954244   -0.4021108684
H        2.1763606167    0.1852454311    0.6409781928
H        1.2434762879   -1.8579362839   -0.2632645159
H       -1.1353451815   -1.2732976781   -1.3952904922
H       -1.9389170780    0.3574750268    1.1478405414
H       -1.2518162780    1.9360365093   -1.2024293406
C       -0.0342461061   -0.6344755920    1.1953352783
H        0.3438326454   -0.5746624441    2.1761483469
13   
C6H6N->C6H6N atoms 1-13 frame 209 charge -0.000 sz -1.000 sz^2 0.746
C        1.3317464990    0.3240907967   -0.1175420715
C        0.5238726720   -1.0008176960   -0.1726873129
C       -0.7107125390   -0.2833338825   -1.3176054164
C       -1.0667588966    0.1395176947    0.5448703692
C       -0.5307044599    1.1659516354   -0.8050490760
N        1.0352049625    1.5155419826   -0.3817606571
H        2.2128796213    0.2190588112    0.5670828700
H        1.2561076508   -1.8250199929   -0.2965160296
H       -1.0966641874   -1.2751628883   -1.3232589055
H       -1.9336413389    0.3867565002    1.1443884821
H       -1.2270655614    1.9376700046   -1.2431858763
C       -0.0694547045   -0.6917625270    1.1848954304
H        0.2751902821   -0.6124904387    2.2163681936
13   
C6H6N->C6H6N atoms 1-13 frame 211 charge -0.000 sz -1.000 sz^2 0.740
C        1.3192888686    0.3209590698   -0.1250118808
C        0.5261279142   -0.9998703920   -0.1602471943
C       -0.6932235993   -0.2893123383   -1.2924090743
C       -1.0541280387    0.1429632372    0.5609000766
C       -0.5325026246    1.1680794361   -0.8042512841
N        1.0160996539    1.5183621516   -0.3611550941
H        2.2513221268    0.2578796500    0.4871378325
H        1.2647446098   -1.7891630882   -0.3300123575
H       -1.0725196093   -1.2801367536   -1.2633034326
H       -1.9346297744    0.4205107840    1.1340986655
H       -1.1928654548    1.9309607402   -1.2765149716
C       -0.1045736887   -0.7475351972    1.1740594947
H        0.2068596164   -0.6536972996    2.2567092199
13   
C6H6N->C6H6N atoms 1-13 frame 213 charge +0.000 sz -1.000 sz^2 0.724
C        1.3130871435    0.3192349855   -0.1273829664
C        0.5345877897   -0.9948430900   -0.1436024721
C       -0.6703663250   -0.2979854593   -1.2603280551
C       -1.0412978700    0.1480839454    0.5791576164
C       -0.5339856298    1.1680119021   -0.8015820546
N        0.9935886836    1.5232802918   -0.3406083446
H        2.2910105030    0.3000006892    0.4038738301
H        1.2718374203   -1.7537927778   -0.3616184162
H       -1.0648676105   -1.2892684511   -1.2150561774
H       -1.9396791796    0.4586836909    1.1175629516
H       -1.1523648562    1.9176986793   -1.3027511367
C       -0.1388418865   -0.8002423423    1.1650884246
H        0.1372918177   -0.6988620637    2.2872468004
13   
C6H6N->C6H6N atoms 1-13 frame 215 charge -0.000 sz -1.000 sz^2 0.697
C        1.3136562136    0.3199811458   -0.1243948673
C        0.5492289313   -0.9851469359   -0.1220459361
C       -0.6421254138   -0.3099112739   -1.2209942899
C       -1.0289547951    0.1555048933    0.5998343288
C       -0.5346326338    1.1651161940   -0.7971416079
N        0.9675371271    1.5301064422   -0.3208505875
H        2.3313751671    0.3432004987    0.3200544889
H        1.2798473871   -1.7230737473   -0.3892116619
H       -1.0740107475   -1.3003145984   -1.1782760356
H       -1.9462122418    0.5001663449    1.0952196998
H       -1.1105386771    1.9010107915   -1.3239791459
C       -0.1718062085   -0.8484892882    1.1599903694
H        0.0666358915   -0.7481504667    2.3017952452
13   
C6H6N->C6H6N atoms 1-13 frame 217 charge +0.000 sz -1.000 sz^2 0.670
C        1.3210811028    0.3240682730   -0.1162651979
C        0.5695328097   -0.9707359117   -0.0954438644
C       -0.6090033166   -0.3258642674   -1.1744726242
C       -1.0178754743    0.1654343583    0.6226522586
C       -0.5340124015    1.1584920007   -0.7912283715
N        0.9379790697    1.5380813269   -0.3029789287
H        2.3716371625    0.3849793365    0.2381178710
H        1.2901991549   -1.7004313387   -0.4107724437
H       -1.0981370903   -1.3087340567   -1.1528416922
H       -1.9518515069    0.5428646968    1.0678167328
H       -1.0730511328    1.8844820759   -1.3434946637
C       -0.2031621006   -0.8912018166    1.1601169266
H       -0.0033362766   -0.8014346771    2.2987939971
13   
C6H6N->C6H6N atoms 1-13 frame 219 charge +0.000 sz -1.000 sz^2 0.644
C        1.3350734848    0.3321930060   -0.1038474683
C        0.5946120961   -0.9520334978   -0.0645577628
C       -0.5719682373   -0.3462312487   -1.1214355599
C       -1.0087349285    0.1777602558    0.6467793473
C       -0.5318612852    1.1474954553   -0.7843686036
N        0.9052206560    1.5461729444   -0.2883319210
H        2.4106526329    0.4230240878    0.1597582597
H        1.3024515565   -1.6871463176   -0.4244480277
H       -1.1335807249   -1.3094646797   -1.1387222544
H       -1.9550652567    0.5842924793    1.0365368373
H       -1.0443192546    1.8703088651   -1.3642245002
C       -0.2326914304   -0.9276851556    1.1657293481
H       -0.0697893087   -0.8586861943    2.2811323055
13   
C6H6N->C6H6N atoms 1-13 frame 221 charge +0.000 sz -1.000 sz^2 0.626
C        1.3550183308    0.3449266627   -0.0887732893
C        0.6233477249   -0.9297204115   -0.0311234366
C       -0.5323054848   -0.3706487461   -1.0631583916
C       -1.0019769594    0.1922661283    0.6708919505
C       -0.5281706311    1.1321480924   -0.7774159747
N        0.8697165183    1.5534084569   -0.2783424477
H        2.4471607876    0.4557410845    0.0853881400
H        1.3144846914   -1.6819416204   -0.4289268963
H       -1.1753931064   -1.2982188246   -1.1357369173
H       -1.9555774412    0.6224605613    1.0027630371
H       -1.0260308872    1.8577391830   -1.3872232483
C       -0.2604481597   -0.9577787686    1.1756295563
H       -0.1298253833   -0.9203817979    2.2560279178
13   
C6H6N->C6H6N atoms 1-13 frame 225 charge -0.000 sz -1.000 sz^2 0.627
C        1.3802048290    0.3627805509   -0.0733423995
C        0.6546146208   -0.9044931114    0.0024420614
C       -0.4914465046   -0.3981211968   -1.0012776194
C       -0.9978219317    0.2088330635    0.6933763418
C       -0.5231193226    1.1130433075   -0.7715377322
N        0.8319001932    1.5590255361   -0.2745296238
H        2.4801703945    0.4823893102    0.0141019311
H        1.3234950307   -1.6819640752   -0.4236794560
H       -1.2180882971   -1.2717919458   -1.1435146612
H       -1.9543544450    0.6564261705    0.9677214202
H       -1.0174738408    1.8432992799   -1.4113406405
C       -0.2868235744   -0.9817082208    1.1873084512
H       -0.1812571518   -0.9877186685    2.2342719268
13   
C6H6N->C6H6N atoms 1-13 frame 227 charge +0.000 sz -1.000 sz^2 0.644
C        1.4096931422    0.3859414686   -0.0603618875
C        0.6870941720   -0.8773035461    0.0332111055
C       -0.4513591821   -0.4270077432   -0.9381820693
C       -0.9963320609    0.2273195828    0.7124348112
C       -0.5169740422    1.0912022920   -0.7680380986
N        0.7926455853    1.5623824888   -0.2784185771
H        2.5089801685    0.5026805630   -0.0550278884
H        1.3269089912   -1.6840347045   -0.4089244572
H       -1.2556376186   -1.2284550945   -1.1611347487
H       -1.9533103448    0.6859842013    0.9328613378
H       -1.0169543176    1.8225657622   -1.4337554423
C       -0.3121524782   -0.9995586005    1.1975900913
H       -0.2226020148   -1.0617166697    2.2277458233
13   
C6H6N->C6H6N atoms 1-13 frame 229 charge -0.000 sz -1.000 sz^2 0.671
C        1.4418644860    0.4136037633   -0.0524087903
C        0.7190162277   -0.8497652076    0.0584595029
C       -0.4148197036   -0.4549930672   -0.8771806120
C       -0.9973454204    0.2472875912    0.7266337154
C       -0.5100607712    1.0680360388   -0.7677570976
N        0.7538774129    1.5629826054   -0.2906607285
H        2.5333769174    0.5167173243   -0.1214383562
H        1.3233220834   -1.6855528708   -0.3856116023
H       -1.2818864251   -1.1695448999   -1.1859376883
H       -1.9547710255    0.7113299770    0.9004388621
H       -1.0225578233    1.7923945529   -1.4508750196
C       -0.3363884656   -1.0111724957    1.2041215297
H       -0.2536274927   -1.1413233115    2.2422162848
13   
C6H6N->C6H6N atoms 1-13 frame 231 charge +0.000 sz -1.000 sz^2 0.695
C        1.4750389982    0.4441987517   -0.0505340208
C        0.7489932554   -0.8235042369    0.0772388957
C       -0.3841812077   -0.4800538844   -0.8205430950
C       -1.0005038826    0.2682930883    0.7359103636
C       -0.5025977801    1.0446717794   -0.7703902351
N        0.7176811281    1.5606489718   -0.3102730440
H        2.5544164319    0.5253634691   -0.1839559046
H        1.3131445434   -1.6853419259   -0.3549083896
H       -1.2926098869   -1.0992201225   -1.2136992618
H       -1.9605386385    0.7333153876    0.8726943706
H       -1.0325891111    1.7520284983   -1.4598819745
C       -0.3597236798   -1.0168512854    1.2068344633
H       -0.2765301704   -1.2235484912    2.2715078322
13   
C6H6N->C6H6N atoms 1-13 frame 233 charge -0.000 sz -1.000 sz^2 0.704
C        1.5084147269    0.4763745912   -0.0544029404
C        0.7766795235   -0.7994093482    0.0902780712
C       -0.3606325763   -0.5010739120   -0.7684353287
C       -1.0055504250    0.2903262607    0.7413180393
C       -0.4945481154    1.0214226157   -0.7747792569
N        0.6853837652    1.5554405729   -0.3354946457
H        2.5743100510    0.5299293708   -0.2422405760
H        1.2979684261   -1.6838399155   -0.3174895347
H       -1.2860702394   -1.0217322324   -1.2407953124
H       -1.9713983540    0.7531876923    0.8510011828
H       -1.0463368587    1.7022084951   -1.4593374337
C       -0.3830901298   -1.0174350312    1.2071293362
H       -0.2951297941   -1.3053991594    2.3032483990
13   
C6H6N->C6H6N atoms 1-13 frame 235 charge +0.000 sz -1.000 sz^2 0.692
C        1.5418119351    0.5090617713   -0.0633275208
C        0.8022086405   -0.7779385511    0.0985713108
C       -0.3450518083   -0.5171416500   -0.7203442687
C       -1.0124530889    0.3136992203    0.7440864038
C       -0.4857238673    0.9982497629   -0.7794620760
N        0.6582404166    1.5475643997   -0.3645768936
H        2.5955332658    0.5316761706   -0.2962726693
H        1.2799532786   -1.6828305715   -0.2738045642
H       -1.2616657484   -0.9410160827   -1.2649476093
H       -1.9871859851    0.7719864964    0.8363981234
H       -1.0644302966    1.6446554603   -1.4486864698
C       -0.4078254951   -1.0137178852    1.2063062529
H       -0.3134112469   -1.3842485409    2.3260599810
13   
C6H6N->C6H6N atoms 1-13 frame 237 charge +0.000 sz -1.000 sz^2 0.657
C        1.5752654622    0.5410877325   -0.0765785808
C        0.8257433108   -0.7594878717    0.1027846339
C       -0.3384704829   -0.5269717439   -0.6760322434
C       -1.0212468691    0.3388554451    0.7454017296
C       -0.4758831477    0.9752657532   -0.7826872787
N        0.6382623315    1.5375192919   -0.3956677085
H        2.6202643511    0.5318687370   -0.3455081204
H        1.2619081384   -1.6853702115   -0.2245887338
H       -1.2198214411   -0.8621250956   -1.2851872239
H       -2.0067007346    0.7904109843    0.8301316346
H       -1.0888124234    1.5825276831   -1.4281377958
C       -0.4353101231   -1.0062029285    1.2050825994
H       -0.3351983721   -1.4573777759    2.3309870879
13   
C6H6N->C6H6N atoms 1-13 frame 239 charge -0.000 sz -1.000 sz^2 0.604
C        1.6088909872    0.5708879683   -0.0932120599
C        0.8474432552   -0.7445392630    0.1032554523
C       -0.3416951472   -0.5289141230   -0.6355829311
C       -1.0317386724    0.3661912233    0.7466277765
C       -0.4648033857    0.9529844418   -0.7822445237
N        0.6285765887    1.5262626524   -0.4264812938
H        2.6499269193    0.5320835097   -0.3882874028
H        1.2472207897   -1.6952809833   -0.1710744679
H       -1.1634872490   -0.7925986866   -1.3025410448
H       -2.0275109440    0.8088307714    0.8336798727
H       -1.1221813390    1.5207589753   -1.3986709143
C       -0.4666076209   -0.9951961298    1.2036863333
H       -0.3640341820   -1.5214703566    2.3108452034
13   
C6H6N->C6H6N atoms 1-13 frame 241 charge +0.000 sz -1.000 sz^2 0.542
C        1.6425195084    0.5962077470   -0.1118502650
C        0.8674228435   -0.7338676236    0.1000788803
C       -0.3545139369   -0.5214882224   -0.5993354098
C       -1.0431709836    0.3956714675    0.7495248927
C       -0.4525906784    0.9325878469   -0.7755572852
N        0.6332397642    1.5152006111   -0.4541142068
H        2.6845050688    0.5345112415   -0.4213050678
H        1.2390339118   -1.7151407461   -0.1153122611
H       -1.1004055316   -0.7434563859   -1.3210626550
H       -2.0460568660    0.8270269538    0.8482174151
H       -1.1657650747    1.4656221442   -1.3613977076
C       -0.5018195185   -0.9810968545    1.2019838941
H       -0.4023985073   -1.5717781796    2.2601297761
13   
C6H6N->C6H6N atoms 1-13 frame 245 charge +0.000 sz -1.000 sz^2 0.623
C        1.6748330366    0.6144427711   -0.1306880553
C        0.8855266113   -0.7283446946    0.0935477615
C       -0.3745045575   -0.5053319355   -0.5677083300
C       -1.0541091356    0.4262367535    0.7559907655
C       -0.4403916153    0.9159856161   -0.7609848742
N        0.6546579528    1.5056932820   -0.4758583285
H        2.7215139297    0.5416209805   -0.4408704273
H        1.2382568964   -1.7424206792   -0.0609828942
H       -1.0432710948   -0.7260112635   -1.3463912495
H       -2.0590816925    0.8438037390    0.8725938697
H       -1.2148255776    1.4225802945   -1.3172588555
C       -0.5390829103   -0.9648221736    1.1994895765
H       -0.4495218432   -1.6034326903    2.1791210415
13   
C6H6N->C6H6N atoms 1-13 frame 247 charge -0.000 sz -1.000 sz^2 0.643
C        1.7039303250    0.6248521710   -0.1487368106
C        0.9014600301   -0.7277743899    0.0844182291
C       -0.3977754426   -0.4844640361   -0.5407102317
C       -1.0634471816    0.4563164955    0.7666454600
C       -0.4300311657    0.9046492911   -0.7398784496
N        0.6896839441    1.4980550222   -0.4918688643
H        2.7570871052    0.5544303354   -0.4475398445
H        1.2423776733   -1.7695507406   -0.0120847884
H       -1.0001541811   -0.7413852329   -1.3787386314
H       -2.0667832064    0.8580342237    0.9023316291
H       -1.2595917183    1.3922382749   -1.2679796900
C       -0.5754651318   -0.9471263652    1.1953054248
H       -0.5012910501   -1.6182750493    2.0788365675
13   
C6H6N->C6H6N atoms 1-13 frame 249 charge -0.000 sz -1.000 sz^2 0.626
C        1.7291501381    0.6286048549   -0.1672449984
C        0.9153450608   -0.7311404227    0.0725619720
C       -0.4223816516   -0.4626828946   -0.5182206561
C       -1.0712262513    0.4857242262    0.7808174113
C       -0.4226257302    0.8990501111   -0.7145469304
N        0.7340470353    1.4917173853   -0.5052215149
H        2.7894856325    0.5732269238   -0.4449665805
H        1.2487086713   -1.7905968012    0.0297760864
H       -0.9693503763   -0.7834275483   -1.4119525830
H       -2.0721081697    0.8700263013    0.9336689794
H       -1.2935894455    1.3718741394   -1.2152235466
C       -0.6099237815   -0.9269722535    1.1878536526
H       -0.5555311318   -1.6254040217    1.9726987083
13   
C6H6N->C6H6N atoms 1-13 frame 251 charge +0.000 sz -1.000 sz^2 0.615
C        1.7508118512    0.6273711248   -0.1889997606
C        0.9277559532   -0.7371812716    0.0569735291
C       -0.4480856097   -0.4426417917   -0.5002512824
C       -1.0780199165    0.5157514061    0.7975013818
C       -0.4185952183    0.8993509043   -0.6867648284
N        0.7851576761    1.4860195477   -0.5202776320
H        2.8189266425    0.5989503876   -0.4368893439
H        1.2562233696   -1.8023754603    0.0648850211
H       -0.9456221917   -0.8455120730   -1.4375299563
H       -2.0784918365    0.8812019771    0.9643939673
H       -1.3143634364    1.3587781579   -1.1608122930
C       -0.6428207552   -0.9016138088    1.1750646896
H       -0.6128765283   -1.6380991001    1.8727065077
13   
C6H6N->C6H6N atoms 1-13 frame 253 charge +0.000 sz -1.000 sz^2 0.615
C        1.7687778336    0.6222233142   -0.2161327991
C        0.9390676426   -0.7447295252    0.0370885186
C       -0.4742988574   -0.4274512060   -0.4873418685
C       -1.0841116462    0.5471439689    0.8158561670
C       -0.4182004052    0.9058540690   -0.6579875730
N        0.8402944401    1.4806605338   -0.5405552721
H        2.8452312670    0.6323504877   -0.4257868721
H        1.2654276637   -1.8031461000    0.0930124177
H       -0.9254623785   -0.9210775600   -1.4463247233
H       -2.0884007126    0.8927487896    0.9926621773
H       -1.3205957981    1.3524220434   -1.1087010667
C       -0.6734303095   -0.8688676397    1.1556303558
H       -0.6742987395   -1.6681311756    1.7885805384
13   
C6H6N->C6H6N atoms 1-13 frame 255 charge +0.000 sz -1.000 sz^2 0.625
C        1.7827258263    0.6134585440   -0.2475885205
C        0.9493592603   -0.7530963291    0.0139917052
C       -0.4991864870   -0.4208862039   -0.4796385126
C       -1.0894778554    0.5782836841    0.8357114090
C       -0.4210955656    0.9177497106   -0.6288775319
N        0.8949407653    1.4754703726   -0.5660529591
H        2.8672651367    0.6715449433   -0.4123351079
H        1.2774851787   -1.7946796673    0.1132272231
H       -0.9072433609   -1.0004269758   -1.4322104475