13   
From optimize.out: Frame 2 / 3, Energy=    -286.8249551859
C        1.3118553965    0.3025645483    0.2420680501
C        0.6068016140   -1.0007437408   -0.1830377253
C       -0.6883432701   -0.4654887350   -0.8439833543
C       -1.0780816294    0.1914248105    0.4506992150
C       -0.5189778790    1.0592796455   -0.6927874810
N        0.8291126319    1.4230372465   -0.4714120611
H        2.3483758206    0.2894064774    0.5607696643
H        1.1233254710   -1.9344691093   -0.3753888304
H       -1.2958121827   -0.9367535784   -1.6085309573
H       -2.0520569287    0.3366788924    0.9044507955
H       -1.1651298397    1.7418607690   -1.2337022453
C        0.2167204484   -0.3451412793    1.1120381956
H        0.3622103476   -0.6616559464    2.1388167342
13   
From optimize.out: Frame 1 / 3, Energy=    -286.8249527070
C        1.3116773640    0.3021187270    0.2418766372
C        0.6063531284   -1.0013814904   -0.1826491112
C       -0.6883734871   -0.4653182003   -0.8441101648
C       -1.0783348807    0.1911144244    0.4506308062
C       -0.5190601940    1.0594221418   -0.6922625839
N        0.8285955266    1.4230484223   -0.4701668596
H        2.3487411746    0.2882882274    0.5586868318
H        1.1246429835   -1.9340476492   -0.3756521238
H       -1.2953207030   -0.9361550871   -1.6091301400
H       -2.0522388891    0.3363185858    0.9045795286
H       -1.1647864012    1.7417840695   -1.2338818909
C        0.2166845207   -0.3454429348    1.1122562639
H        0.3614198572   -0.6597492365    2.1398228063
13   
From optimize.out: Frame 18 / 19, Energy=    -286.8249527070
C        1.3116773640    0.3021187270    0.2418766372
C        0.6063531284   -1.0013814904   -0.1826491112
C       -0.6883734871   -0.4653182003   -0.8441101648
C       -1.0783348807    0.1911144244    0.4506308062
C       -0.5190601940    1.0594221418   -0.6922625839
N        0.8285955266    1.4230484223   -0.4701668596
H        2.3487411746    0.2882882274    0.5586868318
H        1.1246429835   -1.9340476492   -0.3756521238
H       -1.2953207030   -0.9361550871   -1.6091301400
H       -2.0522388891    0.3363185858    0.9045795286
H       -1.1647864012    1.7417840695   -1.2338818909
C        0.2166845207   -0.3454429348    1.1122562639
H        0.3614198572   -0.6597492365    2.1398228063
13   
From optimize.out: Frame 16 / 19, Energy=    -286.8249299358
C        1.3194181947    0.2952321608    0.2164505290
C        0.6108584164   -0.9941785298   -0.1760508690
C       -0.6821184441   -0.4546425205   -0.8344459102
C       -1.0802409938    0.2001755506    0.4556425787
C       -0.5182491378    1.0640013299   -0.6855062638
N        0.8247918365    1.4233970257   -0.4395675156
H        2.3505884588    0.3020806438    0.5511516985
H        1.1021189414   -1.9365125501   -0.3970978553
H       -1.2742156664   -0.9471436529   -1.5938658529
H       -2.0608391571    0.3389553556    0.8956179479
H       -1.1572597077    1.7325071171   -1.2504515656
C        0.1858935358   -0.3781462364    1.1139918473
H        0.3792537234   -0.6457256938    2.1441312310
13   
From optimize.out: Frame 14 / 19, Energy=    -286.8245969484
C        1.3634475877    0.2977448298    0.1337593848
C        0.6146873997   -0.9837921145   -0.1631560979
C       -0.6765513854   -0.4539880910   -0.8557872938
C       -1.0959834985    0.1817513871    0.4533051244
C       -0.5226581211    1.0519656480   -0.6750479674
N        0.8349343496    1.4191157866   -0.4443671141
H        2.3554603224    0.3119357216    0.5708590569
H        1.0623775572   -1.9576567656   -0.3460140638
H       -1.2531762371   -0.9545191893   -1.6241935807
H       -2.0891251760    0.3328033765    0.8599015215
H       -1.1688862754    1.7662638957   -1.1729134802
C        0.1439505521   -0.4053540340    1.1202363832
H        0.4315229249   -0.6062704508    2.1434181271
13   
From optimize.out: Frame 12 / 19, Energy=    -286.8222658817
C        1.3903694665    0.2945018550    0.0872173835
C        0.6176809653   -0.9796325711   -0.1605852326
C       -0.6716839922   -0.4555271747   -0.8903698602
C       -1.1035170271    0.1552935474    0.4468081009
C       -0.5293061458    1.0360158777   -0.6720358379
N        0.8450520543    1.4131378675   -0.4674748486
H        2.3339914427    0.3137058906    0.6205979090
H        1.0140572587   -1.9844431510   -0.2909469818
H       -1.2467739867   -0.9517746670   -1.6648893368
H       -2.1038711551    0.3149590502    0.8321902171
H       -1.1816524686    1.7978010757   -1.0856877873
C        0.1385596658   -0.3979226878    1.1186266241
H        0.4970939224   -0.5561149124    2.1265496506
13   
From optimize.out: Frame 10 / 19, Energy=    -286.8174505746
C        1.4125870783    0.2905653006    0.0614278169
C        0.6199397931   -0.9741926683   -0.1571244956
C       -0.6693175906   -0.4545815454   -0.9399718472
C       -1.1084323279    0.1276723500    0.4425277985
C       -0.5370717078    1.0171085383   -0.6719951875
N        0.8607911279    1.4070728763   -0.4981792496
H        2.3077621249    0.3016104815    0.6729799452
H        0.9710482575   -2.0012309393   -0.2336662832
H       -1.2579539773   -0.9382384064   -1.7168258276
H       -2.1135170156    0.2825042665    0.8185735947
H       -1.1921613071    1.8161515389   -1.0062455420
C        0.1464036232   -0.3673270261    1.1191229876
H        0.5599219215   -0.5071147665    2.1093762897
13   
From optimize.out: Frame 8 / 19, Energy=    -286.8102267050
C        1.4345942070    0.2860346633    0.0496287668
C        0.6237114016   -0.9689159736   -0.1536601157
C       -0.6756010102   -0.4537741134   -1.0032834760
C       -1.1143234936    0.1032894327    0.4467013676
C       -0.5458146316    0.9946550711   -0.6749552973
N        0.8866082104    1.4036093587   -0.5264055445
H        2.2828686624    0.2786242958    0.7250732475
H        0.9430633392   -2.0083498234   -0.1855659689
H       -1.2852128779   -0.9194322704   -1.7860839058
H       -2.1216239174    0.2467432008    0.8242740785
H       -1.2024524101    1.8199672437   -0.9424230066
C        0.1560060298   -0.3290375866    1.1262525096
H        0.6181764904   -0.4534134987    2.1004473448
13   
From optimize.out: Frame 6 / 19, Energy=    -286.7928827523
C        1.4607345773    0.2820080751    0.0513790367
C        0.6316724186   -0.9667314860   -0.1515162094
C       -0.6940594783   -0.4551908099   -1.0730683755
C       -1.1228561255    0.0855515851    0.4573062001
C       -0.5576525307    0.9737526420   -0.6832303225
N        0.9250275864    1.4060589859   -0.5477930629
H        2.2637598290    0.2521131720    0.7783755002
H        0.9327500661   -2.0117389156   -0.1510427403
H       -1.3290240793   -0.9039224886   -1.8689022739
H       -2.1299406381    0.2173574570    0.8452867234
H       -1.2181490630    1.8150372464   -0.8988125242
C        0.1661684971   -0.2925028899    1.1399268384
H        0.6715689405   -0.4017925735    2.1020912098
13   
From optimize.out: Frame 4 / 19, Energy=    -286.7557894188
C        1.4926197867    0.2799323420    0.0632532376
C        0.6427013169   -0.9681908561   -0.1499074514
C       -0.7206771982   -0.4595008370   -1.1403477719
C       -1.1348429879    0.0736276896    0.4687691904
C       -0.5711701600    0.9595167184   -0.6955699080
N        0.9693800470    1.4151321015   -0.5614212381
H        2.2529035426    0.2277934141    0.8310818428
H        0.9332488234   -2.0158115041   -0.1268215812
H       -1.3876551591   -0.8988203029   -1.9595338244
H       -2.1411175189    0.1960364870    0.8700661562
H       -1.2380915928    1.8101280302   -0.8717091433
C        0.1787327919   -0.2618938257    1.1586634200
H        0.7239683084   -0.3579494570    2.1134770716
13   
From optimize.out: Frame 2 / 19, Energy=    -286.6905882509
C        1.5287233951    0.2793771046    0.0801295578
C        0.6529238554   -0.9719210970   -0.1494145445
C       -0.7497688005   -0.4664876589   -1.2010657740
C       -1.1500779894    0.0624994746    0.4769169448
C       -0.5820559732    0.9522453277   -0.7089996373
N        1.0123417866    1.4262251444   -0.5689842917
H        2.2471347551    0.2080677514    0.8829414019
H        0.9352684193   -2.0216063840   -0.1088358560
H       -1.4561022299   -0.9034384064   -2.0519578214
H       -2.1571854379    0.1768512546    0.8901109958
H       -1.2562376907    1.8103437038   -0.8513261871
C        0.1949004349   -0.2353122916    1.1792461866
H        0.7801354753   -0.3168439231    2.1312390252
13   
C6H6N->C6H6N atoms 1-13 frame 193 charge +0.000 sz -1.000 sz^2 0.798
C        1.5379454394    0.2856519654    0.0751247396
C        0.6483755556   -0.9741401722   -0.1572188825
C       -0.7586589151   -0.4477940319   -1.2498453091
C       -1.1537792680    0.0646276003    0.4772954434
C       -0.5769949293    0.9729892546   -0.7266608119
N        1.0411655860    1.4428101184   -0.5608883808
H        2.2062799810    0.1828148723    0.9079853765
H        0.9587594453   -2.0112964077   -0.1059735861
H       -1.4875729971   -0.9552797799   -2.0730195818
H       -2.1528187583    0.1795208233    0.9207965439
H       -1.2618626718    1.8149191467   -0.8537301195
C        0.1902349153   -0.2436198137    1.1918390255
H        0.8089266170   -0.3112035756    2.1542955429
13   
C6H6N->C6H6N atoms 1-13 frame 195 charge -0.000 sz -1.000 sz^2 0.770
C        1.5191428252    0.2979657563    0.0495255959
C        0.6315473091   -0.9747061721   -0.1702936128
C       -0.7518703133   -0.4063041447   -1.2876907974
C       -1.1461300900    0.0799752529    0.4752560113
C       -0.5628493100    1.0149536609   -0.7466418192
N        1.0565646507    1.4644142682   -0.5405574079
H        2.1464253029    0.1549354526    0.9020421117
H        1.0040019258   -1.9877297307   -0.1161658217
H       -1.4729629626   -1.0397874120   -2.0187879867
H       -2.1251528286    0.2034011247    0.9658780651
H       -1.2582985835    1.8204748281   -0.8826182072
C        0.1647280839   -0.2845202696    1.1972762028
H        0.7948539903   -0.3430726149    2.1727776661
13   
C6H6N->C6H6N atoms 1-13 frame 197 charge -0.000 sz -1.000 sz^2 0.747
C        1.4964189577    0.3093895263    0.0230033744
C        0.6132991142   -0.9756965144   -0.1814390170
C       -0.7472164458   -0.3679596215   -1.3180566585
C       -1.1380192457    0.0943627857    0.4758076811
C       -0.5514599730    1.0537018277   -0.7632992066
N        1.0676590050    1.4826723334   -0.5196545593
H        2.1057769681    0.1347439281    0.8879023146
H        1.0498926791   -1.9678291441   -0.1293728374
H       -1.4431582038   -1.1135474852   -1.9449329857
H       -2.0937342730    0.2267404970    1.0101604515
H       -1.2563315455    1.8296834996   -0.9191677400
C        0.1384193594   -0.3287024801    1.2013514142
H        0.7584536032   -0.3775591527    2.1776977686
13   
C6H6N->C6H6N atoms 1-13 frame 199 charge -0.000 sz -1.000 sz^2 0.725
C        1.4714954914    0.3187876460   -0.0031627437
C        0.5949329765   -0.9775718209   -0.1893976434
C       -0.7442512630   -0.3360229400   -1.3395851251
C       -1.1294208786    0.1067666107    0.4794343216
C       -0.5427382139    1.0863453527   -0.7762824922
N        1.0743560869    1.4964074820   -0.4991813837
H        2.0855638051    0.1231872548    0.8669922388
H        1.0941622011   -1.9520235716   -0.1449522772
H       -1.4012618004   -1.1727657088   -1.8572690844
H       -2.0604937868    0.2487130779    1.0504177152
H       -1.2581999820    1.8449132909   -0.9617050450
C        0.1121972483   -0.3749697432    1.2045737104
H        0.7036581153   -0.4117669303    2.1701178087
13   
C6H6N->C6H6N atoms 1-13 frame 201 charge +0.000 sz -1.000 sz^2 0.713
C        1.4458674180    0.3255268925   -0.0278785558
C        0.5774809994   -0.9805938381   -0.1937084374
C       -0.7421369156   -0.3118515564   -1.3524543676
C       -1.1203316296    0.1167405173    0.4859778123
C       -0.5363160481    1.1119386256   -0.7859029024
N        1.0770416455    1.5055291042   -0.4794837684
H        2.0830033942    0.1201127975    0.8394634401
H        1.1348401618   -1.9384720877   -0.1625601694
H       -1.3511814093   -1.2164961424   -1.7622789428
H       -2.0277076191    0.2693345429    1.0846231415
H       -1.2632594640    1.8652857595   -1.0082022662
C        0.0861321740   -0.4226603430    1.2070822682
H        0.6365672929   -0.4443942720    2.1553227479
13   
C6H6N->C6H6N atoms 1-13 frame 203 charge -0.000 sz -1.000 sz^2 0.715
C        1.4202710655    0.3294747713   -0.0506704456
C        0.5614875148   -0.9847204159   -0.1945555104
C       -0.7399490308   -0.2952614030   -1.3575932515
C       -1.1107241685    0.1243428709    0.4949792516
C       -0.5319283968    1.1310604343   -0.7928469822
N        1.0759881844    1.5107354402   -0.4602985515
H        2.0942069178    0.1251854429    0.8041734855
H        1.1706982325   -1.9244022269   -0.1825854576
H       -1.2961584585   -1.2457358439   -1.6647521162
H       -1.9974108989    0.2894007213    1.1118479161
H       -1.2686312756    1.8878753576   -1.0571550521
C        0.0593353281   -0.4721125581    1.2083822076
H        0.5628149861   -0.4758425907    2.1410745062
13   
C6H6N->C6H6N atoms 1-13 frame 205 charge -0.000 sz -1.000 sz^2 0.724
C        1.3950434303    0.3308779444   -0.0715111411
C        0.5472492993   -0.9895857485   -0.1925699630
C       -0.7367519249   -0.2850848105   -1.3562651788
C       -1.1005857402    0.1299627533    0.5057683737
C       -0.5293805741    1.1451023472   -0.7979455232
N        1.0713220705    1.5131959551   -0.4411197688
H        2.1153161634    0.1379361041    0.7597245074
H        1.2012040705   -1.9072674958   -0.2058304383
H       -1.2391363268   -1.2629852810   -1.5682432524
H       -1.9713224346    0.3100976767    1.1318161793
H       -1.2706720067    1.9092612218   -1.1073204335
C        0.0305534157   -0.5240782108    1.2074483679
H        0.4871605576   -0.5074324561    2.1360482707
13   
C6H6N->C6H6N atoms 1-13 frame 207 charge -0.000 sz -1.000 sz^2 0.739
C        1.3708784401    0.3300171845   -0.0901236927
C        0.5354399453   -0.9945693546   -0.1882229714
C       -0.7315079905   -0.2803729180   -1.3490681281
C       -1.0898876806    0.1339631347    0.5178083901
C       -0.5285656833    1.1550819149   -0.8016762624
N        1.0628914887    1.5140149380   -0.4216157753
H        2.1436968086    0.1582759463    0.7048477179
H        1.2257001174   -1.8851921391   -0.2330078802
H       -1.1836232476   -1.2708851451   -1.4765093319
H       -1.9512725798    0.3325989907    1.1439260669
H       -1.2658756795    1.9262822668   -1.1569634541
C       -0.0009909591   -0.5788606600    1.2031415942
H        0.4131170202   -0.5403541592    2.1474637270
13   
C6H6N->C6H6N atoms 1-13 frame 209 charge -0.000 sz -1.000 sz^2 0.746
C        1.3491699644    0.3274393303   -0.1058036383
C        0.5272226932   -0.9987076306   -0.1816729721
C       -0.7231063419   -0.2801439004   -1.3361640501
C       -1.0785827466    0.1368787318    0.5308288956
C       -0.5291957182    1.1618136692   -0.8041202198
N        1.0507055713    1.5144028624   -0.4017295735
H        2.1769991506    0.1857726486    0.6397296288
H        1.2438237883   -1.8574034683   -0.2638559928
H       -1.1344014098   -1.2733448399   -1.3937027723
H       -1.9386755444    0.3579613201    1.1479170642
H       -1.2515414355    1.9362271917   -1.2033181380
C       -0.0348961998   -0.6355627897    1.1951826752
H        0.3424782283   -0.5753331253    2.1767090929
13   
C6H6N->C6H6N atoms 1-13 frame 211 charge -0.000 sz -1.000 sz^2 0.740
C        1.3315319550    0.3240495645   -0.1176866128
C        0.5238314215   -1.0008436783   -0.1725766679
C       -0.7105599278   -0.2833731624   -1.3173768945
C       -1.0666133035    0.1395501895    0.5450432690
C       -0.5307230378    1.1660025883   -0.8050605134
N        1.0350140956    1.5155560092   -0.3815147697
H        2.2133214358    0.2194686806    0.5661883335
H        1.2562589083   -1.8246212387   -0.2969181892
H       -1.0961995099   -1.2751852748   -1.3223914944
H       -1.9335793502    0.3871110698    1.1443450329
H       -1.2267641775    1.9376877707   -1.2436767880
C       -0.0698802409   -0.6924545429    1.1847687583
H        0.2743617315   -0.6129479756    2.2168565363
13   
C6H6N->C6H6N atoms 1-13 frame 213 charge +0.000 sz -1.000 sz^2 0.724
C        1.3192245352    0.3209428303   -0.1250503727
C        0.5261399816   -0.9998652777   -0.1601824069
C       -0.6931325025   -0.2893435467   -1.2922778765
C       -1.0540624327    0.1429811716    0.5609833990
C       -0.5325119757    1.1680903493   -0.8042470319
N        1.0160002647    1.5183768969   -0.3610481106
H        2.2515218081    0.2580814872    0.4867224477
H        1.2647891994   -1.7889767671   -0.3301862566
H       -1.0723951791   -1.2801627720   -1.2629929439
H       -1.9346352940    0.4206862886    1.1340448242
H       -1.1926873280    1.9309253919   -1.2766875256
C       -0.1047559915   -0.7478246282    1.1740032209
H        0.2065049147   -0.6539114241    2.2569186329
13   
C6H6N->C6H6N atoms 1-13 frame 215 charge -0.000 sz -1.000 sz^2 0.697
C        1.3130862208    0.3192336841   -0.1273883100
C        0.5345612909   -0.9948606233   -0.1436415402
C       -0.6704175354   -0.2979638653   -1.2603993746
C       -1.0413203070    0.1480705084    0.5791200994
C       -0.5339844344    1.1680171011   -0.8015900952
N        0.9936359401    1.5232679134   -0.3406442575
H        2.2909371937    0.2999222099    0.4040260878
H        1.2718229110   -1.7538486979   -0.3615682061
H       -1.0648512481   -1.2892483486   -1.2151231585
H       -1.9396673006    0.4586083728    1.1176034481
H       -1.1524408874    1.9177289888   -1.3027125553
C       -0.1387819928   -0.8001546299    1.1650977677
H        0.1374201491   -0.6987726136    2.2872200943
13   
C6H6N->C6H6N atoms 1-13 frame 217 charge +0.000 sz -1.000 sz^2 0.670
C        1.3135906765    0.3199451277   -0.1244670392
C        0.5490478195   -0.9852753539   -0.1222835108
C       -0.6424214238   -0.3097690656   -1.2214099062
C       -1.0290542769    0.1554163296    0.5996302086
C       -0.5346379674    1.1651748790   -0.7971944164
N        0.9678013297    1.5300350547   -0.3210110697
H        2.3310144848    0.3428258783    0.3207886648
H        1.2797549770   -1.7232778369   -0.3890174773
H       -1.0737963617   -1.3002381197   -1.1785054021
H       -1.9461614001    0.4997838464    1.0954645053
H       -1.1108755943    1.9011591309   -1.3238045740
C       -0.1715251841   -0.8481059441    1.1599900283
H        0.0672629209   -0.7476739265    2.3018199886
13   
C6H6N->C6H6N atoms 1-13 frame 219 charge +0.000 sz -1.000 sz^2 0.644
C        1.3208572034    0.3239386842   -0.1164648610
C        0.5691288876   -0.9710368012   -0.0959420271
C       -0.6096008320   -0.3255366445   -1.1753277659
C       -1.0180240769    0.1652359778    0.6222623619
C       -0.5340465891    1.1586680839   -0.7913391823
N        0.9385074384    1.5379502506   -0.3032173528
H        2.3710057243    0.3843625319    0.2393857089
H        1.2900010976   -1.7006490760   -0.4105480160
H       -1.0975667327   -1.3087178215   -1.1530740250
H       -1.9517985535    0.5421939933    1.0683212928
H       -1.0735193581    1.8847117596   -1.3431605140
C       -0.2026842229   -0.8906098386    1.1600278519
H       -0.0022599861   -0.8005110994    2.2990765287
13   
C6H6N->C6H6N atoms 1-13 frame 221 charge +0.000 sz -1.000 sz^2 0.626
C        1.3346140208    0.3319008717   -0.1041971698
C        0.5939466454   -0.9525495627   -0.0653339366
C       -0.5728883219   -0.3456664346   -1.1227861907
C       -1.0088936473    0.1774248623    0.6462183759
C       -0.5319460329    1.1478491917   -0.7845307527
N        0.9060434337    1.5460038332   -0.2885681111
H        2.4098025170    0.4222602121    0.1614872794
H        1.3021701231   -1.6872708690   -0.4243372915
H       -1.1326106125   -1.3097153442   -1.1387990454
H       -1.9550521149    0.5834033203    1.0373201451
H       -1.0447506860    1.8705995489   -1.3636913184
C       -0.2320459594   -0.9269821181    1.1655007794
H       -0.0683893651   -0.8572575115    2.2817172363
13   
C6H6N->C6H6N atoms 1-13 frame 223 charge +0.000 sz -1.000 sz^2 0.621
C        1.3542670370    0.3443965661   -0.0892391080
C        0.6224104956   -0.9304755101   -0.0321340425
C       -0.5335328142   -0.3698256770   -1.0650145916
C       -1.0021046424    0.1917709156    0.6702132491
C       -0.5283210524    1.1327185445   -0.7775950227
N        0.8708501111    1.5532373610   -0.2784653682
H        2.4461651990    0.4549340736    0.0875305528
H        1.3142080966   -1.6819433348   -0.4290738983
H       -1.1741059972   -1.2989934731   -1.1355144025
H       -1.9556142393    0.6214360224    1.0038151009
H       -1.0262967322    1.8581658977   -1.3864975269
C       -0.2596552005   -0.9570536954    1.1752775274
H       -0.1282702611   -0.9183676905    2.2566975305
13   
C6H6N->C6H6N atoms 1-13 frame 225 charge -0.000 sz -1.000 sz^2 0.627
C        1.3791178015    0.3619307284   -0.0738310841
C        0.6534115080   -0.9054988908    0.0012940668
C       -0.4929360772   -0.3970505771   -1.0036165145
C       -0.9978812335    0.2081512124    0.6926628552
C       -0.5233455233    1.1138495311   -0.7716725986
N        0.8333539280    1.5588967493   -0.2743994886
H        2.4790965760    0.4816278107    0.0166653306
H        1.3233571047   -1.6818866249   -0.4242114682
H       -1.2166800855   -1.2733701969   -1.1428745889
H       -1.9543970576    0.6553249971    0.9690156765
H       -1.0175032977    1.8440513305   -1.4105024300
C       -0.2858841446   -0.9810371551    1.1869216909
H       -0.1797094987   -0.9849889146    2.2345485529
13   
C6H6N->C6H6N atoms 1-13 frame 227 charge +0.000 sz -1.000 sz^2 0.644
C        1.4082541444    0.3847091028   -0.0607325359
C        0.6856593630   -0.8785402973    0.0320645526
C       -0.4530100440   -0.4257471301   -0.9409255064
C       -0.9962917264    0.2264273351    0.7117869240
C       -0.5172825121    1.0922397670   -0.7680576833
N        0.7943884791    1.5623487107   -0.2778875897
H        2.5078788688    0.5020388041   -0.0520432211
H        1.3270540293   -1.6839625767   -0.4099515793
H       -1.2544253456   -1.2310672520   -1.1600308844
H       -1.9532548839    0.6848405013    0.9343248386
H       -1.0167137451    1.8238936021   -1.4329695592
C       -0.3110643228   -0.9990241887    1.1972882912
H       -0.2211923048   -1.0581563784    2.2271339528
13   
C6H6N->C6H6N atoms 1-13 frame 229 charge -0.000 sz -1.000 sz^2 0.671
C        1.4401157230    0.4119955385   -0.0525258213
C        0.7174281941   -0.8511567635    0.0574509607
C       -0.4164574739   -0.4536590044   -0.8801816772
C       -0.9971847941    0.2461830436    0.7261321215
C       -0.5104525237    1.0692685079   -0.7676240491
N        0.7557981859    1.5630966078   -0.2896444494
H        2.5322633021    0.5162483106   -0.1181282502
H        1.3238426663   -1.6855595944   -0.3872095513
H       -1.2812668943   -1.1732301517   -1.1844721017
H       -1.9544828730    0.7101637406    0.9019207271
H       -1.0220403833    1.7944932263   -1.4503701959
C       -0.3351577221   -1.0108568712    1.2039705995
H       -0.2524054070   -1.1369865901    2.2406816874
13   
C6H6N->C6H6N atoms 1-13 frame 231 charge +0.000 sz -1.000 sz^2 0.695
C        1.4730394220    0.4422733471   -0.0503224969
C        0.7473258659   -0.8249581486    0.0764386336
C       -0.3856234169   -0.4787752043   -0.8236810712
C       -1.0002088810    0.2669781961    0.7355755549
C       -0.5030770578    1.0460649953   -0.7701289348
N        0.7196360797    1.5609503006   -0.3087777828
H        2.5532291712    0.5250783604   -0.1804471213
H        1.3140417303   -1.6854330118   -0.3571252041
H       -1.2929307087   -1.1038484677   -1.2120644812
H       -1.9599078773    0.7321202996    0.8740218771
H       -1.0317821491    1.7549818160   -1.4598744372
C       -0.3583287462   -1.0167990870    1.2068121399
H       -0.2754134322   -1.2186333957    2.2695733239
13   
C6H6N->C6H6N atoms 1-13 frame 233 charge -0.000 sz -1.000 sz^2 0.704
C        1.5061865958    0.4741909700   -0.0538289504
C        0.7749663470   -0.8008565100    0.0897046575
C       -0.3617157718   -0.4999720105   -0.7716625292
C       -1.0050991524    0.2887752933    0.7411257115
C       -0.4951320254    1.0229695164   -0.7744605352
N        0.6872286537    1.5559551437   -0.3335648763
H        2.5729105086    0.5298046349   -0.2386125700
H        1.2991689750   -1.6839230713   -0.3203768505
H       -1.2876124141   -1.0271239313   -1.2391644007
H       -1.9703640685    0.7519313932    0.8520156699
H       -1.0451592371    1.7060243768   -1.4599993836
C       -0.3814526990   -1.0176643849    1.2071821970
H       -0.2939257119   -1.3001114203    2.3016418599
13   
C6H6N->C6H6N atoms 1-13 frame 235 charge +0.000 sz -1.000 sz^2 0.692
C        1.5393461160    0.5066880834   -0.0623711914
C        0.8004622046   -0.7793195401    0.0982383220
C       -0.3455954265   -0.5163707427   -0.7236346469
C       -1.0118150879    0.3118571207    0.7439879748
C       -0.4864421540    0.9999482122   -0.7792038184
N        0.6597726303    1.5482971919   -0.3622841145
H        2.5937387959    0.5316609814   -0.2926053258
H        1.2813021517   -1.6826855303   -0.2774072046
H       -1.2646614431   -0.9468835226   -1.2634359748
H       -1.9857565250    0.7706279029    0.8369178571
H       -1.0626848522    1.6492356144   -1.4501481045
C       -0.4058212911   -1.0142510953    1.2063955112
H       -0.3118451188   -1.3788046758    2.3255507158
13   
C6H6N->C6H6N atoms 1-13 frame 237 charge +0.000 sz -1.000 sz^2 0.657
C        1.5725324801    0.5386344962   -0.0752420047
C        0.8239667101   -0.7607334219    0.1027198706
C       -0.3382791102   -0.5267460412   -0.6793509070
C       -1.0204016600    0.3366491211    0.7453126871
C       -0.4767750522    0.9770895371   -0.7826795932
N        0.6391512463    1.5384348674   -0.3931416120
H        2.6178897704    0.5318654063   -0.3419624737
H        1.2631482674   -1.6846375765   -0.2289208665
H       -1.2243437173   -0.8679162520   -1.2837803924
H       -2.0049949944    0.7889126102    0.8299229909
H       -1.0861760144    1.5875933522   -1.4304766124
C       -0.4327949835   -1.0070748575    1.2051942226
H       -0.3329229424   -1.4520712414    2.3324046907
13   
C6H6N->C6H6N atoms 1-13 frame 239 charge -0.000 sz -1.000 sz^2 0.604
C        1.6058680709    0.5685578837   -0.0915449128
C        0.8456368239   -0.7455408054    0.1035098215
C       -0.3406133820   -0.5294990539   -0.6388714570
C       -1.0307111112    0.3635607917    0.7463987840
C       -0.4658960335    0.9548439053   -0.7827733376
N        0.6283086941    1.5272671212   -0.4239537120
H        2.6468537539    0.5319060321   -0.3852105537
H        1.2480217758   -1.6935739022   -0.1760796119
H       -1.1691831854   -0.7972785331   -1.3009402408
H       -2.0258007860    0.8071890512    0.8324679252
H       -1.1183336532    1.5258047763   -1.4019488617
C       -0.4634734366   -0.9964394901    1.2038326972
H       -0.3606775308   -1.5167977768    2.3151134594
13   
C6H6N->C6H6N atoms 1-13 frame 241 charge +0.000 sz -1.000 sz^2 0.542
C        1.6392858891    0.5943165674   -0.1099749365
C        0.8656066097   -0.7344689269    0.1006978145
C       -0.3525721093   -0.5230327439   -0.6025173708
C       -1.0420706227    0.3926397590    0.7489302571
C       -0.4538170006    0.9342878574   -0.7769273912
N        0.6312702223    1.5161628920   -0.4518956933
H        2.6808270665    0.5338680161   -0.4192245898
H        1.2391670135   -1.7124453889   -0.1207486092
H       -1.1062155917   -0.7455436377   -1.3186368529
H       -2.0447062880    0.8253379844    0.8458657959
H       -1.1608691552    1.4700243166   -1.3657117193
C       -0.4981213030   -0.9826943561    1.2022146696
H       -0.3977847307   -1.5684523394    2.2679286258
13   
C6H6N->C6H6N atoms 1-13 frame 243 charge -0.000 sz -1.000 sz^2 0.542
C        1.6716019003    0.6132165601   -0.1287165175
C        0.8837576129   -0.7284596466    0.0945123355
C       -0.3719782659   -0.5075971680   -0.5707176205
C       -1.0530673639    0.4229379221    0.7548729024
C       -0.4415614325    0.9172983626   -0.7632348819
N        0.6509533490    1.5065460888   -0.4740669828
H        2.7175841346    0.5402962559   -0.4400163847
H        1.2378368277   -1.7393821383   -0.0664190582
H       -1.0481512529   -0.7246841468   -1.3428797341
H       -2.0582036387    0.8422171369    0.8693673111
H       -1.2097977940    1.4260300677   -1.3225985276
C       -0.5350803763   -0.9667293102    1.1999083546
H       -0.4438937003   -1.6016899842    2.1899888038
13   
C6H6N->C6H6N atoms 1-13 frame 245 charge +0.000 sz -1.000 sz^2 0.623
C        1.7008911413    0.6243317788   -0.1465878916
C        0.8997930305   -0.7274176421    0.0857687741
C       -0.3948783096   -0.4870635435   -0.5434393434
C       -1.0625106988    0.4528407974    0.7650059823
C       -0.4309574057    0.9053987262   -0.7428392655
N        0.6845344247    1.4988156617   -0.4903049723
H        2.7532064991    0.5523044702   -0.4477580136
H        1.2416446187   -1.7669255623   -0.0171419310
H       -1.0039141452   -0.7367140450   -1.3747105237
H       -2.0661629220    0.8565991891    0.8986150565
H       -1.2553730808    1.3947589526   -1.2741960689
C       -0.5713620958   -0.9494417129    1.1961122621
H       -0.4949110564   -1.6174870701    2.0914759351
13   
C6H6N->C6H6N atoms 1-13 frame 247 charge -0.000 sz -1.000 sz^2 0.643
C        1.7263681762    0.6286941506   -0.1646019667
C        0.9137672451   -0.7304082067    0.0744473525
C       -0.4191645538   -0.4652722507   -0.5205615972
C       -1.0703610982    0.4819770682    0.7787494854
C       -0.4231928711    0.8991163208   -0.7180191766
N        0.7277020965    1.4924393318   -0.5034148513
H        2.7857370550    0.5701252890   -0.4459291337
H        1.2477897085   -1.7889320493    0.0252513597
H       -0.9723949136   -0.7758719335   -1.4084775640