13   
From optimize.out: Frame 18 / 19, Energy=    -286.8249527070
C        1.3116773640    0.3021187270    0.2418766374
C        0.6063531285   -1.0013814904   -0.1826491112
C       -0.6883734870   -0.4653182002   -0.8441101649
C       -1.0783348807    0.1911144244    0.4506308061
C       -0.5190601939    1.0594221419   -0.6922625839
N        0.8285955267    1.4230484224   -0.4701668594
H        2.3487411746    0.2882882274    0.5586868321
H        1.1246429836   -1.9340476491   -0.3756521238
H       -1.2953207028   -0.9361550870   -1.6091301402
H       -2.0522388892    0.3363185857    0.9045795284
H       -1.1647864011    1.7417840696   -1.2338818909
C        0.2166845206   -0.3454429348    1.1122562639
H        0.3614198570   -0.6597492366    2.1398228063
13   
From optimize.out: Frame 16 / 19, Energy=    -286.8249299358
C        1.3194173190    0.2952350099    0.2164519811
C        0.6108606343   -0.9941774844   -0.1760490765
C       -0.6821164330   -0.4546447091   -0.8344463617
C       -1.0802419960    0.2001738449    0.4556409521
C       -0.5182503561    1.0639996160   -0.6855080030
N        0.8247895754    1.4233982372   -0.4395678351
H        2.3505871269    0.3020858835    0.5511545072
H        1.1021233333   -1.9365107427   -0.3970944798
H       -1.2742116678   -0.9471477762   -1.5938665994
H       -2.0608410180    0.3389521276    0.8956148874
H       -1.1572615139    1.7325035676   -1.2504548120
C        0.1858928180   -0.3781447617    1.1139924676
H        0.3792521779   -0.6457228125    2.1441323721
13   
From optimize.out: Frame 14 / 19, Energy=    -286.8245969484
C        1.3634458038    0.2977534883    0.1337582945
C        0.6146934760   -0.9837883603   -0.1631558422
C       -0.6765490916   -0.4539929149   -0.8557865482
C       -1.0959843444    0.1817448020    0.4533057194
C       -0.5226651738    1.0519619120   -0.6750483287
N        0.8349251402    1.4191207370   -0.4443686083
H        2.3554587350    0.3119509068    0.5708573086
H        1.0623896346   -1.9576503200   -0.3460134500
H       -1.2531712999   -0.9545281508   -1.6241921236
H       -2.0891267055    0.3327908213    0.8599026648
H       -1.1688981429    1.7662557656   -1.1729138964
C        0.1439538320   -0.4053523807    1.1202365600
H        0.4315281364   -0.6062663063    2.1434182501
13   
From optimize.out: Frame 12 / 19, Energy=    -286.8222658817
C        1.3903658233    0.2945188416    0.0872181020
C        0.6176931373   -0.9796241485   -0.1605897939
C       -0.6716786701   -0.4555316528   -0.8903715841
C       -1.1035187820    0.1552777974    0.4468092404
C       -0.5293193671    1.0360122185   -0.6720310654
N        0.8450342062    1.4131504792   -0.4674689878
H        2.3339877804    0.3137323217    0.6205983210
H        1.0140819298   -1.9844292035   -0.2909561234
H       -1.2467627857   -0.9517829257   -1.6648930035
H       -2.1038747450    0.3149291089    0.8321924727
H       -1.1816753783    1.7977910847   -1.0856793965
C        0.1385651004   -0.3979258731    1.1186248179
H        0.4971017508   -0.5561180484    2.1265470006
13   
From optimize.out: Frame 10 / 19, Energy=    -286.8174505746
C        1.4125816841    0.2905905089    0.0614326156
C        0.6199578284   -0.9741794657   -0.1571351927
C       -0.6693083025   -0.4545829043   -0.9399778037
C       -1.1084351160    0.1276468665    0.4425281663
C       -0.5370896962    1.0171064916   -0.6719839082
N        0.8607658081    1.4070944616   -0.4981620312
H        2.3077559124    0.3016450101    0.6729857735
H        0.9710852169   -2.0012104038   -0.2336885622
H       -1.2579350316   -0.9382415393   -1.7168379973
H       -2.1135230234    0.2824559688    0.8185747500
H       -1.1921936222    1.8161413550   -1.0062256364
C        0.1464092376   -0.3673373449    1.1191188662
H        0.5599291044   -0.5071290046    2.1093709600
13   
From optimize.out: Frame 8 / 19, Energy=    -286.8102267050
C        1.4345871039    0.2860682027    0.0496407745
C        0.6237354000   -0.9688977427   -0.1536776581
C       -0.6755858422   -0.4537695054   -1.0032957740
C       -1.1143278668    0.1032532773    0.4466988170
C       -0.5458357550    0.9946559700   -0.6749368902
N        0.8865766043    1.4036416850   -0.5263725796
H        2.2828588885    0.2786642147    0.7250886794
H        0.9431125219   -2.0083232314   -0.1856038060
H       -1.2851831855   -0.9194260547   -1.7861084708
H       -2.1216333401    0.2466749085    0.8242702651
H       -1.2024922947    1.8199578866   -0.9423901859
C        0.1560092086   -0.3290572765    1.1262463166
H        0.6181785571   -0.4534423342    2.1004405118
13   
From optimize.out: Frame 6 / 19, Energy=    -286.7928827523
C        1.4607257956    0.2820495516    0.0514010296
C        0.6317022971   -0.9667081519   -0.1515405196
C       -0.6940363361   -0.4551779393   -1.0730888030
C       -1.1228627898    0.0855042685    0.4572986862
C       -0.5576750554    0.9737574229   -0.6832051232
N        0.9249910866    1.4061032788   -0.5477410028
H        2.2637453435    0.2521557425    0.7784038383
H        0.9328107547   -2.0117067173   -0.1510967871
H       -1.3289804965   -0.9039036174   -1.8689423930
H       -2.1299547027    0.2172683912    0.8452741812
H       -1.2181944420    1.8150292476   -0.8987671728
C        0.1661667971   -0.2925334028    1.1399192562
H        0.6715617481   -0.4018380743    2.1020848101
13   
From optimize.out: Frame 4 / 19, Energy=    -286.7557894188
C        1.4926092304    0.2799810693    0.0632866655
C        0.6427368128   -0.9681625855   -0.1499378479
C       -0.7206446570   -0.4594787053   -1.1403772542
C       -1.1348524000    0.0735693778    0.4687555596
C       -0.5711929472    0.9595256911   -0.6955388175
N        0.9693396211    1.4151885329   -0.5613487885
H        2.2528835082    0.2278366981    0.8311242858
H        0.9333200076   -2.0157741901   -0.1268908117
H       -1.3875954849   -0.8987874056   -1.9595911707
H       -2.1411370303    0.1959270605    0.8700427889
H       -1.2381410464    1.8101213133   -0.8716528488
C        0.1787247908   -0.2619353469    1.1586552683
H        0.7239495950   -0.3580115095    2.1134729713
13   
From optimize.out: Frame 2 / 19, Energy=    -286.6905882509
C        1.5287108165    0.2794329088    0.0801749350
C        0.6529649635   -0.9718879872   -0.1494502685
C       -0.7497259708   -0.4664563605   -1.2011046649
C       -1.1500901895    0.0624303642    0.4768965757
C       -0.5820787542    0.9522583408   -0.7089634561
N        1.0122975832    1.4262935085   -0.5688915630
H        2.2471085480    0.2081111418    0.8829978718
H        0.9353497946   -2.0215642671   -0.1089188112
H       -1.4560248889   -0.9033917923   -2.0520332238
H       -2.1572105651    0.1767218490    0.8900758005
H       -1.2562911564    1.8103375074   -0.8512604641
C        0.1948855290   -0.2353642104    1.1792382888
H        0.7801042901   -0.3169210031    2.1312389796
13   
C6H6N->C6H6N atoms 1-13 frame 193 charge +0.000 sz -1.000 sz^2 0.798
C        1.5379308217    0.2857157445    0.0751814302
C        0.6484227858   -0.9741026325   -0.1572566864
C       -0.7586061286   -0.4477571229   -1.2498905719
C       -1.1537947197    0.0645496676    0.4772686366
C       -0.5770187847    0.9730046998   -0.7266211873
N        1.0411165757    1.4428877795   -0.5607795668
H        2.2062479328    0.1828612565    0.9080539060
H        0.9588511922   -2.0112480277   -0.1060616666
H       -1.4874760435   -0.9552286996   -2.0731126882
H       -2.1528509932    0.1793737062    0.9207498477
H       -1.2619204083    1.8149114651   -0.8536611067
C        0.1902142388   -0.2436785892    1.1918303100
H        0.8088835310   -0.3112892474    2.1542993434
13   
C6H6N->C6H6N atoms 1-13 frame 195 charge -0.000 sz -1.000 sz^2 0.770
C        1.5191270489    0.2980355174    0.0495897144
C        0.6315991626   -0.9746660457   -0.1703309636
C       -0.7518112507   -0.4062650717   -1.2877376093
C       -1.1461485396    0.0798927525    0.4752253928
C       -0.5628748684    1.0149702449   -0.7466000070
N        1.0565112525    1.4644962860   -0.5404395646
H        2.1463901283    0.1549855397    0.9021172022
H        1.0041005589   -1.9876749439   -0.1162507311
H       -1.4728511031   -1.0397402235   -2.0188939007
H       -2.1251922787    0.2032432196    0.9658245032
H       -1.2583584784    1.8204660751   -0.8825508676
C        0.1647048423   -0.2845821505    1.1972646933
H        0.7948035254   -0.3431611997    2.1727821378
13   
C6H6N->C6H6N atoms 1-13 frame 197 charge -0.000 sz -1.000 sz^2 0.747
C        1.4964030411    0.3094615336    0.0230700866
C        0.6133528373   -0.9756558356   -0.1814761585
C       -0.7471555886   -0.3679191553   -1.3181024530
C       -1.1380393265    0.0942791703    0.4757762265
C       -0.5514868296    1.0537194379   -0.7632554915
N        1.0676032019    1.4827550599   -0.5195331520
H        2.1057415150    0.1347952182    0.8879786072
H        1.0499933457   -1.9677701062   -0.1294538231
H       -1.4430404312   -1.1135044653   -1.9450449972
H       -2.0937782003    0.2265787782    1.0101056885
H       -1.2563913770    1.8296756719   -0.9191015388
C        0.1383964459   -0.3287659611    1.2013366833
H        0.7584013663   -0.3776493465    2.1777003220
13   
C6H6N->C6H6N atoms 1-13 frame 199 charge -0.000 sz -1.000 sz^2 0.725
C        1.4714803328    0.3188582439   -0.0030980099
C        0.5949857467   -0.9775325295   -0.1894346696
C       -0.7441928299   -0.3359820387   -1.3396278467
C       -1.1294411435    0.1066851771    0.4794047092
C       -0.5427656597    1.0863637179   -0.7762376008
N        1.0743002536    1.4964874039   -0.4990619422
H        2.0855304965    0.1232375366    0.8670652139
H        1.0942601993   -1.9519629256   -0.1450291777
H       -1.4011469559   -1.1727266764   -1.8573803711
H       -2.0605388949    0.2485544733    1.0503667709
H       -1.2582578670    1.8449080069   -0.9616394466
C        0.1121771104   -0.3750331777    1.2045558377
H        0.7036092118   -0.4118572118    2.1701165328
13   
C6H6N->C6H6N atoms 1-13 frame 201 charge +0.000 sz -1.000 sz^2 0.713
C        1.4458536759    0.3255929799   -0.0278194398
C        0.5775303578   -0.9805575601   -0.1937449249
C       -0.7420841691   -0.3118115154   -1.3524925419
C       -1.1203507903    0.1166641790    0.4859519718
C       -0.5363431580    1.1119571972   -0.7858581240
N        1.0769881587    1.5056031537   -0.4793713839
H        2.0829739332    0.1201604071    0.8395297265
H        1.1349314106   -1.9384125985   -0.1626324932
H       -1.3510764925   -1.2164611246   -1.7623835511
H       -2.0277507756    0.2691852808    1.0845795130
H       -1.2633138421    1.8652838900   -1.0081375865
C        0.0861164088   -0.4227218157    1.2070618666
H        0.6365252827   -0.4444824734    2.1553169675
13   
C6H6N->C6H6N atoms 1-13 frame 203 charge -0.000 sz -1.000 sz^2 0.715
C        1.4202591743    0.3295338389   -0.0506196147
C        0.5615314831   -0.9846884755   -0.1945902699
C       -0.7399041776   -0.2952240848   -1.3576258132
C       -1.1107411854    0.1242742731    0.4949582929
C       -0.5319541273    1.1310782507   -0.7928043010
N        1.0759392221    1.5108009447   -0.4601979961
H        2.0941823274    0.1252292988    0.8042306925
H        1.1707793409   -1.9243466061   -0.1826515977
H       -1.2960682553   -1.2457055679   -1.6648449977
H       -1.9974495258    0.2892664531    1.1118134628
H       -1.2686807109    1.8878768304   -1.0570930945
C        0.0593246811   -0.4721696454    1.2083604249
H        0.5627817534   -0.4759255102    2.1410648116
13   
C6H6N->C6H6N atoms 1-13 frame 205 charge -0.000 sz -1.000 sz^2 0.724
C        1.3950336385    0.3309280357   -0.0714703608
C        0.5472864117   -0.9895591853   -0.1926009924
C       -0.7367161711   -0.2850526984   -1.3562913498
C       -1.1005998705    0.1299043562    0.5057526271
C       -0.5294038521    1.1451180005   -0.7979076150
N        1.0712794918    1.5132506460   -0.4410355546
H        2.1152968686    0.1379755853    0.7597710592
H        1.2012724135   -1.9072183010   -0.2058874205
H       -1.2390634802   -1.2629612190   -1.5683201861
H       -1.9713547063    0.3099835875    1.1317912225
H       -1.2707151171    1.9092648504   -1.1072647046
C        0.0305478422   -0.5241279062    1.2074269380
H        0.4871365311   -0.5075057519    2.1360363370
13   
C6H6N->C6H6N atoms 1-13 frame 207 charge -0.000 sz -1.000 sz^2 0.739
C        1.3708708778    0.3300567024   -0.0900940025
C        0.5354691213   -0.9945489823   -0.1882476161
C       -0.7314817622   -0.2803489344   -1.3490873337
C       -1.0898984508    0.1339173240    0.5177975704
C       -0.5285853952    1.1550936589   -0.8016463438
N        1.0628569107    1.5140569232   -0.4215521698
H        2.1436827895    0.1583104586    0.7048826036
H        1.2257537008   -1.8851518871   -0.2330516656
H       -1.1835687955   -1.2708691238   -1.4765667706
H       -1.9512973520    0.3325099778    1.1439096881
H       -1.2659110518    1.9262857805   -1.1569189005
C       -0.0009922127   -0.5788994977    1.2031229066
H        0.4131016202   -0.5404124002    2.1474520338
13   
C6H6N->C6H6N atoms 1-13 frame 209 charge -0.000 sz -1.000 sz^2 0.746
C        1.3491646705    0.3274670469   -0.1057853623
C        0.5272431943   -0.9986939598   -0.1816886271
C       -0.7230894932   -0.2801305719   -1.3361759625
C       -1.0785899248    0.1368475444    0.5308223511
C       -0.5292107989    1.1618199076   -0.8041012813
N        1.0506803316    1.5144309085   -0.4016898578
H        2.1769901043    0.1858009731    0.6397521868
H        1.2438612772   -1.8573745498   -0.2638828344
H       -1.1343652362   -1.2733381436   -1.3937383328
H       -1.9386922421    0.3579013418    1.1479075657
H       -1.2515677495    1.9362278139   -1.2032897677
C       -0.0348944719   -0.6355876344    1.1951695136
H        0.3424703389   -0.5753706765    2.1767004086
13   
C6H6N->C6H6N atoms 1-13 frame 211 charge -0.000 sz -1.000 sz^2 0.740
C        1.3315289120    0.3240646305   -0.1176795570
C        0.5238427573   -1.0008368771   -0.1725817023
C       -0.7105521333   -0.2833716486   -1.3173814243
C       -1.0666167671    0.1395350008    0.5450403797
C       -0.5307326077    1.1660024804   -0.8050543607
N        1.0349992534    1.5155697277   -0.3815005381
H        2.2133170402    0.2194884506    0.5661978526
H        1.2562795103   -1.8246057376   -0.2969262784
H       -1.0961810818   -1.2751878538   -1.3224042833
H       -1.9335876295    0.3870824536    1.1443407235
H       -1.2267804215    1.9376832491   -1.2436678096
C       -0.0698771117   -0.6924634917    1.1847637126
H        0.2743602792   -0.6129603840    2.2168532851
13   
C6H6N->C6H6N atoms 1-13 frame 213 charge +0.000 sz -1.000 sz^2 0.724
C        1.3192237097    0.3209447544   -0.1250541430
C        0.5261418502   -0.9998652262   -0.1601765902
C       -0.6931335552   -0.2893533716   -1.2922751120
C       -1.0540620117    0.1429826268    0.5609838191
C       -0.5325154267    1.1680840250   -0.8042539323
N        1.0159966541    1.5183766605   -0.3610592650
H        2.2515218954    0.2580893154    0.4867178930
H        1.2647924870   -1.7889762873   -0.3301762629
H       -1.0723941396   -1.2801731933   -1.2629832635
H       -1.9346347160    0.4206896371    1.1340445680
H       -1.1926929652    1.9309146321   -1.2766985328
C       -0.1047529392   -0.7478172256    1.1740082086
H        0.2065091573   -0.6538963473    2.2569226129
13   
C6H6N->C6H6N atoms 1-13 frame 215 charge -0.000 sz -1.000 sz^2 0.697
C        1.3130875969    0.3192223544   -0.1274025162
C        0.5345536525   -0.9948669808   -0.1436259337
C       -0.6704273660   -0.2979832855   -1.2603895543
C       -1.0413157143    0.1480885847    0.5791237354
C       -0.5339814780    1.1680054799   -0.8016089978
N        0.9936441622    1.5232546951   -0.3406793807
H        2.2909417314    0.2999143525    0.4040061900
H        1.2718087738   -1.7538642005   -0.3615427345
H       -1.0648675223   -1.2892642320   -1.2150920440
H       -1.9396572650    0.4586427828    1.1176067448
H       -1.1524359504    1.9177120333   -1.3027418826
C       -0.1387802015   -0.8001315326    1.1651138432
H        0.1374295807   -0.6987300514    2.2872325304
13   
C6H6N->C6H6N atoms 1-13 frame 217 charge +0.000 sz -1.000 sz^2 0.670
C        1.3135942924    0.3199208072   -0.1244913902
C        0.5490310074   -0.9852876276   -0.1222600989
C       -0.6424399905   -0.3097956624   -1.2213933949
C       -1.0290451093    0.1554504544    0.5996370958
C       -0.5346286593    1.1651593264   -0.7972233898
N        0.9678217009    1.5300102523   -0.3210678628
H        2.3310234579    0.3427989799    0.3207522046
H        1.2797236058   -1.7233095673   -0.3889801153
H       -1.0738299672   -1.3002566683   -1.1784543162
H       -1.9461412694    0.4998472261    1.0954713510
H       -1.1108606655    1.9011368000   -1.3238491706
C       -0.1715254506   -0.8480684357    1.1600174116
H        0.0672770475   -0.7476058850    2.3018416758
13   
C6H6N->C6H6N atoms 1-13 frame 219 charge +0.000 sz -1.000 sz^2 0.644
C        1.3208631912    0.3239019164   -0.1164992076
C        0.5691036484   -0.9710544390   -0.0959132240
C       -0.6096280133   -0.3255679279   -1.1753050023
C       -1.0180098589    0.1652852209    0.6222725443
C       -0.5340313067    1.1586500324   -0.7913759254
N        0.9385399582    1.5379154693   -0.3032930998
H        2.3710190118    0.3843141376    0.2393317937
H        1.2899529227   -1.7006966350   -0.4105023726
H       -1.0976175133   -1.3087363362   -1.1530046716
H       -1.9517678426    0.5422835081    1.0683319662
H       -1.0734954155    1.8846851926   -1.3432169269
C       -0.2026869338   -0.8905593556    1.1600661347
H       -0.0022418481   -0.8004207836    2.2991079914
13   
C6H6N->C6H6N atoms 1-13 frame 221 charge +0.000 sz -1.000 sz^2 0.626
C        1.3346226324    0.3318523098   -0.1042415320
C        0.5939140679   -0.9525720626   -0.0653020357
C       -0.5729238487   -0.3457003884   -1.1227576089
C       -1.0088739031    0.1774882061    0.6462318059
C       -0.5319253955    1.1478297724   -0.7845731565
N        0.9060877951    1.5459606390   -0.2886602172
H        2.4098198148    0.4221889386    0.1614154870
H        1.3021057613   -1.6873333924   -0.4242861782
H       -1.1326780285   -1.3097317331   -1.1387131418
H       -1.9550106506    0.5835159803    1.0373349248
H       -1.0447188910    1.8705697242   -1.3637565860
C       -0.2320511524   -0.9269198186    1.1655492928
H       -0.0683682017   -0.8571481754    2.2817589459
13   
C6H6N->C6H6N atoms 1-13 frame 223 charge +0.000 sz -1.000 sz^2 0.621
C        1.3542786454    0.3443367508   -0.0892937478
C        0.6223718343   -0.9305025214   -0.0321006872
C       -0.5335762663   -0.3698611905   -1.0649804896
C       -1.0020789606    0.1918476200    0.6702296959
C       -0.5282957881    1.1326982503   -0.7776417485
N        0.8709057813    1.5531870223   -0.2785720212
H        2.4461860153    0.4548393880    0.0874408338
H        1.3141283090   -1.6820197671   -0.4290186519
H       -1.1741890801   -1.2990067446   -1.1354133062
H       -1.9555621955    0.6215693802    1.0038339229
H       -1.0262582472    1.8581331360   -1.3865699178
C       -0.2596627120   -0.9569800314    1.1753358503
H       -0.1282473354   -0.9182412925    2.2567502673
13   
C6H6N->C6H6N atoms 1-13 frame 225 charge -0.000 sz -1.000 sz^2 0.627
C        1.3791328768    0.3618598996   -0.0738966356
C        0.6533679827   -0.9055302477    0.0013282628
C       -0.4929869271   -0.3970876662   -1.0035768631
C       -0.9978493060    0.2082411907    0.6926818054
C       -0.5233163439    1.1138279536   -0.7717235308
N        0.8334202477    1.5588400235   -0.2745203005
H        2.4791202710    0.4815095404    0.0165577335
H        1.3232627646   -1.6819759937   -0.4241514209
H       -1.2167775008   -1.2733808988   -1.1427589488
H       -1.9543348721    0.6554777393    0.9690377872
H       -1.0174591946    1.8440148211   -1.4105819729
C       -0.2858937971   -0.9809514839    1.1869901716
H       -0.1796862013   -0.9848448780    2.2346139122
13   
C6H6N->C6H6N atoms 1-13 frame 227 charge +0.000 sz -1.000 sz^2 0.644
C        1.4082731739    0.3846271854   -0.0608100812
C        0.6856120283   -0.8785759412    0.0321000596
C       -0.4530676923   -0.4257867945   -0.9408798006
C       -0.9962533935    0.2265312581    0.7118075108
C       -0.5172500912    1.0922155268   -0.7681139869
N        0.7944646368    1.5622857506   -0.2780238057
H        2.5079046880    0.5018967797   -0.0521687337
H        1.3269461913   -1.6840640069   -0.4098839835
H       -1.2545353987   -1.2310777319   -1.1599007417
H       -1.9531831675    0.6850125469    0.9343486406
H       -1.0166650650    1.8238512273   -1.4330580292
C       -0.3110760190   -0.9989247177    1.1973682448
H       -0.2211698910   -1.0579910825    2.2272147066
13   
C6H6N->C6H6N atoms 1-13 frame 229 charge -0.000 sz -1.000 sz^2 0.671
C        1.4401390642    0.4119023268   -0.0526168234
C        0.7173778849   -0.8511966148    0.0574887454
C       -0.4165213431   -0.4537024950   -0.8801290369
C       -0.9971400213    0.2463018540    0.7261533152
C       -0.5104176188    1.0692396797   -0.7676874125
N        0.7558830781    1.5630270617   -0.2897981829
H        2.5322904193    0.5160823832   -0.1182718848
H        1.3237226554   -1.6856719363   -0.3871307819
H       -1.2813876475   -1.1732440882   -1.1843276613
H       -1.9544022478    0.7103555924    0.9019443571
H       -1.0219883996    1.7944423200   -1.4504698069
C       -0.3351712586   -1.0107414074    1.2040637657
H       -0.2523845652   -1.1367946762    2.2407814073
13   
C6H6N->C6H6N atoms 1-13 frame 231 charge +0.000 sz -1.000 sz^2 0.695
C        1.4730672321    0.4421686048   -0.0504287665
C        0.7472731944   -0.8250021066    0.0764791382
C       -0.3856931604   -0.4788230793   -0.8236205847
C       -1.0001575171    0.2671124239    0.7355966651
C       -0.5030406545    1.0460299195   -0.7702003533
N        0.7197283270    1.5608735506   -0.3089507105
H        2.5532567378    0.5248884236   -0.1806095869
H        1.3139109537   -1.6855545290   -0.3570328463
H       -1.2930604998   -1.1038695597   -1.2119068046
H       -1.9598186197    0.7323322701    0.8740444417
H       -1.0317286495    1.7549206426   -1.4599857814
C       -0.3583434468   -1.0166661181    1.2069197956
H       -0.2753938972   -1.2184104425    2.2696953935
13   
C6H6N->C6H6N atoms 1-13 frame 233 charge -0.000 sz -1.000 sz^2 0.704
C        1.5062188772    0.4740743540   -0.0539527041
C        0.7749117536   -0.8009045578    0.0897472984
C       -0.3617913471   -0.5000238334   -0.7715935180
C       -1.0050406849    0.2889248623    0.7411467075
C       -0.4950953767    1.0229272410   -0.7745398003
N        0.6873267267    1.5558704836   -0.3337576478
H        2.5729376245    0.5295905076   -0.2387954552
H        1.2990286662   -1.6840515164   -0.3202706298
H       -1.2877503182   -1.0271550001   -1.2389953328
H       -1.9702658656    0.7521634645    0.8520379253
H       -1.0451065605    1.7059529270   -1.4601205750
C       -0.3814672577   -1.0175134007    1.2073048617
H       -0.2939062377   -1.2998555314    2.3017888699
13   
C6H6N->C6H6N atoms 1-13 frame 235 charge +0.000 sz -1.000 sz^2 0.692
C        1.5393827132    0.5065591638   -0.0625149597
C        0.8004060304   -0.7793717788    0.0982815930
C       -0.3456769286   -0.5164252835   -0.7235567929
C       -1.0117486246    0.3120214204    0.7440094732
C       -0.4864067527    0.9998985169   -0.7792896853
N        0.6598748397    1.5482039447   -0.3624963988
H        2.5937644376    0.5314225367   -0.2928111119
H        1.2811533782   -1.6828183406   -0.2772886748
H       -1.2648073268   -0.9469264019   -1.2632577920
H       -1.9856485257    0.7708798140    0.8369421042
H       -1.0626357268    1.6491555891   -1.4502751074
C       -0.4058338342   -1.0140824170    1.2065330848
H       -0.3118236796   -1.3785167637    2.3257242676
13   
C6H6N->C6H6N atoms 1-13 frame 237 charge +0.000 sz -1.000 sz^2 0.657
C        1.5725729909    0.5384929551   -0.0754082658
C        0.8239092534   -0.7607900200    0.1027615591
C       -0.3383664971   -0.5268014839   -0.6792643913
C       -1.0203260659    0.3368269710    0.7453358242
C       -0.4767425390    0.9770329639   -0.7827700163
N        0.6392556666    1.5383325494   -0.3933721446
H        2.6179127862    0.5316030167   -0.3421941996
H        1.2629920809   -1.6847720535   -0.2287929282
H       -1.2244981307   -0.8679718209   -1.2835955362
H       -2.0048759977    0.7891837040    0.8299527218
H       -1.0861332562    1.5875080204   -1.4306037745
C       -0.4328032100   -1.0068896147    1.2053460357
H       -0.3328970814   -1.4517551876    2.3326051156
13   
C6H6N->C6H6N atoms 1-13 frame 239 charge -0.000 sz -1.000 sz^2 0.604
C        1.6059117354    0.5684038320   -0.0917353866
C        0.8455783583   -0.7456019264    0.1035471924
C       -0.3407061741   -0.5295531013   -0.6387771743
C       -1.0306252407    0.3637502541    0.7464250496
C       -0.4658679573    0.9547819574   -0.7828656050
N        0.6284131953    1.5271556949   -0.4242001461
H        2.6468730345    0.5316212519   -0.3854711090
H        1.2478593719   -1.6937074234   -0.1759462884
H       -1.1693472985   -0.7973465444   -1.3007510422
H       -2.0256694947    0.8074778288    0.8325073511
H       -1.1182996622    1.5257189322   -1.4020693961
C       -0.4634748779   -0.9962398976    1.2039973218
H       -0.3606449900   -1.5164608582    2.3153392329
13   
C6H6N->C6H6N atoms 1-13 frame 241 charge +0.000 sz -1.000 sz^2 0.542
C        1.6393315263    0.5941509414   -0.1101893870
C        0.8655473264   -0.7345346721    0.1007278426
C       -0.3526691231   -0.5230826894   -0.6024172269
C       -1.0419736741    0.3928378304    0.7489612770
C       -0.4537943336    0.9342233578   -0.7770181866
N        0.6313727471    1.5160431249   -0.4521542037
H        2.6808420064    0.5335644500   -0.4195154229
H        1.2389998989   -1.7125757002   -0.1206152796
H       -1.1063912469   -0.7456222143   -1.3184450398
H       -2.0445617087    0.8256414017    0.8459191643
H       -1.1608451337    1.4699442973   -1.3658182622
C       -0.4981138398   -0.9824842883    1.2023894409
H       -0.3977444451   -1.5681058392    2.2681752838
13   
C6H6N->C6H6N atoms 1-13 frame 243 charge -0.000 sz -1.000 sz^2 0.542
C        1.6716480579    0.6130413475   -0.1289514698
C        0.8836974834   -0.7285299901    0.0945323649
C       -0.3720776387   -0.5076402997   -0.5706144709
C       -1.0529593288    0.4231406150    0.7549100142
C       -0.4415438945    0.9172353907   -0.7633207038
N        0.6510525253    1.5064197500   -0.4743321942
H        2.7175953003    0.5399797934   -0.4403357788
H        1.2376668851   -1.7395078950   -0.0662924663
H       -1.0483408062   -0.7247693432   -1.3426857767
H       -2.0580457397    0.8425302577    0.8694377172
H       -1.2097828125    1.4259628575   -1.3226846930
C       -0.5350631333   -0.9665144438    1.2000891221
H       -0.4438468983   -1.6013480398    2.1902483351
13   
C6H6N->C6H6N atoms 1-13 frame 245 charge +0.000 sz -1.000 sz^2 0.623
C        1.7009365638    0.6241492283   -0.1468380095
C        0.8997317375   -0.7274924293    0.0857774583
C       -0.3949783051   -0.4870981356   -0.5433356602
C       -1.0623922260    0.4530445912    0.7650498560
C       -0.4309435425    0.9053409928   -0.7429176693
N        0.6846299204    1.4986846822   -0.4905719393
H        2.7532154557    0.5519809276   -0.4481017777
H        1.2414736179   -1.7670468143   -0.0170282103
H       -1.0041196308   -0.7368010772   -1.3745137900
H       -2.0659926403    0.8569169708    0.8987035807
H       -1.2553644624    1.3947093885   -1.2742588113
C       -0.5713356892   -0.9492275017    1.1962948778
H       -0.4948607990   -1.6171608234    2.0917400947
13   
C6H6N->C6H6N atoms 1-13 frame 247 charge -0.000 sz -1.000 sz^2 0.643
C        1.7264119291    0.6285056166   -0.1648628620
C        0.9137041461   -0.7304874223    0.0744445712
C       -0.4192642562   -0.4652978043   -0.5204584554
C       -1.0702327042    0.4821800672    0.7788002808
C       -0.4231808418    0.8990660119   -0.7180892589
N        0.7277941880    1.4923046090   -0.5036810365
H        2.7857456328    0.5697981206   -0.4462935676
H        1.2476187142   -1.7890499356    0.0253483023
H       -0.9726177994   -0.7759567791   -1.4082769141
H       -2.0711809197    0.8689482562    0.9298770078
H       -1.2907320323    1.3735982278   -1.2221246389
C       -0.6057228785   -0.9298223179    1.1895304823
H       -0.5483431781   -1.6237866501    1.9857860890
13   
C6H6N->C6H6N atoms 1-13 frame 249 charge -0.000 sz -1.000 sz^2 0.626
C        1.7483919421    0.6277937228   -0.1857564024
C        0.9261688142   -0.7362780998    0.0595360663
C       -0.4446848114   -0.4448287276   -0.5019608501
C       -1.0770588033    0.5117887752    0.7951471309
C       -0.4186993964    0.8985507538   -0.6906447327
N        0.7779275515    1.4865952600   -0.5179570001
H        2.8153674842    0.5943030624   -0.4387072232
H        1.2548802646   -1.8022028578    0.0610840081
H       -0.9485791280   -0.8356551615   -1.4357300595
H       -2.0770602277    0.8799921531    0.9606986750
H       -1.3132696479    1.3597540515   -1.1678860748
C       -0.6386390547   -0.9056455670    1.1777159265
H       -0.6047449872   -1.6341673649    1.8844605361
13   
C6H6N->C6H6N atoms 1-13 frame 251 charge +0.000 sz -1.000 sz^2 0.615
C        1.7667850644    0.6231704977   -0.2120243963
C        0.9375342077   -0.7436630947    0.0402733337
C       -0.4708480119   -0.4286023421   -0.4884098834
C       -1.0831959158    0.5429226855    0.8131779529
C       -0.4178286587    0.9042216022   -0.6621063123
N        0.8326325657    1.4812426230   -0.5372969966
H        2.8420482146    0.6265613317   -0.4280105910
H        1.2636411965   -1.8043630261    0.0900713100