13   
From optimize.out: Frame 75 / 76, Energy=    -286.9243284656
C        1.6430415288    0.2517533261   -0.3050692177
C        1.0642046043   -0.9753976222   -0.5713972358
C       -0.3064529218   -1.3746060039   -0.3775472847
C       -1.3192000719   -0.6072962177    0.1161753099
C       -0.1283336741    1.5926929323    0.5530850075
N        1.1640834210    1.4159503896    0.1908179326
H        2.7086628982    0.3143887595   -0.5368511541
H        1.7308187863   -1.7307544369   -0.9805400205
H       -0.5475501081   -2.3965966251   -0.6631259082
H       -2.3011701463   -1.0697558055    0.1938153130
H       -0.3135031152    2.6031266689    0.9240976694
C       -1.2357163788    0.7655138271    0.5467332376
H       -2.1588848222    1.2109808076    0.9098063506
13   
From optimize.out: Frame 74 / 76, Energy=    -286.9243267944
C        1.6431648840    0.2521601989   -0.3054015331
C        1.0645542328   -0.9757078026   -0.5700945723
C       -0.3060022542   -1.3745007046   -0.3765773387
C       -1.3197440954   -0.6077223557    0.1161917043
C       -0.1289283336    1.5918553280    0.5534263725
N        1.1639678857    1.4159504082    0.1893720137
H        2.7085568332    0.3150893679   -0.5382264424
H        1.7314907890   -1.7310487920   -0.9786770957
H       -0.5478293413   -2.3958853584   -0.6639436347
H       -2.3024606649   -1.0687980597    0.1915800612
H       -0.3133908454    2.6026158826    0.9238556883
C       -1.2355090745    0.7653050211    0.5466377104
H       -2.1578700153    1.2106868665    0.9118570667
13   
From optimize.out: Frame 73 / 76, Energy=    -286.9243244729
C        1.6434864435    0.2521077646   -0.3058917065
C        1.0648969020   -0.9759367798   -0.5689691571
C       -0.3059786013   -1.3738814117   -0.3761587349
C       -1.3201938867   -0.6074424287    0.1162184568
C       -0.1289079654    1.5913077243    0.5532035133
N        1.1635518065    1.4161306890    0.1872763678
H        2.7087100608    0.3154305361   -0.5393034786
H        1.7318680289   -1.7320025522   -0.9761288804
H       -0.5472976171   -2.3950007697   -0.6650645804
H       -2.3030937992   -1.0684720933    0.1892861723
H       -0.3134512048    2.6019893983    0.9239265493
C       -1.2361476763    0.7652995185    0.5468195084
H       -2.1574424907    1.2104704046    0.9147859701
13   
From optimize.out: Frame 72 / 76, Energy=    -286.9243200302
C        1.6434413899    0.2527800667   -0.3083009975
C        1.0657104539   -0.9764150964   -0.5673966356
C       -0.3056339765   -1.3733921602   -0.3750391562
C       -1.3207521433   -0.6068450621    0.1153331986
C       -0.1288748801    1.5907611773    0.5525882771
N        1.1623606477    1.4167510449    0.1841087595
H        2.7086435343    0.3168108571   -0.5415681743
H        1.7325725378   -1.7342518754   -0.9714084395
H       -0.5476838498   -2.3940001692   -0.6653540217
H       -2.3036442822   -1.0682871040    0.1863032848
H       -0.3133877842    2.5997419623    0.9281115443
C       -1.2363891565    0.7655234947    0.5458077555
H       -2.1563624909    1.2108228643    0.9168146050
13   
From optimize.out: Frame 71 / 76, Energy=    -286.9243135088
C        1.6431588699    0.2524749834   -0.3095588055
C        1.0665257811   -0.9771227668   -0.5654634865
C       -0.3057199631   -1.3732926896   -0.3742602577
C       -1.3212445132   -0.6060230668    0.1141545722
C       -0.1288805472    1.5909955967    0.5514190525
N        1.1610411310    1.4173082293    0.1813109396
H        2.7077283908    0.3179550005   -0.5452042960
H        1.7343191110   -1.7357813207   -0.9663906603
H       -0.5471141763   -2.3935370448   -0.6664271605
H       -2.3043901107   -1.0671483363    0.1846873844
H       -0.3117912204    2.5980807781    0.9331097656
C       -1.2372280635    0.7659114855    0.5445098072
H       -2.1564046893    1.2101791516    0.9181131450
13   
From optimize.out: Frame 70 / 76, Energy=    -286.9243030513
C        1.6423926071    0.2526880805   -0.3112202080
C        1.0669154595   -0.9776792567   -0.5633523743
C       -0.3058786235   -1.3741831015   -0.3731830861
C       -1.3212195369   -0.6055807655    0.1127331946
C       -0.1284998042    1.5922251472    0.5497921663
N        1.1600580522    1.4191507051    0.1786336688
H        2.7067616501    0.3184571715   -0.5474720906
H        1.7350991168   -1.7372650244   -0.9619522928
H       -0.5473754903   -2.3933936456   -0.6686139095
H       -2.3044858352   -1.0664894755    0.1841857894
H       -0.3111045322    2.5967714721    0.9383462517
C       -1.2366347981    0.7657648210    0.5442726576
H       -2.1560282654    1.2095338719    0.9178302328
13   
From optimize.out: Frame 69 / 76, Energy=    -286.9242975585
C        1.6420554178    0.2525137063   -0.3111734983
C        1.0668273108   -0.9779020731   -0.5625478811
C       -0.3061416532   -1.3749159615   -0.3731879581
C       -1.3210305386   -0.6056153836    0.1122863810
C       -0.1284674136    1.5930108944    0.5487454701
N        1.1597163528    1.4201854274    0.1775132499
H        2.7064243771    0.3181832212   -0.5473184519
H        1.7356779061   -1.7372244277   -0.9606280804
H       -0.5475517783   -2.3934961459   -0.6706167708
H       -2.3046264525   -1.0657299276    0.1847811514
H       -0.3106083875    2.5970343505    0.9388218500
C       -1.2363009216    0.7653217024    0.5449425710
H       -2.1559742193    1.2086346172    0.9183819673
13   
From optimize.out: Frame 68 / 76, Energy=    -286.9242903507
C        1.6418057414    0.2523501442   -0.3104470483
C        1.0667323507   -0.9779350653   -0.5613910723
C       -0.3061054349   -1.3754346145   -0.3735628452
C       -1.3205665201   -0.6060902293    0.1118324385
C       -0.1288384687    1.5946209131    0.5478628292
N        1.1597152061    1.4221519434    0.1752903414
H        2.7063945545    0.3168442328   -0.5455636168
H        1.7351849494   -1.7378831288   -0.9590122655
H       -0.5490881422   -2.3923267163   -0.6749939275
H       -2.3036154652   -1.0669350633    0.1854480718
H       -0.3105666954    2.5990825708    0.9368185239
C       -1.2352570344    0.7644578420    0.5473622835
H       -2.1557950412    1.2070971711    0.9203562874
13   
From optimize.out: Frame 67 / 76, Energy=    -286.9242809209
C        1.6419145566    0.2522580601   -0.3099216331
C        1.0667049703   -0.9778333350   -0.5608840711
C       -0.3060054914   -1.3762089916   -0.3743441594
C       -1.3194930059   -0.6067914849    0.1120469817
C       -0.1293543140    1.5950587658    0.5463958900
N        1.1591798686    1.4238089036    0.1732484517
H        2.7071735921    0.3158045937   -0.5420149063
H        1.7351919764   -1.7377520913   -0.9586158549
H       -0.5508069542   -2.3916343119   -0.6788334523
H       -2.3033399081   -1.0657932321    0.1859946964
H       -0.3105315036    2.6005649410    0.9327108590
C       -1.2348222668    0.7630056480    0.5507570077
H       -2.1558115198    1.2055125346    0.9234601906
13   
From optimize.out: Frame 66 / 76, Energy=    -286.9242643481
C        1.6434253764    0.2506214957   -0.3079748548
C        1.0671222028   -0.9782702492   -0.5613669143
C       -0.3058618860   -1.3772198900   -0.3744685985
C       -1.3202376079   -0.6059868752    0.1140861047
C       -0.1281694087    1.5957359242    0.5448342689
N        1.1593095217    1.4239830818    0.1717763946
H        2.7088122085    0.3144955984   -0.5388234596
H        1.7379313410   -1.7347219570   -0.9620984419
H       -0.5546251292   -2.3912636301   -0.6801228064
H       -2.3046427999   -1.0638696601    0.1885924727
H       -0.3164261359    2.6002232702    0.9305947670
C       -1.2328547208    0.7619238423    0.5519781537
H       -2.1537829622    1.2043490490    0.9229929139
13   
From optimize.out: Frame 65 / 76, Energy=    -286.9241720202
C        1.6415763720    0.2544043030   -0.3114216750
C        1.0623986377   -0.9761069218   -0.5609441464
C       -0.3093785998   -1.3781071499   -0.3695787022
C       -1.3250715360   -0.6073508842    0.1102461589
C       -0.1243652764    1.5957740976    0.5500666290
N        1.1656516981    1.4245777277    0.1748318012
H        2.7060744334    0.3141622952   -0.5481759803
H        1.7280875796   -1.7356355872   -0.9639729053
H       -0.5293065669   -2.4000086925   -0.6715779243
H       -2.3123751644   -1.0572383909    0.1908535319
H       -0.3149843862    2.5950229218    0.9476967862
C       -1.2323949971    0.7634785645    0.5441384148
H       -2.1559121942    1.2070277166    0.9078380114
13   
From optimize.out: Frame 64 / 76, Energy=    -286.9241662993
C        1.6425483828    0.2551718345   -0.3078123543
C        1.0662429223   -0.9778693620   -0.5591411115
C       -0.3038334784   -1.3752552778   -0.3751497597
C       -1.3218371283   -0.6067046077    0.1083726974
C       -0.1332721368    1.5973210345    0.5440768566
N        1.1605678606    1.4256632710    0.1613044837
H        2.7098065645    0.3115915434   -0.5339421786
H        1.7335615170   -1.7398766775   -0.9546195028
H       -0.5527447297   -2.3867164741   -0.6890336212
H       -2.3018753062   -1.0714265410    0.1875297398
H       -0.3049697341    2.6056286945    0.9261858277
C       -1.2348912473    0.7617499804    0.5615356857
H       -2.1593034864    1.2007225817    0.9306932372
13   
From optimize.out: Frame 63 / 76, Energy=    -286.9240373693
C        1.6410575027    0.2550240300   -0.3022533521
C        1.0629049563   -0.9806574205   -0.5556057190
C       -0.3097918024   -1.3727874639   -0.3868674970
C       -1.3256546524   -0.6112645170    0.1067980177
C       -0.1338168003    1.6000585322    0.5355883598
N        1.1583657188    1.4300321535    0.1442837324
H        2.7111673166    0.3060671262   -0.5172655206
H        1.7412873895   -1.7403774206   -0.9370468677
H       -0.5526446620   -2.3804543096   -0.7178249937
H       -2.3080212670   -1.0700852370    0.1899802864
H       -0.3185112020    2.6124233829    0.8998724731
C       -1.2261524535    0.7536357288    0.5762718106
H       -2.1401900445    1.1983854149    0.9640692702
13   
From optimize.out: Frame 62 / 76, Energy=    -286.9239514258
C        1.6407226499    0.2555369738   -0.2997342843
C        1.0626956355   -0.9819374061   -0.5541444464
C       -0.3097124529   -1.3720456606   -0.3886452683
C       -1.3251211370   -0.6126607682    0.1055083045
C       -0.1351374839    1.6005373038    0.5337000023
N        1.1577360271    1.4305921648    0.1415197593
H        2.7109749527    0.3061539097   -0.5149547005
H        1.7425978661   -1.7417536507   -0.9328616459
H       -0.5581945608   -2.3768442390   -0.7241917658
H       -2.3065753805   -1.0734217072    0.1893899040
H       -0.3241391125    2.6134184948    0.8938745683
C       -1.2224929289    0.7519999137    0.5784659868
H       -2.1333540750    1.2004246711    0.9720735858
13   
From optimize.out: Frame 61 / 76, Energy=    -286.9238617507
C        1.6435437275    0.2584689110   -0.3033323481
C        1.0662722886   -0.9811502961   -0.5544055764
C       -0.3042770660   -1.3701132381   -0.3890142993
C       -1.3244410285   -0.6095908054    0.1048345560
C       -0.1360794201    1.6001670295    0.5369651955
N        1.1541866377    1.4292880256    0.1328116741
H        2.7143931644    0.3084447397   -0.5167557208
H        1.7356936465   -1.7539936509   -0.9247345922
H       -0.5539039902   -2.3738456848   -0.7282180440
H       -2.3105316059   -1.0604862704    0.1905896340
H       -0.3271483697    2.6128903418    0.8975763041
C       -1.2199702274    0.7501156996    0.5837915044
H       -2.1377377567    1.1898051986    0.9698917128
13   
From optimize.out: Frame 59 / 76, Energy=    -286.9236985369
C        1.6424129161    0.2532877442   -0.3013463407
C        1.0666859589   -0.9832238395   -0.5495795424
C       -0.3124791533   -1.3653870306   -0.4024368148
C       -1.3276685466   -0.6157647548    0.1073147728
C       -0.1368528235    1.6042605913    0.5232342664
N        1.1557104347    1.4354490287    0.1283770490
H        2.7158737655    0.3013168515   -0.4998310148
H        1.7466246183   -1.7514059592   -0.9113752761
H       -0.5599865196   -2.3650111825   -0.7525088350
H       -2.3120171425   -1.0707098012    0.1848469069
H       -0.3309490616    2.6233327370    0.8620428638
C       -1.2214263136    0.7481377532    0.5980969959
H       -2.1259281329    1.1857178619    1.0131649689
13   
From optimize.out: Frame 58 / 76, Energy=    -286.9235058686
C        1.6431834696    0.2511685683   -0.2990562357
C        1.0665855454   -0.9769131315   -0.5498964562
C       -0.3151413386   -1.3664521381   -0.4084491302
C       -1.3286361503   -0.6237905215    0.1182234164
C       -0.1356274187    1.6074804084    0.5216978493
N        1.1523068774    1.4441224465    0.1268582980
H        2.7183183889    0.2983704678   -0.4844155766
H        1.7425323715   -1.7503680602   -0.9089185021
H       -0.5640822428   -2.3600126706   -0.7729887010
H       -2.3133916814   -1.0782940010    0.1940916461
H       -0.3203307840    2.6342881188    0.8430909897
C       -1.2208499474    0.7396882107    0.6025835634
H       -2.1248670897    1.1807123024    1.0171788390
13   
From optimize.out: Frame 57 / 76, Energy=    -286.9232984940
C        1.6453124957    0.2396681418   -0.2920801034
C        1.0668566861   -0.9779487797   -0.5471245380
C       -0.3173859331   -1.3590766080   -0.4191705980
C       -1.3182551884   -0.6169983694    0.1268379891
C       -0.1349466663    1.6071331024    0.5143443197
N        1.1396915066    1.4457734047    0.1073821923
H        2.7217685526    0.2879865739   -0.4631957524
H        1.7411632780   -1.7551983207   -0.9014413203
H       -0.5577765893   -2.3479442999   -0.8003285947
H       -2.3098532797   -1.0595194711    0.1865778739
H       -0.3344685605    2.6422393961    0.8010671649
C       -1.2171172632    0.7305216616    0.6340628627
H       -2.1249890387    1.1633635682    1.0530685043
13   
From optimize.out: Frame 56 / 76, Energy=    -286.9228425796
C        1.6456673855    0.2314578465   -0.2810966678
C        1.0639961349   -0.9756502395   -0.5514036020
C       -0.3215611188   -1.3588225793   -0.4285929370
C       -1.3124569242   -0.6161639644    0.1432789074
C       -0.1337499730    1.6091270495    0.5101150503
N        1.1230984172    1.4485185950    0.0944763239
H        2.7248746926    0.2823801179   -0.4276897556
H        1.7407209816   -1.7515798009   -0.9050805752
H       -0.5623162988   -2.3379349122   -0.8338129928
H       -2.3061811771   -1.0561886461    0.1994250714
H       -0.3371685538    2.6544538047    0.7582105662
C       -1.2092120372    0.7163794922    0.6528912727
H       -2.1157115290    1.1540232367    1.0692793384
13   
From optimize.out: Frame 55 / 76, Energy=    -286.9225197039
C        1.6487053597    0.2262786927   -0.2744308109
C        1.0647730815   -0.9757793406   -0.5509848875
C       -0.3224256050   -1.3539813156   -0.4303132726
C       -1.3093063813   -0.6129602436    0.1522508532
C       -0.1308291916    1.6093431924    0.5101766022
N        1.1155392754    1.4470201716    0.0847723707
H        2.7285789111    0.2797762889   -0.4136611244
H        1.7383520740   -1.7532397544   -0.9072869115
H       -0.5676350518   -2.3262822535   -0.8502296705
H       -2.3014981103   -1.0588042996    0.1991796558
H       -0.3450074548    2.6588525223    0.7333004962
C       -1.2047783735    0.7115916665    0.6684241063
H       -2.1144685333    1.1481846731    1.0788025928
13   
From optimize.out: Frame 54 / 76, Energy=    -286.9222134760
C        1.6550364063    0.2224897832   -0.2683730821
C        1.0677336295   -0.9773173023   -0.5545003841
C       -0.3210357661   -1.3523528443   -0.4310335940
C       -1.3119341746   -0.6033454270    0.1616616629
C       -0.1305767216    1.6089377772    0.4988534585
N        1.1139239570    1.4435125229    0.0832501842
H        2.7362208256    0.2778584321   -0.3958892971
H        1.7411287000   -1.7530230588   -0.9158628448
H       -0.5776861478   -2.3162219178   -0.8634325774
H       -2.2959198727   -1.0704253721    0.1959380994
H       -0.3500768038    2.6612361030    0.7032455884
C       -1.2097613794    0.7105789868    0.6894931688
H       -2.1170526523    1.1480723170    1.0966496175
13   
From optimize.out: Frame 52 / 76, Energy=    -286.9214315184
C        1.6421115597    0.2212066293   -0.2623618602
C        1.0660600052   -0.9770927433   -0.5586743319
C       -0.3205326004   -1.3596446810   -0.4390076593
C       -1.2971805495   -0.6094861604    0.1590505073
C       -0.1390438195    1.6120118047    0.5030729019
N        1.0936539893    1.4434550545    0.0732755946
H        2.7250087322    0.2738717303   -0.3747695785
H        1.7430494682   -1.7539008152   -0.9126396772
H       -0.5678622921   -2.3186555592   -0.8827110106
H       -2.3007410693   -1.0301082544    0.2229865391
H       -0.3507661302    2.6679285753    0.6939864452
C       -1.1938551878    0.6990434161    0.6754367297
H       -2.0999021057    1.1313710032    1.1023554000
13   
From optimize.out: Frame 51 / 76, Energy=    -286.9206984947
C        1.6538696602    0.2157862321   -0.2449912050
C        1.0663215334   -0.9755723082   -0.5518397401
C       -0.3343193072   -1.3444695431   -0.4514989830
C       -1.3057246998   -0.5912238582    0.1644650185
C       -0.1161279314    1.6161593963    0.4968121839
N        1.1000000485    1.4444190772    0.0543053047
H        2.7380373647    0.2688092616   -0.3437559467
H        1.7378409890   -1.7539255843   -0.9087580418
H       -0.5952263319   -2.2971405850   -0.9069229161
H       -2.2818690525   -1.0768279390    0.1968526617
H       -0.3745208354    2.6735748599    0.6184296792
C       -1.1943049716    0.7092978110    0.7105455092
H       -2.0939764660    1.1111131797    1.1663564755
13   
From optimize.out: Frame 50 / 76, Energy=    -286.9189043184
C        1.6646480793    0.2186181893   -0.2303907060
C        1.0763464983   -0.9743631244   -0.5434708355
C       -0.3313029602   -1.3409661878   -0.4717970773
C       -1.3142923377   -0.5926039152    0.1643750390
C       -0.1153982084    1.5976033319    0.4768766504
N        1.0910948701    1.4452926299    0.0296722152
H        2.7496927381    0.2790609047   -0.3080510612
H        1.7460310851   -1.7565719017   -0.8935621775
H       -0.6019387108   -2.2891257492   -0.9362497281
H       -2.3219327779   -1.0087226389    0.1760944838
H       -0.4324980485    2.6462050940    0.5234224893
C       -1.1647715079    0.6915447948    0.7546493838
H       -2.0456787195    1.0840285726    1.2584313240
13   
From optimize.out: Frame 49 / 76, Energy=    -286.9148202444
C        1.6757055793    0.2192318037   -0.2207401208
C        1.0782632342   -0.9713270237   -0.5308224262
C       -0.3359167473   -1.3191519764   -0.4834698595
C       -1.3387072454   -0.5766088993    0.1612183219
C       -0.1105100363    1.5901581850    0.4655543846
N        1.0853996998    1.4442273458    0.0091335770
H        2.7605313172    0.2874362765   -0.2865247239
H        1.7369354052   -1.7647386345   -0.8746929142
H       -0.6133638363   -2.2690730244   -0.9476071648
H       -2.3300447965   -1.0288721483    0.1248900312
H       -0.4709821960    2.6271450770    0.4452107128
C       -1.1367175159    0.6878625170    0.7992534367
H       -2.0005928618    1.0737105014    1.3385967451
13   
From optimize.out: Frame 48 / 76, Energy=    -286.9095153537
C        1.6865543736    0.2255981922   -0.2068984377
C        1.0794065484   -0.9636308758   -0.5184511136
C       -0.3379190919   -1.3002666352   -0.4987708410
C       -1.3628565986   -0.5727325045    0.1625551572
C       -0.1157238932    1.5739977598    0.4416190368
N        1.0791002063    1.4476330525   -0.0143135543
H        2.7724981665    0.2967884170   -0.2483650971
H        1.7358734255   -1.7596332271   -0.8600408431
H       -0.6285921405   -2.2491278604   -0.9618151673
H       -2.3612001935   -1.0043034447    0.0891338465
H       -0.5105585085    2.5965811751    0.3535429350
C       -1.1030146905    0.6638229485    0.8392066201
H       -1.9335676036    1.0452730026    1.4225974586
13   
From optimize.out: Frame 47 / 76, Energy=    -286.9060160971
C        1.6931594550    0.2226759232   -0.2088237493
C        1.0826442546   -0.9666304089   -0.5049363304
C       -0.3343567964   -1.2790971369   -0.4846801793
C       -1.3676196091   -0.5626736688    0.1582651287
C       -0.1260339526    1.5696641721    0.4417300983
N        1.0730282065    1.4338687668   -0.0000573145
H        2.7785316301    0.3005565124   -0.2534919332
H        1.7348352676   -1.7578907652   -0.8660348588
H       -0.6333112370   -2.2271919341   -0.9451369134
H       -2.3727942537   -0.9664370674    0.0305328653
H       -0.5454938413    2.5739455028    0.2801148477
C       -1.0826905814    0.6406711546    0.8800661732
H       -1.8998985423    1.0185389495    1.4724521657
13   
From optimize.out: Frame 46 / 76, Energy=    -286.9024795792
C        1.6966342501    0.2199955880   -0.1887975836
C        1.0891873859   -0.9684555668   -0.4754795898
C       -0.3351953075   -1.2538745941   -0.4875281357
C       -1.3554512579   -0.5340577723    0.1466739441
C       -0.1162893166    1.5627188422    0.4223976602
N        1.0566553715    1.4232968653   -0.0272127649
H        2.7793802898    0.3089425343   -0.2639240280
H        1.7396269653   -1.7594586800   -0.8381505387
H       -0.6626950972   -2.1961259112   -0.9439052922
H       -2.3637178237   -0.9103763445   -0.0335237273
H       -0.5505161179    2.5507963205    0.2047770663
C       -1.0703900171    0.6203226999    0.9389587250
H       -1.9072293247    0.9362760187    1.5457142646
13   
From optimize.out: Frame 45 / 76, Energy=    -286.8981397934
C        1.7053449964    0.2174487129   -0.1890114386
C        1.0994109936   -0.9779900512   -0.4624124291
C       -0.3235366881   -1.2448598040   -0.4681200943
C       -1.3340384534   -0.5062440509    0.1423423485
C       -0.1293005567    1.5470496945    0.4079493971
N        1.0580604875    1.4080610028   -0.0088216377
H        2.7858311541    0.3143142936   -0.2859410848
H        1.7456727411   -1.7645204177   -0.8421383016
H       -0.6794366126   -2.1736530819   -0.9307015721
H       -2.3511312050   -0.8311379829   -0.0896811452
H       -0.5777518346    2.5145167424    0.1356885351
C       -1.0722206418    0.6039806220    1.0020610824
H       -1.9269043806    0.8930343205    1.5887863401
13   
From optimize.out: Frame 44 / 76, Energy=    -286.8958706451
C        1.6818922020    0.2210466468   -0.1729673129
C        1.0947042477   -0.9949051914   -0.4427219564
C       -0.3088683545   -1.2426661342   -0.4872350390
C       -1.3237401210   -0.4899506376    0.1223271155
C       -0.1839362431    1.5267932954    0.3767195223
N        1.0219437091    1.4022786980   -0.0463658511
H        2.7629703440    0.3205277665   -0.2604111077
H        1.7476075750   -1.7832061926   -0.8064900533
H       -0.6643770018   -2.1645493358   -0.9529265395
H       -2.3520926167   -0.7623697013   -0.1327762749
H       -0.6559254592    2.4766818631    0.0896671796
C       -1.0272229370    0.5741778134    1.0133563434
H       -1.7929553445    0.9161411098    1.6998239741
13   
From optimize.out: Frame 43 / 76, Energy=    -286.8897980604
C        1.6754320266    0.2189494561   -0.1684487745
C        1.0987658401   -1.0107169592   -0.4224697816
C       -0.2973616866   -1.2348323955   -0.4795684840
C       -1.2937023151   -0.4553031532    0.1082906822
C       -0.2147836667    1.5063804837    0.3525811020
N        1.0045193066    1.3860255806   -0.0488778579
H        2.7542606198    0.3255531998   -0.2737616430
H        1.7541117031   -1.7956175117   -0.7899711035
H       -0.6742749728   -2.1437902845   -0.9501708145
H       -2.3244207892   -0.6686434290   -0.1928663496
H       -0.7029825253    2.4343659436    0.0296666316
C       -1.0129040221    0.5520404650    1.0651975441
H       -1.7666595183    0.8855886042    1.7703988488
13   
From optimize.out: Frame 42 / 76, Energy=    -286.8820946198
C        1.6685660209    0.2208568102   -0.1637303788
C        1.0994668417   -1.0265893187   -0.4087460792
C       -0.2847039153   -1.2311705220   -0.4815933230
C       -1.2660113225   -0.4153499899    0.0947572878
C       -0.2546666404    1.4759368734    0.3209782676
N        0.9932624299    1.3746590730   -0.0602977880
H        2.7471059891    0.3289915884   -0.2730444997
H        1.7588021379   -1.8112112893   -0.7701474246
H       -0.6760408821   -2.1300033272   -0.9559424382
H       -2.2977829853   -0.5757369733   -0.2344015991
H       -0.7594569484    2.3854893101   -0.0218015724
C       -0.9978401031    0.5364728409    1.1118809806
H       -1.7307006224    0.8676549247    1.8420885671
13   
From optimize.out: Frame 41 / 76, Energy=    -286.8739373268
C        1.6628184140    0.2228673796   -0.1600872728
C        1.0998066242   -1.0405674684   -0.3952798707
C       -0.2736832020   -1.2263159227   -0.4793632619
C       -1.2376570973   -0.3755979110    0.0831561647
C       -0.2907910972    1.4464440040    0.2923264448
N        0.9838209263    1.3632726337   -0.0642514726
H        2.7406895176    0.3326422993   -0.2764443195
H        1.7620045125   -1.8242658757   -0.7541795436
H       -0.6822361543   -2.1137493818   -0.9573695782
H       -2.2663144189   -0.4842459531   -0.2757456761
H       -0.8100718656    2.3361767492   -0.0740784404
C       -0.9850278377    0.5184173714    1.1568681041
H       -1.7033583216    0.8449220756    1.9044487222
13   
From optimize.out: Frame 40 / 76, Energy=    -286.8663453095
C        1.6585337195    0.2296537571   -0.1573850222
C        1.0993937780   -1.0518267975   -0.3865958564
C       -0.2643215918   -1.2284575503   -0.4822207801
C       -1.2201184729   -0.3307104754    0.0686282357
C       -0.3306784379    1.3995648804    0.2614175232
N        0.9778262262    1.3571966509   -0.0720850638
H        2.7366201598    0.3414352162   -0.2744348079
H        1.7667076089   -1.8349443716   -0.7376433397
H       -0.6799640593   -2.1120108857   -0.9597973396
H       -2.2473578882   -0.4032080489   -0.3004256392
H       -0.8592315090    2.2790201015   -0.1123688086
C       -0.9651706048    0.5169529653    1.1951091390
H       -1.6722389284    0.8373345583    1.9578017595
13   
From optimize.out: Frame 39 / 76, Energy=    -286.8610582040
C        1.6558051010    0.2362231456   -0.1588285228
C        1.0979299655   -1.0600942202   -0.3841609373
C       -0.2558508299   -1.2293607822   -0.4852341654
C       -1.2015344643   -0.2856763617    0.0529373842
C       -0.3667583629    1.3550737926    0.2342785501
N        0.9737908246    1.3511426698   -0.0748359697
H        2.7347027885    0.3496169001   -0.2726419821
H        1.7680337127   -1.8457195621   -0.7238164086
H       -0.6762727867   -2.1133940201   -0.9568825238
H       -2.2282554035   -0.3325373906   -0.3178575536
H       -0.8988287920    2.2303673697   -0.1413073047
C       -0.9495355369    0.5110077773    1.2324852157
H       -1.6532262161    0.8333506818    1.9958642181
13   
From optimize.out: Frame 38 / 76, Energy=    -286.8594467000
C        1.6628907965    0.2401172409   -0.1738684773
C        1.1013992154   -1.0619479889   -0.3921931460
C       -0.2496836089   -1.2269358729   -0.4702200429
C       -1.1870353611   -0.2463565488    0.0353939854
C       -0.3748368591    1.3216306166    0.2296743458
N        0.9810837496    1.3446377682   -0.0668326927
H        2.7403612552    0.3569064571   -0.3011852497
H        1.7672597762   -1.8552282595   -0.7201269673
H       -0.6743615236   -2.1225357651   -0.9181489166
H       -2.2107885611   -0.2807082064   -0.3419850697
H       -0.9053332664    2.2071513297   -0.1244905938
C       -0.9530397265    0.5048694571    1.2583060349
H       -1.6979158861    0.8183997720    1.9856767899
13   
From optimize.out: Frame 37 / 76, Energy=    -286.8585553650
C        1.6738847141    0.2409150933   -0.1943139205
C        1.1055266828   -1.0642854705   -0.4085961852
C       -0.2447092914   -1.2200687721   -0.4493627972
C       -1.1674699478   -0.2071191321    0.0257217330
C       -0.3725686140    1.3005204020    0.2300986469
N        0.9967477431    1.3380314732   -0.0473691232
H        2.7513295416    0.3575456498   -0.3254927372
H        1.7666336572   -1.8637393321   -0.7304918016
H       -0.6827027584   -2.1217054196   -0.8746828278
H       -2.1860995100   -0.2593523022   -0.3612492752
H       -0.8944147384    2.1975054912   -0.1080785368
C       -0.9730290096    0.5039057939    1.2851867796
H       -1.7731284693    0.7978465253    1.9586300451
13   
From optimize.out: Frame 36 / 76, Energy=    -286.8581085283
C        1.6756500981    0.2436120274   -0.2047906227
C        1.1045669719   -1.0642687681   -0.4033031449
C       -0.2435865689   -1.2209944401   -0.4364906374
C       -1.1628524725   -0.1955259974    0.0147420866
C       -0.3679933452    1.2881727464    0.2304908965
N        0.9998967450    1.3381084837   -0.0484530391
H        2.7502057215    0.3637009036   -0.3548172427
H        1.7623950161   -1.8668952464   -0.7224901788
H       -0.6793570173   -2.1303375012   -0.8485206920
H       -2.1776733539   -0.2301838666   -0.3837921078
H       -0.8949693728    2.1939501782   -0.0752221949
C       -0.9751099571    0.4901119064    1.2916115300
H       -1.7911724650    0.7905495743    1.9410353472
13   
From optimize.out: Frame 35 / 76, Energy=    -286.8575158343
C        1.6739020656    0.2466763389   -0.1931906042
C        1.1042822102   -1.0598958122   -0.4342279312
C       -0.2353483537   -1.2212331487   -0.4394149786
C       -1.1653920359   -0.1966255256    0.0282081295
C       -0.3911994551    1.2679672712    0.2031903390
N        0.9963184571    1.3277461307   -0.0161026878
H        2.7559475476    0.3608362572   -0.2895260296
H        1.7620011912   -1.8529078366   -0.7756826087
H       -0.6773296642   -2.1251062508   -0.8577598556
H       -2.1901921058   -0.2637385982   -0.3405699770
H       -0.9148645497    2.1663834611   -0.1270783027
C       -0.9632271225    0.4993953944    1.2936297342
H       -1.7548981846    0.8505023186    1.9485247724
13   