13   
From optimize.out: Frame 2 / 3, Energy=    -286.9243314289
C        1.6431329238    0.2517776087   -0.3059571969
C        1.0642442768   -0.9748677233   -0.5728345177
C       -0.3068272871   -1.3733568129   -0.3797523760
C       -1.3200475464   -0.6066957568    0.1137917984
C       -0.1287348719    1.5924820701    0.5524193761
N        1.1636096499    1.4160364070    0.1897144410
H        2.7090460581    0.3142418390   -0.5362642282
H        1.7316775731   -1.7312655204   -0.9787915224
H       -0.5471643950   -2.3969706960   -0.6599756655
H       -2.3015167042   -1.0696662860    0.1946813900
H       -0.3134121442    2.6018633285    0.9267050488
C       -1.2359467621    0.7655315592    0.5453335050
H       -2.1580607705    1.2108899828    0.9109299469
13   
From optimize.out: Frame 1 / 3, Energy=    -286.9243284570
C        1.6430415289    0.2517533261   -0.3050692172
C        1.0642046041   -0.9753976218   -0.5713972367
C       -0.3064529221   -1.3746060034   -0.3775472862
C       -1.3192000720   -0.6072962175    0.1161753092
C       -0.1283336739    1.5926929317    0.5530850092
N        1.1640834212    1.4159503892    0.1908179343
H        2.7086628983    0.3143887596   -0.5368511535
H        1.7308187860   -1.7307544362   -0.9805400222
H       -0.5475501085   -2.3965966243   -0.6631259108
H       -2.3011701465   -1.0697558052    0.1938153117
H       -0.3135031148    2.6031266680    0.9240976722
C       -1.2357163787    0.7655138268    0.5467332383
H       -2.1588848221    1.2109808071    0.9098063517
13   
From optimize.out: Frame 75 / 76, Energy=    -286.9243284656
C        1.6430415289    0.2517533261   -0.3050692172
C        1.0642046041   -0.9753976218   -0.5713972367
C       -0.3064529221   -1.3746060034   -0.3775472862
C       -1.3192000720   -0.6072962175    0.1161753092
C       -0.1283336739    1.5926929317    0.5530850092
N        1.1640834212    1.4159503892    0.1908179343
H        2.7086628983    0.3143887596   -0.5368511535
H        1.7308187860   -1.7307544362   -0.9805400222
H       -0.5475501085   -2.3965966243   -0.6631259108
H       -2.3011701465   -1.0697558052    0.1938153117
H       -0.3135031148    2.6031266680    0.9240976722
C       -1.2357163787    0.7655138268    0.5467332383
H       -2.1588848221    1.2109808071    0.9098063517
13   
From optimize.out: Frame 74 / 76, Energy=    -286.9243267944
C        1.6424781925    0.2551656063   -0.3075546344
C        1.0660865687   -0.9779992246   -0.5589772873
C       -0.3041119147   -1.3751400327   -0.3756971424
C       -1.3220151817   -0.6069182904    0.1083007824
C       -0.1332975380    1.5974489131    0.5436803290
N        1.1604645569    1.4258679468    0.1605074501
H        2.7098693507    0.3113344426   -0.5331661760
H        1.7339221105   -1.7398993366   -0.9538004456
H       -0.5527399802   -2.3864239584   -0.6903787898
H       -2.3021619048   -1.0713647880    0.1876472254
H       -0.3056025516    2.6059461289    0.9249563924
C       -1.2344823538    0.7613701742    0.5622261254
H       -2.1584093545    1.2006124187    0.9322561710
13   
From optimize.out: Frame 72 / 76, Energy=    -286.9243200302
C        1.6425419213    0.2538904892   -0.3015847969
C        1.0666365653   -0.9829816088   -0.5501450709
C       -0.3115293433   -1.3659344756   -0.4008819163
C       -1.3272932842   -0.6150517295    0.1070339453
C       -0.1367628007    1.6037857795    0.5248268221
N        1.1555325521    1.4347370263    0.1288859300
H        2.7156991937    0.3021468112   -0.5018052678
H        1.7453563297   -1.7517022487   -0.9129334410
H       -0.5592825861   -2.3660344647   -0.7496948494
H       -2.3118425584   -1.0695292657    0.1855232117
H       -0.3305080969    2.6221220069    0.8661625460
C       -1.2212556044    0.7483644885    0.5964473432
H       -2.1272922881    1.1861871914    1.0081655439
13   
From optimize.out: Frame 71 / 76, Energy=    -286.9243135088
C        1.6454869113    0.2355815388   -0.2866185048
C        1.0654300068   -0.9768006276   -0.5492646537
C       -0.3194659341   -1.3589502191   -0.4238645352
C       -1.3153641663   -0.6165856663    0.1350370526
C       -0.1343505608    1.6081256046    0.5122400750
N        1.1314220660    1.4471434329    0.1009465812
H        2.7233125366    0.2851997775   -0.4455236119
H        1.7409407667   -1.7533906358   -0.9032680694
H       -0.5600386609   -2.3429576568   -0.8170102992
H       -2.3080202125   -1.0578652267    0.1929924768
H       -0.3358143443    2.6483231509    0.7797206958
C       -1.2131760685    0.7234723673    0.6434523845
H       -2.1203623399    1.1587041603    1.0611604083
13   
From optimize.out: Frame 70 / 76, Energy=    -286.9243030513
C        1.6485445286    0.2218512795   -0.2653695601
C        1.0668917500   -0.9772005853   -0.5566060286
C       -0.3207824757   -1.3560143778   -0.4350351153
C       -1.3045238204   -0.6064327919    0.1603617860
C       -0.1348284972    1.6104802308    0.5009742166
N        1.1037434895    1.4434872858    0.0782339154
H        2.7305875832    0.2758663312   -0.3853101864
H        1.7420907848   -1.7534572266   -0.9142613816
H       -0.5727541502   -2.3174449412   -0.8731078711
H       -2.2983349678   -1.0501923449    0.2095369672
H       -0.3504255881    2.6645942942    0.6986022552
C       -1.2017721542    0.7047831343    0.6824473940
H       -2.1084364825    1.1396797118    1.0995336086
13   
From optimize.out: Frame 68 / 76, Energy=    -286.9242903507
C        1.6538958796    0.2158028815   -0.2449740784
C        1.0663479373   -0.9755648883   -0.5518273453
C       -0.3343095031   -1.3444631398   -0.4515472731
C       -1.3057435808   -0.5912346534    0.1644860525
C       -0.1161278528    1.6161072803    0.4967501891
N        1.0999669520    1.4444280934    0.0542127863
H        2.7380643692    0.2688530750   -0.3436940608
H        1.7378613763   -1.7539268137   -0.9087327207
H       -0.5952456943   -2.2971244733   -0.9069896678
H       -2.2819753161   -1.0766442495    0.1968303129
H       -0.3746939657    2.6734963789    0.6181512929
C       -1.1942137155    0.7092426768    0.7106870028
H       -2.0938268862    1.1110278324    1.1666475098
13   
From optimize.out: Frame 67 / 76, Energy=    -286.9242809209
C        1.6638352109    0.2184201236   -0.2315220615
C        1.0755936224   -0.9744476043   -0.5441140982
C       -0.3315269910   -1.3412344849   -0.4702626473
C       -1.3136428103   -0.5925116305    0.1644166075
C       -0.1154563046    1.5989925002    0.4783574361
N        1.0917478393    1.4452375957    0.0314771493
H        2.7488119436    0.2783177286   -0.3107852150
H        1.7454143645   -1.7563646756   -0.8947254581
H       -0.6014377650   -2.2897370694   -0.9340273537
H       -2.3189253232   -1.0138322331    0.1777070498
H       -0.4281772973    2.6482504371    0.5305130782
C       -1.1669675004    0.6928663013    0.7513754555
H       -2.0492689889    1.0860430115    1.2515900572
13   
From optimize.out: Frame 66 / 76, Energy=    -286.9242643481
C        1.6760030066    0.2194293065   -0.2204031071
C        1.0782912154   -0.9711036490   -0.5304917343
C       -0.3359720556   -1.3186287775   -0.4838736083
C       -1.3393783348   -0.5765133800    0.1613054157
C       -0.1106627584    1.5897063170    0.4648581070
N        1.0852040538    1.4443371111    0.0084165028
H        2.7608575361    0.2877306145   -0.2855340777
H        1.7369001930   -1.7645853581   -0.8743066153
H       -0.6137958471   -2.2685298571   -0.9479579609
H       -2.3309096702   -1.0282040032    0.1239647207
H       -0.4721203140    2.6262810326    0.4425948437
C       -1.1357480548    0.6871799765    0.8004086347
H       -1.9986689700    1.0729006669    1.3410188788
13   
From optimize.out: Frame 64 / 76, Energy=    -286.9241662993
C        1.6865887360    0.2255990794   -0.2069785587
C        1.0794238026   -0.9636454633   -0.5183798459
C       -0.3378939032   -1.3001357626   -0.4986365864
C       -1.3628748234   -0.5726804327    0.1625872253
C       -0.1158016002    1.5739747435    0.4415939242
N        1.0790365699    1.4475541734   -0.0142833992
H        2.7725260092    0.2968505194   -0.2485088638
H        1.7358603935   -1.7596120872   -0.8601126877
H       -0.6286269939   -2.2490048955   -0.9616341625
H       -2.3612617054   -1.0040765177    0.0888381293
H       -0.5108237797    2.5964248945    0.3530076943
C       -1.1028537373    0.6636636967    0.8395155012
H       -1.9332989680    1.0450880520    1.4229916299
13   
From optimize.out: Frame 63 / 76, Energy=    -286.9240373693
C        1.6938279121    0.2221763043   -0.2049756153
C        1.0839234947   -0.9669808056   -0.4991825383
C       -0.3345190205   -1.2741685478   -0.4851925636
C       -1.3652160435   -0.5570826244    0.1560652423
C       -0.1241324928    1.5683105882    0.4379051134
N        1.0697905376    1.4318148898   -0.0054653506
H        2.7786813533    0.3022459631   -0.2556667745
H        1.7357697671   -1.7581876794   -0.8605983315
H       -0.6390745696   -2.2211342786   -0.9448124365
H       -2.3709957933   -0.9554853290    0.0180970301
H       -0.5465144745    2.5694019090    0.2652995016
C       -1.0802508994    0.6366825526    0.8916478540
H       -1.9012897713    1.0024070579    1.4868788688
13   
From optimize.out: Frame 62 / 76, Energy=    -286.9239514258
C        1.6980640984    0.2196060254   -0.1889287506
C        1.0908804543   -0.9700268841   -0.4733388713
C       -0.3332583545   -1.2524022537   -0.4842523900
C       -1.3518800560   -0.5294709553    0.1460428477
C       -0.1184610040    1.5601304881    0.4199584829
N        1.0568546983    1.4207932667   -0.0242623694
H        2.7804291386    0.3098885861   -0.2677308546
H        1.7406260483   -1.7602848008   -0.8388476526
H       -0.6654709613   -2.1924434154   -0.9416116703
H       -2.3616119791   -0.8972893669   -0.0426861615
H       -0.5550813876    2.5447724774    0.1932672887
C       -1.0706580988    0.6176176191    0.9494613020
H       -1.9104325968    0.9291092134    1.5529287990
13   
From optimize.out: Frame 59 / 76, Energy=    -286.9236985369
C        1.7016232617    0.2180571145   -0.1865885489
C        1.0986668592   -0.9806486187   -0.4593321457
C       -0.3212139186   -1.2445398494   -0.4710732313
C       -1.3323894426   -0.5037021454    0.1392805410
C       -0.1379486270    1.5438614526    0.4029671271
N        1.0523159612    1.4071762492   -0.0148682823
H        2.7821944456    0.3153621507   -0.2820890287
H        1.7459765649   -1.7674548760   -0.8365472253
H       -0.6770544299   -2.1722688671   -0.9340896206
H       -2.3512662020   -0.8203446363   -0.0963148369
H       -0.5901610887    2.5085291584    0.1283612009
C       -1.0650689469    0.5992813654    1.0038872832
H       -1.9056744370    0.8966915022    1.6064067677
13   
From optimize.out: Frame 58 / 76, Energy=    -286.9235058686
C        1.6844554040    0.2206957943   -0.1748551235
C        1.0952231266   -0.9930264898   -0.4449248308
C       -0.3104773288   -1.2429358855   -0.4850620740
C       -1.3248502554   -0.4917803221    0.1246383705
C       -0.1779434276    1.5290323330    0.3801104295
N        1.0258734321    1.4029452411   -0.0423558344
H        2.7654593737    0.3199189181   -0.2634195688
H        1.7473950887   -1.7811265439   -0.8104630375
H       -0.6660318427   -2.1656086612   -0.9503517871
H       -2.3519716264   -0.7700173693   -0.1278446225
H       -0.6473900487    2.4808305122    0.0946812269
C       -1.0321262420    0.5774657501    1.0121600001
H       -1.8076156536    0.9136067230    1.6876868516
13   
From optimize.out: Frame 57 / 76, Energy=    -286.9232984940
C        1.6766880856    0.2194172845   -0.1694799129
C        1.0979668484   -1.0075704647   -0.4265127062
C       -0.2996282193   -1.2364128846   -0.4810066108
C       -1.2996145865   -0.4621940420    0.1111850246
C       -0.2087134770    1.5104236011    0.3573020429
N        1.0079095273    1.3892726809   -0.0485195504
H        2.7559497392    0.3246477264   -0.2713478597
H        1.7528302846   -1.7931355880   -0.7932916571
H       -0.6723134135   -2.1479598468   -0.9505696170
H       -2.3298795785   -0.6872624687   -0.1807799278
H       -0.6937661454    2.4427071490    0.0414724889
C       -1.0156738307    0.5564259200    1.0550034540
H       -1.7717552341    0.8916409328    1.7565448315
13   
From optimize.out: Frame 55 / 76, Energy=    -286.9225197039
C        1.6702045131    0.2204575136   -0.1650289060
C        1.0993047961   -1.0227213095   -0.4121113263
C       -0.2877576302   -1.2320939152   -0.4810149378
C       -1.2726883757   -0.4250711094    0.0981658068
C       -0.2450459719    1.4833133173    0.3285740338
N        0.9959240852    1.3774500791   -0.0576902994
H        2.7488003698    0.3282618810   -0.2734735199
H        1.7576761255   -1.8074013902   -0.7750062662
H       -0.6756056392   -2.1334186254   -0.9543770957
H       -2.3042256954   -0.5983377020   -0.2241157963
H       -0.7458878531    2.3972895325   -0.0094001075
C       -1.0014142900    0.5402555109    1.1006387462
H       -1.7392844343    0.8720162173    1.8248396682
13   
From optimize.out: Frame 54 / 76, Energy=    -286.9222134760
C        1.6642320604    0.2224356249   -0.1611754961
C        1.0997335507   -1.0370346187   -0.3986994658
C       -0.2764312812   -1.2275745964   -0.4798219100
C       -1.2447348435   -0.3856150063    0.0862074114
C       -0.2817811448    1.4538384257    0.2994467609
N        0.9861135865    1.3661704826   -0.0634382938
H        2.7422542375    0.3318456162   -0.2758792137
H        1.7612175849   -1.8209534464   -0.7582436489
H       -0.6806729812   -2.1179128271   -0.9568193111
H       -2.2742008101   -0.5072993760   -0.2651338816
H       -0.7975098731    2.3484908106   -0.0610412844
C       -0.9881524663    0.5229616095    1.1456601675
H       -1.7100676198    0.8506473014    1.8889381656
13   
From optimize.out: Frame 51 / 76, Energy=    -286.9206984947
C        1.6592928982    0.2284857400   -0.1580771187
C        1.0994866352   -1.0497195467   -0.3882393496
C       -0.2660285641   -1.2281119031   -0.4815797529
C       -1.2233211951   -0.3390387226    0.0714586213
C       -0.3233840042    1.4081972791    0.2670445440
N        0.9788465693    1.3583650784   -0.0708434057
H        2.7373208840    0.3399497069   -0.2751231464
H        1.7658642900   -1.8329316274   -0.7407492967
H       -0.6803676737   -2.1124363511   -0.9591287558
H       -2.2508567557   -0.4182757062   -0.2956099004
H       -0.8503190614    2.2894892905   -0.1053878957
C       -0.9687279176    0.5172519743    1.1881358305
H       -1.6778061051    0.8387747880    1.9480996262
13   
From optimize.out: Frame 50 / 76, Energy=    -286.9189043184
C        1.6562023414    0.2365509271   -0.1599575844
C        1.0981622946   -1.0601695340   -0.3846916342
C       -0.2554555208   -1.2292691324   -0.4841900494
C       -1.2006287693   -0.2833562875    0.0520350784
C       -0.3673071525    1.3530360532    0.2339306652
N        0.9741406928    1.3508021781   -0.0745748559
H        2.7349925867    0.3502095576   -0.2747285876
H        1.7680174895   -1.8462461538   -0.7236485466
H       -0.6761360492   -2.1140708519   -0.9542737080
H       -2.2272100137   -0.3295515431   -0.3190356386
H       -0.8993809638    2.2288874284   -0.1403617592
C       -0.9496354595    0.5106761323    1.2341253914
H       -1.6557614763    0.8325012260    1.9953712288
13   
From optimize.out: Frame 49 / 76, Energy=    -286.9148202444
C        1.6689772545    0.2406580238   -0.1854894177
C        1.1037213897   -1.0632123063   -0.4013722717
C       -0.2468858147   -1.2231682831   -0.4584559368
C       -1.1761146665   -0.2245706936    0.0301709651
C       -0.3736333558    1.3098638291    0.2298371534
N        0.9897137373    1.3410187685   -0.0562331148
H        2.7464094615    0.3574200509   -0.3151023064
H        1.7669470907   -1.8599171989   -0.7259508945
H       -0.6789760483   -2.1222009717   -0.8936514470
H       -2.1970574158   -0.2689900991   -0.3524220942
H       -0.8994131491    2.2017051657   -0.1154359934
C       -0.9640540537    0.5043836852    1.2733571408
H       -1.7396344297    0.8070100295    1.9707482171
13   
From optimize.out: Frame 47 / 76, Energy=    -286.9060160971
C        1.6750501953    0.2446868058   -0.2013267348
C        1.1044980377   -1.0628366594   -0.4132027729
C       -0.2409297545   -1.2211289930   -0.4372764307
C       -1.1636461995   -0.1959559287    0.0192018571
C       -0.3754545441    1.2817246440    0.2217108635
N        0.9986578034    1.3348701759   -0.0383906416
H        2.7519690953    0.3629475140   -0.3343799550
H        1.7623058005   -1.8623825172   -0.7394974711
H       -0.6786697495   -2.1287977487   -0.8511783789
H       -2.1816952399   -0.2410709867   -0.3697108410
H       -0.9014774312    2.1850882311   -0.0918518947
C       -0.9711918019    0.4931274833    1.2923309456
H       -1.7794162115    0.8097279797    1.9435714546
13   
From optimize.out: Frame 46 / 76, Energy=    -286.9024795792
C        1.6747989190    0.2468039608   -0.2046767296
C        1.1063535821   -1.0640311634   -0.4389131714
C       -0.2336085363   -1.2273549318   -0.4357576948
C       -1.1629430835   -0.1878930796    0.0193803193
C       -0.3930822333    1.2607350516    0.1904516620
N        0.9951136050    1.3267890018   -0.0265363118
H        2.7562350112    0.3635079604   -0.2998577975
H        1.7640859615   -1.8608723265   -0.7721279340
H       -0.6715285711   -2.1396520457   -0.8374688431
H       -2.1849843988   -0.2732410883   -0.3530548983
H       -0.9277685724    2.1729657409   -0.0730973632
C       -0.9723244678    0.4950577931    1.2915791814
H       -1.7503472158    0.8871851266    1.9400795811
13   
From optimize.out: Frame 45 / 76, Energy=    -286.8981397934
C        1.6671230233    0.2480235772   -0.1928997803
C        1.1026523160   -1.0625629142   -0.4640633941
C       -0.2290213828   -1.2336336058   -0.4489668869
C       -1.1598099988   -0.1849446516    0.0261049200
C       -0.4148730178    1.2416889557    0.1463085899
N        0.9829333911    1.3213577975   -0.0121519317
H        2.7519008040    0.3618672571   -0.2435537894
H        1.7685488691   -1.8501604814   -0.8018820081
H       -0.6717604344   -2.1445467499   -0.8471106323
H       -2.1853221482   -0.3151178810   -0.3266004586
H       -0.9610349903    2.1530600611   -0.0901591565
C       -0.9682650054    0.4872099353    1.3011646702
H       -1.6830714257    0.9777587000    1.9538098579
13   
From optimize.out: Frame 43 / 76, Energy=    -286.8897980604
C        1.6527605934    0.2467523527   -0.1888517849
C        1.1003099075   -1.0661749065   -0.4861462589
C       -0.2263226883   -1.2503732545   -0.4637066388
C       -1.1506908012   -0.1862577574    0.0264732447
C       -0.4497541654    1.2228210377    0.1123650048
N        0.9559284160    1.3174271520   -0.0058495316
H        2.7374965047    0.3647724145   -0.2076937805
H        1.7736030429   -1.8503038491   -0.8177183702
H       -0.6617904498   -2.1680117141   -0.8489730246
H       -2.1796702561   -0.3407729561   -0.3081067645
H       -1.0123869255    2.1352324870   -0.0615555802
C       -0.9552103451    0.4891262099    1.2999016264
H       -1.5842728330    1.0857627840    1.9498618583
13   
From optimize.out: Frame 42 / 76, Energy=    -286.8820946198
C        1.6394221980    0.2444151973   -0.1727744795
C        1.0939855616   -1.0649418981   -0.5138502158
C       -0.2307655632   -1.2621236606   -0.4781900999
C       -1.1236138131   -0.1906327381    0.0436389712
C       -0.4802826366    1.2033071514    0.0804556780
N        0.9332491745    1.3155616274    0.0117740547
H        2.7250278317    0.3585137472   -0.1579955657
H        1.7738526052   -1.8374274436   -0.8595428458
H       -0.6648141777   -2.1830079414   -0.8536228744
H       -2.1591940972   -0.3582284265   -0.2734320608
H       -1.0639747558    2.1047629765   -0.0628714838
C       -0.9321043879    0.4886410181    1.3193719242
H       -1.5107879395    1.1811603905    1.9170389976
13   
From optimize.out: Frame 41 / 76, Energy=    -286.8739373268
C        1.6443140157    0.2490138826   -0.1668825916
C        1.0954499181   -1.0606322810   -0.5245217220
C       -0.2481268321   -1.2679675128   -0.4775294080
C       -1.0866667991   -0.1872831646    0.0623062746
C       -0.4753066795    1.1899267181    0.0515913070
N        0.9398293886    1.3161323484    0.0154866638
H        2.7287269991    0.3654192214   -0.1446299515
H        1.7772334209   -1.8248478004   -0.8897570056
H       -0.6913168783   -2.1904755016   -0.8356330133
H       -2.1253081997   -0.3148147120   -0.2718865782
H       -1.0715842082    2.0860646923   -0.0580042309
C       -0.9549397063    0.4342421308    1.3717012842
H       -1.5323044393    1.2052219788    1.8677589713
13   
From optimize.out: Frame 39 / 76, Energy=    -286.8610582040
C        1.6592549250    0.2622209931   -0.1596979322
C        1.0971485856   -1.0489696882   -0.5243080947
C       -0.2703466811   -1.2608389401   -0.4756551414
C       -1.0654391969   -0.1807024574    0.0826495334
C       -0.4501561170    1.1780315305    0.0255537436
N        0.9666801899    1.3179982956    0.0054892547
H        2.7414471082    0.3829560060   -0.1297667506
H        1.7769950997   -1.8123474221   -0.9009437185
H       -0.7314087789   -2.1770959383   -0.8268871303
H       -2.1007660664   -0.2648960726   -0.2753330831
H       -1.0535625819    2.0684017809   -0.0839918202
C       -0.9931322954    0.3600757524    1.4220455988
H       -1.5767141908    1.1751661602    1.8408455403
13   
From optimize.out: Frame 38 / 76, Energy=    -286.8594467000
C        1.6262008776    0.2400267202   -0.1507314369
C        1.0755491153   -1.0538245573   -0.5396200181
C       -0.2419342890   -1.2625660445   -0.4953066641
C       -1.0334447981   -0.1589079913    0.0789914907
C       -0.4562352579    1.1750830947    0.0063116234
N        0.9248667661    1.3317808198   -0.0016701168
H        2.7088922912    0.3555925140   -0.0937392026
H        1.7618610343   -1.8153353189   -0.9008521708
H       -0.6866475627   -2.1901437829   -0.8458894480
H       -2.0817603925   -0.2362377889   -0.2671613920
H       -1.0712271758    2.0591108066   -0.1002414113
C       -0.9743518724    0.3650653995    1.4552888750
H       -1.5517687362    1.1903561291    1.8546198714
13   
From optimize.out: Frame 37 / 76, Energy=    -286.8585553650
C        1.6228536711    0.2239673525   -0.1461443245
C        1.0750289089   -1.0549771265   -0.5413039618
C       -0.2242143284   -1.2492817957   -0.5070488572
C       -1.0273009111   -0.1369046830    0.0731910107
C       -0.4407984253    1.1858474685   -0.0217278385
N        0.9131189729    1.3444646322   -0.0188017648
H        2.7048129891    0.3362997929   -0.0680523207
H        1.7582497355   -1.8230554822   -0.8901361209
H       -0.6701957594   -2.1771743372   -0.8599907150
H       -2.0764194734   -0.2010823444   -0.2808640224
H       -1.0519215461    2.0731976132   -0.1410912247
C       -1.0017768170    0.3352736465    1.4891235313
H       -1.5814370168    1.1434252632    1.9128466084
13   
From optimize.out: Frame 35 / 76, Energy=    -286.8575158343
C        1.6392807998    0.2138595924   -0.1445422245
C        1.0873825440   -1.0532440036   -0.5331737400
C       -0.2158188599   -1.2274087566   -0.5113365287
C       -1.0343808237   -0.1162126029    0.0688666724
C       -0.4113352938    1.2018763129   -0.0541686925
N        0.9226782167    1.3557055596   -0.0416375137
H        2.7196677821    0.3253522520   -0.0525726030
H        1.7608150821   -1.8322776419   -0.8757126136
H       -0.6744591525   -2.1487344561   -0.8675325944
H       -2.0761527734   -0.1569285004   -0.3094490127
H       -1.0118282793    2.0967039219   -0.1934313359
C       -1.0595192005    0.2793827441    1.5271300016
H       -1.6463300416    1.0619255787    1.9875601851
13   
From optimize.out: Frame 34 / 76, Energy=    -286.8564568893
C        1.6629111229    0.2296822512   -0.1396736411
C        1.0944454283   -1.0398152917   -0.5258792370
C       -0.2481396113   -1.2100148638   -0.5097609821
C       -1.0471846696   -0.0945381976    0.0669843042
C       -0.4007052287    1.2297338891   -0.0720149014
N        0.9490480501    1.3496054966   -0.0600713745
H        2.7399612851    0.3417346004   -0.0372950382
H        1.7618062048   -1.8314332281   -0.8584036786
H       -0.7207584382   -2.1211099715   -0.8606996906
H       -2.0852708314   -0.1154248823   -0.3060582308
H       -0.9820414404    2.1344825230   -0.2130044331
C       -1.0689167563    0.1809123609    1.5052028808
H       -1.6551551153    0.9461853137    2.0106740225
13   
From optimize.out: Frame 33 / 76, Energy=    -286.8535070021
C        1.6828772339    0.2267835766   -0.1393077130
C        1.1056072526   -1.0357168942   -0.5163667318
C       -0.2504465077   -1.1893693811   -0.5078830538
C       -1.0531135996   -0.0754473267    0.0683590610
C       -0.3740270260    1.2449670624   -0.0928368571
N        0.9670787103    1.3559560250   -0.0790690784
H        2.7585758341    0.3386173603   -0.0322858197
H        1.7621451154   -1.8374302030   -0.8477378353
H       -0.7365960798   -2.0924967434   -0.8597425606
H       -2.0820286150   -0.0732690249   -0.3240330268
H       -0.9447333336    2.1563114046   -0.2450060021
C       -1.1197849833    0.1195867468    1.5227400954
H       -1.7155540012    0.8615073975    2.0531695222
13   
From optimize.out: Frame 31 / 76, Energy=    -286.8421837410
C        1.6983565766    0.2130220726   -0.1401160539
C        1.1176807488   -1.0366909366   -0.5071220055
C       -0.2352139205   -1.1670244215   -0.5077855465
C       -1.0544928254   -0.0573207089    0.0710212599
C       -0.3395716743    1.2534154412   -0.1164149173
N        0.9785159069    1.3702206646   -0.0978006040
H        2.7735941060    0.3231872612   -0.0284397218
H        1.7616399224   -1.8468335604   -0.8406243094
H       -0.7341502351   -2.0636087221   -0.8646988582
H       -2.0726677076   -0.0320959662   -0.3513904134
H       -0.9047185775    2.1686682340   -0.2879567102
C       -1.1893524552    0.0810981921    1.5625007457
H       -1.7996198650    0.7939624499    2.1088271345
13   
From optimize.out: Frame 30 / 76, Energy=    -286.8345086790
C        1.6914052444    0.2152716620   -0.1214975456
C        1.1103650891   -1.0259892907   -0.5166119985
C       -0.2443046846   -1.1494879937   -0.5291266452
C       -1.0556803718   -0.0311928408    0.0643753200
C       -0.3354602690    1.2785136712   -0.1485938530
N        0.9780827138    1.3813081003   -0.1096229930
H        2.7616529560    0.3136207787    0.0361143211
H        1.7566492097   -1.8442864246   -0.8245585614
H       -0.7511673869   -2.0388026863   -0.8917464189
H       -2.0852825063   -0.0062203798   -0.3278250611
H       -0.8890858261    2.1923134810   -0.3607502557
C       -1.1653679958    0.0247481002    1.5611910874
H       -1.7718061725    0.6902038223    2.1686526038
13   
From optimize.out: Frame 29 / 76, Energy=    -286.8284779528
C        1.6798057181    0.2190566790   -0.1005116084
C        1.1017773020   -1.0151615932   -0.5258545550
C       -0.2542306532   -1.1343364262   -0.5501409099
C       -1.0570719701   -0.0079227244    0.0594769705
C       -0.3349213863    1.2996963049   -0.1794123096
N        0.9734947149    1.3912976531   -0.1173370521
H        2.7428557804    0.3067809472    0.1032334101
H        1.7524035664   -1.8382180418   -0.8111673027
H       -0.7681165483   -2.0156151971   -0.9212693194
H       -2.0978739649    0.0191868602   -0.2998270812
H       -0.8772277646    2.2085072277   -0.4363078749
C       -1.1333851294   -0.0274003705    1.5575347933
H       -1.7275096650    0.5941286811    2.2215828393
13   
From optimize.out: Frame 27 / 76, Energy=    -286.8096712110
C        1.6647282067    0.2241325690   -0.0776459803
C        1.0918936049   -1.0036671294   -0.5341588902
C       -0.2644184251   -1.1191493543   -0.5711208172
C       -1.0590426973    0.0126076160    0.0557240518
C       -0.3387310094    1.3193301363   -0.2088006602
N        0.9662336196    1.4001234492   -0.1230678259
H        2.7187325257    0.3009234921    0.1717689963
H        1.7451180493   -1.8315660263   -0.7985275159
H       -0.7839871471   -1.9917068200   -0.9536761142
H       -2.1104134166    0.0345523789   -0.2693589219
H       -0.8704773678    2.2201197692   -0.5112998681
C       -1.0925905590   -0.0737457009    1.5518873405
H       -1.6670453839    0.5080456203    2.2682762052
13   
From optimize.out: Frame 26 / 76, Energy=    -286.8057799555
C        1.6461042284    0.2306093159   -0.0535064154
C        1.0809553831   -0.9921058898   -0.5414776309
C       -0.2749137940   -1.1053891639   -0.5918159879
C       -1.0622358584    0.0295311697    0.0533289189
C       -0.3467125513    1.3358612178   -0.2377543025
N        0.9556995343    1.4075582406   -0.1258502641
H        2.6893337852    0.2967346536    0.2405852539
H        1.7371035857   -1.8234468383   -0.7868416880
H       -0.7980968712   -1.9689354410   -0.9886928512
H       -2.1230193438    0.0422309151   -0.2373072033
H       -0.8686128147    2.2260120978   -0.5850656198
C       -1.0447123008   -0.1139359397    1.5450361097
H       -1.5908929826    0.4352756622    2.3093616807
13   
From optimize.out: Frame 25 / 76, Energy=    -286.7958477221
C        1.6238359266    0.2387433370   -0.0289769002
C        1.0689361684   -0.9814156065   -0.5472917063
C       -0.2861013677   -1.0950267740   -0.6112948894
C       -1.0664412515    0.0430031368    0.0528630900
C       -0.3575706358    1.3466306835   -0.2675374772
N        0.9411484127    1.4134478258   -0.1239126082
H        2.6547766927    0.2958371911    0.3080015518
H        1.7315374680   -1.8121376542   -0.7766540479
H       -0.8101558620   -1.9496939480   -1.0253586896
H       -2.1347481363    0.0500540035   -0.2051663610
H       -0.8700750133    2.2238376157   -0.6584091944
C       -0.9935693146   -0.1495927361    1.5379110943
H       -1.5015730872    0.3763129254    2.3458261382
13   