13   
From optimize.out: Frame 2 / 3, Energy=    -286.9243314289
C        1.6431329238    0.2517776087   -0.3059571969
C        1.0642442768   -0.9748677233   -0.5728345177
C       -0.3068272871   -1.3733568129   -0.3797523760
C       -1.3200475464   -0.6066957568    0.1137917984
C       -0.1287348719    1.5924820701    0.5524193761
N        1.1636096499    1.4160364070    0.1897144410
H        2.7090460581    0.3142418390   -0.5362642282
H        1.7316775731   -1.7312655204   -0.9787915224
H       -0.5471643950   -2.3969706960   -0.6599756655
H       -2.3015167042   -1.0696662860    0.1946813900
H       -0.3134121442    2.6018633285    0.9267050488
C       -1.2359467621    0.7655315592    0.5453335050
H       -2.1580607705    1.2108899828    0.9109299469
13   
From optimize.out: Frame 1 / 3, Energy=    -286.9243284570
C        1.6425263985    0.2542010770   -0.3030389056
C        1.0665025993   -0.9817680199   -0.5522963862
C       -0.3097226363   -1.3681767277   -0.3947475116
C       -1.3260076655   -0.6130706195    0.1073425163
C       -0.1359187461    1.6022422714    0.5294190826
N        1.1567338698    1.4325767320    0.1365881711
H        2.7142791843    0.3043846971   -0.5094440301
H        1.7425712292   -1.7488273435   -0.9228876596
H       -0.5576889648   -2.3710008546   -0.7352468851
H       -2.3094845842   -1.0699763547    0.1860405703
H       -0.3244417056    2.6181819524    0.8804833117
C       -1.2244773221    0.7515323605    0.5881118783
H       -2.1348716564    1.1897008295    0.9896758479
13   
From optimize.out: Frame 75 / 76, Energy=    -286.9243284656
C        1.6451682402    0.2375627111   -0.2882379751
C        1.0655605659   -0.9774694583   -0.5493599218
C       -0.3186071326   -1.3597059705   -0.4213776353
C       -1.3166549905   -0.6164196823    0.1320068965
C       -0.1346115841    1.6076560015    0.5136020599
N        1.1340310100    1.4458009622    0.1039698382
H        2.7224887131    0.2870335796   -0.4516137291
H        1.7414185653   -1.7532079391   -0.9043139385
H       -0.5599568477   -2.3454547487   -0.8097262387
H       -2.3084338203   -1.0591273673    0.1921842436
H       -0.3352401666    2.6454879813    0.7890743830
C       -1.2140503378    0.7261658904    0.6383660698
H       -2.1211122148    1.1616780401    1.0554259477
13   
From optimize.out: Frame 74 / 76, Energy=    -286.9243267944
C        1.6491562748    0.2211598495   -0.2630380258
C        1.0668295834   -0.9770135986   -0.5560597476
C       -0.3223288343   -1.3546938840   -0.4369227226
C       -1.3046632588   -0.6046953982    0.1608332565
C       -0.1326907103    1.6111234938    0.5004913417
N        1.1033117701    1.4435948353    0.0754879109
H        2.7314423011    0.2750646023   -0.3805527885
H        1.7416072949   -1.7535109080   -0.9136293660
H       -0.5753252984   -2.3151219822   -0.8769811098
H       -2.2964647943   -1.0532162265    0.2080843906
H       -0.3531998572    2.6656119468    0.6894054058
C       -1.2009081021    0.7052929323    0.6856756392
H       -2.1067663687    1.1364043375    1.1072058157
13   
From optimize.out: Frame 72 / 76, Energy=    -286.9243200302
C        1.6569267693    0.2166009807   -0.2408720338
C        1.0691673073   -0.9752241849   -0.5494752754
C       -0.3334610066   -1.3434785971   -0.4572543206
C       -1.3081523639   -0.5916240535    0.1644648760
C       -0.1159230715    1.6108883164    0.4911415214
N        1.0974606240    1.4446749422    0.0472798039
H        2.7413417238    0.2717392170   -0.3336588703
H        1.7401645770   -1.7546702129   -0.9044613601
H       -0.5971338982   -2.2948717657   -0.9152345127
H       -2.2932428143   -1.0574904161    0.1909988842
H       -0.3910031193    2.6657979066    0.5914269834
C       -1.1859052819    0.7042488813    0.7230944988
H       -2.0802394456    1.1034089861    1.1925498052
13   
From optimize.out: Frame 70 / 76, Energy=    -286.9243030513
C        1.6676426247    0.2187359061   -0.2280428396
C        1.0764377238   -0.9734012503   -0.5398515367
C       -0.3329178921   -1.3341609537   -0.4745216407
C       -1.3216956898   -0.5875056325    0.1634430873
C       -0.1139563605    1.5960867691    0.4741333734
N        1.0897002293    1.4449558259    0.0242612635
H        2.7525811190    0.2812631061   -0.3028839047
H        1.7427502029   -1.7589370019   -0.8883362166
H       -0.6053047212   -2.2831011399   -0.9383863673
H       -2.3226753343   -1.0183292906    0.1608905867
H       -0.4419274666    2.6413760107    0.5030026636
C       -1.1571986521    0.6910869986    0.7667183829
H       -2.0334357831    1.0819306525    1.2795731482
13   
From optimize.out: Frame 68 / 76, Energy=    -286.9242903507
C        1.6794661573    0.2214477648   -0.2160112288
C        1.0786617445   -0.9686636829   -0.5265292964
C       -0.3366007934   -1.3125787364   -0.4887033576
C       -1.3470652762   -0.5752594207    0.1617247633
C       -0.1123439448    1.5845596891    0.4572471651
N        1.0831863443    1.4453895819    0.0009901669
H        2.7646749095    0.2907142167   -0.2734211763
H        1.7365600197   -1.7629583387   -0.8696630325
H       -0.6186478979   -2.2621422118   -0.9524321682
H       -2.3408394227   -1.0203106294    0.1124729589
H       -0.4847822602    2.6165135142    0.4132861592
C       -1.1249865876    0.6794865603    0.8132025546
H       -1.9772829925    1.0638016928    1.3678364918
13   
From optimize.out: Frame 67 / 76, Energy=    -286.9242809209
C        1.6890688394    0.2244264548   -0.2062923609
C        1.0809653733   -0.9647881339   -0.5118029499
C       -0.3367376863   -1.2912395323   -0.4940307354
C       -1.3636769130   -0.5673367062    0.1603528285
C       -0.1186557199    1.5720342339    0.4403301571
N        1.0758689282    1.4421619782   -0.0112623824
H        2.7746347975    0.2986989699   -0.2509611261
H        1.7358293454   -1.7591240926   -0.8602790667
H       -0.6322062780   -2.2394565697   -0.9558711282
H       -2.3645965524   -0.9874294337    0.0646026032
H       -0.5230512228    2.5871669627    0.3229593318
C       -1.0951101247    0.6544200996    0.8573757693
H       -1.9223327867    1.0304657694    1.4448790598
13   
From optimize.out: Frame 66 / 76, Energy=    -286.9242643481
C        1.6954199050    0.2212103728   -0.1989450745
C        1.0865379761   -0.9681255464   -0.4894702804
C       -0.3340452521   -1.2659885994   -0.4848392388
C       -1.3602042721   -0.5467059371    0.1522987458
C       -0.1220011017    1.5652364408    0.4311606253
N        1.0649291452    1.4276728752   -0.0125294214
H        2.7793381851    0.3051181223   -0.2602005529
H        1.7375947966   -1.7589757945   -0.8524242514
H       -0.6489945459   -2.2103520214   -0.9436095628
H       -2.3674692805   -0.9336148183   -0.0047457822
H       -0.5497339894    2.5601459705    0.2382292166
C       -1.0766458478    0.6295177973    0.9133746128
H       -1.9047257186    0.9748611383    1.5117009638
13   
From optimize.out: Frame 64 / 76, Energy=    -286.9241662993
C        1.6996239178    0.2189272082   -0.1879031466
C        1.0942928814   -0.9746819071   -0.4672003607
C       -0.3279798263   -1.2489565196   -0.4784765643
C       -1.3433382069   -0.5181776583    0.1430792363
C       -0.1270015426    1.5530005100    0.4125119447
N        1.0548655763    1.4148255474   -0.0201453684
H        2.7812027924    0.3122874004   -0.2740233891
H        1.7429709363   -1.7634271186   -0.8378394800
H       -0.6705474686   -2.1836018287   -0.9383150982
H       -2.3570778957   -0.8635679921   -0.0661891701
H       -0.5704552246    2.5288886796    0.1648219034
C       -1.0682086278    0.6095816733    0.9733137334
H       -1.9083473118    0.9149020055    1.5763657597
13   
From optimize.out: Frame 63 / 76, Energy=    -286.9240373693
C        1.6930177061    0.2193797784   -0.1807070553
C        1.0969406548   -0.9868531469   -0.4521103391
C       -0.3158320986   -1.2437358469   -0.4780852747
C       -1.3286103517   -0.4977262156    0.1319410107
C       -0.1579964096    1.5364282123    0.3915099852
N        1.0390613864    1.4050554152   -0.0286466850
H        2.7738058281    0.3176462747   -0.2727307805
H        1.7466876138   -1.7743079324   -0.8234722726
H       -0.6715292509   -2.1689303742   -0.9422411896
H       -2.3516198028   -0.7951176045   -0.1121194484
H       -0.6188476612    2.4946449428    0.1114787865
C       -1.0485560958    0.5883460762    1.0080340629
H       -1.8565215186    0.9051704210    1.6471491999
13   
From optimize.out: Frame 62 / 76, Energy=    -286.9239514258
C        1.6803999849    0.2200282675   -0.1720486553
C        1.0966556598   -1.0006200904   -0.4353116183
C       -0.3048128660   -1.2395301409   -0.4829446633
C       -1.3116743806   -0.4763329360    0.1176142016
C       -0.1940088753    1.5193164692    0.3682018708
N        1.0164942411    1.3958066175   -0.0455739916
H        2.7604942684    0.3223878912   -0.2675590338
H        1.7502328760   -1.7873966238   -0.8014976339
H       -0.6693115335   -2.1563939830   -0.9504655189
H       -2.3404370775   -0.7268099469   -0.1554828418
H       -0.6716036190    2.4609258027    0.0669002447
C       -1.0235362216    0.5664805780    1.0345291310
H       -1.7888924568    0.9021380949    1.7236385089
13   
From optimize.out: Frame 59 / 76, Energy=    -286.9236985369
C        1.6731630547    0.2199828430   -0.1670599604
C        1.0986942725   -1.0158077747   -0.4186828702
C       -0.2931743401   -1.2340647192   -0.4810111381
C       -1.2849751688   -0.4420108041    0.1041066514
C       -0.2284669646    1.4956841053    0.3416830117
N        1.0013932041    1.3828448917   -0.0535055630
H        2.7520627235    0.3266126935   -0.2725035525
H        1.7554649030   -1.8008917123   -0.7833501366
H       -0.6741033522   -2.1400539808   -0.9526396918
H       -2.3159319082   -0.6389152722   -0.2043410551
H       -0.7221040151    2.4180142034    0.0138137442
C       -1.0079211107    0.5476342866    1.0798147470
H       -1.7541012981    0.8809712396    1.7936758133
13   
From optimize.out: Frame 58 / 76, Energy=    -286.9235058686
C        1.6669249323    0.2215437300   -0.1629129295
C        1.0995402329   -1.0305810042   -0.4047466333
C       -0.2815381289   -1.2296122762   -0.4803598249
C       -1.2573385900   -0.4034050559    0.0915992375
C       -0.2652179139    1.4671281259    0.3125797261
N        0.9905369645    1.3712562505   -0.0608466262
H        2.7452057712    0.3302297742   -0.2747945295
H        1.7596208044   -1.8148430672   -0.7658016125
H       -0.6783882075   -2.1249041136   -0.9557181599
H       -2.2877384927   -0.5483469252   -0.2466395623
H       -0.7742344297    2.3704932795   -0.0377572035
C       -0.9941319849    0.5307591197    1.1253608157
H       -1.7232409577    0.8602821625    1.8600373022
13   
From optimize.out: Frame 57 / 76, Energy=    -286.9232984940
C        1.6614846592    0.2258009920   -0.1594520285
C        1.0995962043   -1.0440905901   -0.3928810425
C       -0.2706447861   -1.2278734724   -0.4807997074
C       -1.2328235350   -0.3597070213    0.0780034200
C       -0.3049226703    1.4284506093    0.2814230784
N        0.9820713196    1.3618287387   -0.0675573757
H        2.7395100674    0.3363535039   -0.2754586525
H        1.7638023073   -1.8276162908   -0.7485124429
H       -0.6805031543   -2.1148665459   -0.9581039361
H       -2.2612157164   -0.4577800989   -0.2820861194
H       -0.8268849015    2.3156713073   -0.0857090176
C       -0.9773475915    0.5197856338    1.1692871886
H       -1.6921222027    0.8440432344    1.9218466355
13   
From optimize.out: Frame 54 / 76, Energy=    -286.9222134760
C        1.6575222625    0.2331064312   -0.1591544714
C        1.0987278966   -1.0557065330   -0.3862067994
C       -0.2599710768   -1.2287749006   -0.4830752388
C       -1.2103202949   -0.3071372509    0.0603305231
C       -0.3485483683    1.3765944176    0.2480730054
N        0.9761504878    1.3540321564   -0.0729812209
H        2.7359869605    0.3458277604   -0.2748970966
H        1.7670978968   -1.8405597598   -0.7309519684
H       -0.6779432997   -2.1133727861   -0.9563472113
H       -2.2373091106   -0.3674440324   -0.3090309285
H       -0.8784275105    2.2547693903   -0.1254250531
C       -0.9577895039    0.5134845558    1.2144840797
H       -1.6651763395    0.8351805512    1.9751823802
13   
From optimize.out: Frame 51 / 76, Energy=    -286.9206984947
C        1.6639047069    0.2390272148   -0.1753514670
C        1.1015140342   -1.0620041096   -0.3947488742
C       -0.2502885965   -1.2255907534   -0.4686742067
C       -1.1858485059   -0.2479127484    0.0388525705
C       -0.3711214039    1.3270062675    0.2314625682
N        0.9835301329    1.3449034768   -0.0635160883
H        2.7418761516    0.3545569731   -0.2990710733
H        1.7673721150   -1.8544888233   -0.7250366989
H       -0.6778483670   -2.1189727369   -0.9177227891
H       -2.2090301381   -0.2930372925   -0.3391653007
H       -0.8994003692    2.2124984541   -0.1253332923
C       -0.9583288480    0.5068822335    1.2577793507
H       -1.7063309119    0.8171318445    1.9805253011
13   
From optimize.out: Frame 50 / 76, Energy=    -286.9189043184
C        1.6750297673    0.2448589240   -0.2015990791
C        1.1046488878   -1.0629337689   -0.4152929497
C       -0.2403345619   -1.2216351428   -0.4371529621
C       -1.1635890383   -0.1953004437    0.0192163655
C       -0.3768876214    1.2800182542    0.2191695860
N        0.9983696709    1.3342132011   -0.0374269208
H        2.7523159012    0.3629930765   -0.3315734091
H        1.7624505222   -1.8622597433   -0.7421502281
H       -0.6780891935   -2.1296801699   -0.8500638355
H       -2.1819626385   -0.2436863177   -0.3683567637
H       -0.9036148207    2.1841027097   -0.0903272086
C       -0.9712838842    0.4932844116    1.2922698294
H       -1.7770529910    0.8160250091    1.9432875759
13   
From optimize.out: Frame 49 / 76, Energy=    -286.9148202444
C        1.6711691517    0.2473806914   -0.1991076615
C        1.1046033323   -1.0633368597   -0.4508061752
C       -0.2314393693   -1.2303239828   -0.4420040399
C       -1.1614615145   -0.1864988309    0.0225602395
C       -0.4033866304    1.2517285592    0.1695773450
N        0.9893538417    1.3242207012   -0.0197342453
H        2.7541854571    0.3627321068   -0.2732328333
H        1.7661963753   -1.8558069235   -0.7861980008
H       -0.6716382143   -2.1419666469   -0.8420282395
H       -2.1851441133   -0.2930437301   -0.3405451582
H       -0.9434995517    2.1635527696   -0.0811655212
C       -0.9704048346    0.4913467086    1.2961119545
H       -1.7185339300    0.9300154371    1.9465723360
13   
From optimize.out: Frame 47 / 76, Energy=    -286.9060160971
C        1.6589591267    0.2473009874   -0.1905988176
C        1.1013208435   -1.0646160439   -0.4766157425
C       -0.2274873901   -1.2431487617   -0.4573452609
C       -1.1546264619   -0.1856910475    0.0263142832
C       -0.4347001698    1.2309640483    0.1270143675
N        0.9675832154    1.3191235389   -0.0085695196
H        2.7437131080    0.3635186075   -0.2231702328
H        1.7714217640   -1.8502419745   -0.8108837176
H       -0.6660932929   -2.1578847116   -0.8481692539
H       -2.1821094981   -0.3297007462   -0.3160882677
H       -0.9902244721    2.1429265063   -0.0739003034
C       -0.9608444716    0.4882991846    1.3004467305
H       -1.6269123012    1.0391504125    1.9515657348
13   
From optimize.out: Frame 46 / 76, Energy=    -286.9024795792
C        1.6446323272    0.2453281168   -0.1790544582
C        1.0964559232   -1.0654235252   -0.5030287345
C       -0.2290301256   -1.2575338181   -0.4725326949
C       -1.1341903933   -0.1889238208    0.0369338428
C       -0.4683578678    1.2109294978    0.0929198247
N        0.9421079447    1.3162903226    0.0048900811
H        2.7298982375    0.3609584540   -0.1774082548
H        1.7737551233   -1.8424571144   -0.8432057290
H       -0.6636330751   -2.1771502441   -0.8518065900
H       -2.1671923182   -0.3514101208   -0.2869763953
H       -1.0438239613    2.1166647146   -0.0623574769
C       -0.9411298381    0.4888305395    1.3117666040
H       -1.5394919764    1.1438969981    1.9298599811
13   
From optimize.out: Frame 45 / 76, Energy=    -286.8981397934
C        1.6435240826    0.2482712847   -0.1678340165
C        1.0952134531   -1.0613282001   -0.5227984820
C       -0.2453233259   -1.2670238447   -0.4776360968
C       -1.0926330210   -0.1878240554    0.0592918694
C       -0.4761101995    1.1920873970    0.0562523398
N        0.9387668124    1.3160401881    0.0148871499
H        2.7281296558    0.3643041220   -0.1467882374
H        1.7766874851   -1.8268791673   -0.8848780083
H       -0.6870372093   -2.1892696363   -0.8385380249
H       -2.1307801109   -0.3218251799   -0.2721361435
H       -1.0703554301    2.0890841004   -0.0587901973
C       -0.9512522479    0.4430264897    1.3632511135
H       -1.5288299444    1.2013365018    1.8757167341
13   
From optimize.out: Frame 43 / 76, Energy=    -286.8897980604
C        1.6570472256    0.2607386245   -0.1590990546
C        1.0957059441   -1.0492939478   -0.5253307871
C       -0.2684490006   -1.2609542944   -0.4769676782
C       -1.0633022720   -0.1792467921    0.0824052106
C       -0.4505621465    1.1778346027    0.0242685510
N        0.9638874465    1.3189188386    0.0050110761
H        2.7392727527    0.3811283821   -0.1273604493
H        1.7759842865   -1.8125469855   -0.9009376039
H       -0.7284191508   -2.1779674116   -0.8281563064
H       -2.0994966662   -0.2629819688   -0.2747872910
H       -1.0547424106    2.0677812313   -0.0850771400
C       -0.9918779398    0.3604090139    1.4242659369
H       -1.5750480691    1.1761807073    1.8417655361
13   
From optimize.out: Frame 42 / 76, Energy=    -286.8820946198
C        1.6246155283    0.2324204650   -0.1485588266
C        1.0753027281   -1.0543704528   -0.5404175903
C       -0.2335415213   -1.2562741787   -0.5008681606
C       -1.0305348471   -0.1484864865    0.0762441888
C       -0.4489238562    1.1801814632   -0.0069688063
N        0.9193026172    1.3377882988   -0.0097842399
H        2.7069601969    0.3464548342   -0.0815730337
H        1.7601506021   -1.8189918472   -0.8957766902
H       -0.6788554368   -2.1840010184   -0.8525682810
H       -2.0792307541   -0.2195869912   -0.2736514174
H       -1.0620833820    2.0657827907   -0.1195892531
C       -0.9873412461    0.3509550260    1.4713141031
H       -1.5658206290    1.1681280968    1.8821980071
13   
From optimize.out: Frame 41 / 76, Energy=    -286.8739373268
C        1.6334293680    0.2174600311   -0.1451129012
C        1.0829821126   -1.0538613514   -0.5360697689
C       -0.2188093711   -1.2352000511   -0.5098092370
C       -1.0318589206   -0.1235832335    0.0704070250
C       -0.4218302202    1.1961667520   -0.0426130853
N        0.9192731625    1.3517014806   -0.0335032967
H        2.7143764247    0.3292518251   -0.0580865620
H        1.7599012918   -1.8289926589   -0.8808503447
H       -0.6729405089   -2.1588648952   -0.8648461362
H       -2.0762477734   -0.1726563378   -0.2992668850
H       -1.0261097172    2.0883308479   -0.1747875060
C       -1.0389510521    0.2992913851    1.5135918919
H       -1.6232147961    1.0909562060    1.9609468060
13   
From optimize.out: Frame 38 / 76, Energy=    -286.8594467000
C        1.6545971839    0.2241153099   -0.1413865718
C        1.0919604691   -1.0445399623   -0.5284456874
C       -0.2367680885   -1.2161346178   -0.5103153122
C       -1.0426798478   -0.1021639793    0.0676465844
C       -0.4044452416    1.2199326608   -0.0657360074
N        0.9397702595    1.3517517031   -0.0535857249
H        2.7328213511    0.3359707416   -0.0426701972
H        1.7614574946   -1.8317303211   -0.8644935417
H       -0.7044687989   -2.1308291904   -0.8631037350
H       -2.0820627932   -0.1300272452   -0.3072512214
H       -0.9925214479    2.1211907459   -0.2061179620
C       -1.0656103815    0.2155575396    1.5129175763
H       -1.6520501588    0.9869066152    2.0025418004
13   
From optimize.out: Frame 37 / 76, Energy=    -286.8585553650
C        1.6778435107    0.2275143712   -0.1393999684
C        1.1027932076   -1.0367501549   -0.5187649614
C       -0.2498649083   -1.1945743830   -0.5083565047
C       -1.0516188371   -0.0802603902    0.0680124665
C       -0.3807529572    1.2411265760   -0.0875873640
N        0.9625329400    1.3543549720   -0.0742795035
H        2.7538828577    0.3394032582   -0.0335487106
H        1.7620596715   -1.8359182855   -0.8504268368
H       -0.7326031989   -2.0997105204   -0.8599838658
H       -2.0828460211   -0.0838970795   -0.3195013407
H       -0.9541392056    2.1508080520   -0.2369379791
C       -1.1069604239    0.1350477532    1.5183187294
H       -1.7003266354    0.8828558311    2.0424558392
13   
From optimize.out: Frame 35 / 76, Energy=    -286.8575158343
C        1.6956740269    0.2154069232   -0.1399759695
C        1.1155884277   -1.0365221363   -0.5087241044
C       -0.2378537079   -1.1708967736   -0.5078024444
C       -1.0542538074   -0.0604620280    0.0705599044
C       -0.3455427415    1.2519513483   -0.1123288704
N        0.9765338558    1.3677486213   -0.0945544552
H        2.7709914592    0.3258612771   -0.0291062455
H        1.7617274717   -1.8452039709   -0.8418570741
H       -0.7345740968   -2.0686149782   -0.8638399383
H       -2.0742899405   -0.0392312032   -0.3466494143
H       -0.9116530821    2.1665268117   -0.2805134090
C       -1.1772965037    0.0877682080    1.5556102773
H       -1.7850513613    0.8056679006    2.0991817434
13   
From optimize.out: Frame 34 / 76, Energy=    -286.8564568893
C        1.6925258813    0.2149090016   -0.1244990693
C        1.1115444599   -1.0277145226   -0.5150820994
C       -0.2428391460   -1.1523150732   -0.5256862077
C       -1.0554889253   -0.0354049621    0.0654467241
C       -0.3361230761    1.2744675398   -0.1434062281
N        0.9781525497    1.3795206746   -0.1077170841
H        2.7635780106    0.3151630088    0.0257074461
H        1.7574537716   -1.8446970530   -0.8271485499
H       -0.7484240208   -2.0428017125   -0.8873860323
H       -2.0832488516   -0.0103918303   -0.3316240745
H       -0.8916060105    2.1885015876   -0.3490150755
C       -1.1692345743    0.0338324013    1.5614022198
H       -1.7762900686    0.7069309400    2.1590080308
13   
From optimize.out: Frame 33 / 76, Energy=    -286.8535070021
C        1.6816128720    0.2184669904   -0.1037811229
C        1.1031152405   -1.0168484997   -0.5244146063
C       -0.2526842320   -1.1366969722   -0.5468669821
C       -1.0568551653   -0.0115481038    0.0602401113
C       -0.3350053418    1.2963961460   -0.1746109328
N        0.9742095044    1.3897413258   -0.1161352365
H        2.7457842957    0.3078465621    0.0927765583
H        1.7530650185   -1.8391634685   -0.8132536005
H       -0.7654759453   -2.0192277035   -0.9166697845
H       -2.0959122724    0.0152285266   -0.3041890404
H       -0.8790751972    2.2059843149   -0.4245363381
C       -1.1383679159   -0.0192758736    1.5581044275
H       -1.7344108614    0.6090967554    2.2133365469
13   
From optimize.out: Frame 31 / 76, Energy=    -286.8421837410
C        1.6669617218    0.2233806494   -0.0810331921
C        1.0933577315   -1.0053698678   -0.5329287231
C       -0.2629092542   -1.1213990991   -0.5680129477
C       -1.0587507626    0.0095663433    0.0562799924
C       -0.3381666689    1.3164216685   -0.2044472015
N        0.9673092457    1.3988160353   -0.1222188948
H        2.7223060366    0.3017911892    0.1616164414
H        1.7461972932   -1.8325514261   -0.8003999173
H       -0.7816361476   -1.9952485000   -0.9488755167
H       -2.1085558784    0.0322761997   -0.2738723386
H       -0.8714773414    2.2183995393   -0.5001908900
C       -1.0986336840   -0.0668803112    1.5527239289
H       -1.6760022918    0.5207975795    2.2613592590
13   
From optimize.out: Frame 30 / 76, Energy=    -286.8345086790
C        1.6487254244    0.2296977586   -0.0569038921
C        1.0824948621   -0.9937330543   -0.5404475688
C       -0.2734366435   -1.1073258155   -0.5889032858
C       -1.0617864431    0.0271492966    0.0536660172
C       -0.3455892045    1.3335345825   -0.2336792777
N        0.9571821339    1.4065118452   -0.1254586552
H        2.6934714545    0.2973242036    0.2308998419
H        1.7382315660   -1.8245895578   -0.7884863874
H       -0.7961110252   -1.9721403550   -0.9837644877
H       -2.1212451467    0.0411502142   -0.2418182609
H       -0.8688752376    2.2251827933   -0.5746836007
C       -1.0514508343   -0.1082794417    1.5460003730
H       -1.6016109061    0.4455175302    2.3035791843
13   
From optimize.out: Frame 29 / 76, Energy=    -286.8284779528
C        1.6268695391    0.2376352386   -0.0323185581
C        1.0705735470   -0.9828719446   -0.5464996543
C       -0.2845772836   -1.0964384432   -0.6086412771
C       -1.0658683505    0.0411678497    0.0529265499
C       -0.3560914381    1.3451635584   -0.2634801129
N        0.9431307132    1.4126454871   -0.1241765752
H        2.6594844082    0.2959594525    0.2988174241
H        1.7322957407   -1.8136783052   -0.7780419109
H       -0.8085130647   -1.9523152182   -1.0203636995
H       -2.1331503219    0.0489882635   -0.2095449105
H       -0.8698758179    2.2241338455   -0.6484175933
C       -1.0005365278   -0.1447352078    1.5388817358
H       -1.5137411438    0.3843454238    2.3408585822
13   
From optimize.out: Frame 27 / 76, Energy=    -286.8096712110
C        1.6038838477    0.2473331395   -0.0086277563
C        1.0554914801   -0.9719224614   -0.5467260630
C       -0.2965315182   -1.0823357223   -0.6249396341
C       -1.0665711257    0.0582964567    0.0541309761
C       -0.3670033588    1.3543729320   -0.2931411576
N        0.9289488725    1.4176269993   -0.1212240313
H        2.6237641603    0.2968496874    0.3617721168
H        1.7182262036   -1.8047550584   -0.7654435732
H       -0.8191870890   -1.9289144922   -1.0572192191
H       -2.1384971289    0.0527770279   -0.1834643984
H       -0.8723605756    2.2178926485   -0.7212168735
C       -0.9500101262   -0.1818759362    1.5313549463
H       -1.4201536417    0.3246547792    2.3747446673
13   
From optimize.out: Frame 26 / 76, Energy=    -286.8057799555
C        1.5835781113    0.2575364011    0.0137182487
C        1.0449345237   -0.9635685608   -0.5406205938
C       -0.3050672585   -1.0708801833   -0.6386952868
C       -1.0809403129    0.0590098949    0.0637420380
C       -0.3850875800    1.3453691270   -0.3219428203
N        0.9078519120    1.4160280192   -0.1111714992
H        2.5911670957    0.3048596381    0.4172147295
H        1.7140302452   -1.7906364823   -0.7603143287
H       -0.8199631456   -1.9069733197   -1.1001627660
H       -2.1553952962    0.0469586802   -0.1599296002
H       -0.8851867314    2.1844415485   -0.8008589280
C       -0.8976341833   -0.1938715471    1.5325913401
H       -1.3122873799    0.3117267839    2.4064294668
13   
From optimize.out: Frame 23 / 76, Energy=    -286.7862241353
C        1.5740054779    0.2698417824    0.0335373741
C        1.0332768334   -0.9567541602   -0.5197577621
C       -0.3123650707   -1.0444849283   -0.6413829115
C       -1.0845295536    0.0736201493    0.0844129100
C       -0.3905451108    1.3301104546   -0.3544980183
N        0.8976086767    1.4137101487   -0.0976533619
H        2.5714179076    0.3160376052    0.4628685984
H        1.6969340377   -1.7814252133   -0.7600161255
H       -0.8215565994   -1.8615686274   -1.1433109340
H       -2.1564847894    0.0561005833   -0.1481013924
H       -0.8824265177    2.1306295306   -0.9031688409
C       -0.8793621155   -0.2222546134    1.5444397485
H       -1.2459731762    0.2764372886    2.4426307157
13   
From optimize.out: Frame 22 / 76, Energy=    -286.7831107144
C        1.5857802573    0.2795944379    0.0433761727
C        1.0337422136   -0.9566384814   -0.4850862164
C       -0.3090765609   -1.0126185230   -0.6323521051
C       -1.0949171521    0.0745641162    0.1198749018
C       -0.3880933156    1.2891254472   -0.3821524711
N        0.8959989349    1.4026202450   -0.0826738455
H        2.5812526440    0.3340340045    0.4773650271
H        1.6850352030   -1.7746720496   -0.7735419315
H       -0.8104020326   -1.8050642667   -1.1814371613
H       -2.1579495401    0.0604322799   -0.1526144897
H       -0.8742256984    2.0372956496   -1.0054311066
C       -0.9027615309   -0.2217328858    1.5791770395
H       -1.2443834221    0.2930600262    2.4754961861
13   
From optimize.out: Frame 21 / 76, Energy=    -286.7802385705
C        1.6111007480    0.2833523606    0.0436304482
C        1.0437535744   -0.9609058352   -0.4522958691
C       -0.2985396206   -0.9841246479   -0.6165169705
C       -1.1009416070    0.0708363011    0.1562022306
C       -0.3749340671    1.2428734419   -0.3971467800
N        0.9073550472    1.3893187235   -0.0755422076
H        2.6124897102    0.3478583922    0.4630285032
H        1.6784927533   -1.7716937517   -0.7922568020
H       -0.7961565175   -1.7533101201   -1.2022448709
H       -2.1508987607    0.0652949390   -0.1665667742
H       -0.8577745945    1.9451470769   -1.0751824840
C       -0.9616756197   -0.2064276335    1.6195925155
H       -1.3122710460    0.3317807532    2.4952990609
13   
From optimize.out: Frame 19 / 76, Energy=    -286.7743064172
C        1.6402659384    0.2833096311    0.0392862600
C        1.0587338305   -0.9667219832   -0.4256694838
C       -0.2860828948   -0.9617204601   -0.5997140563
C       -1.1065490134    0.0624689810    0.1903438180
C       -0.3588739801    1.1979470423   -0.4027816132
N        0.9244027668    1.3759744606   -0.0736686789
H        2.6504449961    0.3567622440    0.4358113381
H        1.6788315105   -1.7683665530   -0.8114877483
H       -0.7819728355   -1.7104219836   -1.2133460948
H       -2.1418526469    0.0674631245   -0.1804259232
H       -0.8400360148    1.8631002279   -1.1189258733
C       -1.0320238611   -0.1822324745    1.6568529970
H       -1.4052877957    0.3824377432    2.5037250586
13   