13   
From optimize.out: Frame 75 / 76, Energy=    -286.9243284656
C        1.6430415288    0.2517533261   -0.3050692177
C        1.0642046043   -0.9753976222   -0.5713972358
C       -0.3064529218   -1.3746060039   -0.3775472847
C       -1.3192000719   -0.6072962177    0.1161753099
C       -0.1283336741    1.5926929323    0.5530850075
N        1.1640834210    1.4159503896    0.1908179326
H        2.7086628982    0.3143887595   -0.5368511541
H        1.7308187863   -1.7307544369   -0.9805400205
H       -0.5475501081   -2.3965966251   -0.6631259082
H       -2.3011701463   -1.0697558055    0.1938153130
H       -0.3135031152    2.6031266689    0.9240976694
C       -1.2357163788    0.7655138271    0.5467332376
H       -2.1588848222    1.2109808076    0.9098063506
13   
From optimize.out: Frame 74 / 76, Energy=    -286.9243267944
C        1.6424786955    0.2551649258   -0.3075525131
C        1.0660868977   -0.9779996826   -0.5589758587
C       -0.3041119849   -1.3751399262   -0.3756974752
C       -1.3220155687   -0.6069177489    0.1082990931
C       -0.1332975957    1.5974489918    0.5436800837
N        1.1604649272    1.4258674831    0.1605088925
H        2.7098701694    0.3113333187   -0.5331626712
H        1.7339226430   -1.7399000834   -0.9537981153
H       -0.5527400523   -2.3864237653   -0.6903793997
H       -2.3021625833   -1.0713638452    0.1876442843
H       -0.3056026951    2.6059462947    0.9249558777
C       -1.2344827749    0.7613707007    0.5622244879
H       -2.1584100778    1.2006133368    0.9322533138
13   
From optimize.out: Frame 72 / 76, Energy=    -286.9243200302
C        1.6425438843    0.2538878160   -0.3015763559
C        1.0666380485   -0.9829836861   -0.5501384834
C       -0.3115292049   -1.3659344100   -0.4008822474
C       -1.3272947423   -0.6150497010    0.1070275194
C       -0.1367632496    1.6037864836    0.5248245536
N        1.1555339518    1.4347354743    0.1288906579
H        2.7157022854    0.3021423884   -0.5017911985
H        1.7453586163   -1.7517056602   -0.9129225238
H       -0.5592820539   -2.3660343758   -0.7496955270
H       -2.3118450908   -1.0695257335    0.1855120174
H       -0.3305088735    2.6221233209    0.8661582717
C       -1.2212576728    0.7483668347    0.5964401642
H       -2.1272958986    1.1861912486    1.0081531519
13   
From optimize.out: Frame 71 / 76, Energy=    -286.9243135088
C        1.6454893081    0.2355776264   -0.2866079601
C        1.0654315085   -0.9768036060   -0.5492564439
C       -0.3194660850   -1.3589500464   -0.4238649752
C       -1.3153663899   -0.6165826540    0.1350291476
C       -0.1343504523    1.6081265224    0.5122372223
N        1.1314245338    1.4471411075    0.1009522587
H        2.7233160869    0.2851933376   -0.4455060320
H        1.7409429181   -1.7533955096   -0.9032544619
H       -0.5600383535   -2.3429574446   -0.8170111185
H       -2.3080237728   -1.0578599947    0.1929785767
H       -0.3358137453    2.6483248321    0.7797152436
C       -1.2131787387    0.7234757808    0.6434435121
H       -2.1203668180    1.1587100486    1.0611450307
13   
From optimize.out: Frame 70 / 76, Energy=    -286.9243030513
C        1.6485476055    0.2218455876   -0.2653552033
C        1.0668934017   -0.9772045645   -0.5565958763
C       -0.3207831564   -1.3560136441   -0.4350369004
C       -1.3045272524   -0.6064283259    0.1603507561
C       -0.1348275505    1.6104810645    0.5009717914
N        1.1037476055    1.4434836715    0.0782425329
H        2.7305918968    0.2758569450   -0.3852863359
H        1.7420930040   -1.7534637283   -0.9142446831
H       -0.5727541711   -2.3174437052   -0.8731111381
H       -2.2983403103   -1.0501845327    0.2095175206
H       -0.3504228738    2.6645959974    0.6985971204
C       -1.2017758217    0.7047876593    0.6824362624
H       -2.1084423776    1.1396875755    1.0995141533
13   
From optimize.out: Frame 68 / 76, Energy=    -286.9242903507
C        1.6539006746    0.2157943810   -0.2449491926
C        1.0663503798   -0.9755688289   -0.5518156589
C       -0.3343106278   -1.3444594623   -0.4515573900
C       -1.3057493528   -0.5912278292    0.1644647596
C       -0.1161258316    1.6161060020    0.4967548203
N        1.0999744242    1.4444215908    0.0542344240
H        2.7380709025    0.2688387603   -0.3436532074
H        1.7378645556   -1.7539331990   -0.9087143163
H       -0.5952456465   -2.2971175227   -0.9070073028
H       -2.2819843342   -1.0766319688    0.1967929309
H       -0.3746876623    2.6734961046    0.6181563000
C       -1.1942199903    0.7092467275    0.7106724163
H       -2.0938374912    1.1110352449    1.1666214170
13   
From optimize.out: Frame 67 / 76, Energy=    -286.9242809209
C        1.6638425908    0.2184065526   -0.2314818247
C        1.0755973166   -0.9744534887   -0.5440962571
C       -0.3315283767   -1.3412279992   -0.4702801681
C       -1.3136520644   -0.5925007813    0.1643817633
C       -0.1154527417    1.5989900563    0.4783664649
N        1.0917603684    1.4452273479    0.0315130855
H        2.7488217133    0.2782947830   -0.3107193446
H        1.7454190260   -1.7563741382   -0.8946977888
H       -0.6014370840   -2.2897247108   -0.9340580883
H       -2.3189387514   -1.0138122573    0.1776457758
H       -0.4281653183    2.6482504806    0.5305225291
C       -1.1669785910    0.6928715062    0.7513534304
H       -2.0492880877    1.0860526488    1.2515504228
13   
From optimize.out: Frame 66 / 76, Energy=    -286.9242643481
C        1.6760124560    0.2194118879   -0.2203485851
C        1.0782955748   -0.9711093250   -0.5304724825
C       -0.3359733870   -1.3186177722   -0.4839026740
C       -1.3393903512   -0.5764992488    0.1612561366
C       -0.1106575192    1.5897010598    0.4648773324
N        1.0852215078    1.4443236821    0.0084703349
H        2.7608698200    0.2877008178   -0.2854453136
H        1.7369053652   -1.7645942193   -0.8742784553
H       -0.6137945950   -2.2685088413   -0.9480090624
H       -2.3309260802   -1.0281771805    0.1238786064
H       -0.4721016797    2.6262805248    0.4426177330
C       -1.1357641739    0.6871825167    0.8003835808
H       -1.9986969378    1.0729060981    1.3409728489
13   
From optimize.out: Frame 64 / 76, Energy=    -286.9241662993
C        1.6865997477    0.2255781174   -0.2069116638
C        1.0794287901   -0.9636514813   -0.5183582727
C       -0.3378946205   -1.3001212096   -0.4986740441
C       -1.3628893184   -0.5726634045    0.1625256865
C       -0.1157947189    1.5739679899    0.4416197997
N        1.0790584942    1.4475384976   -0.0142156199
H        2.7725396139    0.2968143023   -0.2484003163
H        1.7358662938   -1.7596212571   -0.8600820195
H       -0.6286245587   -2.2489771698   -0.9617005947
H       -2.3612798398   -1.0040433185    0.0887312822
H       -0.5107984996    2.5964256775    0.3530385148
C       -1.1028750724    0.6636639053    0.8394873081
H       -1.9333363112    1.0450893508    1.4229399396
13   
From optimize.out: Frame 63 / 76, Energy=    -286.9240373693
C        1.6938409471    0.2221502440   -0.2048961296
C        1.0839275223   -0.9669883669   -0.4991591449
C       -0.3345212489   -1.2741503809   -0.4852387331
C       -1.3652330986   -0.5570613933    0.1559918146
C       -0.1241227917    1.5683020235    0.4379385355
N        1.0698170940    1.4317953590   -0.0053831609
H        2.7786980730    0.3022012159   -0.2555379216
H        1.7357750364   -1.7581982716   -0.8605660633
H       -0.6390741289   -2.2210991290   -0.9448953624
H       -2.3710141443   -0.9554421918    0.0179698046
H       -0.5464788323    2.5694053833    0.2653392706
C       -1.0802781406    0.6366803262    0.8916164395
H       -1.9013362876    1.0024051816    1.4868206508
13   
From optimize.out: Frame 62 / 76, Energy=    -286.9239514258
C        1.6980789919    0.2195731699   -0.1888330530
C        1.0908830470   -0.9700369317   -0.4733123044
C       -0.3332616391   -1.2523794244   -0.4843091682
C       -1.3518997856   -0.5294446605    0.1459555169
C       -0.1184473272    1.5601199980    0.4200013087
N        1.0568884204    1.4207698846   -0.0241624601
H        2.7804502135    0.3098334804   -0.2675757200
H        1.7406297020   -1.7602982067   -0.8388119387
H       -0.6654718016   -2.1923986259   -0.9417153573
H       -2.3616302397   -0.8972340751   -0.0428378512
H       -0.5550333634    2.5447790836    0.1933182214
C       -1.0706936397    0.6176122452    0.9494247186
H       -1.9104925786    0.9291040626    1.5528580875
13   
From optimize.out: Frame 59 / 76, Energy=    -286.9236985369
C        1.7016406009    0.2180170106   -0.1864772507
C        1.0986675577   -0.9806618169   -0.4593022965
C       -0.3212198081   -1.2445133114   -0.4711393215
C       -1.3324118201   -0.5036704877    0.1391809197
C       -0.1379303255    1.5438501732    0.4030166028
N        1.0523558013    1.4071476812   -0.0147517889
H        2.7822202632    0.3152957187   -0.2819085959
H        1.7459783503   -1.7674718571   -0.8365076202
H       -0.6770579299   -2.1722151349   -0.9342120310
H       -2.3512830611   -0.8202759546   -0.0964880700
H       -0.5900994475    2.5085406802    0.1284194097
C       -1.0651132031    0.5992732345    1.0038451817
H       -1.9057469779    0.8966840642    1.6063248608
13   
From optimize.out: Frame 58 / 76, Energy=    -286.9235058686
C        1.6844739491    0.2206505765   -0.1747334937
C        1.0952223790   -0.9930431270   -0.4448895370
C       -0.3104830844   -1.2429076194   -0.4851308141
C       -1.3248737894   -0.4917442607    0.1245304466
C       -0.1779217987    1.5290231746    0.3801573915
N        1.0259195419    1.4029152298   -0.0422328824
H        2.7654869239    0.3198437706   -0.2632215168
H        1.7473945832   -1.7811492119   -0.8104143090
H       -0.6660348045   -2.1655515008   -0.9504799549
H       -2.3519867819   -0.7699399000   -0.1280322463
H       -0.6473198948    2.4808468291    0.0947333351
C       -1.0321764062    0.5774585873    1.0121129305
H       -1.8077008172    0.9135974518    1.6876006506
13   
From optimize.out: Frame 57 / 76, Energy=    -286.9232984940
C        1.6767089972    0.2193640038   -0.1693419454
C        1.0979629928   -1.0075914770   -0.4264729906
C       -0.2996361878   -1.2363808758   -0.4810839174
C       -1.2996398312   -0.4621518557    0.1110652373
C       -0.2086861150    1.5104154454    0.3573524977
N        1.0079635551    1.3892383035   -0.0483813143
H        2.7559822544    0.3245598320   -0.2711226680
H        1.7528260444   -1.7931641898   -0.7932363730
H       -0.6723184596   -2.1478936867   -0.9507155334
H       -2.3298906268   -0.6871701234   -0.1809884585
H       -0.6936808444    2.4427304511    0.0415268261
C       -1.0157344148    0.5564163127    1.0549501923
H       -1.7718573643    0.8916278600    1.7564484472
13   
From optimize.out: Frame 55 / 76, Energy=    -286.9225197039
C        1.6702281877    0.2203950657   -0.1648726383
C        1.0992971387   -1.0227468360   -0.4120684012
C       -0.2877681899   -1.2320570119   -0.4811031370
C       -1.2727149359   -0.4250221083    0.0980335388
C       -0.2450115140    1.4833068581    0.3286288847
N        0.9959875669    1.3774107501   -0.0575331780
H        2.7488380281    0.3281592012   -0.2732181104
H        1.7576666473   -1.8074362475   -0.7749464681
H       -0.6756133794   -2.1333409624   -0.9545452065
H       -2.3042316360   -0.5982283648   -0.2243464791
H       -0.7457852574    2.3973216794   -0.0093418190
C       -1.0014868734    0.5402415513    1.1005795544
H       -1.7394057829    0.8719964250    1.8247334596
13   
From optimize.out: Frame 54 / 76, Energy=    -286.9222134760
C        1.6642586602    0.2223635673   -0.1610001692
C        1.0997214809   -1.0370647971   -0.3986542587
C       -0.2764447932   -1.2275323974   -0.4799220748
C       -1.2447621528   -0.3855590623    0.0860631961
C       -0.2817389623    1.4538343831    0.2995060729
N        0.9861867962    1.3661258693   -0.0632607508
H        2.7422973692    0.3317274972   -0.2755923862
H        1.7612020554   -1.8209946327   -0.7581808055
H       -0.6806837313   -2.1178223263   -0.9570119628
H       -2.2741998719   -0.5071719465   -0.2653855989
H       -0.7973886837    2.3485335842   -0.0609788037
C       -0.9882383595    0.5229417452    1.1455951454
H       -1.7102098072    0.8506185160    1.8888223963
13   
From optimize.out: Frame 51 / 76, Energy=    -286.9206984947
C        1.6593226454    0.2284042050   -0.1578825782
C        1.0994697940   -1.0497536563   -0.3881948138
C       -0.2660453126   -1.2280632199   -0.4816946352
C       -1.2233477989   -0.3389754431    0.0713032128
C       -0.3233341204    1.4081965706    0.2671086756
N        0.9789300095    1.3583154005   -0.0706426918
H        2.7373694365    0.3398162069   -0.2748048123
H        1.7658416441   -1.8329781772   -0.7406880935
H       -0.6803824123   -2.1123309890   -0.9593503244
H       -2.2508482884   -0.4181292768   -0.2958814033
H       -0.8501799146    2.2895441565   -0.1053185360
C       -0.9688268482    0.5172226013    1.1880679501
H       -1.6779688342    0.8387316215    1.9479780500
13   
From optimize.out: Frame 50 / 76, Energy=    -286.9189043184
C        1.6562360227    0.2364599678   -0.1597431885
C        1.0981409504   -1.0602069585   -0.3846494219
C       -0.2554757658   -1.2292133096   -0.4843210707
C       -1.2006526908   -0.2832850987    0.0518704696
C       -0.3672496625    1.3530399215    0.2339985421
N        0.9742343491    1.3507470694   -0.0743492446
H        2.7350469122    0.3500602198   -0.2743778616
H        1.7679866451   -1.8462978404   -0.7235920326
H       -0.6761565519   -2.1139499820   -0.9545269114
H       -2.2271931448   -0.3293853612   -0.3193248860
H       -0.8992243663    2.2289554694   -0.1402845842
C       -0.9497486467    0.5106344709    1.2340555275
H       -1.6559440508    0.8324414314    1.9952446623
13   
From optimize.out: Frame 49 / 76, Energy=    -286.9148202444
C        1.6690165454    0.2405617998   -0.1852605629
C        1.1036990170   -1.0632504205   -0.4013328270
C       -0.2469119473   -1.2231095631   -0.4585985032
C       -1.1761336232   -0.2244936815    0.0300046609
C       -0.3735730057    1.3098681241    0.2299107640
N        0.9898116384    1.3409567779   -0.0559877015
H        2.7464727225    0.3572626116   -0.3147292447
H        1.7669109063   -1.8599705811   -0.7259021945
H       -0.6790092126   -2.1220731013   -0.8939298571
H       -2.1970319610   -0.2688088170   -0.3527189764
H       -0.8992495242    2.2017767229   -0.1153458882
C       -0.9641776423    0.5043325094    1.2732838342
H       -1.7398239133    0.8069476189    1.9706064963
13   
From optimize.out: Frame 47 / 76, Energy=    -286.9060160971
C        1.6750926931    0.2445891618   -0.2010916589
C        1.1044761683   -1.0628743388   -0.4131643072
C       -0.2409596024   -1.2210705584   -0.4374231387
C       -1.1636622775   -0.1958766102    0.0190360802
C       -0.3753932093    1.2817297117    0.2217854126
N        0.9987557160    1.3348041813   -0.0381372988
H        2.7520366502    0.3627874375   -0.3339974626
H        1.7622694349   -1.8624350016   -0.7394519512
H       -0.6787105437   -2.1286693827   -0.8514668366
H       -2.1816652795   -0.2408836545   -0.3700096214
H       -0.9013134609    2.1851598225   -0.0917578467
C       -0.9713208101    0.4930721850    1.2922550863
H       -1.7796054791    0.8096670465    1.9434235428
13   
From optimize.out: Frame 46 / 76, Energy=    -286.9024795792
C        1.6748418411    0.2467077407   -0.2044413753
C        1.1063358299   -1.0640661662   -0.4388730599
C       -0.2336379318   -1.2272978540   -0.4359026725
C       -1.1629584774   -0.1878147276    0.0192153431
C       -0.3930194558    1.2607442379    0.1905203976
N        0.9952084085    1.3267228849   -0.0262855195
H        2.7562980234    0.3633461338   -0.2994744837
H        1.7640554889   -1.8609213428   -0.7720794192
H       -0.6715699567   -2.1395270077   -0.8377550585
H       -2.1849584859   -0.2730572650   -0.3533573567
H       -0.9276095259    2.1730365576   -0.0730105885
C       -0.9724539482    0.4950034026    1.2915025439
H       -1.7505318101    0.8871234057    1.9399412493
13   
From optimize.out: Frame 45 / 76, Energy=    -286.8981397934
C        1.6671642935    0.2479284914   -0.1926651930
C        1.1026392336   -1.0625946321   -0.4640218517
C       -0.2290479561   -1.2335764973   -0.4491102223
C       -1.1598258286   -0.1848684889    0.0259405718
C       -0.4148074734    1.2417035047    0.1463709447
N        0.9830244325    1.3212923187   -0.0119047695
H        2.7519562046    0.3617033664   -0.2431709636
H        1.7685253098   -1.8502060207   -0.8018288929
H       -0.6717981690   -2.1444227626   -0.8473945378
H       -2.1853020137   -0.3149395691   -0.3269070303
H       -0.9608776872    2.1531335095   -0.0900817042
C       -0.9683971587    0.4871550188    1.3010868807
H       -1.6832531873    0.9776917612    1.9536867681
13   
From optimize.out: Frame 43 / 76, Energy=    -286.8897980604
C        1.6528011360    0.2466585835   -0.1886193181
C        1.1003004943   -1.0662052413   -0.4861010334
C       -0.2263472676   -1.2503168267   -0.4638467731
C       -1.1507066207   -0.1861831253    0.0263101096
C       -0.4496866728    1.2228411187    0.1124165847
N        0.9560172792    1.3173637078   -0.0056104988
H        2.7375473308    0.3646077471   -0.2073126536
H        1.7735834004   -1.8503497104   -0.8176571969
H       -0.6618273391   -2.1678918502   -0.8492503091
H       -2.1796537867   -0.3405996954   -0.3084147032
H       -1.0122362404    2.1353056875   -0.0614944277
C       -0.9553431801    0.4890744022    1.2998234989
H       -1.5844485335    1.0856952027    1.9497567209
13   
From optimize.out: Frame 42 / 76, Energy=    -286.8820946198
C        1.6394609221    0.2443205257   -0.1725407730
C        1.0939805791   -1.0649697336   -0.5138031319
C       -0.2307883703   -1.2620657808   -0.4783318352
C       -1.1236322325   -0.1905612240    0.0434767468
C       -0.4802123237    1.2033322331    0.0805002399
N        0.9333358854    1.3154979654    0.0120113894
H        2.7250722861    0.3583449333   -0.1576113364
H        1.7738405120   -1.8374702408   -0.8594763123
H       -0.6648501911   -2.1828876552   -0.8539023850
H       -2.1591827370   -0.3580593284   -0.2737430771
H       -1.0638254317    2.1048399171   -0.0628224926
C       -0.9322422510    0.4885865894    1.3192946748
H       -1.5109566475    1.1810917988    1.9169482926
13   
From optimize.out: Frame 41 / 76, Energy=    -286.8739373268
C        1.6443524817    0.2489182771   -0.1666460397
C        1.0954475402   -1.0606602390   -0.5244701512
C       -0.2481492123   -1.2679096264   -0.4776714578
C       -1.0866874652   -0.1872158351    0.0621479829
C       -0.4752338111    1.1899540566    0.0516320138
N        0.9399154068    1.3160681136    0.0157233356
H        2.7287703313    0.3652491286   -0.1442415306
H        1.7772276704   -1.8248898057   -0.8896823368
H       -0.6913541419   -2.1903570009   -0.8359127594
H       -2.1252936832   -0.3146489953   -0.2721917115
H       -1.0714370465    2.0861413982   -0.0579640309
C       -0.9550900266    0.4341874638    1.3716139293
H       -1.5324680437    1.2051630644    1.8676627563
13   
From optimize.out: Frame 39 / 76, Energy=    -286.8610582040
C        1.6592933764    0.2621243554   -0.1594568854
C        1.0971479309   -1.0489977461   -0.5242533263
C       -0.2703678132   -1.2607802526   -0.4757986704
C       -1.0654620852   -0.1806387017    0.0824936980
C       -0.4500811792    1.1780592620    0.0255952669
N        0.9667670589    1.3179335553    0.0057294213
H        2.7414896292    0.3827848642   -0.1293727954
H        1.7769933211   -1.8123884366   -0.9008647171
H       -0.7314445309   -2.1769765355   -0.8271698224
H       -2.1007473746   -0.2647328528   -0.2756325209
H       -1.0534140249    2.0684789956   -0.0839535836
C       -0.9932957090    0.3600200683    1.4219455593
H       -1.5768785996    1.1751134244    1.8407383761
13   
From optimize.out: Frame 38 / 76, Energy=    -286.8594467000
C        1.6262382179    0.2399256202   -0.1504893424
C        1.0755478024   -1.0538513870   -0.5395702363
C       -0.2419563236   -1.2625038877   -0.4954543162
C       -1.0334667023   -0.1588422142    0.0788370609
C       -0.4561531586    1.1751147238    0.0063567621
N        0.9249609917    1.3317156654   -0.0014236642
H        2.7089300573    0.3554097873   -0.0933399543
H        1.7618548856   -1.8153777305   -0.9007787273
H       -0.6866875850   -2.1900183231   -0.8461817349
H       -2.0817408585   -0.2360665019   -0.2674648365
H       -1.0710682339    2.0591955447   -0.1001991197
C       -0.9745232029    0.3650017734    1.4551901111
H       -1.5519358902    1.1902969297    1.8545179978
13   
From optimize.out: Frame 37 / 76, Energy=    -286.8585553650
C        1.6228901236    0.2238623164   -0.1459002617
C        1.0750260457   -1.0550048087   -0.5412556939
C       -0.2242361044   -1.2492175888   -0.5071973964
C       -1.0273209752   -0.1368363722    0.0730369731
C       -0.4407086358    1.1858817779   -0.0216766318
N        0.9132199541    1.3443995462   -0.0185496037
H        2.7048469218    0.3361081879   -0.0676490291
H        1.7582385699   -1.8231003031   -0.8900663757
H       -0.6702369572   -2.1770442133   -0.8602879721
H       -2.0763955788   -0.2009038629   -0.2811682346
H       -1.0517503997    2.0732879045   -0.1410403427
C       -1.0019568546    0.3352066500    1.4890174828
H       -1.5816161093    1.1433607661    1.9127370858
13   
From optimize.out: Frame 35 / 76, Energy=    -286.8575158343
C        1.6393167084    0.2137510329   -0.1442953433
C        1.0873775235   -1.0532740804   -0.5331245619
C       -0.2158398839   -1.2273436071   -0.5114840137
C       -1.0343989983   -0.1161419606    0.0687126876
C       -0.4112380720    1.2019122145   -0.0541102534
N        0.9227851769    1.3556406392   -0.0413801068
H        2.7196993007    0.3251541946   -0.0521658386
H        1.7607991927   -1.8323251619   -0.8756451312
H       -0.6744997692   -2.1486009003   -0.8678317500
H       -2.0761217296   -0.1567437913   -0.3097507578
H       -1.0116450071    2.0967980112   -0.1933700190
C       -1.0597092250    0.2793154514    1.5270104561
H       -1.6465252172    1.0618579579    1.9874346320
13   
From optimize.out: Frame 34 / 76, Energy=    -286.8564568893
C        1.6629474898    0.2295716079   -0.1394223375
C        1.0944410304   -1.0398482592   -0.5258231996
C       -0.2481588588   -1.2099496272   -0.5099064392
C       -1.0472009483   -0.0944665970    0.0668306516
C       -0.4006039653    1.2297702438   -0.0719574506
N        0.9491565419    1.3495405389   -0.0598160588
H        2.7399917830    0.3415345886   -0.0368843415
H        1.7617890698   -1.8314852082   -0.8583279403
H       -0.7207967286   -2.1209774160   -0.8609942344
H       -2.0852370018   -0.1152419553   -0.3063575071
H       -0.9818534872    2.1345749791   -0.2129443793
C       -1.0691117013    0.1808535207    1.5050714936
H       -1.6553632236    0.9461235838    2.0105317432
13   
From optimize.out: Frame 33 / 76, Energy=    -286.8535070021
C        1.6829135186    0.2266701106   -0.1390538165
C        1.1056010296   -1.0357523205   -0.5163089941
C       -0.2504654172   -1.1893038248   -0.5080272252
C       -1.0531287130   -0.0753745900    0.0682062971
C       -0.3739207559    1.2450036680   -0.0927740250
N        0.9671913849    1.3558907215   -0.0788103352
H        2.7586056770    0.3384133178   -0.0318726845
H        1.7621246162   -1.8374843877   -0.8476629979
H       -0.7366340235   -2.0923623077   -0.8600371882
H       -2.0819892179   -0.0730829531   -0.3243280510
H       -0.9445376070    2.1564048395   -0.2449382852
C       -1.1199868498    0.1195306009    1.5225960359
H       -1.7157736420    0.8614471256    2.0530112696
13   
From optimize.out: Frame 31 / 76, Energy=    -286.8421837410
C        1.6983923296    0.2129050381   -0.1398603331
C        1.1176714610   -1.0367284162   -0.5070658526
C       -0.2352331033   -1.1669579753   -0.5079293465
C       -1.0545070572   -0.0572465218    0.0708696267
C       -0.3394593241    1.2534525924   -0.1163425513
N        0.9786346258    1.3701548519   -0.0975343993
H        2.7736228204    0.3229770398   -0.0280244594
H        1.7616146741   -1.8468886957   -0.8405560846
H       -0.7341887538   -2.0634699603   -0.8649972471
H       -2.0726214340   -0.0319033681   -0.3516807731
H       -0.9045121886    2.1687651085   -0.2878754687
C       -1.1895628155    0.0810406281    1.5623435872
H       -1.7998512345    0.7938996787    2.1086533019
13   
From optimize.out: Frame 30 / 76, Energy=    -286.8345086790
C        1.6914397174    0.2151488608   -0.1212348666
C        1.1103570056   -1.0260265786   -0.5165553144
C       -0.2443208085   -1.1494160386   -0.5292754916
C       -1.0556920296   -0.0311150599    0.0642216021
C       -0.3353371507    1.2785551401   -0.1485149210
N        0.9782084478    1.3812409818   -0.1093464520
H        2.7616727651    0.3133970223    0.0365394532
H        1.7566198304   -1.8443446946   -0.8244908137
H       -0.7512026509   -2.0386543567   -0.8920557738
H       -2.0852361979   -0.0060216232   -0.3281231993
H       -0.8888595887    2.1924201179   -0.3606596878
C       -1.1655887693    0.0246862000    1.5610272445
H       -1.7720605706    0.6901300287    2.1684682204
13   
From optimize.out: Frame 29 / 76, Energy=    -286.8284779528
C        1.6798384742    0.2189284472   -0.1002431946
C        1.1017704817   -1.0151981903   -0.5257981900
C       -0.2542437326   -1.1342586222   -0.5502952625
C       -1.0570813119   -0.0078416419    0.0593214823
C       -0.3347879030    1.2997424587   -0.1793270694
N        0.9736266535    1.3912294304   -0.1170509064
H        2.7428659455    0.3065439544    0.1036664251
H        1.7523705832   -1.8382788528   -0.8111007461
H       -0.7681480204   -2.0154566532   -0.9215898822
H       -2.0978284797    0.0193909323   -0.3001320520
H       -0.8769817056    2.2086246534   -0.4362081110
C       -1.1336152830   -0.0274677035    1.5573661032
H       -1.7277857019    0.5940417874    2.2213914035
13   
From optimize.out: Frame 27 / 76, Energy=    -286.8096712110
C        1.6647589392    0.2239989758   -0.0773721034
C        1.0918881627   -1.0037027197   -0.5341031376
C       -0.2644281469   -1.1190653126   -0.5712809726
C       -1.0590499670    0.0126919207    0.0555665300
C       -0.3385872011    1.3193814858   -0.2087094232
N        0.9663714339    1.4000542949   -0.1227721199
H        2.7187323694    0.3006731732    0.1722092593
H        1.7450816797   -1.8316288480   -0.7984629002
H       -0.7840138546   -1.9915372828   -0.9540081559
H       -2.1103700276    0.0347613298   -0.2696718027
H       -0.8702113726    2.2202490175   -0.5111914123
C       -1.0928296591   -0.0738196052    1.5517154629
H       -1.6673423557    0.5079435706    2.2680807757
13   
From optimize.out: Frame 26 / 76, Energy=    -286.8057799555
C        1.6461326438    0.2304708507   -0.0532280914
C        1.0809513799   -0.9921400889   -0.5414229584
C       -0.2749199937   -1.1052987371   -0.5919819761
C       -1.0622414312    0.0296184140    0.0531692942
C       -0.3465588680    1.3359182617   -0.2376578294
N        0.9558423223    1.4074884543   -0.1255459897
H        2.6893228738    0.2964716960    0.2410309969
H        1.7370642689   -1.8235111266   -0.7867794980
H       -0.7981179505   -1.9687546381   -0.9890358197
H       -2.1229792034    0.0424438043   -0.2376281092
H       -0.8683277459    2.2261538356   -0.5849494736
C       -1.0449592830   -0.1140173199    1.5448630741
H       -1.5912090130    0.4351565941    2.3091663802
13   
From optimize.out: Frame 25 / 76, Energy=    -286.7958477221
C        1.6238618451    0.2386009229   -0.0286960947
C        1.0689333568   -0.9814479515   -0.5472391924
C       -0.2861043799   -1.0949300311   -0.6114667455
C       -1.0664456131    0.0430927318    0.0527018962
C       -0.3574080660    1.3466938637   -0.2674366670
N        0.9412945752    1.4133777207   -0.1236016453
H        2.6547552017    0.2955630595    0.3084496464
H        1.7314958286   -1.8122028179   -0.7765948321
H       -0.8101710468   -1.9495020255   -1.0257115489
H       -2.1347116344    0.0502694942   -0.2054932124
H       -0.8697727838    2.2239922245   -0.6582862804
C       -0.9938224054   -0.1496822774    1.5377388419
H       -1.5019048781    0.3761750861    2.3456358342
13   
From optimize.out: Frame 23 / 76, Energy=    -286.7862241353
C        1.6008446019    0.2485046598   -0.0052191399
C        1.0534246452   -0.9704957071   -0.5465902207
C       -0.2981329163   -1.0802833834   -0.6272134704
C       -1.0665940758    0.0607361872    0.0541635936
C       -0.3682790981    1.3556317633   -0.2969650732
N        0.9272261384    1.4181976728   -0.1204910713
H        2.6189716995    0.2967181036    0.3704792317
H        1.7161373876   -1.8036870544   -0.7636698454
H       -0.8205826629   -1.9255191049   -1.0624756126
H       -2.1390391128    0.0534146053   -0.1804659918
H       -0.8723906121    2.2171496658   -0.7307274182
C       -0.9435832370   -0.1869315287    1.5301757871
H       -1.4080027576    0.3165641207    2.3789992314
13   
From optimize.out: Frame 22 / 76, Energy=    -286.7831107144
C        1.5811551808    0.2586469199    0.0167264168
C        1.0437265597   -0.9626188057   -0.5397253727
C       -0.3060482935   -1.0694221030   -0.6405335479
C       -1.0829792919    0.0588704637    0.0649130988
C       -0.3872696279    1.3440018388   -0.3253579412
N        0.9052755133    1.4156403523   -0.1094806832
H        2.5871823454    0.3056785826    0.4243525328
H        1.7136792029   -1.7888576651   -0.7597888368
H       -0.8198785120   -1.9040975888   -1.1059303420
H       -2.1576800362    0.0462950989   -0.1574010617
H       -0.8866245224    2.1800149233   -0.8106436383
C       -0.8914179358   -0.1949827385    1.5327433519
H       -1.2991205823    0.3108307216    2.4101260234
13   