13   
From optimize.out: Frame 1 / 2, Energy=    -286.8383070666
C       -0.0191690000    0.0971120000    0.0000000000
C       -0.1633230000   -0.0959460000   -0.0000000000
C       -0.0662420000    0.8882930000   -0.0000000000
C       -0.2582200000   -0.0657210000    0.0000000000
C        0.0887810000    0.0470900000   -0.0000000000
N       -0.3423130000    0.0392850000   -0.0000000000
H        0.1514400000    0.0028480000    0.0000000000
H        0.1472250000    0.0052810000   -0.0000000000
H        0.1362420000   -0.0193670000   -0.0000000000
H        0.1428470000    0.0227030000    0.0000000000
H        0.1430400000    0.0013830000   -0.0000000000
C       -0.1083810000    0.0778140000    0.0000000000
H        0.1480720000   -0.0007750000    0.0000000000
