13   
From optimize.out: Frame 1 / 2, Energy=    -286.8383070666
C        1.2032804335    0.3392835338    0.3347916079
C        0.6649463801   -1.0859383710   -0.1430045256
C       -0.6133333111   -0.9511261078   -0.8277092227
C       -1.0806741231    0.1429744421    0.1298472353
C       -0.5137572663    1.4334798190   -0.4498609995
N        0.7650536376    1.5127517671   -0.3783312743
H        2.2200148702    0.3337758563    0.7142682221
H        1.3730976292   -1.9076632467   -0.1834248102
H       -0.9311976298   -1.1928180351   -1.8392184772
H       -2.1199363622    0.1495444324    0.4657830881
H       -1.1027479579    2.1653504802   -1.0004630789
C        0.0918833559   -0.3236783934    1.0663264960
H        0.0433703445   -0.6159361774    2.1109957384
