13   
Frame   0 IRC: Energy =  -286.8593440000 ; +0.0000 kcal/mol
C        1.2020483640    0.2968718941    0.3973717450
C        0.6518928159   -1.0857946247   -0.1804447208
C       -0.6016286690   -0.8929725633   -0.8934841491
C       -1.0783918419    0.1715732368    0.0909278821
C       -0.4581395169    1.4742866052   -0.4016724722
N        0.8197271425    1.5144425158   -0.2709841290
H        2.2014198242    0.2461062344    0.8153561967
H        1.3416930674   -1.9208643611   -0.2378177434
H       -0.9371846917   -1.1568044435   -1.8916726194
H       -2.1289013505    0.1926387672    0.3862140645
H       -1.0035715481    2.2511441997   -0.9334929961
C        0.0453266776   -0.3687595079    1.0492656845
H       -0.0542902741   -0.7218679533    2.0704332572
13   
Frame   1 IRC: Energy =  -286.8585042808 ; +0.5269 kcal/mol
C        1.2054238576    0.3039576009    0.4055850481
C        0.6695643150   -1.0632612248   -0.2039418321
C       -0.5846399739   -0.8686422763   -0.9153713328
C       -1.0739831661    0.1829610985    0.0716853830
C       -0.4455877845    1.4948160018   -0.3917394583
N        0.8303325166    1.5329394504   -0.2436166373
H        2.1964675126    0.2485270997    0.8422619197
H        1.3574034371   -1.9000866991   -0.2671971701
H       -1.0117809685   -1.2930601853   -1.8152614739
H       -2.1273096068    0.1997877127    0.3538400063
H       -0.9833811537    2.2823167484   -0.9158128865
C        0.0407259026   -0.3693649238    1.0351858891
H       -0.0732348882   -0.7508904032    2.0443825447
13   
Frame   2 IRC: Energy =  -286.8574585768 ; +1.1831 kcal/mol
C        1.2035804231    0.3000655947    0.4147721663
C        0.6846205949   -1.0418207601   -0.2281439312
C       -0.5596361628   -0.8256451368   -0.9545928496
C       -1.0702294038    0.1929693780    0.0589811006
C       -0.4352235624    1.5084485115   -0.3824624720
N        0.8377237575    1.5458939248   -0.2199746556
H        2.1864281075    0.2385386704    0.8694835284
H        1.3739540683   -1.8735837266   -0.3148345540
H       -1.0690819352   -1.4022531767   -1.7131785113
H       -2.1271342225    0.2014073313    0.3292406860
H       -0.9651867870    2.2946274949   -0.9159376976
C        0.0313893362   -0.3772578802    1.0248266153
H       -0.0912042137   -0.7613902251    2.0318205746
13   
Frame   3 IRC: Energy =  -286.8546091251 ; +2.9712 kcal/mol
C        1.1948826596    0.2836056980    0.4217333315
C        0.7037141813   -1.0269575976   -0.2510865107
C       -0.5648550790   -0.8400447775   -0.9228624061
C       -1.0742006138    0.1920894189    0.0672208282
C       -0.4245251565    1.5005774260   -0.3866014501
N        0.8488453760    1.5294112507   -0.2220587652
H        2.1671934989    0.2023376926    0.8936181460
H        1.4195522647   -1.8226541726   -0.4489906211
H       -1.0673883203   -1.4384352624   -1.6672464230
H       -2.1358980981    0.2090078558    0.3149859522
H       -0.9463473296    2.2911613824   -0.9209534790
C        0.0142577808   -0.3617605399    1.0521933499
H       -0.1352311639   -0.7183383742    2.0700480474
13   
Frame   4 IRC: Energy =  -286.8480521895 ; +7.0857 kcal/mol (Transition State)
C        1.1773601962    0.2404638162    0.4236665297
C        0.7474422831   -1.0076354520   -0.3484440962
C       -0.5507259548   -0.8719318269   -0.8839977473
C       -1.0723098236    0.1933968280    0.0752265792
C       -0.4196611030    1.4972204200   -0.3894174538
N        0.8549923239    1.5121722247   -0.2283689134
H        2.1538880408    0.1865744272    0.8949375430
H        1.4430187140   -1.8270101620   -0.5136530838
H       -1.0592159239   -1.4456838438   -1.6452217282
H       -2.1381087182    0.2065963891    0.3008123040
H       -0.9418611600    2.2930188041   -0.9161172511
C       -0.0313773478   -0.2541526963    1.1319865194
H       -0.1634415266   -0.7230289283    2.0985907984
13   
Frame   5 IRC: Energy =  -286.8556827702 ; +2.2975 kcal/mol
C        1.1569892179    0.1934782913    0.4324652863
C        0.7786403575   -1.0055966012   -0.4468768067
C       -0.5200997746   -0.8984640808   -0.8560694098
C       -1.0675911478    0.1944571437    0.0846876264
C       -0.4162059846    1.4950410661   -0.3929279223
N        0.8552960548    1.4981205939   -0.2308180525
H        2.1441895013    0.1767270412    0.8933508370
H        1.4609817180   -1.8340634678   -0.5644819561
H       -1.0546938176   -1.4535197891   -1.6217971993
H       -2.1378473688    0.2049814497    0.2901041948
H       -0.9395523528    2.2953848803   -0.9121745519
C       -0.0782574745   -0.1298293857    1.2191309433
H       -0.1818489287   -0.7367171416    2.1054070108
13   
Frame   6 IRC: Energy =  -286.8668127128 ; -4.6867 kcal/mol
C        1.1363122547    0.1596853861    0.4521702284
C        0.8081266009   -1.0096579601   -0.4938924774
C       -0.4989875967   -0.9182524381   -0.8165808740
C       -1.0651864512    0.1996487042    0.0956066555
C       -0.4099965218    1.4897622806   -0.4064426404
N        0.8577657334    1.4808875354   -0.2357788648
H        2.1283093190    0.1590844654    0.8983344359
H        1.4930711379   -1.8322832418   -0.6577713047
H       -1.0530968868   -1.4700659590   -1.5728394330
H       -2.1402191994    0.2042456217    0.2703481886
H       -0.9345166661    2.3007810298   -0.9074996274
C       -0.1107552738   -0.0121350539    1.2906775048
H       -0.2108264501   -0.7517003704    2.0836682086
13   
Frame   7 IRC: Energy =  -286.8717284532 ; -7.7714 kcal/mol
C        1.1340652385    0.1514924346    0.4683765342
C        0.8174753540   -1.0134739416   -0.4853302433
C       -0.4982196421   -0.9398910469   -0.7668897245
C       -1.0657244081    0.2048560138    0.1013993397
C       -0.3949948152    1.4836898067   -0.4219227144
N        0.8722912961    1.4685580263   -0.2439042088
H        2.1178610990    0.1447012920    0.9327680853
H        1.5289820095   -1.7683860495   -0.7967754502
H       -1.0641130377   -1.5136147054   -1.4914226189
H       -2.1449762072    0.2152304615    0.2483058752
H       -0.9158246556    2.3050563470   -0.9087671127
C       -0.1266373323    0.0160205177    1.3032973894
H       -0.2601848989   -0.7542391563    2.0608648489
13   
Frame   8 IRC: Energy =  -286.8735030000 ; -8.8849 kcal/mol
C        1.1313057399    0.1421300425    0.4813772685
C        0.8226872974   -0.9981175663   -0.5023523275
C       -0.5007680845   -0.9567041943   -0.7421187399
C       -1.0673532594    0.2040250099    0.1023678996
C       -0.3777508977    1.4769089354   -0.4259374702
N        0.8848369478    1.4624368921   -0.2296839344
H        2.1047766271    0.1243014400    0.9675931947
H        1.5571892978   -1.6761527830   -0.9209851724
H       -1.0827382583   -1.5775976645   -1.4135531402
H       -2.1477035724    0.2357297152    0.2398643643
H       -0.8835005457    2.2975228476   -0.9303717150
C       -0.1409036481    0.0160663831    1.3091726063
H       -0.3000776440   -0.7505490577    2.0646271661
