
Running Job 1 of 1 irc_product.in
qchem irc_product.in_64057.0 ./irc_product.d/ 1
/home/leeping/opt/qchem/5.0.2-openmp/exe/qcprog.exe_s irc_product.in_64057.0 ./irc_product.d/
Check license passed

                  Welcome to Q-Chem
     A Quantum Leap Into The Future Of Chemistry


 Q-Chem 5.0, Q-Chem, Inc., Pleasanton, CA (2017)

 Yihan Shao,  Zhengting Gan,  E. Epifanovsky,  A. T. B. Gilbert,  M. Wormit,  
 J. Kussmann,  A. W. Lange,  A. Behn,  Jia Deng,  Xintian Feng,  D. Ghosh,  
 M. Goldey,  P. R. Horn,  L. D. Jacobson,  I. Kaliman,  T. Kus,  A. Landau,  
 Jie Liu,  E. I. Proynov,  R. M. Richard,  R. P. Steele,  E. J. Sundstrom,  
 H. L. Woodcock III,  P. M. Zimmerman,  D. Zuev,  B. Albrecht,  E. Alguire,  
 S. A. Baeppler,  D. Barton,  Z. Benda,  Y. A. Bernard,  E. J. Berquist,  
 K. B. Bravaya,  H. Burton,  D. Casanova,  Chun-Min Chang,  Yunqing Chen,  
 A. Chien,  K. D. Closser,  M. P. Coons,  S. Dasgupta,  A. L. Dempwolff,  
 M. Diedenhofen,  Hainam Do,  R. G. Edgar,  Po-Tung Fang,  S. Fatehi,  
 Qingguo Feng,  J. Fosso-Tande,  Qinghui Ge,  A. Ghysels,  G. Gidofalvi,  
 J. Gomes,  J. Gonthier,  A. Gunina,  M. W. D. Hanson-Heine,  
 P. H. P. Harbach,  A. W. Hauser,  J. E. Herr,  E. G. Hohenstein,  
 Z. C. Holden,  Kerwin Hui,  T.-C. Jagau,  Hyunjun Ji,  B. Kaduk,  
 K. Khistyaev,  Jaehoon Kim,  P. Klunzinger,  K. Koh,  D. Kosenkov,  
 L. Koulias,  T. Kowalczyk,  C. M. Krauter,  A. Kunitsa,  Ka Un Lao,  
 A. Laurent,  K. V. Lawler,  Joonho Lee,  D. Lefrancois,  S. Lehtola,  
 D. S. Levine,  Yi-Pei Li,  You-Sheng Lin,  Fenglai Liu,  E. Livshits,  
 A. Luenser,  P. Manohar,  E. Mansoor,  S. F. Manzer,  Shan-Ping Mao,  
 Yuezhi Mao,  N. Mardirossian,  A. V. Marenich,  T. Markovich,  
 L. A. Martinez-Martinez,  S. A. Maurer,  N. J. Mayhall,  S. C. McKenzie,  
 J.-M. Mewes,  A. F. Morrison,  J. W. Mullinax,  K. Nanda,  
 T. S. Nguyen-Beck,  R. Olivares-Amaya,  J. A. Parkhill,  T. M. Perrine,  
 F. Plasser,  S. Prager,  A. Prociuk,  E. Ramos,  D. R. Rehn,  F. Rob,  
 M. Schneider,  N. Sergueev,  S. M. Sharada,  S. Sharma,  D. W. Small,  
 T. Stauch,  T. Stein,  Yu-Chuan Su,  A. J. W. Thom,  A. Tkatchenko,  
 T. Tsuchimochi,  L. Vogt,  O. Vydrov,  M. A. Watson,  J. Wenzel,  
 M. de Wergifosse,  T. A. Wesolowski,  A. White,  J. Witte,  A. Yamada,  
 Jun Yang,  K. Yao,  S. Yeganeh,  S. R. Yost,  Zhi-Qiang You,  A. Zech,  
 Igor Ying Zhang,  Xing Zhang,  Yan Zhao,  Ying Zhu,  B. R. Brooks,  
 G. K. L. Chan,  C. J. Cramer,  M. S. Gordon,  W. J. Hehre,  A. Klamt,  
 M. W. Schmidt,  C. D. Sherrill,  D. G. Truhlar,  A. Aspuru-Guzik,  R. Baer,  
 A. T. Bell,  N. A. Besley,  Jeng-Da Chai,  R. A. DiStasio Jr.,  A. Dreuw,  
 B. D. Dunietz,  T. R. Furlani,  Chao-Ping Hsu,  Yousung Jung,  Jing Kong,  
 D. S. Lambrecht,  WanZhen Liang,  C. Ochsenfeld,  V. A. Rassolov,  
 L. V. Slipchenko,  J. E. Subotnik,  T. Van Voorhis,  J. M. Herbert,  
 A. I. Krylov,  P. M. W. Gill,  M. Head-Gordon

 Contributors to earlier versions of Q-Chem not listed above: 
 R. D. Adamson,  B. Austin,  J. Baker,  G. J. O. Beran,  K. Brandhorst,  
 S. T. Brown,  E. F. C. Byrd,  A. K. Chakraborty,  C.-L. Cheng,  
 Siu Hung Chien,  D. M. Chipman,  D. L. Crittenden,  H. Dachsel,  
 R. J. Doerksen,  A. D. Dutoi,  L. Fusti-Molnar,  W. A. Goddard III,  
 A. Golubeva-Zadorozhnaya,  S. R. Gwaltney,  G. Hawkins,  A. Heyden,  
 S. Hirata,  G. Kedziora,  F. J. Keil,  C. Kelley,  Jihan Kim,  R. A. King,  
 R. Z. Khaliullin,  P. P. Korambath,  W. Kurlancheek,  A. M. Lee,  M. S. Lee,  
 S. V. Levchenko,  Ching Yeh Lin,  D. Liotard,  R. C. Lochan,  I. Lotan,  
 P. E. Maslen,  N. Nair,  D. P. O'Neill,  D. Neuhauser,  E. Neuscamman,  
 C. M. Oana,  R. Olson,  B. Peters,  R. Peverati,  P. A. Pieniazek,  
 Y. M. Rhee,  J. Ritchie,  M. A. Rohrdanz,  E. Rosta,  N. J. Russ,  
 H. F. Schaefer III,  N. E. Schultz,  N. Shenvi,  A. C. Simmonett,  A. Sodt,  
 D. Stuck,  K. S. Thanthiriwatte,  V. Vanovschi,  Tao Wang,  A. Warshel,  
 C. F. Williams,  Q. Wu,  X. Xu,  W. Zhang

 Please cite Q-Chem as follows:
 Y. Shao et al., Mol. Phys. 113, 184-215 (2015)
 DOI: 10.1080/00268976.2014.952696

 Q-Chem 5.0.2 for Intel X86 EM64T Linux

 Parts of Q-Chem use Armadillo 5.200.1 (Boston Tea Smuggler).
 http://arma.sourceforge.net/

 Q-Chem begins on Thu Mar  3 04:35:44 2022  

Host: 
0

     Scratch files written to ./irc_product.d//
 Dec517 15110_ 26548  26544 5633   
Processing $rem in /home/leeping/opt/qchem/5.0.2-openmp/config/preferences.
 MEM_STATIC 2000
 MEM_TOTAL  8000
 SYMMETRY   OFF
 SYM_IGNORE TRUE 

Checking the input file for inconsistencies... 	...done.

--------------------------------------------------------------
User input:
--------------------------------------------------------------
$molecule
0 2
C        1.1313057399    0.1421300425    0.4813772685
C        0.8226872974   -0.9981175663   -0.5023523275
C       -0.5007680845   -0.9567041943   -0.7421187399
C       -1.0673532594    0.2040250099    0.1023678996
C       -0.3777508977    1.4769089354   -0.4259374702
N        0.8848369478    1.4624368921   -0.2296839344
H        2.1047766271    0.1243014400    0.9675931947
H        1.5571892978   -1.6761527830   -0.9209851724
H       -1.0827382583   -1.5775976645   -1.4135531402
H       -2.1477035724    0.2357297152    0.2398643643
H       -0.8835005457    2.2975228476   -0.9303717150
C       -0.1409036481    0.0160663831    1.3091726063
H       -0.3000776440   -0.7505490577    2.0646271661
$end

$rem
method                b3lyp
basis                 6-31+g(d,p)
unrestricted          true
symmetry              off
sym_ignore            true
incdft                false
incfock               0
scf_convergence       8
thresh                14
jobtype               sp
scf_guess             read
scf_algorithm         diis
max_scf_cycles        100
scf_final_print       1
$end

--------------------------------------------------------------
 ----------------------------------------------------------------
             Standard Nuclear Orientation (Angstroms)
    I     Atom           X                Y                Z
 ----------------------------------------------------------------
    1      C       1.1313057399     0.1421300425     0.4813772685
    2      C       0.8226872974    -0.9981175663    -0.5023523275
    3      C      -0.5007680845    -0.9567041943    -0.7421187399
    4      C      -1.0673532594     0.2040250099     0.1023678996
    5      C      -0.3777508977     1.4769089354    -0.4259374702
    6      N       0.8848369478     1.4624368921    -0.2296839344
    7      H       2.1047766271     0.1243014400     0.9675931947
    8      H       1.5571892978    -1.6761527830    -0.9209851724
    9      H      -1.0827382583    -1.5775976645    -1.4135531402
   10      H      -2.1477035724     0.2357297152     0.2398643643
   11      H      -0.8835005457     2.2975228476    -0.9303717150
   12      C      -0.1409036481     0.0160663831     1.3091726063
   13      H      -0.3000776440    -0.7505490577     2.0646271661
 ----------------------------------------------------------------
 Nuclear Repulsion Energy =   279.0232590625 hartrees
 There are       25 alpha and       24 beta electrons
 Requested basis set is 6-31+G(d,p)
 There are 53 shells and 163 basis functions

 Total QAlloc Memory Limit   8000 MB
 Mega-Array Size      1956 MB
 MEM_STATIC part      2000 MB

                       Distance Matrix (Angstroms)
             C (  1)   C (  2)   C (  3)   C (  4)   C (  5)   N (  6)
   C (  2)  1.537249
   C (  3)  2.316904  1.345636
   C (  4)  2.231945  2.320148  1.543201
   C (  5)  2.209549  2.751844  2.457148  1.541068
   N (  6)  1.519725  2.476396  2.834561  2.346254  1.277831
   H (  7)  1.088287  2.250404  3.298568  3.288978  3.151891  2.170791
   H (  8)  2.335412  1.083734  2.187416  3.386819  3.732407  3.283398
   H (  9)  3.383817  2.190144  1.083984  2.339323  3.286701  3.809817
   H ( 10)  3.289224  3.300983  2.258005  1.089526  2.261979  3.304783
   H ( 11)  3.270810  3.735709  3.282060  2.341599  1.087954  2.077342
   C ( 12)  1.523041  2.288820  2.298604  1.532976  2.280518  2.347810
   H ( 13)  2.313529  2.812699  2.821453  2.313090  3.342232  3.400764
             H (  7)   H (  8)   H (  9)   H ( 10)   H ( 11)   C ( 12)
   H (  8)  2.666124
   H (  9)  4.327421  2.687295
   H ( 10)  4.315738  4.327713  2.675088
   H ( 11)  4.153909  4.663384  3.910207  2.686755
   C ( 12)  2.274087  3.274252  3.292424  2.284495  3.282081
   H ( 13)  2.784272  3.635941  3.659823  2.777810  4.312904  1.088001

 
 A cutoff of  1.0D-14 yielded   1410 shell pairs
 There are     13528 function pairs
 
 -------------------------------------------------------
 OpenMP Integral Computing Module                       
 Release: version 1.0, May 2013, Q-Chem Inc. Pittsburgh 
 -------------------------------------------------------
 Integral Job Info:
 Integral job number is                      11
 Integral operator is                         1
 short-range coefficients                     0
 long-range coefficients              100000000
 Omega coefficients                           0
 if combine SR and LR in K                    0
 Integral screening is                        0
 Integral computing path is                   2
 max size of driver memory is            800000
 size of driver memory is                593474
 size of scratch memory is              2361544
 max col of scratch BK array               1296
 max len of scratch array in speh3          155
 max len of scratch index in speh4           18
 max int batch size is                      520
 min int batch size is                       52
 fixed nKL is                                52
 max L of basis functions is                  2
 order of int derivative is                   0
 number of shells is                         53
 number of basis is                         163
 number of cartesian basis is               163
 number of contracted shell pairs          1410
 number of primitive shell pairs           4819
 maxK2 (contraction) of shell pair           36
 max number of K2 of shell pair               1
 max number of CS2 of shell pair            127
 max number of PS2 of shell pair            684
 mem total for path MDJ                  535308
 -------------------------------------------------------
 Smallest overlap matrix eigenvalue = 2.23E-05

 Scale SEOQF with 1.000000e-01/1.000000e-01/1.000000e-01

 Standard Electronic Orientation quadrupole field applied
 Nucleus-field energy     =     0.0000000022 hartrees
 Guess MOs from SCF MO coefficient file
 Reading MOs from coefficient file
 Reading MOs from coefficient file
 An unrestricted hybrid HF-DFT SCF calculation will be
 performed using Pulay DIIS extrapolation
 Exchange:     0.2000 Hartree-Fock + 0.0800 Slater + 0.7200 B88
 Correlation:  0.1900 VWN1RPA + 0.8100 LYP
 Using SG-1 standard quadrature grid
 SCF converges when DIIS error is below 1.0E-08
Using Q-Chem read-in guess as SCF_GUESS READ specified.

 using 4 threads for integral computing
 -------------------------------------------------------
 OpenMP Integral computing Module                
 Release: version 1.0, May 2013, Q-Chem Inc. Pittsburgh 
 -------------------------------------------------------
 -------------------------------------------------------
 OpenMP BLAS3 based DFT computing Module                
 Release: version 1.0, May 2013, Q-Chem Inc. Pittsburgh 
 -------------------------------------------------------
 ---------------------------------------
  Cycle       Energy         DIIS Error
 ---------------------------------------
    1    -286.8735023154      6.56E-10
    2    -286.8735023154      1.43E-09 Convergence criterion met
 ---------------------------------------
 One-Electron    Energy =  -938.5700128571
 Total Coulomb   Energy =   414.2773772148
 Alpha Exchange  Energy =    -4.0199746232
 Beta  Exchange  Energy =    -3.9249859717
 DFT   Exchange  Energy =   -31.5530235315
 DFT Correlation Energy =    -2.1061416114
 Nuclear Repu.   Energy =   279.0232590647
 Nuclear Attr.   Energy = -1222.7292988710
 Kinetic         Energy =   284.1592860139
 <S^2> = 0.7539
 SCF time:  CPU 10.38 s  wall 3.41 s
 Final Alpha MO Eigenvalues
            1           2           3           4           5           6
    1 -14.3365679 -10.2345551 -10.2307268 -10.2206904 -10.2163168 -10.2129829
            7           8           9          10          11          12
    1 -10.2091419  -0.9647049  -0.8325088  -0.7368174  -0.7150398  -0.5888409
           13          14          15          16          17          18
    1  -0.5830309  -0.5393855  -0.5202505  -0.4813938  -0.4289968  -0.4203392
           19          20          21          22          23          24
    1  -0.3910110  -0.3824903  -0.3580353  -0.3046018  -0.2830401  -0.2711192
           25          26          27          28          29          30
    1  -0.2055754  -0.0410044   0.0020384   0.0022993   0.0204171   0.0259341
 Final Beta MO Eigenvalues
            1           2           3           4           5           6
    1 -14.3359624 -10.2345780 -10.2311355 -10.2210256 -10.2113541 -10.2081243
            7           8           9          10          11          12
    1 -10.2024693  -0.9613294  -0.8267164  -0.7354254  -0.7002341  -0.5870666
           13          14          15          16          17          18
    1  -0.5706287  -0.5359269  -0.5174699  -0.4724356  -0.4255494  -0.4161057
           19          20          21          22          23          24
    1  -0.3891396  -0.3792457  -0.3524112  -0.2975868  -0.2727865  -0.2680147
           25          26          27          28          29
    1  -0.0638799  -0.0356996   0.0025666   0.0034869   0.0206770
 SCF   energy in the final basis set = -286.87350232
 Total energy in the final basis set = -286.87350232
 
 --------------------------------------------------------------
 
                    Orbital Energies (a.u.)
 --------------------------------------------------------------
 
 Alpha MOs
 -- Occupied --
-14.337 -10.235 -10.231 -10.221 -10.216 -10.213 -10.209  -0.965
 -0.833  -0.737  -0.715  -0.589  -0.583  -0.539  -0.520  -0.481
 -0.429  -0.420  -0.391  -0.382  -0.358  -0.305  -0.283  -0.271
 -0.206
 -- Virtual --
 -0.041   0.002   0.002   0.020   0.026   0.032   0.048   0.049
  0.065   0.072   0.075   0.094   0.105   0.106   0.108   0.120
  0.121   0.131   0.138   0.150   0.170   0.171   0.185   0.190
  0.193   0.199   0.204   0.219   0.230   0.234   0.239   0.248
  0.257   0.267   0.280   0.286   0.303   0.325   0.336   0.342
  0.353   0.392   0.420   0.455   0.616   0.669   0.682   0.701
  0.707   0.717   0.727   0.737   0.746   0.764   0.777   0.789
  0.806   0.832   0.859   0.893   0.898   0.951   0.958   0.994
  1.011   1.026   1.052   1.071   1.083   1.106   1.121   1.145
  1.210   1.288   1.308   1.332   1.360   1.406   1.428   1.481
  1.498   1.576   1.624   1.686   1.743   1.753   1.809   1.833
  1.891   1.899   1.971   1.986   2.032   2.048   2.094   2.112
  2.121   2.170   2.219   2.266   2.292   2.322   2.354   2.396
  2.402   2.449   2.455   2.479   2.493   2.512   2.516   2.557
  2.590   2.605   2.625   2.636   2.686   2.742   2.777   2.791
  2.817   2.867   2.916   3.044   3.109   3.285   3.329   3.387
  3.448   3.542   3.716   4.141   4.376   4.473   4.555   4.612
  4.763   4.826
 
 Beta MOs
 -- Occupied --
-14.336 -10.235 -10.231 -10.221 -10.211 -10.208 -10.202  -0.961
 -0.827  -0.735  -0.700  -0.587  -0.571  -0.536  -0.517  -0.472
 -0.426  -0.416  -0.389  -0.379  -0.352  -0.298  -0.273  -0.268
 -- Virtual --
 -0.064  -0.036   0.003   0.003   0.021   0.028   0.033   0.048
  0.050   0.068   0.073   0.076   0.094   0.105   0.107   0.109
  0.120   0.127   0.132   0.140   0.152   0.170   0.171   0.185
  0.191   0.197   0.200   0.207   0.223   0.233   0.238   0.241
  0.251   0.261   0.269   0.280   0.291   0.308   0.328   0.340
  0.345   0.362   0.393   0.422   0.457   0.620   0.682   0.687
  0.710   0.714   0.725   0.733   0.740   0.749   0.769   0.790
  0.795   0.808   0.835   0.861   0.898   0.905   0.953   0.967
  0.999   1.013   1.029   1.057   1.077   1.084   1.108   1.125
  1.148   1.213   1.292   1.310   1.337   1.363   1.408   1.433
  1.487   1.508   1.585   1.631   1.692   1.747   1.759   1.818
  1.842   1.895   1.912   1.973   1.990   2.048   2.055   2.097
  2.123   2.130   2.172   2.225   2.273   2.306   2.324   2.359
  2.398   2.406   2.452   2.458   2.481   2.496   2.516   2.521
  2.564   2.602   2.610   2.636   2.638   2.689   2.745   2.779
  2.796   2.821   2.871   2.918   3.045   3.111   3.286   3.329
  3.396   3.451   3.543   3.718   4.142   4.386   4.477   4.571
  4.619   4.766   4.827
 --------------------------------------------------------------
 
          Ground-State Mulliken Net Atomic Charges

     Atom                 Charge (a.u.)    Spin (a.u.)
  --------------------------------------------------------
      1 C                     0.026562      -0.090440
      2 C                    -0.147497       0.044231
      3 C                    -0.128191       0.096124
      4 C                     0.008735      -0.061162
      5 C                    -0.090975      -0.031581
      6 N                    -0.204497       0.026084
      7 H                     0.129444       0.003607
      8 H                     0.138860       0.000737
      9 H                     0.138437       0.000097
     10 H                     0.124851       0.003451
     11 H                     0.137313      -0.000089
     12 C                    -0.271862       1.035157
     13 H                     0.138819      -0.026217
  --------------------------------------------------------
  Sum of atomic charges =     0.000000
  Sum of spin   charges =     1.000000

 -----------------------------------------------------------------
                    Cartesian Multipole Moments
 -----------------------------------------------------------------
    Charge (ESU x 10^10)
                 0.0000
    Dipole Moment (Debye)
         X      -1.6681      Y      -1.9748      Z      -0.1753
       Tot       2.5910
    Quadrupole Moments (Debye-Ang)
        XX     -39.3657     XY      -4.7419     YY     -44.1041
        XZ       2.1784     YZ      -0.0871     ZZ     -42.0009
    Octopole Moments (Debye-Ang^2)
       XXX     -12.6312    XXY     -12.4877    XYY     -12.5396
       YYY     -24.0490    XXZ       0.9088    XYZ       3.1127
       YYZ      -4.7838    XZZ      -4.8688    YZZ     -11.2288
       ZZZ      -0.2134
    Hexadecapole Moments (Debye-Ang^3)
      XXXX    -227.2516   XXXY     -11.4769   XXYY     -94.6336
      XYYY     -23.4393   YYYY    -313.5479   XXXZ      -0.7774
      XXYZ       3.0797   XYYZ       3.4312   YYYZ      -6.7116
      XXZZ     -68.9549   XYZZ      -0.3818   YYZZ     -77.6840
      XZZZ      -1.7806   YZZZ     -12.4240   ZZZZ    -192.2056
 -----------------------------------------------------------------
 Mayer SCF Bond Order, atomic valence on the diagonal:

            1           2           3           4           5           6
    1   3.5116972   0.8568440  -0.1081685  -0.1330971   0.0295953   0.9770691
    2   0.8568440   4.0696739   2.0745767  -0.0331793   0.0752239  -0.0212346
    3  -0.1081685   2.0745767   4.0995244   0.9091531   0.0597697   0.0288792
    4  -0.1330971  -0.0331793   0.9091531   3.4468887   0.8726850  -0.0544435
    5   0.0295953   0.0752239   0.0597697   0.8726850   3.9435564   1.8285877
    6   0.9770691  -0.0212346   0.0288792  -0.0544435   1.8285877   2.7643301
    7   0.9157692   0.0107552   0.0102032   0.0204638   0.0047164  -0.0227697
    8   0.0255540   0.8464810   0.0682834  -0.0009927   0.0073908   0.0001212
    9   0.0053489   0.0566194   0.8642773   0.0047268   0.0150871   0.0014738
   10   0.0212923   0.0052704   0.0212409   0.8816823   0.0000651   0.0116360
   11   0.0005567   0.0017861   0.0146977  -0.0425089   0.9636472  -0.0175736
   12   0.9196412   0.1819506   0.1599930   1.0088304   0.0783834   0.0204323
   13   0.0012920   0.0145804  -0.0033813   0.0135689   0.0084048   0.0121522
            7           8           9          10          11          12
    1   0.9157692   0.0255540   0.0053489   0.0212923   0.0005567   0.9196412
    2   0.0107552   0.8464810   0.0566194   0.0052704   0.0017861   0.1819506
    3   0.0102032   0.0682834   0.8642773   0.0212409   0.0146977   0.1599930
    4   0.0204638  -0.0009927   0.0047268   0.8816823  -0.0425089   1.0088304
    5   0.0047164   0.0073908   0.0150871   0.0000651   0.9636472   0.0783834
    6  -0.0227697   0.0001212   0.0014738   0.0116360  -0.0175736   0.0204323
    7   0.9483804   0.0001841   0.0014339   0.0026540   0.0015324   0.0033154
    8   0.0001841   0.9548006   0.0007470   0.0012791   0.0001750   0.0055894
    9   0.0014339   0.0007470   0.9555025   0.0002187   0.0002201   0.0053996
   10   0.0026540   0.0012791   0.0002187   0.9568561   0.0001268   0.0112449
   11   0.0015324   0.0001750   0.0002201   0.0001268   0.9477822   0.0243654
   12   0.0033154   0.0055894   0.0053996   0.0112449   0.0243654   3.3262099
   13   0.0001225  -0.0000118  -0.0000501   0.0001457   0.0007574   0.9070643
           13
    1   0.0012920
    2   0.0145804
    3  -0.0033813
    4   0.0135689
    5   0.0084048
    6   0.0121522
    7   0.0001225
    8  -0.0000118
    9  -0.0000501
   10   0.0001457
   11   0.0007574
   12   0.9070643
   13   0.9546451


Archival summary:
1\1\c8-73\SP\ProcedureUnspecified\6-31+G**\166(2)\hpark21\ThuMar304:35:492022ThuMar304:35:492022\0\\#,ProcedureUnspecified,6-31+G**,\\0,2\N\C,1,1.27783\H,2,1.08795,1,122.62\C,1,1.51973,2,104.001,3,-179.462,0\H,4,1.08829,1,111.613,2,-163.187,0\C,4,1.52304,1,100.996,2,-34.2741,0\H,6,1.088,4,123.912,1,-172.076,0\C,6,1.53298,4,93.83,1,53.2804,0\H,8,1.08953,6,120.23,4,-176.91,0\C,4,1.53725,1,108.206,2,66.7501,0\H,10,1.08373,4,125.114,1,112.153,0\C,10,1.34564,4,106.777,1,-66.6968,0\H,12,1.08398,10,128.372,4,177.392,0\\\@

 Total job time:  4.85s(wall), 12.07s(cpu) 
 Thu Mar  3 04:35:49 2022

        *************************************************************
        *                                                           *
        *  Thank you very much for using Q-Chem.  Have a nice day.  *
        *                                                           *
        *************************************************************


