
Running Job 1 of 1 irc_reactant.in
qchem irc_reactant.in_63333.0 ./irc_reactant.d/ 1
/home/leeping/opt/qchem/5.0.2-openmp/exe/qcprog.exe_s irc_reactant.in_63333.0 ./irc_reactant.d/
Check license passed

                  Welcome to Q-Chem
     A Quantum Leap Into The Future Of Chemistry


 Q-Chem 5.0, Q-Chem, Inc., Pleasanton, CA (2017)

 Yihan Shao,  Zhengting Gan,  E. Epifanovsky,  A. T. B. Gilbert,  M. Wormit,  
 J. Kussmann,  A. W. Lange,  A. Behn,  Jia Deng,  Xintian Feng,  D. Ghosh,  
 M. Goldey,  P. R. Horn,  L. D. Jacobson,  I. Kaliman,  T. Kus,  A. Landau,  
 Jie Liu,  E. I. Proynov,  R. M. Richard,  R. P. Steele,  E. J. Sundstrom,  
 H. L. Woodcock III,  P. M. Zimmerman,  D. Zuev,  B. Albrecht,  E. Alguire,  
 S. A. Baeppler,  D. Barton,  Z. Benda,  Y. A. Bernard,  E. J. Berquist,  
 K. B. Bravaya,  H. Burton,  D. Casanova,  Chun-Min Chang,  Yunqing Chen,  
 A. Chien,  K. D. Closser,  M. P. Coons,  S. Dasgupta,  A. L. Dempwolff,  
 M. Diedenhofen,  Hainam Do,  R. G. Edgar,  Po-Tung Fang,  S. Fatehi,  
 Qingguo Feng,  J. Fosso-Tande,  Qinghui Ge,  A. Ghysels,  G. Gidofalvi,  
 J. Gomes,  J. Gonthier,  A. Gunina,  M. W. D. Hanson-Heine,  
 P. H. P. Harbach,  A. W. Hauser,  J. E. Herr,  E. G. Hohenstein,  
 Z. C. Holden,  Kerwin Hui,  T.-C. Jagau,  Hyunjun Ji,  B. Kaduk,  
 K. Khistyaev,  Jaehoon Kim,  P. Klunzinger,  K. Koh,  D. Kosenkov,  
 L. Koulias,  T. Kowalczyk,  C. M. Krauter,  A. Kunitsa,  Ka Un Lao,  
 A. Laurent,  K. V. Lawler,  Joonho Lee,  D. Lefrancois,  S. Lehtola,  
 D. S. Levine,  Yi-Pei Li,  You-Sheng Lin,  Fenglai Liu,  E. Livshits,  
 A. Luenser,  P. Manohar,  E. Mansoor,  S. F. Manzer,  Shan-Ping Mao,  
 Yuezhi Mao,  N. Mardirossian,  A. V. Marenich,  T. Markovich,  
 L. A. Martinez-Martinez,  S. A. Maurer,  N. J. Mayhall,  S. C. McKenzie,  
 J.-M. Mewes,  A. F. Morrison,  J. W. Mullinax,  K. Nanda,  
 T. S. Nguyen-Beck,  R. Olivares-Amaya,  J. A. Parkhill,  T. M. Perrine,  
 F. Plasser,  S. Prager,  A. Prociuk,  E. Ramos,  D. R. Rehn,  F. Rob,  
 M. Schneider,  N. Sergueev,  S. M. Sharada,  S. Sharma,  D. W. Small,  
 T. Stauch,  T. Stein,  Yu-Chuan Su,  A. J. W. Thom,  A. Tkatchenko,  
 T. Tsuchimochi,  L. Vogt,  O. Vydrov,  M. A. Watson,  J. Wenzel,  
 M. de Wergifosse,  T. A. Wesolowski,  A. White,  J. Witte,  A. Yamada,  
 Jun Yang,  K. Yao,  S. Yeganeh,  S. R. Yost,  Zhi-Qiang You,  A. Zech,  
 Igor Ying Zhang,  Xing Zhang,  Yan Zhao,  Ying Zhu,  B. R. Brooks,  
 G. K. L. Chan,  C. J. Cramer,  M. S. Gordon,  W. J. Hehre,  A. Klamt,  
 M. W. Schmidt,  C. D. Sherrill,  D. G. Truhlar,  A. Aspuru-Guzik,  R. Baer,  
 A. T. Bell,  N. A. Besley,  Jeng-Da Chai,  R. A. DiStasio Jr.,  A. Dreuw,  
 B. D. Dunietz,  T. R. Furlani,  Chao-Ping Hsu,  Yousung Jung,  Jing Kong,  
 D. S. Lambrecht,  WanZhen Liang,  C. Ochsenfeld,  V. A. Rassolov,  
 L. V. Slipchenko,  J. E. Subotnik,  T. Van Voorhis,  J. M. Herbert,  
 A. I. Krylov,  P. M. W. Gill,  M. Head-Gordon

 Contributors to earlier versions of Q-Chem not listed above: 
 R. D. Adamson,  B. Austin,  J. Baker,  G. J. O. Beran,  K. Brandhorst,  
 S. T. Brown,  E. F. C. Byrd,  A. K. Chakraborty,  C.-L. Cheng,  
 Siu Hung Chien,  D. M. Chipman,  D. L. Crittenden,  H. Dachsel,  
 R. J. Doerksen,  A. D. Dutoi,  L. Fusti-Molnar,  W. A. Goddard III,  
 A. Golubeva-Zadorozhnaya,  S. R. Gwaltney,  G. Hawkins,  A. Heyden,  
 S. Hirata,  G. Kedziora,  F. J. Keil,  C. Kelley,  Jihan Kim,  R. A. King,  
 R. Z. Khaliullin,  P. P. Korambath,  W. Kurlancheek,  A. M. Lee,  M. S. Lee,  
 S. V. Levchenko,  Ching Yeh Lin,  D. Liotard,  R. C. Lochan,  I. Lotan,  
 P. E. Maslen,  N. Nair,  D. P. O'Neill,  D. Neuhauser,  E. Neuscamman,  
 C. M. Oana,  R. Olson,  B. Peters,  R. Peverati,  P. A. Pieniazek,  
 Y. M. Rhee,  J. Ritchie,  M. A. Rohrdanz,  E. Rosta,  N. J. Russ,  
 H. F. Schaefer III,  N. E. Schultz,  N. Shenvi,  A. C. Simmonett,  A. Sodt,  
 D. Stuck,  K. S. Thanthiriwatte,  V. Vanovschi,  Tao Wang,  A. Warshel,  
 C. F. Williams,  Q. Wu,  X. Xu,  W. Zhang

 Please cite Q-Chem as follows:
 Y. Shao et al., Mol. Phys. 113, 184-215 (2015)
 DOI: 10.1080/00268976.2014.952696

 Q-Chem 5.0.2 for Intel X86 EM64T Linux

 Parts of Q-Chem use Armadillo 5.200.1 (Boston Tea Smuggler).
 http://arma.sourceforge.net/

 Q-Chem begins on Thu Mar  3 04:26:49 2022  

Host: 
0

     Scratch files written to ./irc_reactant.d//
 Dec517 15110_ 26548  26544 5633   
Processing $rem in /home/leeping/opt/qchem/5.0.2-openmp/config/preferences.
 MEM_STATIC 2000
 MEM_TOTAL  8000
 SYMMETRY   OFF
 SYM_IGNORE TRUE 

Checking the input file for inconsistencies... 	...done.

--------------------------------------------------------------
User input:
--------------------------------------------------------------
$molecule
0 2
C        1.2020483640    0.2968718941    0.3973717450
C        0.6518928159   -1.0857946247   -0.1804447208
C       -0.6016286690   -0.8929725633   -0.8934841491
C       -1.0783918419    0.1715732368    0.0909278821
C       -0.4581395169    1.4742866052   -0.4016724722
N        0.8197271425    1.5144425158   -0.2709841290
H        2.2014198242    0.2461062344    0.8153561967
H        1.3416930674   -1.9208643611   -0.2378177434
H       -0.9371846917   -1.1568044435   -1.8916726194
H       -2.1289013505    0.1926387672    0.3862140645
H       -1.0035715481    2.2511441997   -0.9334929961
C        0.0453266776   -0.3687595079    1.0492656845
H       -0.0542902741   -0.7218679533    2.0704332572
$end

$rem
method                b3lyp
basis                 6-31+g(d,p)
unrestricted          true
symmetry              off
sym_ignore            true
incdft                false
incfock               0
scf_convergence       6
thresh                14
jobtype               sp
scf_guess             read
scf_algorithm         diis
max_scf_cycles        100
stability_analysis    true
max_cis_cycles        100
cis_n_roots           4
$end

--------------------------------------------------------------
 ----------------------------------------------------------------
             Standard Nuclear Orientation (Angstroms)
    I     Atom           X                Y                Z
 ----------------------------------------------------------------
    1      C       1.2020483640     0.2968718941     0.3973717450
    2      C       0.6518928159    -1.0857946247    -0.1804447208
    3      C      -0.6016286690    -0.8929725633    -0.8934841491
    4      C      -1.0783918419     0.1715732368     0.0909278821
    5      C      -0.4581395169     1.4742866052    -0.4016724722
    6      N       0.8197271425     1.5144425158    -0.2709841290
    7      H       2.2014198242     0.2461062344     0.8153561967
    8      H       1.3416930674    -1.9208643611    -0.2378177434
    9      H      -0.9371846917    -1.1568044435    -1.8916726194
   10      H      -2.1289013505     0.1926387672     0.3862140645
   11      H      -1.0035715481     2.2511441997    -0.9334929961
   12      C       0.0453266776    -0.3687595079     1.0492656845
   13      H      -0.0542902741    -0.7218679533     2.0704332572
 ----------------------------------------------------------------
 Nuclear Repulsion Energy =   282.0299154570 hartrees
 There are       25 alpha and       24 beta electrons
 Requested basis set is 6-31+G(d,p)
 There are 53 shells and 163 basis functions

 Total QAlloc Memory Limit   8000 MB
 Mega-Array Size      1956 MB
 MEM_STATIC part      2000 MB

                       Distance Matrix (Angstroms)
             C (  1)   C (  2)   C (  3)   C (  4)   C (  5)   N (  6)
   C (  2)  1.596343
   C (  3)  2.517000  1.454964
   C (  4)  2.304347  2.156039  1.526312
   C (  5)  2.186550  2.799130  2.422062  1.524608
   N (  6)  1.440607  2.607221  2.864159  2.353112  1.285160
   H (  7)  1.084450  2.273019  3.474869  3.359690  3.172198  2.167461
   H (  8)  2.311130  1.084646  2.294114  3.216081  3.846205  3.474893
   H (  9)  3.453870  2.336346  1.085627  2.390655  3.061409  3.584541
   H ( 10)  3.332599  3.112605  2.269084  1.091425  2.248295  3.297497
   H ( 11)  3.233441  3.800369  3.169957  2.319408  1.088043  2.075106
   C ( 12)  1.485273  1.547336  2.113676  1.572614  2.399066  2.426769
   H ( 13)  2.327091  2.386962  3.018884  2.401138  3.331290  3.353688
             H (  7)   H (  8)   H (  9)   H ( 10)   H ( 11)   C ( 12)
   H (  8)  2.558137
   H (  9)  4.375729  2.917586
   H ( 10)  4.351862  4.111124  2.903438
   H ( 11)  4.165408  4.836309  3.540710  2.691735
   C ( 12)  2.254221  2.397119  3.199291  2.341383  3.448973
   H ( 13)  2.756886  2.952014  4.082518  2.824346  4.331687  1.085077

 
 A cutoff of  1.0D-14 yielded   1403 shell pairs
 There are     13511 function pairs
 Smallest overlap matrix eigenvalue = 2.40E-05

 Scale SEOQF with 1.000000e-01/1.000000e-01/1.000000e-01

 Standard Electronic Orientation quadrupole field applied
 Nucleus-field energy     =     0.0000000027 hartrees
 Guess MOs from SCF MO coefficient file
 Reading MOs from coefficient file
 Reading MOs from coefficient file
 An unrestricted hybrid HF-DFT SCF calculation will be
 performed using Pulay DIIS extrapolation
 Exchange:     0.2000 Hartree-Fock + 0.0800 Slater + 0.7200 B88
 Correlation:  0.1900 VWN1RPA + 0.8100 LYP
 Using SG-1 standard quadrature grid
 SCF converges when DIIS error is below 1.0E-06
Using Q-Chem read-in guess as SCF_GUESS READ specified.

 -------------------------------------------------------
 OpenMP BLAS3 based DFT computing Module                
 -------------------------------------------------------
 ---------------------------------------
  Cycle       Energy         DIIS Error
 ---------------------------------------
    1    -286.8593440927      1.04E-09
    2    -286.8593440927      1.21E-09 Convergence criterion met
 ---------------------------------------
 <S^2> = 0.7568
 SCF time:  CPU 6.82 s  wall 10.13 s
 SCF   energy in the final basis set = -286.85934409
 Total energy in the final basis set = -286.85934409
 
 Direct TDDFT/TDA calculation will be performed
 Exchange:     0.2000 Hartree-Fock + 0.0800 Slater + 0.7200 B88
 Correlation:  0.1900 VWN1RPA + 0.8100 LYP
 Using SG-1 standard quadrature grid
 CIS energy converged when residual is below 10e- 6
 ---------------------------------------------------
 Iter    Rts Conv    Rts Left    Ttl Dev     Max Dev
 ---------------------------------------------------
   1         0           4      0.003352    0.001240
   2         0           4      0.001083    0.000389
   3         0           4      0.000578    0.000299
   4         0           4      0.000269    0.000138
   5         0           4      0.000104    0.000058
   6         0           4      0.000036    0.000016
   7         0           4      0.000013    0.000006
   8         2           2      0.000005    0.000003
   9         4           0      0.000001    0.000001    Roots Converged
 ---------------------------------------------------
 
 ---------------------------------------------------
         TDDFT/TDA Excitation Energies              
 ---------------------------------------------------

 Excited state   1: excitation energy (eV) =    3.4269
 Total energy for state  1:                  -286.73340843 au
    <S**2>     :  0.9289
    Trans. Mom.: -0.0042 X  -0.4357 Y   0.0110 Z
    Strength   :     0.0159526140
    S(  1) --> V(  1) amplitude =  0.9259 alpha
    D( 23) --> S(  1) amplitude = -0.3210 beta

 Excited state   2: excitation energy (eV) =    3.6370
 Total energy for state  2:                  -286.72568586 au
    <S**2>     :  1.2410
    Trans. Mom.:  0.0666 X  -0.0219 Y  -0.0511 Z
    Strength   :     0.0006714985
    D( 24) --> V(  1) amplitude =  0.2674 alpha
    D( 24) --> S(  1) amplitude =  0.9204 beta
    D( 24) --> V(  1) amplitude = -0.1541 beta

 Excited state   3: excitation energy (eV) =    4.1497
 Total energy for state  3:                  -286.70684495 au
    <S**2>     :  0.9458
    Trans. Mom.: -0.1421 X  -0.4732 Y  -0.1225 Z
    Strength   :     0.0263446941
    S(  1) --> V(  1) amplitude =  0.3315 alpha
    D( 23) --> S(  1) amplitude =  0.8884 beta
    D( 23) --> V(  1) amplitude = -0.1789 beta

 Excited state   4: excitation energy (eV) =    4.2991
 Total energy for state  4:                  -286.70135495 au
    <S**2>     :  0.8078
    Trans. Mom.:  0.0334 X   0.0927 Y  -0.1248 Z
    Strength   :     0.0026645176
    S(  1) --> V(  2) amplitude =  0.9829 alpha
 
 ---------------------------------------------------

 Stability analysis will be performed
 ---------------------------------------------------
 Iter    Rts Conv    Rts Left    Ttl Dev     Max Dev
 ---------------------------------------------------
   1         0           8      0.003858    0.000660
   2         0           8      0.001875    0.000916
   3         0           8      0.001029    0.000518
   4         0           8      0.000615    0.000280
   5         4           4      0.000533    0.000253
   6         4           4      0.000209    0.000099
   7         4           4      0.000084    0.000042
   8         5           3      0.000028    0.000015
   9         6           2      0.000011    0.000005
  10         7           1      0.000005    0.000001
  11         8           0      0.000004    0.000001    Roots Converged
 UKS-> UKS   stable,    smallest eigenvalue:      0.0994867
 UKS->CUKS   stable,    smallest eigenvalue:      0.1259988
 ---------------------------------------------------
  SETman timing summary (seconds)
  CPU time               193.30s
  System time              0.00s
  Wall time              206.22s
 
 --------------------------------------------------------------
 
                    Orbital Energies (a.u.)
 --------------------------------------------------------------
 
 Alpha MOs
 -- Occupied --
-14.334 -10.234 -10.230 -10.220 -10.219 -10.219 -10.216  -0.979
 -0.867  -0.759  -0.673  -0.615  -0.580  -0.544  -0.524  -0.475
 -0.448  -0.415  -0.410  -0.366  -0.346  -0.309  -0.285  -0.267
 -0.188
 -- Virtual --
 -0.018   0.002   0.016   0.020   0.032   0.045   0.047   0.059
  0.072   0.074   0.080   0.092   0.103   0.109   0.111   0.115
  0.125   0.138   0.146   0.162   0.165   0.175   0.183   0.186
  0.188   0.194   0.211   0.216   0.227   0.240   0.246   0.254
  0.260   0.264   0.283   0.293   0.300   0.321   0.332   0.338
  0.358   0.386   0.421   0.456   0.617   0.663   0.674   0.689
  0.706   0.724   0.731   0.744   0.751   0.764   0.788   0.793
  0.803   0.812   0.832   0.872   0.903   0.919   0.932   0.982
  0.991   1.030   1.042   1.044   1.079   1.088   1.103   1.154
  1.229   1.260   1.325   1.388   1.414   1.470   1.484   1.495
  1.545   1.579   1.645   1.686   1.690   1.776   1.800   1.850
  1.908   1.914   1.959   1.979   2.021   2.080   2.119   2.144
  2.162   2.183   2.229   2.304   2.346   2.361   2.368   2.399
  2.416   2.449   2.465   2.482   2.499   2.512   2.543   2.561
  2.566   2.587   2.616   2.641   2.684   2.717   2.765   2.805
  2.822   2.875   2.997   3.046   3.094   3.271   3.333   3.360
  3.528   3.552   3.660   4.180   4.428   4.456   4.601   4.616
  4.659   4.877
 
 Beta MOs
 -- Occupied --
-14.333 -10.232 -10.229 -10.221 -10.220 -10.217 -10.204  -0.975
 -0.861  -0.751  -0.662  -0.611  -0.576  -0.537  -0.518  -0.469
 -0.444  -0.412  -0.404  -0.358  -0.342  -0.302  -0.274  -0.262
 -- Virtual --
 -0.075  -0.007   0.003   0.016   0.020   0.035   0.046   0.048
  0.060   0.073   0.078   0.082   0.094   0.104   0.109   0.112
  0.117   0.128   0.140   0.148   0.162   0.167   0.177   0.184
  0.187   0.191   0.195   0.212   0.220   0.233   0.242   0.250
  0.256   0.263   0.266   0.286   0.296   0.303   0.323   0.334
  0.342   0.362   0.389   0.426   0.461   0.620   0.669   0.687
  0.698   0.710   0.729   0.742   0.751   0.756   0.773   0.790
  0.801   0.808   0.814   0.839   0.874   0.906   0.921   0.935
  0.984   0.995   1.033   1.046   1.047   1.082   1.092   1.110
  1.162   1.231   1.265   1.330   1.391   1.417   1.478   1.495
  1.501   1.550   1.585   1.648   1.689   1.699   1.783   1.807
  1.863   1.912   1.924   1.967   1.985   2.025   2.086   2.133
  2.153   2.170   2.188   2.232   2.308   2.352   2.363   2.373
  2.403   2.420   2.458   2.467   2.487   2.506   2.518   2.546
  2.564   2.573   2.593   2.623   2.647   2.687   2.722   2.772
  2.808   2.825   2.878   3.000   3.049   3.096   3.272   3.335
  3.365   3.530   3.556   3.664   4.182   4.445   4.458   4.604
  4.621   4.664   4.882
 --------------------------------------------------------------
 
          Ground-State Mulliken Net Atomic Charges

     Atom                 Charge (a.u.)    Spin (a.u.)
  --------------------------------------------------------
      1 C                    -0.290855       0.102762
      2 C                    -0.054332      -0.154454
      3 C                    -0.153417       0.980025
      4 C                    -0.026500      -0.115406
      5 C                    -0.052738       0.053353
      6 N                    -0.171048       0.035908
      7 H                     0.144223       0.003593
      8 H                     0.138513       0.005193
      9 H                     0.130796      -0.023103
     10 H                     0.133553       0.023553
     11 H                     0.131177       0.001100
     12 C                    -0.062716       0.087197
     13 H                     0.133344       0.000280
  --------------------------------------------------------
  Sum of atomic charges =     0.000000
  Sum of spin   charges =     1.000000

 -----------------------------------------------------------------
                    Cartesian Multipole Moments
 -----------------------------------------------------------------
    Charge (ESU x 10^10)
                 0.0000
    Dipole Moment (Debye)
         X      -1.3127      Y      -1.7108      Z       0.7988
       Tot       2.2995
    Quadrupole Moments (Debye-Ang)
        XX     -39.7697     XY      -5.5023     YY     -45.1156
        XZ       2.3538     YZ       0.1885     ZZ     -40.1684
    Octopole Moments (Debye-Ang^2)
       XXX      -8.4549    XXY      -8.2967    XYY      -8.9729
       YYY     -22.2406    XXZ       4.5558    XYZ       2.7063
       YYZ      -0.0503    XZZ      -5.3636    YZZ      -8.8418
       ZZZ       5.9366
    Hexadecapole Moments (Debye-Ang^3)
      XXXX    -224.9565   XXXY     -12.5000   XXYY     -97.7772
      XYYY     -31.8803   YYYY    -330.6361   XXXZ     -13.8298
      XXYZ       3.9925   XYYZ      -0.9174   YYYZ       4.1907
      XXZZ     -66.3293   XYZZ      -1.8850   YYZZ     -77.8388
      XZZZ     -15.7707   YZZZ       6.4361   ZZZZ    -155.0491
 -----------------------------------------------------------------
Archival summary:
1\1\c8-73\SP\ProcedureUnspecified\6-31+G**\166(2)\hpark21\ThuMar304:30:282022ThuMar304:30:282022\0\\#,ProcedureUnspecified,6-31+G**,\\0,2\N\C,1,1.28516\H,2,1.08804,1,121.725\C,1,1.44061,2,106.538,3,-176.177,0\H,4,1.08445,1,117.578,2,-165.398,0\C,4,1.48527,1,112.068,2,-16.7525,0\H,6,1.08508,4,129.079,1,-128.766,0\C,2,1.52461,1,113.476,3,172.523,0\H,8,1.09142,2,117.549,1,156.308,0\C,8,1.52631,2,105.099,1,-68.3317,0\H,10,1.08563,8,131.756,2,-79.022,0\C,10,1.45496,8,92.6061,2,84.6001,0\H,12,1.08465,10,128.611,8,161.76,0\\\@

 Total job time:  219.66s(wall), 200.36s(cpu) 
 Thu Mar  3 04:30:28 2022

        *************************************************************
        *                                                           *
        *  Thank you very much for using Q-Chem.  Have a nice day.  *
        *                                                           *
        *************************************************************


