
Running Job 1 of 1 qcfsm.in
qchem qcfsm.in_45101.0 ./qcfsm.d/ 1
/home/leeping/opt/qchem/5.0.2-openmp/exe/qcprog.exe_s qcfsm.in_45101.0 ./qcfsm.d/
Check license passed

                  Welcome to Q-Chem
     A Quantum Leap Into The Future Of Chemistry


 Q-Chem 5.0, Q-Chem, Inc., Pleasanton, CA (2017)

 Yihan Shao,  Zhengting Gan,  E. Epifanovsky,  A. T. B. Gilbert,  M. Wormit,  
 J. Kussmann,  A. W. Lange,  A. Behn,  Jia Deng,  Xintian Feng,  D. Ghosh,  
 M. Goldey,  P. R. Horn,  L. D. Jacobson,  I. Kaliman,  T. Kus,  A. Landau,  
 Jie Liu,  E. I. Proynov,  R. M. Richard,  R. P. Steele,  E. J. Sundstrom,  
 H. L. Woodcock III,  P. M. Zimmerman,  D. Zuev,  B. Albrecht,  E. Alguire,  
 S. A. Baeppler,  D. Barton,  Z. Benda,  Y. A. Bernard,  E. J. Berquist,  
 K. B. Bravaya,  H. Burton,  D. Casanova,  Chun-Min Chang,  Yunqing Chen,  
 A. Chien,  K. D. Closser,  M. P. Coons,  S. Dasgupta,  A. L. Dempwolff,  
 M. Diedenhofen,  Hainam Do,  R. G. Edgar,  Po-Tung Fang,  S. Fatehi,  
 Qingguo Feng,  J. Fosso-Tande,  Qinghui Ge,  A. Ghysels,  G. Gidofalvi,  
 J. Gomes,  J. Gonthier,  A. Gunina,  M. W. D. Hanson-Heine,  
 P. H. P. Harbach,  A. W. Hauser,  J. E. Herr,  E. G. Hohenstein,  
 Z. C. Holden,  Kerwin Hui,  T.-C. Jagau,  Hyunjun Ji,  B. Kaduk,  
 K. Khistyaev,  Jaehoon Kim,  P. Klunzinger,  K. Koh,  D. Kosenkov,  
 L. Koulias,  T. Kowalczyk,  C. M. Krauter,  A. Kunitsa,  Ka Un Lao,  
 A. Laurent,  K. V. Lawler,  Joonho Lee,  D. Lefrancois,  S. Lehtola,  
 D. S. Levine,  Yi-Pei Li,  You-Sheng Lin,  Fenglai Liu,  E. Livshits,  
 A. Luenser,  P. Manohar,  E. Mansoor,  S. F. Manzer,  Shan-Ping Mao,  
 Yuezhi Mao,  N. Mardirossian,  A. V. Marenich,  T. Markovich,  
 L. A. Martinez-Martinez,  S. A. Maurer,  N. J. Mayhall,  S. C. McKenzie,  
 J.-M. Mewes,  A. F. Morrison,  J. W. Mullinax,  K. Nanda,  
 T. S. Nguyen-Beck,  R. Olivares-Amaya,  J. A. Parkhill,  T. M. Perrine,  
 F. Plasser,  S. Prager,  A. Prociuk,  E. Ramos,  D. R. Rehn,  F. Rob,  
 M. Schneider,  N. Sergueev,  S. M. Sharada,  S. Sharma,  D. W. Small,  
 T. Stauch,  T. Stein,  Yu-Chuan Su,  A. J. W. Thom,  A. Tkatchenko,  
 T. Tsuchimochi,  L. Vogt,  O. Vydrov,  M. A. Watson,  J. Wenzel,  
 M. de Wergifosse,  T. A. Wesolowski,  A. White,  J. Witte,  A. Yamada,  
 Jun Yang,  K. Yao,  S. Yeganeh,  S. R. Yost,  Zhi-Qiang You,  A. Zech,  
 Igor Ying Zhang,  Xing Zhang,  Yan Zhao,  Ying Zhu,  B. R. Brooks,  
 G. K. L. Chan,  C. J. Cramer,  M. S. Gordon,  W. J. Hehre,  A. Klamt,  
 M. W. Schmidt,  C. D. Sherrill,  D. G. Truhlar,  A. Aspuru-Guzik,  R. Baer,  
 A. T. Bell,  N. A. Besley,  Jeng-Da Chai,  R. A. DiStasio Jr.,  A. Dreuw,  
 B. D. Dunietz,  T. R. Furlani,  Chao-Ping Hsu,  Yousung Jung,  Jing Kong,  
 D. S. Lambrecht,  WanZhen Liang,  C. Ochsenfeld,  V. A. Rassolov,  
 L. V. Slipchenko,  J. E. Subotnik,  T. Van Voorhis,  J. M. Herbert,  
 A. I. Krylov,  P. M. W. Gill,  M. Head-Gordon

 Contributors to earlier versions of Q-Chem not listed above: 
 R. D. Adamson,  B. Austin,  J. Baker,  G. J. O. Beran,  K. Brandhorst,  
 S. T. Brown,  E. F. C. Byrd,  A. K. Chakraborty,  C.-L. Cheng,  
 Siu Hung Chien,  D. M. Chipman,  D. L. Crittenden,  H. Dachsel,  
 R. J. Doerksen,  A. D. Dutoi,  L. Fusti-Molnar,  W. A. Goddard III,  
 A. Golubeva-Zadorozhnaya,  S. R. Gwaltney,  G. Hawkins,  A. Heyden,  
 S. Hirata,  G. Kedziora,  F. J. Keil,  C. Kelley,  Jihan Kim,  R. A. King,  
 R. Z. Khaliullin,  P. P. Korambath,  W. Kurlancheek,  A. M. Lee,  M. S. Lee,  
 S. V. Levchenko,  Ching Yeh Lin,  D. Liotard,  R. C. Lochan,  I. Lotan,  
 P. E. Maslen,  N. Nair,  D. P. O'Neill,  D. Neuhauser,  E. Neuscamman,  
 C. M. Oana,  R. Olson,  B. Peters,  R. Peverati,  P. A. Pieniazek,  
 Y. M. Rhee,  J. Ritchie,  M. A. Rohrdanz,  E. Rosta,  N. J. Russ,  
 H. F. Schaefer III,  N. E. Schultz,  N. Shenvi,  A. C. Simmonett,  A. Sodt,  
 D. Stuck,  K. S. Thanthiriwatte,  V. Vanovschi,  Tao Wang,  A. Warshel,  
 C. F. Williams,  Q. Wu,  X. Xu,  W. Zhang

 Please cite Q-Chem as follows:
 Y. Shao et al., Mol. Phys. 113, 184-215 (2015)
 DOI: 10.1080/00268976.2014.952696

 Q-Chem 5.0.2 for Intel X86 EM64T Linux

 Parts of Q-Chem use Armadillo 5.200.1 (Boston Tea Smuggler).
 http://arma.sourceforge.net/

 Q-Chem begins on Thu Mar  3 00:12:35 2022  

Host: 
0

     Scratch files written to ./qcfsm.d//
 Dec517 15110_ 26548  26544 5633   
Processing $rem in /home/leeping/opt/qchem/5.0.2-openmp/config/preferences.
 MEM_STATIC 2000
 MEM_TOTAL  8000
 SYMMETRY   OFF
 SYM_IGNORE TRUE 
 Now reading second FSM geometry

Checking the input file for inconsistencies... 	...done.

--------------------------------------------------------------
User input:
--------------------------------------------------------------
$molecule
0 2
C        1.5754785653    0.4456378027   -0.0864065337
C        0.8223283915   -0.8151126325    0.1169043780
C       -0.5184346897   -0.9679999234   -0.5827410394
C       -1.1197088540    0.3163730023   -0.0359153085
C       -0.3701531584    1.5790024873   -0.2391948709
N        0.9609384316    1.6142423936   -0.2595241318
H        2.6636733083    0.4391202389   -0.0978608632
H        1.4056143291   -1.7249866416    0.2489551345
H       -0.9199163278   -1.7438934080   -1.2196390896
H       -2.2065761233    0.3796194190   -0.0333785087
H       -0.9038662590    2.5172603176   -0.3783017375
C       -0.5020008311   -0.7459385163    0.8590849691
H       -0.8873767824   -1.2933245392    1.7080176017
****
C        1.1178832994    0.1504647269    0.5071172560
C        0.8412170162   -0.9832669769   -0.4924742580
C       -0.4761231641   -0.9583432314   -0.7521052153
C       -1.0712026299    0.1923376245    0.0845305467
C       -0.3806347972    1.4743321331   -0.4231107686
N        0.8759190277    1.4746775151   -0.2009207707
H        2.0813130172    0.1370264041    1.0146323582
H        1.5943963647   -1.6397644638   -0.9140547457
H       -1.0394767459   -1.5833684142   -1.4363870504
H       -2.1550433296    0.2138295472    0.1988367436
H       -0.8837721989    2.2898232493   -0.9400559736
C       -0.1694328684    0.0095775544    1.3099434918
H       -0.3350429910   -0.7773256685    2.0440483859
$end

$rem
method                b3lyp
basis                 6-31g(d)
unrestricted          true
symmetry              off
sym_ignore            true
incdft                false
incfock               0
scf_convergence       8
thresh                14
jobtype               fsm
scf_guess             core
scf_guess_mix         5
scf_algorithm         diis
max_scf_cycles        100
fsm_nnode             21
fsm_ngrad             6
fsm_mode              2
fsm_opt_mode          2
$end

--------------------------------------------------------------
 ----------------------------------------------------------------
             Standard Nuclear Orientation (Angstroms)
    I     Atom           X                Y                Z
 ----------------------------------------------------------------
    1      C       1.5754785653     0.4456378027    -0.0864065337
    2      C       0.8223283915    -0.8151126325     0.1169043780
    3      C      -0.5184346897    -0.9679999234    -0.5827410394
    4      C      -1.1197088540     0.3163730023    -0.0359153085
    5      C      -0.3701531584     1.5790024873    -0.2391948709
    6      N       0.9609384316     1.6142423936    -0.2595241318
    7      H       2.6636733083     0.4391202389    -0.0978608632
    8      H       1.4056143291    -1.7249866416     0.2489551345
    9      H      -0.9199163278    -1.7438934080    -1.2196390896
   10      H      -2.2065761233     0.3796194190    -0.0333785087
   11      H      -0.9038662590     2.5172603176    -0.3783017375
   12      C      -0.5020008311    -0.7459385163     0.8590849691
   13      H      -0.8873767824    -1.2933245392     1.7080176017
 ----------------------------------------------------------------
 Nuclear Repulsion Energy =   277.2162443060 hartrees
 There are       25 alpha and       24 beta electrons
 Requested basis set is 6-31G(d)
 There are 40 shells and 117 basis functions

 Total QAlloc Memory Limit   8000 MB
 Mega-Array Size      1956 MB
 MEM_STATIC part      2000 MB
 beginning FSman 

*******************************************
*******************************************
******** Starting FSM Calculation *********
*******************************************
*******************************************
-FSM parameters:
 Maximum displacement of each coordinate during optimization (Angstrom)      0.05
 Maximum optimization steps for each new node                                6
 The scaling factor for optimization (hartrees/Angstrom^2)                   1.75
 The number of LST interpolations used for reparameterization                100
-Aligning product structure to maximum coincidence with the reactant structure
 Total R --> P Distance 2.521484
 New node interpolation distace (Angstroms): 0.12
-Performing force calculation on reactant structure in state:0
 ----------------------------------------------------------------
             Standard Nuclear Orientation (Angstroms)
    I     Atom           X                Y                Z
 ----------------------------------------------------------------
    1      C       1.5754785653     0.4456378027    -0.0864065337
    2      C       0.8223283915    -0.8151126325     0.1169043780
    3      C      -0.5184346897    -0.9679999234    -0.5827410394
    4      C      -1.1197088540     0.3163730023    -0.0359153085
    5      C      -0.3701531584     1.5790024873    -0.2391948709
    6      N       0.9609384316     1.6142423936    -0.2595241318
    7      H       2.6636733083     0.4391202389    -0.0978608632
    8      H       1.4056143291    -1.7249866416     0.2489551345
    9      H      -0.9199163278    -1.7438934080    -1.2196390896
   10      H      -2.2065761233     0.3796194190    -0.0333785087
   11      H      -0.9038662590     2.5172603176    -0.3783017375
   12      C      -0.5020008311    -0.7459385163     0.8590849691
   13      H      -0.8873767824    -1.2933245392     1.7080176017
 ----------------------------------------------------------------
 Nuclear Repulsion Energy =   277.2162443060 hartrees
 There are       25 alpha and       24 beta electrons

                       Distance Matrix (Angstroms)
             C (  1)   C (  2)   C (  3)   C (  4)   C (  5)   N (  6)
   C (  2)  1.482586
   C (  3)  2.574722  1.520041
   C (  4)  2.698758  2.252803  1.519922
   C (  5)  2.256844  2.698260  2.574341  1.482359
   N (  6)  1.331640  2.462250  2.993491  2.462429  1.331713
   H (  7)  1.088275  2.238253  3.512963  3.785880  3.243981  2.075175
   H (  8)  2.202937  1.088821  2.228612  3.259687  3.782590  3.406866
   H (  9)  3.507885  2.384198  1.081128  2.384495  3.507869  3.966927
   H ( 10)  3.783003  3.259483  2.228833  1.088709  2.203027  3.407137
   H ( 11)  3.244067  3.785457  3.512462  2.237794  1.088360  2.075342
   C ( 12)  2.574826  1.519692  1.458919  1.520228  2.574675  2.993649
   H ( 13)  3.508505  2.383992  2.342975  2.384619  3.508478  3.967548
             H (  7)   H (  8)   H (  9)   H ( 10)   H ( 11)   C ( 12)
   H (  8)  2.527123
   H (  9)  4.343507  2.750494
   H ( 10)  4.871040  4.190107  2.751729
   H ( 11)  4.138194  4.870709  4.343448  2.526961
   C ( 12)  3.513062  2.229302  2.343429  2.229114  3.512989
   H ( 13)  4.344251  2.751909  2.962304  2.751634  4.344371  1.081126

 
 Requested basis set is 6-31G(d)
 There are 40 shells and 117 basis functions
 A cutoff of  1.0D-14 yielded    808 shell pairs
 There are      7080 function pairs
 
 -------------------------------------------------------
 OpenMP Integral Computing Module                       
 Release: version 1.0, May 2013, Q-Chem Inc. Pittsburgh 
 -------------------------------------------------------
 Integral Job Info:
 Integral job number is                      11
 Integral operator is                         1
 short-range coefficients                     0
 long-range coefficients              100000000
 Omega coefficients                           0
 if combine SR and LR in K                    0
 Integral screening is                        0
 Integral computing path is                   2
 max size of driver memory is            800000
 size of driver memory is                593474
 size of scratch memory is              2361544
 max col of scratch BK array               1296
 max len of scratch array in speh3          155
 max len of scratch index in speh4           18
 max int batch size is                      520
 min int batch size is                       52
 fixed nKL is                                52
 max L of basis functions is                  2
 order of int derivative is                   0
 number of shells is                         40
 number of basis is                         117
 number of cartesian basis is               117
 number of contracted shell pairs           808
 number of primitive shell pairs           3556
 maxK2 (contraction) of shell pair           36
 max number of K2 of shell pair               1
 max number of CS2 of shell pair             84
 max number of PS2 of shell pair            366
 mem total for path MDJ                  535308
 -------------------------------------------------------
 Smallest overlap matrix eigenvalue = 1.59E-03

 Scale SEOQF with 1.000000e-01/1.000000e-01/1.000000e-01

 Standard Electronic Orientation quadrupole field applied
 Nucleus-field energy     =     0.0000000051 hartrees
 Guess MOs from core Hamiltonian diagonalization
 Mixing HOMO and LUMO in initial guess
 Adding  50% of the LUMO to the HOMO
 An unrestricted hybrid HF-DFT SCF calculation will be
 performed using Pulay DIIS extrapolation
 Exchange:     0.2000 Hartree-Fock + 0.0800 Slater + 0.7200 B88
 Correlation:  0.1900 VWN1RPA + 0.8100 LYP
 Using SG-1 standard quadrature grid
 SCF converges when DIIS error is below 1.0E-08
 using 4 threads for integral computing
 -------------------------------------------------------
 OpenMP Integral computing Module                
 Release: version 1.0, May 2013, Q-Chem Inc. Pittsburgh 
 -------------------------------------------------------
 -------------------------------------------------------
 OpenMP BLAS3 based DFT computing Module                
 Release: version 1.0, May 2013, Q-Chem Inc. Pittsburgh 
 -------------------------------------------------------
 ---------------------------------------
  Cycle       Energy         DIIS Error
 ---------------------------------------
    1    -240.3651838477      1.30E-01
    2    -241.5775196005      1.02E-01
    3    -280.7335971932      4.96E-02
    4    -283.2279473305      4.28E-02
    5    -286.3294436845      1.60E-02
    6    -286.7185381806      9.51E-03
    7    -286.8413362610      3.02E-03
    8    -286.8568925386      8.10E-04
    9    -286.8581491527      2.63E-04
   10    -286.8583762018      7.87E-05
   11    -286.8584318924      3.81E-05
   12    -286.8584573767      8.99E-06
   13    -286.8584645799      5.53E-06
   14    -286.8584668834      2.39E-06
   15    -286.8584671078      7.60E-07
   16    -286.8584671165      1.31E-07
   17    -286.8584671167      3.35E-08
   18    -286.8584671167      1.87E-08
   19    -286.8584671167      3.63E-09 Convergence criterion met
 ---------------------------------------
 <S^2> = 0.7737
 SCF time:  CPU 44.78 s  wall 12.27 s
 SCF   energy in the final basis set = -286.85846712
 Total energy in the final basis set = -286.85846712
 
 --------------------------------------------------------------
 
                    Orbital Energies (a.u.)
 --------------------------------------------------------------
 
 Alpha MOs
 -- Occupied --
-14.317 -10.216 -10.216 -10.215 -10.215 -10.215 -10.215  -0.960
 -0.896  -0.750  -0.643  -0.635  -0.589  -0.545  -0.482  -0.471
 -0.465  -0.408  -0.395  -0.365  -0.338  -0.299  -0.298  -0.227
 -0.173
 -- Virtual --
  0.016   0.089   0.114   0.142   0.143   0.153   0.159   0.166
  0.198   0.211   0.231   0.274   0.291   0.304   0.321   0.388
  0.526   0.528   0.540   0.541   0.564   0.589   0.592   0.595
  0.615   0.617   0.632   0.656   0.672   0.735   0.791   0.802
  0.814   0.838   0.854   0.854   0.882   0.888   0.925   0.938
  0.958   0.983   1.144   1.156   1.164   1.197   1.256   1.370
  1.413   1.457   1.488   1.500   1.582   1.617   1.646   1.677
  1.740   1.742   1.860   1.868   1.877   1.916   1.993   2.025
  2.037   2.134   2.160   2.202   2.247   2.287   2.358   2.467
  2.473   2.484   2.526   2.578   2.596   2.609   2.624   2.690
  2.733   2.772   2.804   2.989   3.152   4.017   4.114   4.179
  4.381   4.454   4.461   4.550
 
 Beta MOs
 -- Occupied --
-14.320 -10.216 -10.216 -10.213 -10.213 -10.207 -10.207  -0.955
 -0.894  -0.738  -0.631  -0.630  -0.584  -0.542  -0.476  -0.466
 -0.464  -0.405  -0.377  -0.362  -0.323  -0.298  -0.294  -0.227
 -- Virtual --
 -0.064   0.036   0.091   0.120   0.144   0.144   0.161   0.165
  0.170   0.210   0.213   0.235   0.277   0.300   0.308   0.329
  0.393   0.528   0.534   0.547   0.563   0.566   0.592   0.599
  0.605   0.621   0.639   0.652   0.659   0.678   0.740   0.795
  0.804   0.817   0.842   0.847   0.857   0.883   0.897   0.931
  0.942   0.962   0.992   1.147   1.157   1.167   1.199   1.256
  1.387   1.420   1.457   1.497   1.515   1.583   1.633   1.659
  1.685   1.748   1.750   1.863   1.881   1.886   1.919   1.999
  2.030   2.051   2.143   2.164   2.224   2.256   2.297   2.374
  2.475   2.477   2.497   2.541   2.583   2.597   2.617   2.626
  2.694   2.736   2.776   2.810   2.991   3.157   4.014   4.130
  4.191   4.384   4.459   4.472   4.552
 --------------------------------------------------------------
 
          Ground-State Mulliken Net Atomic Charges

     Atom                 Charge (a.u.)    Spin (a.u.)
  --------------------------------------------------------
      1 C                     0.076512       0.597072
      2 C                    -0.221053      -0.053313
      3 C                    -0.090109       0.094740
      4 C                    -0.220919      -0.053375
      5 C                     0.076556       0.597268
      6 N                    -0.395296      -0.205392
      7 H                     0.135604      -0.032047
      8 H                     0.142094       0.000516
      9 H                     0.154169      -0.004294
     10 H                     0.142133       0.000517
     11 H                     0.135568      -0.032056
     12 C                    -0.089480       0.094652
     13 H                     0.154221      -0.004287
  --------------------------------------------------------
  Sum of atomic charges =    -0.000000
  Sum of spin   charges =     1.000000

 -----------------------------------------------------------------
                    Cartesian Multipole Moments
 -----------------------------------------------------------------
    Charge (ESU x 10^10)
                -0.0000
    Dipole Moment (Debye)
         X      -1.5116      Y      -2.5400      Z       0.4073
       Tot       2.9837
    Quadrupole Moments (Debye-Ang)
        XX     -37.7941     XY      -3.6412     YY     -41.8664
        XZ       0.5208     YZ       0.1347     ZZ     -41.2933
    Octopole Moments (Debye-Ang^2)
       XXX     -10.7860    XXY     -10.5542    XYY     -13.7108
       YYY     -30.9199    XXZ       1.5939    XYZ       1.1290
       YYZ       1.5904    XZZ      -6.5767    YZZ     -10.7565
       ZZZ       5.1689
    Hexadecapole Moments (Debye-Ang^3)
      XXXX    -271.0839   XXXY     -26.6942   XXYY    -110.6045
      XYYY     -44.4193   YYYY    -345.6301   XXXZ       4.9253
      XXYZ       7.0659   XYYZ       6.3330   YYYZ      21.8856
      XXZZ     -67.4105   XYZZ      -4.0177   YYZZ     -70.5726
      XZZZ       2.8249   YZZZ      18.1700   ZZZZ     -96.2370
 -----------------------------------------------------------------
 Calculating analytic gradient of the SCF energy
 Gradient of SCF Energy
            1           2           3           4           5           6
    1   0.0000353  -0.0000335   0.0000393  -0.0000079  -0.0000503   0.0000052
    2  -0.0000434   0.0000830  -0.0000677   0.0000894  -0.0000485   0.0000315
    3  -0.0000056  -0.0000117   0.0001288   0.0000089  -0.0000231   0.0000163
            7           8           9          10          11          12
    1  -0.0000086   0.0000019   0.0000291  -0.0000000  -0.0000181  -0.0000017
    2   0.0000255  -0.0000157  -0.0000006  -0.0000162   0.0000085  -0.0000555
    3   0.0000026   0.0000104  -0.0000254  -0.0000212  -0.0000075  -0.0000875
           13
    1   0.0000093
    2   0.0000097
    3   0.0000150
 Max gradient component =       1.288E-04
 RMS gradient           =       4.043E-05
 Gradient time:  CPU 7.87 s  wall 2.02 s
-Performing force calculation on product structure in state0
 ----------------------------------------------------------------
             Standard Nuclear Orientation (Angstroms)
    I     Atom           X                Y                Z
 ----------------------------------------------------------------
    1      C       1.1178988583     0.1504509987     0.5070870301
    2      C       0.8411846155    -0.9832934413    -0.4924767627
    3      C      -0.4761614244    -0.9583472798    -0.7520758343
    4      C      -1.0711965813     0.1923613094     0.0845532984
    5      C      -0.3806147359     1.4743321842    -0.4231286371
    6      N       0.8759445512     1.4746557146    -0.2009694988
    7      H       2.0813407597     0.1370021452     1.0145787242
    8      H       1.5943400530    -1.6398142659    -0.9140636253
    9      H      -1.0395447169    -1.5833734577    -1.4363322992
   10      H      -2.1550340299     0.2138777277     0.1988857109
   11      H      -0.8837479877     2.2898241499    -0.9400765410
   12      C      -0.1694005059     0.0096052335     1.3099474746
   13      H      -0.3350088555    -0.7772810181     2.0440709602
 ----------------------------------------------------------------
 Nuclear Repulsion Energy =   279.1164629005 hartrees
 There are       25 alpha and       24 beta electrons

                       Distance Matrix (Angstroms)
             C (  1)   C (  2)   C (  3)   C (  4)   C (  5)   N (  6)
   C (  2)  1.536579
   C (  3)  2.314293  1.342913
   C (  4)  2.229895  2.317829  1.542124
   C (  5)  2.205336  2.745456  2.456678  1.542107
   N (  6)  1.520988  2.475419  2.837501  2.348864  1.276047
   H (  7)  1.089013  2.250392  3.295706  3.287325  3.149076  2.172523
   H (  8)  2.334891  1.084435  2.185775  3.385142  3.720131  3.274831
   H (  9)  3.381950  2.188173  1.084558  2.338232  3.287907  3.814022
   H ( 10)  3.288024  3.299777  2.257665  1.090064  2.263672  3.307004
   H ( 11)  3.267689  3.726800  3.279038  2.341870  1.088763  2.075403
   C ( 12)  1.523667  2.292567  2.298472  1.532393  2.278945  2.349891
   H ( 13)  2.309534  2.803560  2.805556  2.306922  3.340496  3.402622
             H (  7)   H (  8)   H (  9)   H ( 10)   H ( 11)   C ( 12)
   H (  8)  2.667191
   H (  9)  4.325111  2.685759
   H ( 10)  4.314874  4.328122  2.673643
   H ( 11)  4.152959  4.645821  3.907966  2.687556
   C ( 12)  2.273611  3.282924  3.291927  2.284497  3.282118
   H ( 13)  2.781099  3.635507  3.641341  2.774815  4.314323  1.088831

 
 Applying Cartesian multipole field
    Component          Value
    ---------          -----
     (2,0,0)        1.00000E-11
     (0,2,0)        2.00000E-11
     (0,0,2)       -3.00000E-11
 Nucleus-field energy     =     0.0000000022 hartrees
 Requested basis set is 6-31G(d)
 There are 40 shells and 117 basis functions
 A cutoff of  1.0D-14 yielded    814 shell pairs
 There are      7086 function pairs
 Smallest overlap matrix eigenvalue = 1.11E-03
 Guess MOs from core Hamiltonian diagonalization
 Mixing HOMO and LUMO in initial guess
 Adding  50% of the LUMO to the HOMO
 An unrestricted hybrid HF-DFT SCF calculation will be
 performed using Pulay DIIS extrapolation
 Exchange:     0.2000 Hartree-Fock + 0.0800 Slater + 0.7200 B88
 Correlation:  0.1900 VWN1RPA + 0.8100 LYP
 Using SG-1 standard quadrature grid
 SCF converges when DIIS error is below 1.0E-08
 using 4 threads for integral computing
 -------------------------------------------------------
 OpenMP Integral computing Module                
 Release: version 1.0, May 2013, Q-Chem Inc. Pittsburgh 
 -------------------------------------------------------
 -------------------------------------------------------
 OpenMP BLAS3 based DFT computing Module                
 Release: version 1.0, May 2013, Q-Chem Inc. Pittsburgh 
 -------------------------------------------------------
 ---------------------------------------
  Cycle       Energy         DIIS Error
 ---------------------------------------
    1    -235.0898612244      1.38E-01
    2    -229.2942576749      1.01E-01
    3    -252.0962661897      1.07E-01
    4    -283.2885856480      4.12E-02
    5    -283.0801605975      3.80E-02
    6    -286.5026622011      1.30E-02
    7    -286.6264460815      1.11E-02
    8    -286.8202101470      4.45E-03
    9    -286.8464125822      1.71E-03
   10    -286.8513788696      3.78E-04
   11    -286.8516210875      1.34E-04
   12    -286.8516523816      3.52E-05
   13    -286.8516555225      1.49E-05
   14    -286.8516562017      3.21E-06
   15    -286.8516564293      1.10E-06
   16    -286.8516565284      6.18E-07
   17    -286.8516565592      3.61E-07
   18    -286.8516565801      1.83E-07
   19    -286.8516565914      6.20E-08
   20    -286.8516565940      1.40E-08
   21    -286.8516565941      2.66E-09 Convergence criterion met
 ---------------------------------------
 <S^2> = 0.7537
 SCF time:  CPU 52.17 s  wall 16.30 s
 SCF   energy in the final basis set = -286.85165659
 Total energy in the final basis set = -286.85165659
 
 --------------------------------------------------------------
 
                    Orbital Energies (a.u.)
 --------------------------------------------------------------
 
 Alpha MOs
 -- Occupied --
-14.322 -10.224 -10.220 -10.210 -10.204 -10.201 -10.197  -0.952
 -0.821  -0.726  -0.705  -0.579  -0.573  -0.531  -0.512  -0.472
 -0.418  -0.410  -0.381  -0.373  -0.348  -0.294  -0.271  -0.258
 -0.196
 -- Virtual --
 -0.021   0.029   0.103   0.140   0.150   0.154   0.159   0.163
  0.172   0.210   0.215   0.255   0.288   0.322   0.346   0.366
  0.495   0.510   0.532   0.540   0.570   0.599   0.606   0.622
  0.635   0.641   0.655   0.690   0.700   0.729   0.778   0.791
  0.799   0.817   0.825   0.846   0.858   0.876   0.891   0.940
  0.965   1.005   1.059   1.092   1.201   1.264   1.334   1.339
  1.396   1.406   1.487   1.510   1.563   1.611   1.659   1.725
  1.784   1.796   1.827   1.892   1.954   1.986   2.000   2.049
  2.097   2.138   2.172   2.208   2.235   2.276   2.315   2.335
  2.425   2.476   2.515   2.532   2.548   2.618   2.629   2.645
  2.722   2.835   2.856   2.904   2.939   3.922   4.187   4.267
  4.279   4.396   4.543   4.678
 
 Beta MOs
 -- Occupied --
-14.321 -10.224 -10.221 -10.210 -10.200 -10.196 -10.190  -0.949
 -0.815  -0.725  -0.690  -0.577  -0.561  -0.527  -0.509  -0.463
 -0.414  -0.406  -0.379  -0.369  -0.342  -0.287  -0.261  -0.255
 -- Virtual --
 -0.045  -0.016   0.031   0.105   0.143   0.153   0.158   0.160
  0.166   0.176   0.216   0.223   0.267   0.290   0.324   0.349
  0.369   0.497   0.529   0.540   0.544   0.577   0.604   0.611
  0.624   0.641   0.658   0.662   0.693   0.708   0.742   0.782
  0.793   0.810   0.819   0.827   0.848   0.860   0.879   0.894
  0.942   0.973   1.013   1.060   1.099   1.204   1.265   1.338
  1.345   1.401   1.411   1.489   1.513   1.578   1.619   1.665
  1.728   1.793   1.799   1.837   1.910   1.966   1.999   2.003
  2.054   2.119   2.144   2.178   2.224   2.249   2.281   2.317
  2.339   2.428   2.493   2.517   2.542   2.553   2.630   2.636
  2.648   2.729   2.837   2.859   2.906   2.942   3.923   4.190
  4.269   4.307   4.399   4.549   4.679
 --------------------------------------------------------------
 
          Ground-State Mulliken Net Atomic Charges

     Atom                 Charge (a.u.)    Spin (a.u.)
  --------------------------------------------------------
      1 C                    -0.094549      -0.045014
      2 C                    -0.087853       0.040255
      3 C                    -0.095953       0.079377
      4 C                    -0.246003      -0.043944
      5 C                     0.092364      -0.008769
      6 N                    -0.325195       0.021892
      7 H                     0.139792       0.003022
      8 H                     0.146095       0.000885
      9 H                     0.145547       0.000345
     10 H                     0.133959       0.002858
     11 H                     0.149629      -0.000174
     12 C                    -0.096704       0.975822
     13 H                     0.138871      -0.026555
  --------------------------------------------------------
  Sum of atomic charges =    -0.000000
  Sum of spin   charges =     1.000000

 -----------------------------------------------------------------
                    Cartesian Multipole Moments
 -----------------------------------------------------------------
    Charge (ESU x 10^10)
                 0.0000
    Dipole Moment (Debye)
         X      -1.4908      Y      -1.8353      Z      -0.2235
       Tot       2.3750
    Quadrupole Moments (Debye-Ang)
        XX     -38.5689     XY      -4.2035     YY     -42.4546
        XZ       1.8731     YZ      -0.0142     ZZ     -40.4580
    Octopole Moments (Debye-Ang^2)
       XXX     -11.3381    XXY     -11.5885    XYY     -11.2510
       YYY     -23.2446    XXZ       0.3412    XYZ       2.6559
       YYZ      -4.2672    XZZ      -4.1879    YZZ      -9.9918
       ZZZ      -1.1077
    Hexadecapole Moments (Debye-Ang^3)
      XXXX    -218.0150   XXXY      -8.8010   XXYY     -88.9527
      XYYY     -18.9105   YYYY    -292.1758   XXXZ      -2.6785
      XXYZ       2.2180   XYYZ       2.1982   YYYZ      -6.8003
      XXZZ     -64.9829   XYZZ       0.2537   YYZZ     -71.8471
      XZZZ      -3.5356   YZZZ     -10.2561   ZZZZ    -176.3899
 -----------------------------------------------------------------
 Calculating analytic gradient of the SCF energy
 Gradient of SCF Energy
            1           2           3           4           5           6
    1   0.0000556   0.0000365  -0.0000213  -0.0000529  -0.0000353  -0.0000268
    2  -0.0000767   0.0000017  -0.0000189  -0.0000124   0.0000619   0.0000245
    3   0.0000368   0.0000129   0.0000202  -0.0000169   0.0000881   0.0000222
            7           8           9          10          11          12
    1   0.0000103   0.0000161   0.0000143  -0.0000111  -0.0000150   0.0000309
    2   0.0000216   0.0000225   0.0000001  -0.0000156  -0.0000304   0.0000200
    3   0.0000034  -0.0000027  -0.0000060  -0.0000186  -0.0000513  -0.0000853
           13
    1  -0.0000014
    2   0.0000018
    3  -0.0000029
 Max gradient component =       8.815E-05
 RMS gradient           =       3.422E-05
 Gradient time:  CPU 8.41 s  wall 2.26 s

STARTING FREEZING STRING ITERATION # 1
 The distance between the innermost nodes (Angstroms): 2.521
-Adding two new nodes
 The distance between the previous and current R_nodes (Angstroms): 0.1259
 The distance between the previous and current P_nodes (Angstroms): 0.1185
-Optimizing new reactant side node
 Using BFGS, step: 2 E_tol 0.0068
 max_steps 6, node_spacing 0.1201, sigma 0.7000
 ----------------------------------------------------------------
             Standard Nuclear Orientation (Angstroms)
    I     Atom           X                Y                Z
 ----------------------------------------------------------------
    1      C       1.5619899829     0.4406202557    -0.0551597935
    2      C       0.8265010760    -0.8365503954     0.0778588878
    3      C      -0.5194049705    -0.9674396092    -0.5908961032
    4      C      -1.1208363912     0.3127601367    -0.0356119261
    5      C      -0.3741191224     1.5763111233    -0.2498942721
    6      N       0.9528403329     1.6149479768    -0.2581561391
    7      H       2.6503433705     0.4387496938    -0.0419715311
    8      H       1.4163388723    -1.7442326202     0.1913622256
    9      H      -0.9288543408    -1.7365016793    -1.2312779322
   10      H      -2.2079320935     0.3728268526    -0.0232117463
   11      H      -0.9075992330     2.5117915452    -0.4079777350
   12      C      -0.4904830724    -0.7107550845     0.8892236846
   13      H      -0.8651651014    -1.2711862445     1.7336148591
 ----------------------------------------------------------------
 Nuclear Repulsion Energy =   276.8207038773 hartrees
 There are       25 alpha and       24 beta electrons

                       Distance Matrix (Angstroms)
             C (  1)   C (  2)   C (  3)   C (  4)   C (  5)   N (  6)
   C (  2)  1.479798
   C (  3)  2.569407  1.508585
   C (  4)  2.685943  2.264048  1.519530
   C (  5)  2.253050  2.714924  2.570614  1.483262
   N (  6)  1.338401  2.477642  2.991145  2.458730  1.327548
   H (  7)  1.088435  2.228710  3.510839  3.773289  3.238001  2.076462
   H (  8)  2.203536  1.088429  2.227653  3.274140  3.798218  3.420671
   H (  9)  3.511042  2.367493  1.081293  2.380325  3.499368  3.964840
   H ( 10)  3.770667  3.268118  2.229283  1.088825  2.205137  3.404195
   H ( 11)  3.242391  3.801912  3.505596  2.240506  1.088446  2.070751
   C ( 12)  2.535778  1.551962  1.502491  1.516657  2.557695  2.967921
   H ( 13)  3.467143  2.406693  2.369634  2.388392  3.504808  3.949945
             H (  7)   H (  8)   H (  9)   H ( 10)   H ( 11)   C ( 12)
   H (  8)  2.518457
   H (  9)  4.353944  2.742972
   H ( 10)  4.858759  4.202776  2.746767
   H ( 11)  4.134056  4.886066  4.327386  2.532603
   C ( 12)  3.471783  2.278389  2.396008  2.226279  3.498789
   H ( 13)  4.293645  2.794204  3.001860  2.755402  4.347314  1.080493

 
 Applying Cartesian multipole field
    Component          Value
    ---------          -----
     (2,0,0)        1.00000E-11
     (0,2,0)        2.00000E-11
     (0,0,2)       -3.00000E-11
 Nucleus-field energy     =     0.0000000050 hartrees
 Requested basis set is 6-31G(d)
 There are 40 shells and 117 basis functions
 A cutoff of  1.0D-14 yielded    808 shell pairs
 There are      7080 function pairs
 Smallest overlap matrix eigenvalue = 1.64E-03
 Guess MOs from core Hamiltonian diagonalization
 Mixing HOMO and LUMO in initial guess
 Adding  50% of the LUMO to the HOMO
 An unrestricted hybrid HF-DFT SCF calculation will be
 performed using Pulay DIIS extrapolation
 Exchange:     0.2000 Hartree-Fock + 0.0800 Slater + 0.7200 B88
 Correlation:  0.1900 VWN1RPA + 0.8100 LYP
 Using SG-1 standard quadrature grid
 SCF converges when DIIS error is below 1.0E-08
 using 4 threads for integral computing
 -------------------------------------------------------
 OpenMP Integral computing Module                
 Release: version 1.0, May 2013, Q-Chem Inc. Pittsburgh 
 -------------------------------------------------------
 -------------------------------------------------------
 OpenMP BLAS3 based DFT computing Module                
 Release: version 1.0, May 2013, Q-Chem Inc. Pittsburgh 
 -------------------------------------------------------
 ---------------------------------------
  Cycle       Energy         DIIS Error
 ---------------------------------------
    1    -240.6927739667      1.29E-01
    2    -241.6888016852      1.02E-01
    3    -280.9501512259      4.88E-02
    4    -283.4675925169      4.17E-02
    5    -286.3671192433      1.53E-02
    6    -286.7233798443      9.14E-03
    7    -286.8397058266      2.99E-03
    8    -286.8544131763      8.56E-04
    9    -286.8558310001      2.23E-04
   10    -286.8560464302      7.10E-05
   11    -286.8561068226      3.44E-05
   12    -286.8561337534      1.02E-05
   13    -286.8561414026      5.89E-06
   14    -286.8561444522      2.48E-06
   15    -286.8561446639      9.70E-07
   16    -286.8561446701      4.73E-07
   17    -286.8561446712      5.53E-08
   18    -286.8561446713      1.78E-08
   19    -286.8561446713      7.00E-09 Convergence criterion met
 ---------------------------------------
 <S^2> = 0.7739
 SCF time:  CPU 45.91 s  wall 14.23 s
 SCF   energy in the final basis set = -286.85614467
 Total energy in the final basis set = -286.85614467
 
 --------------------------------------------------------------
 
                    Orbital Energies (a.u.)
 --------------------------------------------------------------
 
 Alpha MOs
 -- Occupied --
-14.317 -10.217 -10.217 -10.216 -10.216 -10.215 -10.214  -0.955
 -0.892  -0.750  -0.641  -0.633  -0.592  -0.543  -0.481  -0.469
 -0.464  -0.409  -0.396  -0.364  -0.342  -0.300  -0.292  -0.225
 -0.173
 -- Virtual --
  0.016   0.089   0.101   0.142   0.142   0.155   0.156   0.166
  0.195   0.214   0.231   0.264   0.287   0.308   0.322   0.391
  0.524   0.526   0.533   0.536   0.563   0.587   0.594   0.595
  0.617   0.622   0.630   0.655   0.665   0.734   0.788   0.808
  0.814   0.836   0.850   0.856   0.881   0.884   0.926   0.939
  0.955   0.985   1.135   1.154   1.165   1.204   1.254   1.370
  1.424   1.439   1.485   1.495   1.585   1.624   1.650   1.661
  1.742   1.757   1.841   1.863   1.878   1.917   1.997   2.014
  2.022   2.131   2.162   2.200   2.231   2.288   2.359   2.462
  2.470   2.485   2.530   2.577   2.581   2.595   2.621   2.686
  2.718   2.750   2.799   2.988   3.148   4.013   4.116   4.184
  4.388   4.446   4.461   4.535
 
 Beta MOs
 -- Occupied --
-14.321 -10.218 -10.217 -10.215 -10.214 -10.206 -10.206  -0.951
 -0.889  -0.738  -0.629  -0.628  -0.587  -0.541  -0.475  -0.464
 -0.461  -0.406  -0.379  -0.361  -0.328  -0.296  -0.290  -0.225
 -- Virtual --
 -0.064   0.035   0.091   0.107   0.143   0.144   0.163   0.163
  0.170   0.207   0.217   0.234   0.267   0.297   0.312   0.329
  0.396   0.526   0.532   0.542   0.549   0.565   0.596   0.602
  0.603   0.627   0.637   0.652   0.659   0.672   0.739   0.792
  0.810   0.817   0.840   0.844   0.858   0.882   0.892   0.931
  0.944   0.959   0.995   1.137   1.155   1.167   1.206   1.254
  1.386   1.430   1.440   1.494   1.510   1.587   1.640   1.664
  1.670   1.748   1.763   1.848   1.874   1.889   1.920   2.004
  2.023   2.031   2.138   2.166   2.221   2.242   2.298   2.375
  2.464   2.480   2.498   2.546   2.580   2.585   2.597   2.629
  2.689   2.722   2.755   2.805   2.991   3.152   4.010   4.132
  4.195   4.392   4.456   4.466   4.538
 --------------------------------------------------------------
 
          Ground-State Mulliken Net Atomic Charges

     Atom                 Charge (a.u.)    Spin (a.u.)
  --------------------------------------------------------
      1 C                     0.075488       0.609854
      2 C                    -0.214527      -0.055332
      3 C                    -0.085584       0.085159
      4 C                    -0.218914      -0.051954
      5 C                     0.079713       0.586808
      6 N                    -0.394213      -0.205305
      7 H                     0.133741      -0.032411
      8 H                     0.144493       0.000682
      9 H                     0.154841      -0.003805
     10 H                     0.143141       0.000629
     11 H                     0.134448      -0.031522
     12 C                    -0.108938       0.101778
     13 H                     0.156313      -0.004581
  --------------------------------------------------------
  Sum of atomic charges =    -0.000000
  Sum of spin   charges =     1.000000

 -----------------------------------------------------------------
                    Cartesian Multipole Moments
 -----------------------------------------------------------------
    Charge (ESU x 10^10)
                -0.0000
    Dipole Moment (Debye)
         X      -1.5165      Y      -2.5656      Z       0.3328
       Tot       2.9988
    Quadrupole Moments (Debye-Ang)
        XX     -37.8739     XY      -3.7733     YY     -41.9176
        XZ       0.5481     YZ       0.1952     ZZ     -41.2606
    Octopole Moments (Debye-Ang^2)
       XXX     -10.8897    XXY     -10.6443    XYY     -13.2853
       YYY     -30.9791    XXZ       1.6121    XYZ       1.1594
       YYZ       1.2622    XZZ      -6.6462    YZZ     -10.8282
       ZZZ       4.9615
    Hexadecapole Moments (Debye-Ang^3)
      XXXX    -270.2808   XXXY     -25.9366   XXYY    -109.9709
      XYYY     -43.4324   YYYY    -344.9368   XXXZ       4.7126
      XXYZ       7.0629   XYYZ       6.0884   YYYZ      21.0831
      XXZZ     -67.4294   XYZZ      -3.5549   YYZZ     -70.5549
      XZZZ       2.0209   YZZZ      17.2274   ZZZZ     -98.1735
 -----------------------------------------------------------------
 Calculating analytic gradient of the SCF energy
 Gradient of SCF Energy
            1           2           3           4           5           6
    1  -0.0064657   0.0101347   0.0001743  -0.0026108   0.0025392  -0.0021503
    2  -0.0027137  -0.0098062  -0.0046195  -0.0006297  -0.0024419   0.0057628
    3   0.0094459  -0.0093764  -0.0157030  -0.0028129   0.0023738  -0.0043003
            7           8           9          10          11          12
    1  -0.0002770   0.0008941   0.0011114   0.0001272   0.0003103  -0.0047235
    2  -0.0007805   0.0000655   0.0008443  -0.0003497  -0.0000052   0.0144201
    3  -0.0009722  -0.0015972  -0.0021635   0.0002193   0.0006544   0.0236730
           13
    1   0.0009362
    2   0.0002537
    3   0.0005592
 Max gradient component =       2.367E-02
 RMS gradient           =       6.379E-03
 Gradient time:  CPU 7.76 s  wall 1.99 s
 ----------------------------------------------------------------
             Standard Nuclear Orientation (Angstroms)
    I     Atom           X                Y                Z
 ----------------------------------------------------------------
    1      C       1.5680267796     0.4429749896    -0.0609931796
    2      C       0.8142671594    -0.8278859013     0.0824252080
    3      C      -0.5197826163    -0.9614044234    -0.5718016928
    4      C      -1.1175044012     0.3128802147    -0.0318110289
    5      C      -0.3780882630     1.5790124328    -0.2551183720
    6      N       0.9542063995     1.6072155262    -0.2524636543
    7      H       2.6483031505     0.4399224523    -0.0298873906
    8      H       1.4168611530    -1.7482702878     0.1823882289
    9      H      -0.9321691621    -1.7361004757    -1.2304984707
   10      H      -2.2081968186     0.3720473903    -0.0215286714
   11      H      -0.9086677637     2.5107402562    -0.4145262533
   12      C      -0.4815169473    -0.7226007366     0.8642236846
   13      H      -0.8621193448    -1.2671893382     1.7374941178
 ----------------------------------------------------------------
 Nuclear Repulsion Energy =   277.9612392912 hartrees
 There are       25 alpha and       24 beta electrons

                       Distance Matrix (Angstroms)
             C (  1)   C (  2)   C (  3)   C (  4)   C (  5)   N (  6)
   C (  2)  1.484523
   C (  3)  2.567519  1.491821
   C (  4)  2.688839  2.246361  1.507535
   C (  5)  2.261776  2.707177  2.563998  1.483136
   N (  6)  1.329997  2.462002  2.978662  2.452749  1.332596
   H (  7)  1.080728  2.232407  3.506302  3.767950  3.241497  2.069318
   H (  8)  2.209896  1.104635  2.222285  3.273718  3.805794  3.415030
   H (  9)  3.516688  2.366149  1.097314  2.381076  3.499764  3.961405
   H ( 10)  3.777096  3.253603  2.220729  1.092344  2.204683  3.402905
   H ( 11)  3.245713  3.789708  3.497393  2.240686  1.083994  2.076757
   C ( 12)  2.532829  1.517020  1.456249  1.509827  2.561454  2.955729
   H ( 13)  3.473446  2.396354  2.354474  2.385850  3.507942  3.939692
             H (  7)   H (  8)   H (  9)   H ( 10)   H ( 11)   C ( 12)
   H (  8)  2.519861
   H (  9)  4.358477  2.741230
   H ( 10)  4.856981  4.204566  2.744839
   H ( 11)  4.133797  4.889127  4.324583  2.533225
   C ( 12)  3.456395  2.262905  2.370259  2.228056  3.503163
   H ( 13)  4.284966  2.800633  3.005622  2.755573  4.348116  1.097286

 
 Applying Cartesian multipole field
    Component          Value
    ---------          -----
     (2,0,0)        1.00000E-11
     (0,2,0)        2.00000E-11
     (0,0,2)       -3.00000E-11
 Nucleus-field energy     =     0.0000000050 hartrees
 Requested basis set is 6-31G(d)
 There are 40 shells and 117 basis functions
 A cutoff of  1.0D-14 yielded    809 shell pairs
 There are      7081 function pairs
 Smallest overlap matrix eigenvalue = 1.56E-03
 Guess MOs from core Hamiltonian diagonalization
 Mixing HOMO and LUMO in initial guess
 Adding  50% of the LUMO to the HOMO
 An unrestricted hybrid HF-DFT SCF calculation will be
 performed using Pulay DIIS extrapolation
 Exchange:     0.2000 Hartree-Fock + 0.0800 Slater + 0.7200 B88
 Correlation:  0.1900 VWN1RPA + 0.8100 LYP
 Using SG-1 standard quadrature grid
 SCF converges when DIIS error is below 1.0E-08
 using 4 threads for integral computing
 -------------------------------------------------------
 OpenMP Integral computing Module                
 Release: version 1.0, May 2013, Q-Chem Inc. Pittsburgh 
 -------------------------------------------------------
 -------------------------------------------------------
 OpenMP BLAS3 based DFT computing Module                
 Release: version 1.0, May 2013, Q-Chem Inc. Pittsburgh 
 -------------------------------------------------------
 ---------------------------------------
  Cycle       Energy         DIIS Error
 ---------------------------------------
    1    -239.7753183700      1.31E-01
    2    -241.4295723489      1.02E-01
    3    -279.7826486554      5.29E-02
    4    -282.2247533552      4.42E-02
    5    -283.7336522290      3.56E-02
    6    -286.4354558635      1.62E-02
    7    -286.8150218303      4.88E-03
    8    -286.8431015290      2.54E-03
    9    -286.8549571421      8.54E-04
   10    -286.8566453439      1.30E-04
   11    -286.8567379290      7.60E-05
   12    -286.8567718382      2.06E-05
   13    -286.8567838752      8.48E-06
   14    -286.8567867241      2.87E-06
   15    -286.8567868732      1.69E-06
   16    -286.8567868836      3.56E-07
   17    -286.8567868842      1.62E-07
   18    -286.8567868844      3.68E-08
   19    -286.8567868844      5.98E-09 Convergence criterion met
 ---------------------------------------
 <S^2> = 0.7737
 SCF time:  CPU 46.38 s  wall 13.49 s
 SCF   energy in the final basis set = -286.85678688
 Total energy in the final basis set = -286.85678688
 
 --------------------------------------------------------------
 
                    Orbital Energies (a.u.)
 --------------------------------------------------------------
 
 Alpha MOs
 -- Occupied --
-14.316 -10.216 -10.215 -10.215 -10.215 -10.214 -10.214  -0.964
 -0.897  -0.751  -0.644  -0.633  -0.588  -0.544  -0.483  -0.472
 -0.462  -0.409  -0.394  -0.367  -0.342  -0.300  -0.296  -0.224
 -0.173
 -- Virtual --
  0.018   0.086   0.112   0.140   0.142   0.155   0.157   0.166
  0.204   0.213   0.234   0.274   0.291   0.306   0.322   0.387
  0.524   0.530   0.540   0.542   0.571   0.591   0.595   0.600
  0.614   0.618   0.635   0.657   0.671   0.737   0.785   0.793
  0.810   0.836   0.851   0.855   0.883   0.887   0.925   0.938
  0.953   0.985   1.145   1.152   1.168   1.206   1.257   1.373
  1.416   1.451   1.490   1.497   1.580   1.628   1.659   1.670
  1.736   1.743   1.862   1.877   1.881   1.926   1.994   2.029
  2.040   2.141   2.162   2.206   2.254   2.297   2.357   2.470
  2.477   2.484   2.534   2.581   2.605   2.615   2.618   2.694
  2.733   2.784   2.810   2.988   3.158   4.020   4.117   4.188
  4.382   4.459   4.462   4.544
 
 Beta MOs
 -- Occupied --
-14.319 -10.216 -10.215 -10.214 -10.213 -10.206 -10.205  -0.960
 -0.895  -0.739  -0.632  -0.628  -0.583  -0.541  -0.477  -0.466
 -0.461  -0.405  -0.376  -0.364  -0.327  -0.298  -0.292  -0.225
 -- Virtual --
 -0.064   0.038   0.088   0.117   0.142   0.144   0.162   0.164
  0.171   0.215   0.216   0.237   0.277   0.300   0.310   0.330
  0.391   0.529   0.532   0.548   0.563   0.572   0.594   0.601
  0.610   0.622   0.642   0.652   0.660   0.677   0.742   0.788
  0.795   0.812   0.841   0.846   0.854   0.884   0.895   0.929
  0.944   0.957   0.994   1.148   1.153   1.170   1.207   1.257
  1.389   1.423   1.451   1.499   1.513   1.581   1.643   1.671
  1.678   1.743   1.751   1.870   1.885   1.891   1.930   2.000
  2.034   2.053   2.150   2.166   2.228   2.264   2.308   2.373
  2.473   2.487   2.496   2.550   2.586   2.607   2.617   2.626
  2.698   2.736   2.788   2.815   2.990   3.162   4.016   4.133
  4.200   4.386   4.465   4.470   4.546
 --------------------------------------------------------------
 
          Ground-State Mulliken Net Atomic Charges

     Atom                 Charge (a.u.)    Spin (a.u.)
  --------------------------------------------------------
      1 C                     0.077164       0.596114
      2 C                    -0.219843      -0.050781
      3 C                    -0.079131       0.084454
      4 C                    -0.222706      -0.052522
      5 C                     0.076689       0.604009
      6 N                    -0.396793      -0.205222
      7 H                     0.135140      -0.031710
      8 H                     0.141192       0.000466
      9 H                     0.153393      -0.003762
     10 H                     0.141761       0.000532
     11 H                     0.136055      -0.032194
     12 C                    -0.097072       0.094881
     13 H                     0.154151      -0.004264
  --------------------------------------------------------
  Sum of atomic charges =     0.000000
  Sum of spin   charges =     1.000000

 -----------------------------------------------------------------
                    Cartesian Multipole Moments
 -----------------------------------------------------------------
    Charge (ESU x 10^10)
                 0.0000
    Dipole Moment (Debye)
         X      -1.5015      Y      -2.5248      Z       0.3454
       Tot       2.9578
    Quadrupole Moments (Debye-Ang)
        XX     -37.8340     XY      -3.7433     YY     -41.9385
        XZ       0.5704     YZ       0.1842     ZZ     -41.1895
    Octopole Moments (Debye-Ang^2)
       XXX     -10.6692    XXY     -10.5119    XYY     -13.4369
       YYY     -30.5690    XXZ       1.6545    XYZ       1.2093
       YYZ       1.1728    XZZ      -6.5714    YZZ     -10.6788
       ZZZ       5.0609
    Hexadecapole Moments (Debye-Ang^3)
      XXXX    -269.3672   XXXY     -25.8117   XXYY    -109.8453
      XYYY     -43.5784   YYYY    -344.2339   XXXZ       4.7339
      XXYZ       7.1690   XYYZ       5.9949   YYYZ      21.1271
      XXZZ     -67.0755   XYZZ      -3.6358   YYZZ     -70.3568
      XZZZ       1.8951   YZZZ      17.5303   ZZZZ     -96.1310
 -----------------------------------------------------------------
 Calculating analytic gradient of the SCF energy
 Gradient of SCF Energy
            1           2           3           4           5           6
    1   0.0036891  -0.0176737   0.0109733   0.0041129  -0.0031629  -0.0002512
    2   0.0015010   0.0003937   0.0125170  -0.0096298   0.0044471  -0.0033563
    3   0.0061891  -0.0063276   0.0178130  -0.0001646  -0.0005212  -0.0011323
            7           8           9          10          11          12
    1  -0.0053824   0.0071318  -0.0032646  -0.0021919   0.0010841   0.0086035
    2  -0.0006211  -0.0076437  -0.0066219   0.0006678  -0.0024314   0.0154637
    3  -0.0004945  -0.0012547  -0.0077574  -0.0006677   0.0010032  -0.0157350
           13
    1  -0.0036680
    2  -0.0046862
    3   0.0090495
 Max gradient component =       1.781E-02
 RMS gradient           =       7.339E-03
 Gradient time:  CPU 7.43 s  wall 1.98 s
 FSM gradient convergence criteria satisfied
done with opt_step_by_gradient, Reactant, iter1
-Optimizing new product side node
 Using BFGS, step: 2 E_tol 0.0068105
 max_steps 6, node_spacing 0.1200707, sigma 0.7000000
 ----------------------------------------------------------------
             Standard Nuclear Orientation (Angstroms)
    I     Atom           X                Y                Z
 ----------------------------------------------------------------
    1      C       1.1466212519     0.1724658870     0.4857668726
    2      C       0.8402734077    -0.9822675345    -0.4715178296
    3      C      -0.4821020066    -0.9592917298    -0.7442489666
    4      C      -1.0766968681     0.2002358382     0.0746555565
    5      C      -0.3820101464     1.4808436016    -0.4177322241
    6      N       0.8793466436     1.4846247309    -0.2096645951
    7      H       2.1192913721     0.1609928168     0.9751640848
    8      H       1.5886659938    -1.6592503793    -0.8686424336
    9      H      -1.0375382141    -1.5926017151    -1.4271811646
   10      H      -2.1606651166     0.2231207267     0.1869150516
   11      H      -0.8883868499     2.3061202622    -0.9154224550
   12      C      -0.1862744187    -0.0285230606     1.2959247440
   13      H      -0.3626883959    -0.8100244051     2.0315836736
 ----------------------------------------------------------------
 Nuclear Repulsion Energy =   278.5586517734 hartrees
 There are       25 alpha and       24 beta electrons

                       Distance Matrix (Angstroms)
             C (  1)   C (  2)   C (  3)   C (  4)   C (  5)   N (  6)
   C (  2)  1.530899
   C (  3)  2.333785  1.350402
   C (  4)  2.261178  2.317627  1.539043
   C (  5)  2.205647  2.750234  2.463918  1.537853
   N (  6)  1.508914  2.481059  2.848166  2.357244  1.278408
   H (  7)  1.088912  2.244063  3.313407  3.320662  3.152566  2.166399
   H (  8)  2.320563  1.084484  2.189405  3.384030  3.734578  3.289580
   H (  9)  3.397850  2.193622  1.084429  2.339084  3.300723  3.824411
   H ( 10)  3.321148  3.300322  2.254493  1.090006  2.260769  3.315168
   H ( 11)  3.264517  3.741499  3.295039  2.334623  1.088666  2.073121
   C ( 12)  1.572693  2.255500  2.261891  1.528621  2.291969  2.385784
   H ( 13)  2.373363  2.782499  2.782407  2.315168  3.353744  3.439660
             H (  7)   H (  8)   H (  9)   H ( 10)   H ( 11)   C ( 12)
   H (  8)  2.644706
   H (  9)  4.337272  2.685769
   H ( 10)  4.352381  4.326084  2.676484
   H ( 11)  4.149942  4.675697  3.934994  2.678195
   C ( 12)  2.335474  3.239604  3.253659  2.278474  3.291440
   H ( 13)  2.866901  3.597260  3.609834  2.775412  4.321060  1.087686

 
 Applying Cartesian multipole field
    Component          Value
    ---------          -----
     (2,0,0)        1.00000E-11
     (0,2,0)        2.00000E-11
     (0,0,2)       -3.00000E-11
 Nucleus-field energy     =     0.0000000023 hartrees
 Requested basis set is 6-31G(d)
 There are 40 shells and 117 basis functions
 A cutoff of  1.0D-14 yielded    814 shell pairs
 There are      7086 function pairs
 Smallest overlap matrix eigenvalue = 1.15E-03
 Guess MOs from core Hamiltonian diagonalization
 Mixing HOMO and LUMO in initial guess
 Adding  50% of the LUMO to the HOMO
 An unrestricted hybrid HF-DFT SCF calculation will be
 performed using Pulay DIIS extrapolation
 Exchange:     0.2000 Hartree-Fock + 0.0800 Slater + 0.7200 B88
 Correlation:  0.1900 VWN1RPA + 0.8100 LYP
 Using SG-1 standard quadrature grid
 SCF converges when DIIS error is below 1.0E-08
 using 4 threads for integral computing
 -------------------------------------------------------
 OpenMP Integral computing Module                
 Release: version 1.0, May 2013, Q-Chem Inc. Pittsburgh 
 -------------------------------------------------------
 -------------------------------------------------------
 OpenMP BLAS3 based DFT computing Module                
 Release: version 1.0, May 2013, Q-Chem Inc. Pittsburgh 
 -------------------------------------------------------
 ---------------------------------------
  Cycle       Energy         DIIS Error
 ---------------------------------------
    1    -234.9950717770      1.38E-01
    2    -230.4744893203      1.00E-01
    3    -249.9223012760      1.13E-01
    4    -282.4232065388      4.30E-02
    5    -282.4444094526      4.30E-02
    6    -286.3452263856      1.49E-02
    7    -286.6218872163      9.88E-03
    8    -286.8203254118      3.58E-03
    9    -286.8433718568      1.67E-03
   10    -286.8490216416      2.94E-04
   11    -286.8492874571      2.03E-04
   12    -286.8493803042      9.60E-05
   13    -286.8494156834      4.49E-05
   14    -286.8494253450      8.41E-06
   15    -286.8494271481      3.85E-06
   16    -286.8494277169      1.27E-06
   17    -286.8494280461      7.81E-07
   18    -286.8494282328      5.23E-07
   19    -286.8494283728      1.18E-07
   20    -286.8494283758      1.69E-08
   21    -286.8494283759      5.89E-09 Convergence criterion met
 ---------------------------------------
 <S^2> = 0.7541
 SCF time:  CPU 53.28 s  wall 18.34 s
 SCF   energy in the final basis set = -286.84942838
 Total energy in the final basis set = -286.84942838
 
 --------------------------------------------------------------
 
                    Orbital Energies (a.u.)
 --------------------------------------------------------------
 
 Alpha MOs
 -- Occupied --
-14.322 -10.224 -10.223 -10.210 -10.205 -10.202 -10.199  -0.951
 -0.822  -0.729  -0.697  -0.582  -0.576  -0.530  -0.510  -0.469
 -0.420  -0.411  -0.383  -0.376  -0.344  -0.291  -0.272  -0.260
 -0.186
 -- Virtual --
 -0.021   0.026   0.103   0.139   0.148   0.155   0.158   0.164
  0.171   0.206   0.213   0.253   0.288   0.320   0.351   0.367
  0.495   0.504   0.529   0.539   0.576   0.593   0.601   0.620
  0.631   0.647   0.654   0.688   0.699   0.729   0.777   0.792
  0.804   0.817   0.826   0.846   0.858   0.874   0.891   0.941
  0.970   1.005   1.054   1.093   1.190   1.259   1.325   1.340
  1.390   1.399   1.480   1.511   1.570   1.625   1.659   1.726
  1.768   1.790   1.808   1.890   1.967   1.996   2.001   2.042
  2.090   2.132   2.160   2.200   2.236   2.273   2.297   2.335
  2.416   2.459   2.511   2.535   2.553   2.615   2.625   2.645
  2.716   2.827   2.851   2.908   2.943   3.921   4.186   4.267
  4.279   4.396   4.536   4.664
 
 Beta MOs
 -- Occupied --
-14.322 -10.224 -10.224 -10.211 -10.200 -10.198 -10.191  -0.947
 -0.816  -0.727  -0.682  -0.580  -0.563  -0.526  -0.507  -0.460
 -0.417  -0.407  -0.381  -0.372  -0.338  -0.284  -0.262  -0.257
 -- Virtual --
 -0.038  -0.015   0.028   0.104   0.143   0.153   0.158   0.159
  0.166   0.174   0.214   0.218   0.263   0.290   0.322   0.353
  0.370   0.497   0.525   0.534   0.546   0.583   0.597   0.604
  0.622   0.636   0.657   0.671   0.691   0.705   0.742   0.782
  0.794   0.814   0.819   0.828   0.848   0.860   0.877   0.894
  0.943   0.976   1.015   1.056   1.100   1.193   1.261   1.330
  1.346   1.394   1.402   1.482   1.514   1.586   1.633   1.666
  1.729   1.777   1.796   1.817   1.910   1.973   2.000   2.020
  2.049   2.107   2.137   2.168   2.216   2.252   2.279   2.299
  2.337   2.420   2.475   2.513   2.544   2.558   2.626   2.632
  2.647   2.722   2.829   2.853   2.909   2.945   3.922   4.189
  4.270   4.304   4.398   4.542   4.665
 --------------------------------------------------------------
 
          Ground-State Mulliken Net Atomic Charges

     Atom                 Charge (a.u.)    Spin (a.u.)
  --------------------------------------------------------
      1 C                    -0.090209      -0.043453
      2 C                    -0.091828       0.027459
      3 C                    -0.093860       0.095541
      4 C                    -0.248047      -0.045248
      5 C                     0.096553      -0.010545
      6 N                    -0.325667       0.019542
      7 H                     0.141214       0.002545
      8 H                     0.145405       0.001505
      9 H                     0.146063       0.001140
     10 H                     0.136035       0.003458
     11 H                     0.149389      -0.000017
     12 C                    -0.106140       0.978325
     13 H                     0.141090      -0.030252
  --------------------------------------------------------
  Sum of atomic charges =    -0.000000
  Sum of spin   charges =     1.000000

 -----------------------------------------------------------------
                    Cartesian Multipole Moments
 -----------------------------------------------------------------
    Charge (ESU x 10^10)
                 0.0000
    Dipole Moment (Debye)
         X      -1.4722      Y      -1.8526      Z      -0.2187
       Tot       2.3764
    Quadrupole Moments (Debye-Ang)
        XX     -38.3485     XY      -4.1555     YY     -42.4223
        XZ       1.8826     YZ      -0.0526     ZZ     -40.7160
    Octopole Moments (Debye-Ang^2)
       XXX     -11.0223    XXY     -11.4464    XYY     -11.3415
       YYY     -23.4737    XXZ       0.6481    XYZ       2.6472
       YYZ      -3.9669    XZZ      -4.4402    YZZ     -10.1427
       ZZZ      -0.8779
    Hexadecapole Moments (Debye-Ang^3)
      XXXX    -220.0587   XXXY      -9.2842   XXYY     -89.9489
      XYYY     -20.0449   YYYY    -294.7631   XXXZ      -2.0056
      XXYZ       2.5941   XYYZ       2.4370   YYYZ      -5.1897
      XXZZ     -65.1904   XYZZ       0.3204   YYZZ     -71.9142
      XZZZ      -3.5840   YZZZ      -9.1825   ZZZZ    -172.9305
 -----------------------------------------------------------------
 Calculating analytic gradient of the SCF energy
 Gradient of SCF Energy
            1           2           3           4           5           6
    1   0.0208667   0.0020528  -0.0078275  -0.0031993  -0.0020885   0.0039603
    2   0.0087974   0.0007599  -0.0008736   0.0032138  -0.0012111   0.0016597
    3  -0.0078337   0.0083855   0.0021652  -0.0012390   0.0005767  -0.0009460
            7           8           9          10          11          12
    1   0.0017811   0.0003255  -0.0000126  -0.0000419   0.0000585  -0.0144855
    2   0.0002322   0.0005928   0.0007183  -0.0001852   0.0002138  -0.0153658
    3  -0.0018817   0.0009733  -0.0005150   0.0000480   0.0005676  -0.0020645
           13
    1  -0.0013895
    2   0.0014477
    3   0.0017636
 Max gradient component =       2.087E-02
 RMS gradient           =       5.617E-03
 Gradient time:  CPU 8.11 s  wall 2.67 s
 ----------------------------------------------------------------
             Standard Nuclear Orientation (Angstroms)
    I     Atom           X                Y                Z
 ----------------------------------------------------------------
    1      C       1.1216212519     0.1643405054     0.4929017644
    2      C       0.8372133165    -0.9827859806    -0.4791869497
    3      C      -0.4711522300    -0.9580627911    -0.7454565551
    4      C      -1.0729361778     0.1973551162     0.0742776590
    5      C      -0.3791252540     1.4844556339    -0.4174181033
    6      N       0.8740199032     1.4843320949    -0.2105081976
    7      H       2.1260336160     0.1673711006     0.9688736631
    8      H       1.5861198730    -1.6654475737    -0.8588111421
    9      H      -1.0370993212    -1.5956737336    -1.4238307931
   10      H      -2.1618636187     0.2258754923     0.1838887051
   11      H      -0.8897370862     2.3099480805    -0.9101042898
   12      C      -0.1677919467    -0.0144133272     1.2955341057
   13      H      -0.3674654743    -0.8208494985     2.0254402854
 ----------------------------------------------------------------
 Nuclear Repulsion Energy =   279.2603608880 hartrees
 There are       25 alpha and       24 beta electrons

                       Distance Matrix (Angstroms)
             C (  1)   C (  2)   C (  3)   C (  4)   C (  5)   N (  6)
   C (  2)  1.530276
   C (  3)  2.308733  1.335414
   C (  4)  2.234372  2.312515  1.539188
   C (  5)  2.196276  2.751468  2.466166  1.542649
   N (  6)  1.516071  2.481978  2.839181  2.351181  1.270112
   H (  7)  1.111487  2.254063  3.309215  3.321838  3.151561  2.166302
   H (  8)  2.321855  1.082129  2.178442  3.378057  3.738838  3.293705
   H (  9)  3.381063  2.186557  1.089512  2.336785  3.306508  3.822429
   H ( 10)  3.298568  3.300757  2.263603  1.094802  2.263570  3.309962
   H ( 11)  3.258469  3.743013  3.298821  2.337866  1.088532  2.069279
   C ( 12)  1.529300  2.257746  2.268952  1.534796  2.285930  2.366384
   H ( 13)  2.353009  2.783996  2.776229  2.311161  3.358887  3.443053
             H (  7)   H (  8)   H (  9)   H ( 10)   H ( 11)   C ( 12)
   H (  8)  2.644081
   H (  9)  4.340365  2.684287
   H ( 10)  4.359551  4.325703  2.677293
   H ( 11)  4.149225  4.683617  3.942019  2.675535
   C ( 12)  2.324089  3.231613  3.263591  2.295608  3.284616
   H ( 13)  2.882785  3.584515  3.598087  2.776114  4.323434  1.105881

 
 Applying Cartesian multipole field
    Component          Value
    ---------          -----
     (2,0,0)        1.00000E-11
     (0,2,0)        2.00000E-11
     (0,0,2)       -3.00000E-11
 Nucleus-field energy     =     0.0000000023 hartrees
 Requested basis set is 6-31G(d)
 There are 40 shells and 117 basis functions
 A cutoff of  1.0D-14 yielded    814 shell pairs
 There are      7086 function pairs
 Smallest overlap matrix eigenvalue = 1.10E-03
 Guess MOs from core Hamiltonian diagonalization
 Mixing HOMO and LUMO in initial guess
 Adding  50% of the LUMO to the HOMO
 An unrestricted hybrid HF-DFT SCF calculation will be
 performed using Pulay DIIS extrapolation
 Exchange:     0.2000 Hartree-Fock + 0.0800 Slater + 0.7200 B88
 Correlation:  0.1900 VWN1RPA + 0.8100 LYP
 Using SG-1 standard quadrature grid
 SCF converges when DIIS error is below 1.0E-08
 using 4 threads for integral computing
 -------------------------------------------------------
 OpenMP Integral computing Module                
 Release: version 1.0, May 2013, Q-Chem Inc. Pittsburgh 
 -------------------------------------------------------
 -------------------------------------------------------
 OpenMP BLAS3 based DFT computing Module                
 Release: version 1.0, May 2013, Q-Chem Inc. Pittsburgh 
 -------------------------------------------------------
 ---------------------------------------
  Cycle       Energy         DIIS Error
 ---------------------------------------
    1    -235.1475857049      1.38E-01
    2    -229.3048590931      1.01E-01
    3    -251.1123232902      1.09E-01
    4    -282.8038472817      4.18E-02
    5    -282.7575511458      4.10E-02
    6    -286.2581815407      1.61E-02
    7    -286.5999330689      1.00E-02
    8    -286.8094267970      4.19E-03
    9    -286.8434439119      1.66E-03
   10    -286.8490621681      6.85E-04
   11    -286.8497832993      2.97E-04
   12    -286.8500293506      8.68E-05
   13    -286.8500677434      3.89E-05
   14    -286.8500764580      8.78E-06
   15    -286.8500776401      3.60E-06
   16    -286.8500779283      9.91E-07
   17    -286.8500780919      4.62E-07
   18    -286.8500781801      3.25E-07
   19    -286.8500782469      1.28E-07
   20    -286.8500782547      1.63E-08
   21    -286.8500782547      5.03E-09 Convergence criterion met
 ---------------------------------------
 <S^2> = 0.7538
 SCF time:  CPU 53.35 s  wall 17.48 s
 SCF   energy in the final basis set = -286.85007825
 Total energy in the final basis set = -286.85007825
 
 --------------------------------------------------------------
 
                    Orbital Energies (a.u.)
 --------------------------------------------------------------
 
 Alpha MOs
 -- Occupied --
-14.321 -10.223 -10.223 -10.211 -10.206 -10.201 -10.197  -0.954
 -0.825  -0.727  -0.702  -0.580  -0.573  -0.528  -0.510  -0.471
 -0.420  -0.409  -0.378  -0.375  -0.346  -0.294  -0.275  -0.260
 -0.190
 -- Virtual --
 -0.019   0.028   0.100   0.137   0.147   0.154   0.157   0.163
  0.169   0.211   0.216   0.256   0.289   0.322   0.349   0.368
  0.492   0.506   0.528   0.540   0.571   0.598   0.605   0.621
  0.635   0.646   0.656   0.689   0.702   0.729   0.780   0.788
  0.798   0.815   0.825   0.848   0.855   0.874   0.892   0.931
  0.964   1.003   1.060   1.094   1.195   1.264   1.325   1.342
  1.393   1.404   1.484   1.514   1.569   1.623   1.659   1.725
  1.778   1.795   1.826   1.890   1.965   1.987   1.991   2.048
  2.098   2.140   2.168   2.215   2.234   2.280   2.313   2.335
  2.426   2.469   2.518   2.531   2.557   2.618   2.630   2.648
  2.724   2.839   2.858   2.912   2.947   3.925   4.186   4.268
  4.280   4.395   4.538   4.675
 
 Beta MOs
 -- Occupied --
-14.321 -10.224 -10.223 -10.211 -10.200 -10.196 -10.192  -0.951
 -0.820  -0.725  -0.687  -0.579  -0.561  -0.524  -0.508  -0.462
 -0.417  -0.405  -0.377  -0.372  -0.340  -0.286  -0.264  -0.258
 -- Virtual --
 -0.041  -0.013   0.030   0.101   0.143   0.152   0.154   0.158
  0.166   0.172   0.217   0.224   0.268   0.291   0.325   0.351
  0.371   0.494   0.527   0.536   0.545   0.579   0.602   0.609
  0.624   0.641   0.659   0.668   0.693   0.708   0.743   0.784
  0.789   0.809   0.817   0.826   0.851   0.857   0.877   0.896
  0.933   0.970   1.012   1.062   1.101   1.199   1.266   1.330
  1.348   1.397   1.408   1.486   1.517   1.583   1.630   1.666
  1.729   1.787   1.798   1.835   1.910   1.971   1.991   2.010
  2.053   2.119   2.145   2.174   2.231   2.251   2.285   2.316
  2.338   2.429   2.486   2.521   2.540   2.561   2.630   2.636
  2.650   2.732   2.841   2.861   2.913   2.949   3.926   4.188
  4.273   4.305   4.398   4.544   4.676
 --------------------------------------------------------------
 
          Ground-State Mulliken Net Atomic Charges

     Atom                 Charge (a.u.)    Spin (a.u.)
  --------------------------------------------------------
      1 C                    -0.094686      -0.043562
      2 C                    -0.086006       0.036218
      3 C                    -0.093776       0.088475
      4 C                    -0.247532      -0.043852
      5 C                     0.095660      -0.009540
      6 N                    -0.324312       0.019596
      7 H                     0.138936       0.003295
      8 H                     0.145850       0.001050
      9 H                     0.145074       0.000266
     10 H                     0.134642       0.003226
     11 H                     0.148305      -0.000081
     12 C                    -0.100988       0.972877
     13 H                     0.138833      -0.027968
  --------------------------------------------------------
  Sum of atomic charges =    -0.000000
  Sum of spin   charges =     1.000000

 -----------------------------------------------------------------
                    Cartesian Multipole Moments
 -----------------------------------------------------------------
    Charge (ESU x 10^10)
                -0.0000
    Dipole Moment (Debye)
         X      -1.4937      Y      -1.8616      Z      -0.2339
       Tot       2.3982
    Quadrupole Moments (Debye-Ang)
        XX     -38.4741     XY      -4.1711     YY     -42.3093
        XZ       1.8068     YZ      -0.0298     ZZ     -40.7961
    Octopole Moments (Debye-Ang^2)
       XXX     -11.2430    XXY     -11.5079    XYY     -11.2730
       YYY     -23.6417    XXZ       0.4887    XYZ       2.6542
       YYZ      -3.9301    XZZ      -4.5075    YZZ     -10.0771
       ZZZ      -1.1117
    Hexadecapole Moments (Debye-Ang^3)
      XXXX    -218.0989   XXXY      -9.0379   XXYY     -89.4644
      XYYY     -19.7357   YYYY    -294.3978   XXXZ      -2.4800
      XXYZ       2.5069   XYYZ       2.2104   YYYZ      -5.4283
      XXZZ     -65.1189   XYZZ       0.4868   YYZZ     -72.0853
      XZZZ      -3.9937   YZZZ      -9.3238   ZZZZ    -173.9805
 -----------------------------------------------------------------
 Calculating analytic gradient of the SCF energy
 Gradient of SCF Energy
            1           2           3           4           5           6
    1  -0.0134404  -0.0087298   0.0113823  -0.0006336   0.0087109  -0.0044090
    2   0.0029174   0.0009531   0.0020127  -0.0011007   0.0001274   0.0019546
    3  -0.0066941   0.0021675   0.0077376  -0.0013090   0.0027331  -0.0029421
            7           8           9          10          11          12
    1   0.0146361  -0.0010035  -0.0019312  -0.0033691   0.0001931   0.0038435
    2   0.0018006   0.0006518  -0.0013410   0.0009892  -0.0000025  -0.0014886
    3   0.0022670   0.0019911  -0.0022606  -0.0002864   0.0009040  -0.0122320
           13
    1  -0.0052493
    2  -0.0074741
    3   0.0079239
 Max gradient component =       1.464E-02
 RMS gradient           =       5.530E-03
 Gradient time:  CPU 7.92 s  wall 2.03 s
 FSM gradient convergence criteria satisfied
 After opt distance between the previous and current R_nodes (Angstroms): 0.1259
 After opt distance between the previous and current P_nodes (Angstroms): 0.1185
-Printing perpgrad.txt, Vfile.txt, and stringfile.txt

STARTING FREEZING STRING ITERATION # 2
 The distance between the innermost nodes (Angstroms): 2.290
-Adding two new nodes
 The distance between the previous and current R_nodes (Angstroms): 0.1232
 The distance between the previous and current P_nodes (Angstroms): 0.1375
-Optimizing new reactant side node
 Using BFGS, step: 3 E_tol 0.0068
 max_steps 6, node_spacing 0.1201, sigma 0.7000
 ----------------------------------------------------------------
             Standard Nuclear Orientation (Angstroms)
    I     Atom           X                Y                Z
 ----------------------------------------------------------------
    1      C       1.5535633077     0.4371573458    -0.0308171492
    2      C       0.8178872129    -0.8469950439     0.0463137678
    3      C      -0.5201265547    -0.9613493732    -0.5800906325
    4      C      -1.1183317696     0.3094077133    -0.0314753557
    5      C      -0.3809758009     1.5763401321    -0.2646689545
    6      N       0.9469006260     1.6077394924    -0.2520707356
    7      H       2.6346392723     0.4377803367     0.0213727563
    8      H       1.4262305377    -1.7636069542     0.1298624218
    9      H      -0.9400894952    -1.7295545054    -1.2409397025
   10      H      -2.2091758557     0.3659688901    -0.0122406811
   11      H      -0.9114932097     2.5054230218    -0.4407324430
   12      C      -0.4693566660    -0.6891972559     0.8924534245
   13      H      -0.8416669857    -1.2482697958     1.7593412999
 ----------------------------------------------------------------
 Nuclear Repulsion Energy =   277.5827999084 hartrees
 There are       25 alpha and       24 beta electrons

                       Distance Matrix (Angstroms)
             C (  1)   C (  2)   C (  3)   C (  4)   C (  5)   N (  6)
   C (  2)  1.481964
   C (  3)  2.560803  1.481803
   C (  4)  2.674947  2.256604  1.507863
   C (  5)  2.257181  2.721495  2.561000  1.484315
   N (  6)  1.336883  2.476166  2.976572  2.449390  1.328307
   H (  7)  1.082335  2.225277  3.503123  3.755538  3.236058  2.071723
   H (  8)  2.210293  1.103286  2.221701  3.286064  3.817970  3.426603
   H (  9)  3.518145  2.350833  1.096918  2.377381  3.492084  3.959309
   H ( 10)  3.763458  3.261567  2.221962  1.092479  2.207042  3.400049
   H ( 11)  3.243803  3.803509  3.491575  2.243381  1.084270  2.072452
   C ( 12)  2.492651  1.548499  1.498343  1.507324  2.545467  2.931150
   H ( 13)  3.432559  2.418596  2.378792  2.389545  3.505321  3.924480
             H (  7)   H (  8)   H (  9)   H ( 10)   H ( 11)   C ( 12)
   H (  8)  2.513589
   H (  9)  4.366859  2.734909
   H ( 10)  4.844464  4.215622  2.740712
   H ( 11)  4.130828  4.900525  4.310010  2.538671
   C ( 12)  3.415209  2.308496  2.419772  2.226840  3.489766
   H ( 13)  4.236509  2.839742  3.040232  2.759411  4.351484  1.096664

 
 Applying Cartesian multipole field
    Component          Value
    ---------          -----
     (2,0,0)        1.00000E-11
     (0,2,0)        2.00000E-11
     (0,0,2)       -3.00000E-11
 Nucleus-field energy     =     0.0000000049 hartrees
 Requested basis set is 6-31G(d)
 There are 40 shells and 117 basis functions
 A cutoff of  1.0D-14 yielded    809 shell pairs
 There are      7081 function pairs
 Smallest overlap matrix eigenvalue = 1.60E-03
 Guess MOs from core Hamiltonian diagonalization
 Mixing HOMO and LUMO in initial guess
 Adding  50% of the LUMO to the HOMO
 An unrestricted hybrid HF-DFT SCF calculation will be
 performed using Pulay DIIS extrapolation
 Exchange:     0.2000 Hartree-Fock + 0.0800 Slater + 0.7200 B88
 Correlation:  0.1900 VWN1RPA + 0.8100 LYP
 Using SG-1 standard quadrature grid
 SCF converges when DIIS error is below 1.0E-08
 using 4 threads for integral computing
 -------------------------------------------------------
 OpenMP Integral computing Module                
 Release: version 1.0, May 2013, Q-Chem Inc. Pittsburgh 
 -------------------------------------------------------
 -------------------------------------------------------
 OpenMP BLAS3 based DFT computing Module                
 Release: version 1.0, May 2013, Q-Chem Inc. Pittsburgh 
 -------------------------------------------------------
 ---------------------------------------
  Cycle       Energy         DIIS Error
 ---------------------------------------
    1    -240.2278645692      1.30E-01
    2    -241.4095828143      1.02E-01
    3    -279.8626747161      5.27E-02
    4    -282.0896932793      4.43E-02
    5    -283.6793808325      3.58E-02
    6    -286.4323219865      1.63E-02
    7    -286.8131992015      4.78E-03
    8    -286.8383823052      2.66E-03
    9    -286.8516001567      8.36E-04
   10    -286.8532156469      1.67E-04
   11    -286.8533251253      7.39E-05
   12    -286.8533656645      2.25E-05
   13    -286.8533761668      1.11E-05
   14    -286.8533786804      5.86E-06
   15    -286.8533792694      1.93E-06
   16    -286.8533793015      8.39E-07
   17    -286.8533793050      1.33E-07
   18    -286.8533793053      3.84E-08
   19    -286.8533793053      8.34E-09 Convergence criterion met
 ---------------------------------------
 <S^2> = 0.7738
 SCF time:  CPU 46.85 s  wall 14.66 s
 SCF   energy in the final basis set = -286.85337931
 Total energy in the final basis set = -286.85337931
 
 --------------------------------------------------------------
 
                    Orbital Energies (a.u.)
 --------------------------------------------------------------
 
 Alpha MOs
 -- Occupied --
-14.316 -10.218 -10.217 -10.217 -10.216 -10.213 -10.213  -0.960
 -0.893  -0.751  -0.642  -0.631  -0.591  -0.542  -0.481  -0.469
 -0.462  -0.410  -0.395  -0.366  -0.345  -0.300  -0.290  -0.223
 -0.172
 -- Virtual --
  0.018   0.085   0.099   0.140   0.142   0.153   0.159   0.166
  0.198   0.217   0.234   0.263   0.288   0.310   0.323   0.391
  0.522   0.527   0.533   0.538   0.568   0.591   0.595   0.597
  0.618   0.624   0.633   0.656   0.665   0.737   0.781   0.799
  0.811   0.834   0.848   0.855   0.882   0.883   0.924   0.939
  0.952   0.988   1.126   1.154   1.170   1.210   1.256   1.374
  1.423   1.436   1.489   1.493   1.583   1.635   1.655   1.665
  1.737   1.759   1.838   1.867   1.890   1.926   1.995   2.020
  2.029   2.138   2.164   2.206   2.238   2.299   2.359   2.460
  2.476   2.483   2.539   2.576   2.582   2.600   2.631   2.688
  2.716   2.765   2.805   2.987   3.154   4.016   4.119   4.193
  4.392   4.442   4.466   4.532
 
 Beta MOs
 -- Occupied --
-14.319 -10.218 -10.216 -10.216 -10.215 -10.205 -10.205  -0.956
 -0.891  -0.739  -0.630  -0.626  -0.586  -0.540  -0.476  -0.464
 -0.460  -0.406  -0.378  -0.363  -0.332  -0.296  -0.288  -0.222
 -- Virtual --
 -0.063   0.038   0.087   0.104   0.141   0.144   0.160   0.166
  0.171   0.208   0.220   0.237   0.267   0.297   0.314   0.331
  0.396   0.528   0.530   0.543   0.551   0.570   0.598   0.603
  0.606   0.631   0.639   0.653   0.660   0.672   0.742   0.784
  0.801   0.812   0.839   0.843   0.856   0.883   0.891   0.928
  0.944   0.957   0.998   1.128   1.155   1.172   1.212   1.256
  1.389   1.428   1.438   1.498   1.508   1.585   1.649   1.663
  1.678   1.743   1.766   1.845   1.878   1.899   1.929   2.003
[...]
      1 C                     0.039766       0.000977
      2 C                    -0.164312      -0.087035
      3 C                    -0.099135       0.487805
      4 C                    -0.267895      -0.024659
      5 C                     0.097338       0.074813
      6 N                    -0.342848       0.006938
      7 H                     0.162405      -0.001544
      8 H                     0.154201       0.003522
      9 H                     0.142702      -0.022763
     10 H                     0.141021       0.001752
     11 H                     0.150546      -0.002886
     12 C                    -0.169568       0.577046
     13 H                     0.155781      -0.013967
  --------------------------------------------------------
  Sum of atomic charges =    -0.000000
  Sum of spin   charges =     1.000000

 -----------------------------------------------------------------
                    Cartesian Multipole Moments
 -----------------------------------------------------------------
    Charge (ESU x 10^10)
                 0.0000
    Dipole Moment (Debye)
         X      -0.9191      Y      -2.1018      Z      -0.0252
       Tot       2.2941
    Quadrupole Moments (Debye-Ang)
        XX     -37.0971     XY      -3.8917     YY     -40.6384
        XZ       1.2216     YZ      -0.7531     ZZ     -44.1723
    Octopole Moments (Debye-Ang^2)
       XXX      -9.4595    XXY     -10.5448    XYY     -12.1755
       YYY     -29.7525    XXZ       3.6168    XYZ       2.2733
       YYZ      -0.3287    XZZ      -5.5805    YZZ      -9.7595
       ZZZ       2.2383
    Hexadecapole Moments (Debye-Ang^3)
      XXXX    -230.1901   XXXY     -13.6823   XXYY     -95.3311
      XYYY     -30.0655   YYYY    -310.0895   XXXZ      -0.0558
      XXYZ       5.2139   XYYZ       3.1674   YYYZ       5.7128
      XXZZ     -64.9346   XYZZ      -1.7118   YYZZ     -72.3129
      XZZZ      -8.7312   YZZZ       3.2965   ZZZZ    -152.5785
 -----------------------------------------------------------------
 Calculating analytic gradient of the SCF energy
 Gradient of SCF Energy
            1           2           3           4           5           6
    1   0.0133268   0.0009008  -0.0036282   0.0103381  -0.0024293   0.0034479
    2   0.0114063   0.0157543  -0.0060176   0.0018221   0.0113552  -0.0045272
    3  -0.0146691   0.0015227   0.0266860  -0.0076730  -0.0024538   0.0058035
            7           8           9          10          11          12
    1   0.0055255   0.0036155  -0.0011165  -0.0072391   0.0010021  -0.0155806
    2   0.0039607  -0.0066905  -0.0034227   0.0031778   0.0005422  -0.0202529
    3  -0.0044763   0.0031481   0.0012082  -0.0029881   0.0048774  -0.0174593
           13
    1  -0.0081630
    2  -0.0071077
    3   0.0064737
 Max gradient component =       2.669E-02
 RMS gradient           =       9.162E-03
 Gradient time:  CPU 7.89 s  wall 2.04 s
 ----------------------------------------------------------------
             Standard Nuclear Orientation (Angstroms)
    I     Atom           X                Y                Z
 ----------------------------------------------------------------
    1      C       1.3673733763     0.3572812786     0.1972520036
    2      C       0.8003004706    -0.9021816504    -0.2860435312
    3      C      -0.5226108498    -0.8735991498    -0.7848102820
    4      C      -1.0739728472     0.2510788856     0.0331726137
    5      C      -0.4002995135     1.5651303219    -0.3718064526
    6      N       0.8848621308     1.5677640729    -0.2251974563
    7      H       2.3464323891     0.3610281043     0.6710308169
    8      H       1.4335864457    -1.8016921453    -0.2667978968
    9      H      -1.0669192681    -1.7208412804    -1.1912633926
   10      H      -2.1666070270     0.3267950709     0.1523078238
   11      H      -0.9218855971     2.4293689040    -0.7685177014
   12      C      -0.1902328798    -0.3450453114     1.1478008267
   13      H      -0.5223721681    -1.2533757753     1.6805279644
 ----------------------------------------------------------------
 Nuclear Repulsion Energy =   278.4319045221 hartrees
 There are       25 alpha and       24 beta electrons

                       Distance Matrix (Angstroms)
             C (  1)   C (  2)   C (  3)   C (  4)   C (  5)   N (  6)
   C (  2)  1.463350
   C (  3)  2.459991  1.414100
   C (  4)  2.449157  2.223693  1.495994
   C (  5)  2.215264  2.745255  2.476476  1.531201
   N (  6)  1.369872  2.472142  2.873047  2.374331  1.293500
   H (  7)  1.087675  2.214094  3.446039  3.481110  3.175202  2.096574
   H (  8)  2.209274  1.100246  2.226298  3.254490  3.835317  3.414098
   H (  9)  3.488889  2.230725  1.085954  2.321155  3.451594  3.944320
   H ( 10)  3.534398  3.241153  2.240951  1.101715  2.219913  3.315717
   H ( 11)  3.235269  3.781261  3.327053  2.326109  1.084592  2.074102
   C ( 12)  1.955235  1.829608  2.030968  1.542322  2.449919  2.588396
   H ( 13)  2.892311  2.395872  2.494418  2.298136  3.488690  3.683874
             H (  7)   H (  8)   H (  9)   H ( 10)   H ( 11)   C ( 12)
   H (  8)  2.527878
   H (  9)  4.410588  2.667152
   H ( 10)  4.542881  4.203273  2.684644
   H ( 11)  4.127013  4.868454  4.174206  2.611143
   C ( 12)  2.675915  2.599942  2.851774  2.312667  3.450357
   H ( 13)  3.443171  2.813983  2.960108  2.745160  4.440726  1.104164

 
 Applying Cartesian multipole field
    Component          Value
    ---------          -----
     (2,0,0)        1.00000E-11
     (0,2,0)        2.00000E-11
     (0,0,2)       -3.00000E-11
 Nucleus-field energy     =     0.0000000037 hartrees
 Requested basis set is 6-31G(d)
 There are 40 shells and 117 basis functions
 A cutoff of  1.0D-14 yielded    811 shell pairs
 There are      7083 function pairs
 Smallest overlap matrix eigenvalue = 1.65E-03
 Guess MOs from core Hamiltonian diagonalization
 Mixing HOMO and LUMO in initial guess
 Adding  50% of the LUMO to the HOMO
 An unrestricted hybrid HF-DFT SCF calculation will be
 performed using Pulay DIIS extrapolation
 Exchange:     0.2000 Hartree-Fock + 0.0800 Slater + 0.7200 B88
 Correlation:  0.1900 VWN1RPA + 0.8100 LYP
 Using SG-1 standard quadrature grid
 SCF converges when DIIS error is below 1.0E-08
 using 4 threads for integral computing
 -------------------------------------------------------
 OpenMP Integral computing Module                
 Release: version 1.0, May 2013, Q-Chem Inc. Pittsburgh 
 -------------------------------------------------------
 -------------------------------------------------------
 OpenMP BLAS3 based DFT computing Module                
 Release: version 1.0, May 2013, Q-Chem Inc. Pittsburgh 
 -------------------------------------------------------
 ---------------------------------------
  Cycle       Energy         DIIS Error
 ---------------------------------------
    1    -236.9363426339      1.34E-01
    2    -232.6575580315      9.95E-02
    3    -253.4277564015      1.13E-01
    4    -283.7377007094      3.89E-02
    5    -283.1251123371      4.08E-02
    6    -286.3520085837      1.37E-02
    7    -286.5124566578      1.05E-02
    8    -286.7200463545      4.69E-03
    9    -286.7608879335      1.98E-03
   10    -286.7676218657      8.75E-04
   11    -286.7697251979      4.68E-04
   12    -286.7705658191      4.52E-04
   13    -286.7713503028      2.20E-04
   14    -286.7717603572      9.94E-05
   15    -286.7718844225      5.15E-05
   16    -286.7719582431      2.57E-05
   17    -286.7719881966      1.01E-05
   18    -286.7719985966      9.08E-06
   19    -286.7719996938      1.51E-06
   20    -286.7719997721      5.11E-07
   21    -286.7719997821      1.85E-07
   22    -286.7719997841      6.03E-08
   23    -286.7719997844      3.20E-08
   24    -286.7719997845      1.12E-08
   25    -286.7719997845      4.96E-09 Convergence criterion met
 ---------------------------------------
 <S^2> = 0.7635
 SCF time:  CPU 63.39 s  wall 18.95 s
 SCF   energy in the final basis set = -286.77199978
 Total energy in the final basis set = -286.77199978
 
 --------------------------------------------------------------
 
                    Orbital Energies (a.u.)
 --------------------------------------------------------------
 
 Alpha MOs
 -- Occupied --
-14.326 -10.248 -10.226 -10.225 -10.221 -10.211 -10.198  -0.962
 -0.853  -0.751  -0.653  -0.617  -0.600  -0.537  -0.494  -0.452
 -0.442  -0.431  -0.401  -0.370  -0.352  -0.291  -0.270  -0.259
 -0.118
 -- Virtual --
 -0.038   0.039   0.049   0.089   0.140   0.149   0.153   0.164
  0.170   0.188   0.232   0.255   0.278   0.331   0.349   0.396
  0.482   0.507   0.526   0.545   0.559   0.564   0.588   0.595
  0.622   0.652   0.665   0.678   0.686   0.724   0.755   0.803
  0.813   0.831   0.844   0.859   0.865   0.880   0.904   0.938
  0.989   1.040   1.089   1.101   1.130   1.220   1.244   1.321
  1.375   1.412   1.451   1.521   1.538   1.588   1.630   1.645
  1.753   1.791   1.844   1.887   1.902   1.919   2.004   2.043
  2.085   2.152   2.198   2.209   2.243   2.277   2.319   2.359
  2.396   2.428   2.456   2.537   2.539   2.576   2.616   2.647
  2.674   2.773   2.815   2.946   3.074   3.987   4.186   4.217
  4.291   4.403   4.441   4.563
 
 Beta MOs
 -- Occupied --
-14.326 -10.247 -10.227 -10.224 -10.212 -10.211 -10.192  -0.959
 -0.845  -0.749  -0.644  -0.611  -0.590  -0.533  -0.492  -0.449
 -0.436  -0.425  -0.397  -0.366  -0.345  -0.283  -0.266  -0.226
 -- Virtual --
 -0.031  -0.006   0.048   0.058   0.091   0.141   0.151   0.157
  0.169   0.173   0.195   0.236   0.258   0.281   0.335   0.355
  0.398   0.495   0.510   0.539   0.547   0.568   0.573   0.598
  0.603   0.627   0.661   0.668   0.684   0.695   0.729   0.760
  0.804   0.814   0.836   0.847   0.861   0.869   0.884   0.907
  0.942   0.992   1.043   1.099   1.104   1.136   1.230   1.249
  1.328   1.380   1.415   1.455   1.529   1.546   1.594   1.638
  1.650   1.760   1.810   1.846   1.897   1.908   1.931   2.011
  2.047   2.090   2.160   2.207   2.217   2.261   2.288   2.324
  2.373   2.404   2.437   2.468   2.542   2.544   2.582   2.620
  2.656   2.679   2.776   2.821   2.947   3.076   3.988   4.189
  4.230   4.305   4.409   4.444   4.566
 --------------------------------------------------------------
 
          Ground-State Mulliken Net Atomic Charges

     Atom                 Charge (a.u.)    Spin (a.u.)
  --------------------------------------------------------
      1 C                     0.044162       0.020523
      2 C                    -0.167842      -0.078159
      3 C                    -0.096417       0.438475
      4 C                    -0.267045      -0.023086
      5 C                     0.092486       0.097794
      6 N                    -0.343930       0.004126
      7 H                     0.161677      -0.002679
      8 H                     0.154775       0.002731
      9 H                     0.144306      -0.019620
     10 H                     0.141710       0.000986
     11 H                     0.149650      -0.004316
     12 C                    -0.168604       0.575752
     13 H                     0.155071      -0.012525
  --------------------------------------------------------
  Sum of atomic charges =    -0.000000
  Sum of spin   charges =     1.000000

 -----------------------------------------------------------------
                    Cartesian Multipole Moments
 -----------------------------------------------------------------
    Charge (ESU x 10^10)
                -0.0000
    Dipole Moment (Debye)
         X      -0.9582      Y      -2.1869      Z      -0.0670
       Tot       2.3885
    Quadrupole Moments (Debye-Ang)
        XX     -37.1336     XY      -3.8708     YY     -40.6943
        XZ       1.2337     YZ      -0.6821     ZZ     -44.1030
    Octopole Moments (Debye-Ang^2)
       XXX      -9.6556    XXY     -10.6120    XYY     -12.1361
       YYY     -30.0295    XXZ       3.5962    XYZ       2.2081
       YYZ      -0.4011    XZZ      -5.6617    YZZ      -9.8410
       ZZZ       2.1455
    Hexadecapole Moments (Debye-Ang^3)
      XXXX    -231.1816   XXXY     -13.9002   XXYY     -95.5021
      XYYY     -30.1008   YYYY    -310.4461   XXXZ       0.3385
      XXYZ       5.3327   XYYZ       3.2924   YYYZ       5.9437
      XXZZ     -64.9950   XYZZ      -1.7125   YYZZ     -72.3159
      XZZZ      -8.3785   YZZZ       3.7299   ZZZZ    -151.8596
 -----------------------------------------------------------------
 Calculating analytic gradient of the SCF energy
 Gradient of SCF Energy
            1           2           3           4           5           6
    1   0.0112706   0.0001925  -0.0040239   0.0107143  -0.0022040   0.0026848
    2   0.0099906   0.0150539  -0.0058786   0.0013888   0.0112403  -0.0042113
    3  -0.0116910   0.0016517   0.0235525  -0.0077836  -0.0024216   0.0053492
            7           8           9          10          11          12
    1   0.0047522   0.0035592  -0.0014699  -0.0071441   0.0009915  -0.0128593
    2   0.0037700  -0.0067549  -0.0035718   0.0032427   0.0006901  -0.0190313
    3  -0.0042079   0.0032483   0.0010281  -0.0027883   0.0048458  -0.0174713
           13
    1  -0.0064639
    2  -0.0059285
    3   0.0066883
 Max gradient component =       2.355E-02
 RMS gradient           =       8.404E-03
 Gradient time:  CPU 8.14 s  wall 2.12 s
 E1 = -286.7729743, E2 = -286.7719998, Emax = -286.7724656
 Iteration 5, Curvature = -0.7877768
 Curvature, final (in Hartree/Bohr^2) = -0.2206000
 ----------------------------------------------------------------
             Standard Nuclear Orientation (Angstroms)
    I     Atom           X                Y                Z
 ----------------------------------------------------------------
    1      C       1.3642446077     0.3559082166     0.2013782428
    2      C       0.7996499089    -0.9031364094    -0.2862850098
    3      C      -0.5228382690    -0.8735499043    -0.7871071132
    4      C      -1.0736627984     0.2511782307     0.0326808164
    5      C      -0.4002200526     1.5651399698    -0.3718172752
    6      N       0.8842802798     1.5680101941    -0.2257593547
    7      H       2.3457161833     0.3607537643     0.6712420344
    8      H       1.4337818089    -1.8020178967    -0.2669970325
    9      H      -1.0673537455    -1.7211208037    -1.1914927302
   10      H      -2.1663125882     0.3268192920     0.1524767890
   11      H      -0.9219055951     2.4294111117    -0.7683651327
   12      C      -0.1874836271    -0.3436610373     1.1469414840
   13      H      -0.5202326538    -1.2520177455     1.6807568396
 ----------------------------------------------------------------
 Nuclear Repulsion Energy =   278.4678885978 hartrees
 There are       25 alpha and       24 beta electrons
 Requested basis set is 6-31G(d)
 There are 40 shells and 117 basis functions
 Geometry Optimization Parameters
   NAtoms,    NIC,     NZ,  NCons,   NDum,   NFix, NCnnct, MaxDiis
       13     128       0       0       0       0       0       0


** GEOMETRY OPTIMIZATION IN DELOCALIZED INTERNAL COORDINATES **
   Searching for a Minimum

   Optimization Cycle:   1

                       Coordinates (Angstroms)
     ATOM                X               Y               Z
      1  C         1.3642446077    0.3559082166    0.2013782428
      2  C         0.7996499089   -0.9031364094   -0.2862850098
      3  C        -0.5228382690   -0.8735499043   -0.7871071132
      4  C        -1.0736627984    0.2511782307    0.0326808164
      5  C        -0.4002200526    1.5651399698   -0.3718172752
      6  N         0.8842802798    1.5680101941   -0.2257593547
      7  H         2.3457161833    0.3607537643    0.6712420344
      8  H         1.4337818089   -1.8020178967   -0.2669970325
      9  H        -1.0673537455   -1.7211208037   -1.1914927302
     10  H        -2.1663125882    0.3268192920    0.1524767890
     11  H        -0.9219055951    2.4294111117   -0.7683651327
     12  C        -0.1874836271   -0.3436610373    1.1469414840
     13  H        -0.5202326538   -1.2520177455    1.6807568396
   Point Group: c1    Number of degrees of freedom:    33


   Energy is   -286.771999784


 Attempting to Generate Delocalized Internal Coordinates

 33 Hessian modes will be used to form the next step
  Hessian Eigenvalues:
     0.010604    0.013387    0.017113    0.018279    0.027189    0.028251
     0.034668    0.035553    0.043135    0.051722    0.056739    0.069511
     0.073280    0.085871    0.109576    0.119777    0.122994    0.131403
     0.159968    0.174537    0.224239    0.268627    0.273963    0.294307
     0.331466    0.334842    0.336578    0.350267    0.353330    0.354435
     0.369548    0.463752    0.615034

 Minimum Search - Taking Simple RFO Step
 Searching for Lamda that Minimizes Along All modes
 Value Taken    Lamda =  -0.01460694
 Calculated Step too Large.  Step scaled by  0.671768
 Step Taken.  Stepsize is  0.300000

                             Maximum     Tolerance    Cnvgd?
         Gradient           0.020802      0.000300      NO
         Displacement       0.140516      0.001200      NO
         Energy change     *********      0.000001      NO


 New Cartesian Coordinates Obtained by Inverse Iteration

 Displacement from previous Coordinates is:  0.351047
 ----------------------------------------------------------------
             Standard Nuclear Orientation (Angstroms)
    I     Atom           X                Y                Z
 ----------------------------------------------------------------
    1      C       1.3508310446     0.3425182941     0.2245868273
    2      C       0.7876249647    -0.9055224206    -0.2863464906
    3      C      -0.5186769396    -0.8373084709    -0.8234941720
    4      C      -1.0704899465     0.2435019489     0.0581095270
    5      C      -0.4073055694     1.5410387565    -0.3787639528
    6      N       0.8772628773     1.5512413055    -0.2313299856
    7      H       2.3195977034     0.3360888111     0.7147486835
    8      H       1.4119930239    -1.8020257150    -0.2875602812
    9      H      -1.0629061242    -1.6620716303    -1.2655426713
   10      H      -2.1545702572     0.3036054138     0.1976181895
   11      H      -0.9319215325     2.3800890487    -0.8267526571
   12      C      -0.1614801760    -0.3149532393     1.1758656739
   13      H      -0.4722956096    -1.2144851201     1.7165138671
 ----------------------------------------------------------------
 Nuclear Repulsion Energy =   279.2876971545 hartrees
 There are       25 alpha and       24 beta electrons

































 Eigenvalues after right structure
 -0.2476067 -0.0000000 -0.0000000 0.0000000 0.0000000 0.0000000 0.0000290 0.0148998 0.0240572 0.0406057 0.0511280 0.0573763 0.0628697 0.0670248 0.0704414 0.0882670 0.0994264 0.1148636 0.1257916 0.1394382 0.1461949 0.1728009 0.2392393 0.2672171 0.3009408 0.3395408 0.4071143 0.4480135 0.5492223 0.5820081 0.6887383 0.8961048 1.0086202 1.0635718 1.0759212 1.1706174 1.3474765 1.3971297 1.7422266
Archival summary:
1\1\c8-73\JobtypUnspecified\ProcedureUnspecified\6-31G*\166(2)\hpark21\ThuMar300:33:172022ThuMar300:33:172022\0\\#,JobtypUnspecified,ProcedureUnspecified,6-31G*,\\0,2\N\C,1,1.29304\H,2,1.08624,1,121.381\C,1,1.37591,2,111.887,3,-173.662,0\H,4,1.08573,1,117.51,2,-158.487,0\C,4,1.46146,1,120.114,2,39.8231,0\H,6,1.0925,4,118.745,1,153.028,0\C,6,1.41407,4,116.59,1,-23.24,0\H,8,1.08251,6,125.647,4,178.136,0\C,8,1.49996,6,98.7048,4,-32.3441,0\H,10,1.09467,8,118.607,6,-156.63,0\C,10,1.54517,8,87.0378,6,-33.0052,0\H,12,1.09456,10,119.162,8,-78.611,0\\\@

 Total job time:  1241.95s(wall), 3831.85s(cpu) 
 Thu Mar  3 00:33:17 2022

        *************************************************************
        *                                                           *
        *  Thank you very much for using Q-Chem.  Have a nice day.  *
        *                                                           *
        *************************************************************


