
Running Job 1 of 1 qcts1.in
qchem qcts1.in_46737.0 ./qcts1.d/ 1
/home/leeping/opt/qchem/5.0.2-openmp/exe/qcprog.exe_s qcts1.in_46737.0 ./qcts1.d/
Check license passed

                  Welcome to Q-Chem
     A Quantum Leap Into The Future Of Chemistry


 Q-Chem 5.0, Q-Chem, Inc., Pleasanton, CA (2017)

 Yihan Shao,  Zhengting Gan,  E. Epifanovsky,  A. T. B. Gilbert,  M. Wormit,  
 J. Kussmann,  A. W. Lange,  A. Behn,  Jia Deng,  Xintian Feng,  D. Ghosh,  
 M. Goldey,  P. R. Horn,  L. D. Jacobson,  I. Kaliman,  T. Kus,  A. Landau,  
 Jie Liu,  E. I. Proynov,  R. M. Richard,  R. P. Steele,  E. J. Sundstrom,  
 H. L. Woodcock III,  P. M. Zimmerman,  D. Zuev,  B. Albrecht,  E. Alguire,  
 S. A. Baeppler,  D. Barton,  Z. Benda,  Y. A. Bernard,  E. J. Berquist,  
 K. B. Bravaya,  H. Burton,  D. Casanova,  Chun-Min Chang,  Yunqing Chen,  
 A. Chien,  K. D. Closser,  M. P. Coons,  S. Dasgupta,  A. L. Dempwolff,  
 M. Diedenhofen,  Hainam Do,  R. G. Edgar,  Po-Tung Fang,  S. Fatehi,  
 Qingguo Feng,  J. Fosso-Tande,  Qinghui Ge,  A. Ghysels,  G. Gidofalvi,  
 J. Gomes,  J. Gonthier,  A. Gunina,  M. W. D. Hanson-Heine,  
 P. H. P. Harbach,  A. W. Hauser,  J. E. Herr,  E. G. Hohenstein,  
 Z. C. Holden,  Kerwin Hui,  T.-C. Jagau,  Hyunjun Ji,  B. Kaduk,  
 K. Khistyaev,  Jaehoon Kim,  P. Klunzinger,  K. Koh,  D. Kosenkov,  
 L. Koulias,  T. Kowalczyk,  C. M. Krauter,  A. Kunitsa,  Ka Un Lao,  
 A. Laurent,  K. V. Lawler,  Joonho Lee,  D. Lefrancois,  S. Lehtola,  
 D. S. Levine,  Yi-Pei Li,  You-Sheng Lin,  Fenglai Liu,  E. Livshits,  
 A. Luenser,  P. Manohar,  E. Mansoor,  S. F. Manzer,  Shan-Ping Mao,  
 Yuezhi Mao,  N. Mardirossian,  A. V. Marenich,  T. Markovich,  
 L. A. Martinez-Martinez,  S. A. Maurer,  N. J. Mayhall,  S. C. McKenzie,  
 J.-M. Mewes,  A. F. Morrison,  J. W. Mullinax,  K. Nanda,  
 T. S. Nguyen-Beck,  R. Olivares-Amaya,  J. A. Parkhill,  T. M. Perrine,  
 F. Plasser,  S. Prager,  A. Prociuk,  E. Ramos,  D. R. Rehn,  F. Rob,  
 M. Schneider,  N. Sergueev,  S. M. Sharada,  S. Sharma,  D. W. Small,  
 T. Stauch,  T. Stein,  Yu-Chuan Su,  A. J. W. Thom,  A. Tkatchenko,  
 T. Tsuchimochi,  L. Vogt,  O. Vydrov,  M. A. Watson,  J. Wenzel,  
 M. de Wergifosse,  T. A. Wesolowski,  A. White,  J. Witte,  A. Yamada,  
 Jun Yang,  K. Yao,  S. Yeganeh,  S. R. Yost,  Zhi-Qiang You,  A. Zech,  
 Igor Ying Zhang,  Xing Zhang,  Yan Zhao,  Ying Zhu,  B. R. Brooks,  
 G. K. L. Chan,  C. J. Cramer,  M. S. Gordon,  W. J. Hehre,  A. Klamt,  
 M. W. Schmidt,  C. D. Sherrill,  D. G. Truhlar,  A. Aspuru-Guzik,  R. Baer,  
 A. T. Bell,  N. A. Besley,  Jeng-Da Chai,  R. A. DiStasio Jr.,  A. Dreuw,  
 B. D. Dunietz,  T. R. Furlani,  Chao-Ping Hsu,  Yousung Jung,  Jing Kong,  
 D. S. Lambrecht,  WanZhen Liang,  C. Ochsenfeld,  V. A. Rassolov,  
 L. V. Slipchenko,  J. E. Subotnik,  T. Van Voorhis,  J. M. Herbert,  
 A. I. Krylov,  P. M. W. Gill,  M. Head-Gordon

 Contributors to earlier versions of Q-Chem not listed above: 
 R. D. Adamson,  B. Austin,  J. Baker,  G. J. O. Beran,  K. Brandhorst,  
 S. T. Brown,  E. F. C. Byrd,  A. K. Chakraborty,  C.-L. Cheng,  
 Siu Hung Chien,  D. M. Chipman,  D. L. Crittenden,  H. Dachsel,  
 R. J. Doerksen,  A. D. Dutoi,  L. Fusti-Molnar,  W. A. Goddard III,  
 A. Golubeva-Zadorozhnaya,  S. R. Gwaltney,  G. Hawkins,  A. Heyden,  
 S. Hirata,  G. Kedziora,  F. J. Keil,  C. Kelley,  Jihan Kim,  R. A. King,  
 R. Z. Khaliullin,  P. P. Korambath,  W. Kurlancheek,  A. M. Lee,  M. S. Lee,  
 S. V. Levchenko,  Ching Yeh Lin,  D. Liotard,  R. C. Lochan,  I. Lotan,  
 P. E. Maslen,  N. Nair,  D. P. O'Neill,  D. Neuhauser,  E. Neuscamman,  
 C. M. Oana,  R. Olson,  B. Peters,  R. Peverati,  P. A. Pieniazek,  
 Y. M. Rhee,  J. Ritchie,  M. A. Rohrdanz,  E. Rosta,  N. J. Russ,  
 H. F. Schaefer III,  N. E. Schultz,  N. Shenvi,  A. C. Simmonett,  A. Sodt,  
 D. Stuck,  K. S. Thanthiriwatte,  V. Vanovschi,  Tao Wang,  A. Warshel,  
 C. F. Williams,  Q. Wu,  X. Xu,  W. Zhang

 Please cite Q-Chem as follows:
 Y. Shao et al., Mol. Phys. 113, 184-215 (2015)
 DOI: 10.1080/00268976.2014.952696

 Q-Chem 5.0.2 for Intel X86 EM64T Linux

 Parts of Q-Chem use Armadillo 5.200.1 (Boston Tea Smuggler).
 http://arma.sourceforge.net/

 Q-Chem begins on Thu Mar  3 00:33:21 2022  

Host: 
0

     Scratch files written to ./qcts1.d//
 Dec517 15110_ 26548  26544 5633   
Processing $rem in /home/leeping/opt/qchem/5.0.2-openmp/config/preferences.
 MEM_STATIC 2000
 MEM_TOTAL  8000
 SYMMETRY   OFF
 SYM_IGNORE TRUE 

Checking the input file for inconsistencies... 	...done.

--------------------------------------------------------------
User input:
--------------------------------------------------------------
$molecule
0 2
C        1.3508310446    0.3425182941    0.2245868273
C        0.7876249647   -0.9055224206   -0.2863464906
C       -0.5186769396   -0.8373084709   -0.8234941720
C       -1.0704899465    0.2435019489    0.0581095270
C       -0.4073055694    1.5410387565   -0.3787639528
N        0.8772628773    1.5512413055   -0.2313299856
H        2.3195977034    0.3360888111    0.7147486835
H        1.4119930239   -1.8020257150   -0.2875602812
H       -1.0629061242   -1.6620716303   -1.2655426713
H       -2.1545702572    0.3036054138    0.1976181895
H       -0.9319215325    2.3800890487   -0.8267526571
C       -0.1614801760   -0.3149532393    1.1758656739
H       -0.4722956096   -1.2144851201    1.7165138671
$end

$rem
method                b3lyp
basis                 6-31g(d)
unrestricted          true
symmetry              off
sym_ignore            true
incdft                false
incfock               0
scf_convergence       8
thresh                14
jobtype               sp
scf_guess             core
scf_guess_mix         5
scf_algorithm         diis
max_scf_cycles        100
$end

--------------------------------------------------------------
 ----------------------------------------------------------------
             Standard Nuclear Orientation (Angstroms)
    I     Atom           X                Y                Z
 ----------------------------------------------------------------
    1      C       1.3508310446     0.3425182941     0.2245868273
    2      C       0.7876249647    -0.9055224206    -0.2863464906
    3      C      -0.5186769396    -0.8373084709    -0.8234941720
    4      C      -1.0704899465     0.2435019489     0.0581095270
    5      C      -0.4073055694     1.5410387565    -0.3787639528
    6      N       0.8772628773     1.5512413055    -0.2313299856
    7      H       2.3195977034     0.3360888111     0.7147486835
    8      H       1.4119930239    -1.8020257150    -0.2875602812
    9      H      -1.0629061242    -1.6620716303    -1.2655426713
   10      H      -2.1545702572     0.3036054138     0.1976181895
   11      H      -0.9319215325     2.3800890487    -0.8267526571
   12      C      -0.1614801760    -0.3149532393     1.1758656739
   13      H      -0.4722956096    -1.2144851201     1.7165138671
 ----------------------------------------------------------------
 Nuclear Repulsion Energy =   279.2876971551 hartrees
 There are       25 alpha and       24 beta electrons
 Requested basis set is 6-31G(d)
 There are 40 shells and 117 basis functions

 Total QAlloc Memory Limit   8000 MB
 Mega-Array Size      1956 MB
 MEM_STATIC part      2000 MB

                       Distance Matrix (Angstroms)
             C (  1)   C (  2)   C (  3)   C (  4)   C (  5)   N (  6)
   C (  2)  1.461458
   C (  3)  2.446533  1.414074
   C (  4)  2.429056  2.211673  1.499958
   C (  5)  2.211680  2.724346  2.422132  1.521274
   N (  6)  1.375914  2.459014  2.829218  2.363831  1.293042
   H (  7)  1.085730  2.211500  3.434946  3.454337  3.175480  2.109974
   H (  8)  2.205698  1.092499  2.223824  3.235180  3.807131  3.396100
   H (  9)  3.473470  2.226131  1.082509  2.320199  3.387640  3.893486
   H ( 10)  3.505721  3.217565  2.240648  1.094671  2.217294  3.306449
   H ( 11)  3.235424  3.747549  3.243829  2.316719  1.086242  2.077177
   C ( 12)  1.903756  1.840553  2.097113  1.545170  2.433518  2.557708
   H ( 13)  2.823809  2.386275  2.568278  2.287765  3.462272  3.642066
             H (  7)   H (  8)   H (  9)   H ( 10)   H ( 11)   C ( 12)
   H (  8)  2.529803
   H (  9)  4.399492  2.664801
   H ( 10)  4.504071  4.170066  2.682621
   H ( 11)  4.138422  4.824391  4.068016  2.618395
   C ( 12)  2.606191  2.613201  2.930490  2.304776  3.444897
   H ( 13)  3.347011  2.812839  3.072754  2.727946  4.427237  1.094561

 
 A cutoff of  1.0D-14 yielded    811 shell pairs
 There are      7083 function pairs
 
 -------------------------------------------------------
 OpenMP Integral Computing Module                       
 Release: version 1.0, May 2013, Q-Chem Inc. Pittsburgh 
 -------------------------------------------------------
 Integral Job Info:
 Integral job number is                      11
 Integral operator is                         1
 short-range coefficients                     0
 long-range coefficients              100000000
 Omega coefficients                           0
 if combine SR and LR in K                    0
 Integral screening is                        0
 Integral computing path is                   2
 max size of driver memory is            800000
 size of driver memory is                593474
 size of scratch memory is              2361544
 max col of scratch BK array               1296
 max len of scratch array in speh3          155
 max len of scratch index in speh4           18
 max int batch size is                      520
 min int batch size is                       52
 fixed nKL is                                52
 max L of basis functions is                  2
 order of int derivative is                   0
 number of shells is                         40
 number of basis is                         117
 number of cartesian basis is               117
 number of contracted shell pairs           811
 number of primitive shell pairs           3594
 maxK2 (contraction) of shell pair           36
 max number of K2 of shell pair               1
 max number of CS2 of shell pair             84
 max number of PS2 of shell pair            372
 mem total for path MDJ                  535308
 -------------------------------------------------------
 Smallest overlap matrix eigenvalue = 1.62E-03

 Scale SEOQF with 1.000000e-01/1.000000e-01/1.000000e-01

 Standard Electronic Orientation quadrupole field applied
 Nucleus-field energy     =     0.0000000033 hartrees
 Guess MOs from core Hamiltonian diagonalization
 Mixing HOMO and LUMO in initial guess
 Adding  50% of the LUMO to the HOMO
 An unrestricted hybrid HF-DFT SCF calculation will be
 performed using Pulay DIIS extrapolation
 Exchange:     0.2000 Hartree-Fock + 0.0800 Slater + 0.7200 B88
 Correlation:  0.1900 VWN1RPA + 0.8100 LYP
 Using SG-1 standard quadrature grid
 SCF converges when DIIS error is below 1.0E-08
 using 4 threads for integral computing
 -------------------------------------------------------
 OpenMP Integral computing Module                
 Release: version 1.0, May 2013, Q-Chem Inc. Pittsburgh 
 -------------------------------------------------------
 -------------------------------------------------------
 OpenMP BLAS3 based DFT computing Module                
 Release: version 1.0, May 2013, Q-Chem Inc. Pittsburgh 
 -------------------------------------------------------
 ---------------------------------------
  Cycle       Energy         DIIS Error
 ---------------------------------------
    1    -236.4013488250      1.35E-01
    2    -232.8384840664      9.94E-02
    3    -254.1488597607      1.13E-01
    4    -283.7928071891      3.87E-02
    5    -283.3105002236      4.00E-02
    6    -286.3934148326      1.31E-02
    7    -286.6284599814      7.99E-03
    8    -286.7356152928      4.43E-03
    9    -286.7745028620      1.59E-03
   10    -286.7791109239      6.57E-04
   11    -286.7808796698      3.92E-04
   12    -286.7818626253      1.52E-04
   13    -286.7820684290      7.95E-05
   14    -286.7821881934      2.49E-05
   15    -286.7822083207      2.02E-05
   16    -286.7822205710      5.99E-06
   17    -286.7822223132      4.20E-06
   18    -286.7822225207      1.34E-06
   19    -286.7822225768      3.56E-07
   20    -286.7822225990      1.49E-07
   21    -286.7822226034      7.52E-08
   22    -286.7822226045      3.05E-08
   23    -286.7822226047      1.01E-08
   24    -286.7822226047      2.77E-09 Convergence criterion met
 ---------------------------------------
 <S^2> = 0.7730
 SCF time:  CPU 59.07 s  wall 17.08 s
 SCF   energy in the final basis set = -286.78222260
 Total energy in the final basis set = -286.78222260
 
 --------------------------------------------------------------
 
                    Orbital Energies (a.u.)
 --------------------------------------------------------------
 
 Alpha MOs
 -- Occupied --
-14.328 -10.251 -10.229 -10.221 -10.219 -10.208 -10.189  -0.964
 -0.847  -0.752  -0.656  -0.615  -0.599  -0.537  -0.496  -0.450
 -0.444  -0.429  -0.404  -0.369  -0.350  -0.286  -0.269  -0.263
 -0.132
 -- Virtual --
 -0.030   0.039   0.054   0.093   0.141   0.149   0.155   0.168
  0.173   0.187   0.231   0.256   0.281   0.332   0.350   0.394
  0.482   0.509   0.528   0.544   0.557   0.567   0.590   0.596
  0.625   0.652   0.667   0.684   0.688   0.714   0.759   0.803
  0.817   0.828   0.846   0.858   0.864   0.885   0.909   0.945
  0.982   1.029   1.081   1.108   1.145   1.212   1.246   1.340
  1.366   1.406   1.460   1.530   1.541   1.588   1.650   1.661
  1.760   1.791   1.851   1.894   1.915   1.942   1.999   2.049
  2.090   2.153   2.170   2.216   2.239   2.292   2.320   2.355
  2.390   2.437   2.472   2.537   2.546   2.583   2.617   2.652
  2.681   2.781   2.820   2.941   3.060   3.984   4.196   4.225
  4.286   4.418   4.450   4.580
 
 Beta MOs
 -- Occupied --
-14.327 -10.251 -10.229 -10.223 -10.210 -10.208 -10.181  -0.962
 -0.838  -0.751  -0.645  -0.608  -0.590  -0.533  -0.495  -0.447
 -0.439  -0.422  -0.401  -0.363  -0.345  -0.278  -0.268  -0.229
 -- Virtual --
 -0.033  -0.005   0.050   0.060   0.095   0.142   0.150   0.159
  0.173   0.176   0.193   0.235   0.259   0.283   0.335   0.357
  0.396   0.496   0.511   0.538   0.546   0.565   0.578   0.599
  0.605   0.628   0.663   0.670   0.692   0.696   0.720   0.764
  0.804   0.817   0.833   0.849   0.860   0.868   0.890   0.910
  0.948   0.984   1.033   1.092   1.111   1.152   1.224   1.251
  1.345   1.371   1.408   1.464   1.536   1.549   1.593   1.655
  1.670   1.767   1.812   1.853   1.905   1.921   1.953   2.005
  2.052   2.097   2.162   2.181   2.220   2.255   2.305   2.326
  2.367   2.397   2.444   2.485   2.543   2.550   2.590   2.620
  2.660   2.686   2.784   2.827   2.942   3.061   3.985   4.197
  4.240   4.301   4.425   4.451   4.582
 --------------------------------------------------------------
 
          Ground-State Mulliken Net Atomic Charges

     Atom                 Charge (a.u.)    Spin (a.u.)
  --------------------------------------------------------
      1 C                     0.030317      -0.024604
      2 C                    -0.160770      -0.115289
      3 C                    -0.103122       0.583284
      4 C                    -0.269614      -0.032502
      5 C                     0.105034       0.027942
      6 N                    -0.340771       0.016128
      7 H                     0.163586       0.000792
      8 H                     0.151520       0.005422
      9 H                     0.139128      -0.028617
     10 H                     0.141024       0.003669
     11 H                     0.151417      -0.000149
     12 C                    -0.165296       0.581975
     13 H                     0.157547      -0.018052
  --------------------------------------------------------
  Sum of atomic charges =    -0.000000
  Sum of spin   charges =     1.000000

 -----------------------------------------------------------------
                    Cartesian Multipole Moments
 -----------------------------------------------------------------
    Charge (ESU x 10^10)
                -0.0000
    Dipole Moment (Debye)
         X      -0.9060      Y      -1.9900      Z       0.0772
       Tot       2.1879
    Quadrupole Moments (Debye-Ang)
        XX     -37.1495     XY      -3.9492     YY     -40.8261
        XZ       1.3148     YZ      -0.8215     ZZ     -43.8378
    Octopole Moments (Debye-Ang^2)
       XXX      -9.4834    XXY     -10.4485    XYY     -11.9225
       YYY     -29.3886    XXZ       3.6417    XYZ       2.3854
       YYZ      -0.5694    XZZ      -5.6246    YZZ      -9.9397
       ZZZ       2.0857
    Hexadecapole Moments (Debye-Ang^3)
      XXXX    -227.5336   XXXY     -12.4217   XXYY     -93.5123
      XYYY     -28.7059   YYYY    -302.5695   XXXZ      -0.9944
      XXYZ       4.9661   XYYZ       3.0113   YYYZ       5.1362
      XXZZ     -64.9309   XYZZ      -1.5015   YYZZ     -71.0727
      XZZZ      -9.3049   YZZZ       2.4607   ZZZZ    -158.6143
 -----------------------------------------------------------------
Archival summary:
1\1\c8-73\SP\ProcedureUnspecified\6-31G*\166(2)\hpark21\ThuMar300:33:402022ThuMar300:33:402022\0\\#,ProcedureUnspecified,6-31G*,\\0,2\N\C,1,1.29304\H,2,1.08624,1,121.381\C,1,1.37591,2,111.887,3,-173.662,0\H,4,1.08573,1,117.51,2,-158.487,0\C,4,1.46146,1,120.114,2,39.8231,0\H,6,1.0925,4,118.745,1,153.028,0\C,6,1.41407,4,116.59,1,-23.24,0\H,8,1.08251,6,125.647,4,178.136,0\C,8,1.49996,6,98.7048,4,-32.3441,0\H,10,1.09467,8,118.607,6,-156.63,0\C,10,1.54517,8,87.0378,6,-33.0052,0\H,12,1.09456,10,119.162,8,-78.611,0\\\@

 Total job time:  19.13s(wall), 60.77s(cpu) 
 Thu Mar  3 00:33:40 2022

        *************************************************************
        *                                                           *
        *  Thank you very much for using Q-Chem.  Have a nice day.  *
        *                                                           *
        *************************************************************


