
Running Job 1 of 1 qcts2.in
qchem qcts2.in_52241.0 ./qcts2.d/ 1
/home/leeping/opt/qchem/5.0.2-openmp/exe/qcprog.exe_s qcts2.in_52241.0 ./qcts2.d/
Check license passed

                  Welcome to Q-Chem
     A Quantum Leap Into The Future Of Chemistry


 Q-Chem 5.0, Q-Chem, Inc., Pleasanton, CA (2017)

 Yihan Shao,  Zhengting Gan,  E. Epifanovsky,  A. T. B. Gilbert,  M. Wormit,  
 J. Kussmann,  A. W. Lange,  A. Behn,  Jia Deng,  Xintian Feng,  D. Ghosh,  
 M. Goldey,  P. R. Horn,  L. D. Jacobson,  I. Kaliman,  T. Kus,  A. Landau,  
 Jie Liu,  E. I. Proynov,  R. M. Richard,  R. P. Steele,  E. J. Sundstrom,  
 H. L. Woodcock III,  P. M. Zimmerman,  D. Zuev,  B. Albrecht,  E. Alguire,  
 S. A. Baeppler,  D. Barton,  Z. Benda,  Y. A. Bernard,  E. J. Berquist,  
 K. B. Bravaya,  H. Burton,  D. Casanova,  Chun-Min Chang,  Yunqing Chen,  
 A. Chien,  K. D. Closser,  M. P. Coons,  S. Dasgupta,  A. L. Dempwolff,  
 M. Diedenhofen,  Hainam Do,  R. G. Edgar,  Po-Tung Fang,  S. Fatehi,  
 Qingguo Feng,  J. Fosso-Tande,  Qinghui Ge,  A. Ghysels,  G. Gidofalvi,  
 J. Gomes,  J. Gonthier,  A. Gunina,  M. W. D. Hanson-Heine,  
 P. H. P. Harbach,  A. W. Hauser,  J. E. Herr,  E. G. Hohenstein,  
 Z. C. Holden,  Kerwin Hui,  T.-C. Jagau,  Hyunjun Ji,  B. Kaduk,  
 K. Khistyaev,  Jaehoon Kim,  P. Klunzinger,  K. Koh,  D. Kosenkov,  
 L. Koulias,  T. Kowalczyk,  C. M. Krauter,  A. Kunitsa,  Ka Un Lao,  
 A. Laurent,  K. V. Lawler,  Joonho Lee,  D. Lefrancois,  S. Lehtola,  
 D. S. Levine,  Yi-Pei Li,  You-Sheng Lin,  Fenglai Liu,  E. Livshits,  
 A. Luenser,  P. Manohar,  E. Mansoor,  S. F. Manzer,  Shan-Ping Mao,  
 Yuezhi Mao,  N. Mardirossian,  A. V. Marenich,  T. Markovich,  
 L. A. Martinez-Martinez,  S. A. Maurer,  N. J. Mayhall,  S. C. McKenzie,  
 J.-M. Mewes,  A. F. Morrison,  J. W. Mullinax,  K. Nanda,  
 T. S. Nguyen-Beck,  R. Olivares-Amaya,  J. A. Parkhill,  T. M. Perrine,  
 F. Plasser,  S. Prager,  A. Prociuk,  E. Ramos,  D. R. Rehn,  F. Rob,  
 M. Schneider,  N. Sergueev,  S. M. Sharada,  S. Sharma,  D. W. Small,  
 T. Stauch,  T. Stein,  Yu-Chuan Su,  A. J. W. Thom,  A. Tkatchenko,  
 T. Tsuchimochi,  L. Vogt,  O. Vydrov,  M. A. Watson,  J. Wenzel,  
 M. de Wergifosse,  T. A. Wesolowski,  A. White,  J. Witte,  A. Yamada,  
 Jun Yang,  K. Yao,  S. Yeganeh,  S. R. Yost,  Zhi-Qiang You,  A. Zech,  
 Igor Ying Zhang,  Xing Zhang,  Yan Zhao,  Ying Zhu,  B. R. Brooks,  
 G. K. L. Chan,  C. J. Cramer,  M. S. Gordon,  W. J. Hehre,  A. Klamt,  
 M. W. Schmidt,  C. D. Sherrill,  D. G. Truhlar,  A. Aspuru-Guzik,  R. Baer,  
 A. T. Bell,  N. A. Besley,  Jeng-Da Chai,  R. A. DiStasio Jr.,  A. Dreuw,  
 B. D. Dunietz,  T. R. Furlani,  Chao-Ping Hsu,  Yousung Jung,  Jing Kong,  
 D. S. Lambrecht,  WanZhen Liang,  C. Ochsenfeld,  V. A. Rassolov,  
 L. V. Slipchenko,  J. E. Subotnik,  T. Van Voorhis,  J. M. Herbert,  
 A. I. Krylov,  P. M. W. Gill,  M. Head-Gordon

 Contributors to earlier versions of Q-Chem not listed above: 
 R. D. Adamson,  B. Austin,  J. Baker,  G. J. O. Beran,  K. Brandhorst,  
 S. T. Brown,  E. F. C. Byrd,  A. K. Chakraborty,  C.-L. Cheng,  
 Siu Hung Chien,  D. M. Chipman,  D. L. Crittenden,  H. Dachsel,  
 R. J. Doerksen,  A. D. Dutoi,  L. Fusti-Molnar,  W. A. Goddard III,  
 A. Golubeva-Zadorozhnaya,  S. R. Gwaltney,  G. Hawkins,  A. Heyden,  
 S. Hirata,  G. Kedziora,  F. J. Keil,  C. Kelley,  Jihan Kim,  R. A. King,  
 R. Z. Khaliullin,  P. P. Korambath,  W. Kurlancheek,  A. M. Lee,  M. S. Lee,  
 S. V. Levchenko,  Ching Yeh Lin,  D. Liotard,  R. C. Lochan,  I. Lotan,  
 P. E. Maslen,  N. Nair,  D. P. O'Neill,  D. Neuhauser,  E. Neuscamman,  
 C. M. Oana,  R. Olson,  B. Peters,  R. Peverati,  P. A. Pieniazek,  
 Y. M. Rhee,  J. Ritchie,  M. A. Rohrdanz,  E. Rosta,  N. J. Russ,  
 H. F. Schaefer III,  N. E. Schultz,  N. Shenvi,  A. C. Simmonett,  A. Sodt,  
 D. Stuck,  K. S. Thanthiriwatte,  V. Vanovschi,  Tao Wang,  A. Warshel,  
 C. F. Williams,  Q. Wu,  X. Xu,  W. Zhang

 Please cite Q-Chem as follows:
 Y. Shao et al., Mol. Phys. 113, 184-215 (2015)
 DOI: 10.1080/00268976.2014.952696

 Q-Chem 5.0.2 for Intel X86 EM64T Linux

 Parts of Q-Chem use Armadillo 5.200.1 (Boston Tea Smuggler).
 http://arma.sourceforge.net/

 Q-Chem begins on Thu Mar  3 01:32:36 2022  

Host: 
0

     Scratch files written to ./qcts2.d//
 Dec517 15110_ 26548  26544 5633   
Processing $rem in /home/leeping/opt/qchem/5.0.2-openmp/config/preferences.
 MEM_STATIC 2000
 MEM_TOTAL  8000
 SYMMETRY   OFF
 SYM_IGNORE TRUE 

Checking the input file for inconsistencies... 	...done.

--------------------------------------------------------------
User input:
--------------------------------------------------------------
$molecule
0 2
C        1.1722997819    0.2314619880    0.4234871801
C        0.7496865017   -1.0097548267   -0.3627750747
C       -0.5492935903   -0.8794313818   -0.8805066217
C       -1.0742266605    0.1906129619    0.0749795455
C       -0.4215763670    1.4937321563   -0.3917190604
N        0.8529832489    1.5070086776   -0.2304666120
H        2.1498651423    0.1827954822    0.8943296881
H        1.4430258308   -1.8313755913   -0.5196176095
H       -1.0605115782   -1.4506138143   -1.6427081574
H       -2.1406528892    0.2036497210    0.2976581923
H       -0.9436859199    2.2897456886   -0.9183415331
C       -0.0409892156   -0.2400118324    1.1431525371
H       -0.1692608261   -0.7261022465    2.1001800833
$end

$rem
method                b3lyp
basis                 6-31+g(d,p)
unrestricted          true
symmetry              off
sym_ignore            true
incdft                false
incfock               0
scf_convergence       8
thresh                14
jobtype               freq
scf_guess             read
scf_algorithm         diis
max_scf_cycles        100
$end

--------------------------------------------------------------
 ----------------------------------------------------------------
             Standard Nuclear Orientation (Angstroms)
    I     Atom           X                Y                Z
 ----------------------------------------------------------------
    1      C       1.1722997819     0.2314619880     0.4234871801
    2      C       0.7496865017    -1.0097548267    -0.3627750747
    3      C      -0.5492935903    -0.8794313818    -0.8805066217
    4      C      -1.0742266605     0.1906129619     0.0749795455
    5      C      -0.4215763670     1.4937321563    -0.3917190604
    6      N       0.8529832489     1.5070086776    -0.2304666120
    7      H       2.1498651423     0.1827954822     0.8943296881
    8      H       1.4430258308    -1.8313755913    -0.5196176095
    9      H      -1.0605115782    -1.4506138143    -1.6427081574
   10      H      -2.1406528892     0.2036497210     0.2976581923
   11      H      -0.9436859199     2.2897456886    -0.9183415331
   12      C      -0.0409892156    -0.2400118324     1.1431525371
   13      H      -0.1692608261    -0.7261022465     2.1001800833
 ----------------------------------------------------------------
 Nuclear Repulsion Energy =   281.0259519694 hartrees
 There are       25 alpha and       24 beta electrons
 Requested basis set is 6-31+G(d,p)
 There are 53 shells and 163 basis functions

 Total QAlloc Memory Limit   8000 MB
 Mega-Array Size      1956 MB
 MEM_STATIC part      2000 MB

                       Distance Matrix (Angstroms)
             C (  1)   C (  2)   C (  3)   C (  4)   C (  5)   N (  6)
   C (  2)  1.528865
   C (  3)  2.428656  1.404414
   C (  4)  2.273765  2.226920  1.527581
   C (  5)  2.190509  2.764081  2.426341  1.530320
   N (  6)  1.468550  2.522355  2.843243  2.353791  1.284788
   H (  7)  1.086138  2.227777  3.400563  3.326584  3.159871  2.168089
   H (  8)  2.284303  1.086453  2.237359  3.283069  3.814373  3.402436
   H (  9)  3.476203  2.260399  1.080992  2.375766  3.262267  3.795184
   H ( 10)  3.315458  3.203527  2.256892  1.089505  2.257161  3.307494
   H ( 11)  3.242596  3.750049  3.193847  2.325959  1.087919  2.076986
   C ( 12)  1.487372  1.866947  2.182299  1.547259  2.346603  2.395433
   H ( 13)  2.351173  2.644063  3.008725  2.400160  3.346773  3.385806
             H (  7)   H (  8)   H (  9)   H ( 10)   H ( 11)   C ( 12)
   H (  8)  2.560421
   H (  9)  4.405804  2.770201
   H ( 10)  4.331858  4.201431  2.769172
   H ( 11)  4.158735  4.779018  3.811646  2.695029
   C ( 12)  2.245111  2.738530  3.204060  2.306574  3.385896
   H ( 13)  2.767402  3.268706  3.915157  2.828411  4.336651  1.081036

 
 A cutoff of  1.0D-14 yielded   1405 shell pairs
 There are     13515 function pairs
 Smallest overlap matrix eigenvalue = 2.76E-05
 Guess MOs from SCF MO coefficient file
 Reading MOs from coefficient file
 Reading MOs from coefficient file
 An unrestricted hybrid HF-DFT SCF calculation will be
 performed using Pulay DIIS extrapolation
 Exchange:     0.2000 Hartree-Fock + 0.0800 Slater + 0.7200 B88
 Correlation:  0.1900 VWN1RPA + 0.8100 LYP
 Using SG-1 standard quadrature grid
 SCF converges when DIIS error is below 1.0E-08
Using Q-Chem read-in guess as SCF_GUESS READ specified.

 -------------------------------------------------------
 OpenMP BLAS3 based DFT computing Module                
 -------------------------------------------------------
 ---------------------------------------
  Cycle       Energy         DIIS Error
 ---------------------------------------
    1    -286.8475377374      3.04E-10
    2    -286.8475377374      5.28E-10 Convergence criterion met
 ---------------------------------------
 <S^2> = 0.7773
 SCF time:  CPU 6.94 s  wall 8.41 s
 SCF   energy in the final basis set = -286.84753774
 Total energy in the final basis set = -286.84753774
 
 --------------------------------------------------------------
 
                    Orbital Energies (a.u.)
 --------------------------------------------------------------
 
 Alpha MOs
 -- Occupied --
-14.330 -10.235 -10.230 -10.229 -10.226 -10.221 -10.206  -0.972
 -0.849  -0.751  -0.696  -0.602  -0.585  -0.548  -0.522  -0.472
 -0.444  -0.424  -0.409  -0.378  -0.356  -0.296  -0.284  -0.277
 -0.157
 -- Virtual --
 -0.017  -0.010   0.001   0.018   0.029   0.033   0.046   0.048
  0.062   0.071   0.074   0.095   0.100   0.107   0.109   0.118
  0.124   0.129   0.141   0.153   0.165   0.178   0.180   0.185
  0.192   0.197   0.207   0.218   0.225   0.234   0.240   0.251
  0.259   0.268   0.281   0.287   0.309   0.313   0.331   0.368
  0.372   0.382   0.407   0.455   0.629   0.668   0.675   0.695
  0.699   0.714   0.725   0.734   0.744   0.753   0.778   0.793
  0.806   0.814   0.858   0.901   0.917   0.936   0.955   1.002
  1.015   1.033   1.047   1.070   1.082   1.094   1.104   1.139
  1.202   1.217   1.326   1.341   1.384   1.419   1.437   1.487
  1.558   1.621   1.626   1.691   1.724   1.767   1.817   1.865
  1.879   1.908   1.952   1.980   2.043   2.093   2.105   2.126
  2.156   2.212   2.220   2.277   2.304   2.327   2.363   2.397
  2.404   2.437   2.447   2.485   2.504   2.520   2.534   2.553
  2.569   2.606   2.618   2.655   2.686   2.703   2.745   2.778
  2.852   2.857   2.981   3.071   3.083   3.291   3.316   3.326
  3.508   3.599   3.687   4.171   4.413   4.487   4.569   4.620
  4.694   4.831
 
 Beta MOs
 -- Occupied --
-14.329 -10.235 -10.231 -10.230 -10.222 -10.217 -10.197  -0.968
 -0.842  -0.747  -0.684  -0.598  -0.577  -0.541  -0.519  -0.463
 -0.441  -0.419  -0.406  -0.373  -0.351  -0.287  -0.275  -0.265
 -- Virtual --
 -0.054  -0.008  -0.002   0.003   0.019   0.031   0.038   0.047
  0.049   0.063   0.072   0.077   0.096   0.101   0.108   0.109
  0.119   0.128   0.132   0.142   0.153   0.164   0.179   0.181
  0.188   0.195   0.197   0.208   0.223   0.228   0.237   0.242
  0.254   0.260   0.273   0.282   0.288   0.312   0.315   0.333
  0.372   0.376   0.385   0.411   0.457   0.634   0.674   0.678
  0.700   0.711   0.727   0.734   0.744   0.749   0.759   0.784
  0.796   0.808   0.817   0.859   0.905   0.919   0.939   0.958
  1.005   1.019   1.036   1.049   1.071   1.087   1.101   1.109
  1.148   1.207   1.221   1.331   1.346   1.387   1.425   1.442
  1.491   1.566   1.626   1.635   1.698   1.732   1.770   1.828
  1.870   1.885   1.913   1.956   1.984   2.048   2.102   2.109
  2.130   2.165   2.220   2.229   2.283   2.310   2.330   2.367
  2.403   2.406   2.443   2.454   2.489   2.508   2.526   2.542
  2.556   2.573   2.614   2.620   2.664   2.693   2.706   2.748
  2.782   2.856   2.861   2.983   3.074   3.085   3.293   3.318
  3.327   3.509   3.602   3.691   4.173   4.423   4.486   4.581
  4.626   4.696   4.835
 --------------------------------------------------------------
 
          Ground-State Mulliken Net Atomic Charges

     Atom                 Charge (a.u.)    Spin (a.u.)
  --------------------------------------------------------
      1 C                    -0.133255      -0.020813
      2 C                    -0.104233      -0.233534
      3 C                    -0.139879       0.728411
      4 C                     0.001918      -0.101873
      5 C                    -0.069985      -0.002151
      6 N                    -0.179931       0.062224
      7 H                     0.138943       0.004338
      8 H                     0.139217       0.010319
      9 H                     0.138990      -0.028730
     10 H                     0.129079       0.010623
     11 H                     0.132681       0.001552
     12 C                    -0.199486       0.594042
     13 H                     0.145943      -0.024409
  --------------------------------------------------------
  Sum of atomic charges =     0.000000
  Sum of spin   charges =     1.000000

 -----------------------------------------------------------------
                    Cartesian Multipole Moments
 -----------------------------------------------------------------
    Charge (ESU x 10^10)
                 0.0000
    Dipole Moment (Debye)
         X      -1.3852      Y      -2.0677      Z       0.7526
       Tot       2.6001
    Quadrupole Moments (Debye-Ang)
        XX     -39.3848     XY      -5.3177     YY     -44.6063
        XZ       2.1581     YZ       0.2140     ZZ     -41.3547
    Octopole Moments (Debye-Ang^2)
       XXX     -10.8751    XXY     -11.1334    XYY     -10.9131
       YYY     -25.1160    XXZ       3.6200    XYZ       2.5318
       YYZ      -2.3946    XZZ      -5.3992    YZZ     -10.3536
       ZZZ       8.1612
    Hexadecapole Moments (Debye-Ang^3)
      XXXX    -225.6081   XXXY     -12.1174   XXYY     -96.1845
      XYYY     -29.0521   YYYY    -322.3763   XXXZ      -8.3397
      XXYZ       3.8710   XYYZ       1.2416   YYYZ       0.0161
      XXZZ     -67.6060   XYZZ      -0.2505   YYZZ     -77.0860
      XZZZ     -11.8287   YZZZ      -4.0984   ZZZZ    -174.7922
 -----------------------------------------------------------------
 Calculating MO derivatives via CPSCF
   1         3          39      0.295322    0.058833
   2         3          39      0.037739    0.007011
   3         3          39      0.004756    0.000907
   4         3          39      0.000733    0.000155
   5        26          16      0.000061    0.000013
   6        40           2      0.000003    0.000001
   7        42           0      0.000000    0.000000    Roots Converged
 Time for AOints: 19.5 s (CPU) 19.8 s (wall)
 ------------------------------------------------------------------------------
                     AOints        : Timing summary (seconds)
 ------------------------------------------------------------------------------
     job step          cpu (% of tot)      sys (% of tot)     wall (% of tot)
 ------------------------------------------------------------------------------
  cpscf_lag         0.1177E+03 (28.0)   0.3600E-04 (30.8)   0.1183E+03 (27.9)
  iterzp            0.2822E+03 (67.2)   0.7600E-04 (65.0)   0.2860E+03 (67.4)
  make_fx           0.0000E+00 ( 0.0)   0.0000E+00 ( 0.0)   0.0000E+00 ( 0.0)
  AOints            0.1950E+02 ( 4.6)   0.1000E-05 ( 0.9)   0.1978E+02 ( 4.7)
 ------------------------------------------------------------------------------
   Grand Totals     0.4198E+03          0.1170E-03          0.4245E+03
 ------------------------------------------------------------------------------
 Calculating analytic Hessian of the SCF energy
 Polarizability Matrix (a.u.)
            1           2           3
    1 -71.2204759   1.8762991  -4.3927277
    2   1.8762991 -74.4713417  -2.5571247
    3  -4.3927277  -2.5571247 -71.4568052
 
 Direct stationary perturbation theory relativistic correction:
 
 rels  =       0.069332874751
 relv  =      -0.341428751381
 rel2e =       0.159087343327
 E_rel =      -0.113008533303
 
 Hessian of the SCF Energy
            1           2           3           4           5           6
    1   0.7071528   0.0044221   0.1480127  -0.0735541  -0.0194467  -0.0481644
    2   0.0044221   0.3506583  -0.0454294   0.0147156  -0.1259007  -0.0965686
    3   0.1480127  -0.0454294   0.3666892  -0.0168622  -0.0388000  -0.0603112
    4  -0.0735541   0.0147156  -0.0168622   0.5889522  -0.2165855   0.0862672
    5  -0.0194467  -0.1259007  -0.0388000  -0.2165855   0.4861400   0.0982972
    6  -0.0481644  -0.0965686  -0.0603112   0.0862672   0.0982972   0.1172748
    7  -0.0101286  -0.0023347  -0.0234437  -0.2906988   0.0502753  -0.0298459
    8  -0.0222186  -0.0037636  -0.0072564   0.0271729  -0.0841684  -0.0326039
    9  -0.0143444   0.0012537  -0.0075769  -0.1013898  -0.0072581  -0.0612037
   10  -0.0498225   0.0061987  -0.0110694  -0.0317994   0.0357935   0.0213749
   11  -0.0033739  -0.0135161  -0.0032465   0.0467330  -0.0175657   0.0001532
   12  -0.0065315  -0.0038088  -0.0066395   0.0085977  -0.0045696   0.0052984
   13  -0.0371814   0.0526858  -0.0201531  -0.0188316  -0.0058427  -0.0059806
   14   0.0402477  -0.0159393   0.0152341   0.0033186  -0.0077411  -0.0009590
   15  -0.0219644   0.0174711  -0.0127569  -0.0023244  -0.0003486   0.0062189
   16  -0.0817393   0.0121699  -0.0277475   0.0094577   0.0157223   0.0027128
   17  -0.0002159  -0.1160274   0.0354056  -0.0141151  -0.0413885  -0.0020526
   18  -0.0086620   0.0299214  -0.0885518   0.0129706  -0.0070593   0.0123114
   19  -0.2827732   0.0070769  -0.1141401   0.0008246   0.0008654   0.0013279
   20   0.0057132  -0.0477857   0.0071681  -0.0216581   0.0023651  -0.0073581
   21  -0.1130216   0.0096471  -0.0983235  -0.0184231   0.0017272  -0.0078816
   22   0.0084633  -0.0091528  -0.0013554  -0.1656322   0.1453383   0.0205977
   23   0.0132285  -0.0130199  -0.0000658   0.1497967  -0.2119685  -0.0347992
   24   0.0063210  -0.0140547  -0.0039326   0.0161602  -0.0365695  -0.0629107
   25  -0.0033547   0.0023361  -0.0033755  -0.0028678  -0.0170608  -0.0134992
   26   0.0014125  -0.0024106  -0.0022954   0.0028298   0.0067493  -0.0012080
   27   0.0016525   0.0029285   0.0029711   0.0021366  -0.0026075   0.0030548
   28  -0.0020235   0.0003811  -0.0009908  -0.0002198   0.0003519   0.0015622
   29  -0.0002285  -0.0021172   0.0022430   0.0014874  -0.0038180  -0.0038617
   30  -0.0045534   0.0018239  -0.0036740   0.0002282  -0.0034006  -0.0041311
   31  -0.0059708  -0.0019567  -0.0020129   0.0007427  -0.0006529  -0.0001491
   32  -0.0008893   0.0045892   0.0061773  -0.0005053   0.0009355   0.0002962
   33  -0.0006514   0.0065098   0.0093105  -0.0014609   0.0019491   0.0007288
   34  -0.1728732  -0.0795777   0.0569544  -0.0139942   0.0155313  -0.0356047
   35  -0.0281611  -0.0136321   0.0311096   0.0073845  -0.0118482   0.0875292
   36   0.0628396   0.0925163  -0.0954591   0.0128342  -0.0053533   0.0558252
   37   0.0038052  -0.0069642   0.0161835  -0.0023793  -0.0042891  -0.0005987
   38   0.0095101  -0.0011348  -0.0002442  -0.0005743   0.0082090  -0.0068647
   39  -0.0009326  -0.0022103  -0.0017453   0.0012656   0.0039931  -0.0042740
            7           8           9          10          11          12
    1  -0.0101286  -0.0222186  -0.0143444  -0.0498225  -0.0033739  -0.0065315
    2  -0.0023347  -0.0037636   0.0012537   0.0061987  -0.0135161  -0.0038088
    3  -0.0234437  -0.0072564  -0.0075769  -0.0110694  -0.0032465  -0.0066395
    4  -0.2906988   0.0271729  -0.1013898  -0.0317994   0.0467330   0.0085977
    5   0.0502753  -0.0841684  -0.0072581   0.0357935  -0.0175657  -0.0045696
    6  -0.0298459  -0.0326039  -0.0612037   0.0213749   0.0001532   0.0052984
    7   0.4919113   0.0333014   0.2081537  -0.0944110   0.0095087   0.0273515
    8   0.0333014   0.3154960   0.2479059   0.0318508  -0.0892282  -0.0602954
    9   0.2081537   0.2479059   0.4113108   0.0202688  -0.0483545  -0.0967069
   10  -0.0944110   0.0318508   0.0202688   0.7135504  -0.0222155  -0.0607887
   11   0.0095087  -0.0892282  -0.0483545  -0.0222155   0.3446486  -0.0105181
   12   0.0273515  -0.0602954  -0.0967069  -0.0607887  -0.0105181   0.3241777
   13   0.0119056  -0.0085103  -0.0045255  -0.0907466  -0.0178497   0.0128198
   14   0.0076646  -0.0350752  -0.0074159  -0.0220614  -0.1222852   0.0365719
   15  -0.0067636  -0.0103817   0.0009443   0.0071758   0.0295405  -0.0727905
   16  -0.0112204  -0.0016740  -0.0033196  -0.0387783  -0.0366329   0.0040765
   17   0.0076529  -0.0031709   0.0062056  -0.0303845   0.0021699   0.0087623
   18  -0.0070188  -0.0011672   0.0030708   0.0024794   0.0030384   0.0160357
   19   0.0006227   0.0007545   0.0004521  -0.0030568  -0.0014988   0.0014567
   20  -0.0010426  -0.0029495  -0.0026813  -0.0009328  -0.0011501   0.0014783
   21  -0.0003733  -0.0038820  -0.0021337   0.0045891   0.0016695  -0.0006547
   22  -0.0115824   0.0188949   0.0068729  -0.0049976   0.0032272  -0.0028896
   23  -0.0072121   0.0039220   0.0000865  -0.0002080   0.0018492  -0.0025512
   24   0.0078120   0.0064922   0.0124205  -0.0029036  -0.0047185   0.0030896
   25  -0.1183388  -0.0664893  -0.1123846   0.0084678   0.0067014   0.0075699
   26  -0.0664779  -0.1230212  -0.1348080  -0.0106040  -0.0044577  -0.0050748
   27  -0.1192689  -0.1375903  -0.1775970  -0.0049656  -0.0002557  -0.0028240
   28  -0.0037890   0.0011037   0.0008123  -0.3164583   0.0028315   0.0546391
   29   0.0228286   0.0002658  -0.0010054   0.0037509  -0.0452783   0.0033461
   30   0.0202914   0.0017797  -0.0000630   0.0567615   0.0028376  -0.0624013
   31  -0.0007905   0.0003711   0.0008208   0.0085677  -0.0091784   0.0059281
   32  -0.0011768   0.0011692   0.0005536   0.0097692  -0.0065636   0.0091681
   33  -0.0005333   0.0012662  -0.0001106  -0.0047117   0.0012241   0.0016722
   34   0.0364581  -0.0155270  -0.0010266  -0.1098213   0.0150203  -0.0391596
   35  -0.0525130   0.0226208  -0.0557406   0.0035276  -0.0462531   0.0280390
   36  -0.0753117  -0.0021656  -0.0830744  -0.0339068   0.0282411  -0.1069029
   37   0.0000618   0.0009699  -0.0003899   0.0093059   0.0067271  -0.0130699
   38  -0.0004744  -0.0020969   0.0012585  -0.0044846  -0.0023696  -0.0005479
   39  -0.0010493  -0.0021014   0.0007198   0.0056963   0.0003888  -0.0013539
           13          14          15          16          17          18
    1  -0.0371814   0.0402477  -0.0219644  -0.0817393  -0.0002159  -0.0086620
    2   0.0526858  -0.0159393   0.0174711   0.0121699  -0.1160274   0.0299214
    3  -0.0201531   0.0152341  -0.0127569  -0.0277475   0.0354056  -0.0885518
    4  -0.0188316   0.0033186  -0.0023244   0.0094577  -0.0141151   0.0129706
    5  -0.0058427  -0.0077411  -0.0003486   0.0157223  -0.0413885  -0.0070593
    6  -0.0059806  -0.0009590   0.0062189   0.0027128  -0.0020526   0.0123114
    7   0.0119056   0.0076646  -0.0067636  -0.0112204   0.0076529  -0.0070188
    8  -0.0085103  -0.0350752  -0.0103817  -0.0016740  -0.0031709  -0.0011672
    9  -0.0045255  -0.0074159   0.0009443  -0.0033196   0.0062056   0.0030708
   10  -0.0907466  -0.0220614   0.0071758  -0.0387783  -0.0303845   0.0024794
   11  -0.0178497  -0.1222852   0.0295405  -0.0366329   0.0021699   0.0030384
   12   0.0128198   0.0365719  -0.0727905   0.0040765   0.0087623   0.0160357
   13   0.7883414  -0.1063906   0.1498965  -0.5399855   0.0112658  -0.0677409
   14  -0.1063906   0.5074933  -0.1988788  -0.0242154  -0.0929279   0.0212535
   15   0.1498965  -0.1988788   0.2772642  -0.0556622   0.0230498  -0.0724571
   16  -0.5399855  -0.0242154  -0.0556622   0.6901164   0.0195982   0.0745196
   17   0.0112658  -0.0929279   0.0230498   0.0195982   0.2817322  -0.0901729
   18  -0.0677409   0.0212535  -0.0724571   0.0745196  -0.0901729   0.1582303
   19   0.0001492  -0.0001348  -0.0006484  -0.0006196   0.0013775   0.0001783
   20   0.0016264  -0.0054963   0.0035750   0.0269498  -0.0013094   0.0117809
   21  -0.0005453   0.0034739  -0.0009938  -0.0111553  -0.0004036  -0.0063155
   22  -0.0013262  -0.0017559   0.0005860   0.0015530  -0.0011251  -0.0015253
   23   0.0000846  -0.0007154   0.0000280   0.0000837  -0.0006138  -0.0023530
   24   0.0018026  -0.0001499   0.0012592  -0.0008762   0.0012083  -0.0016181
   25  -0.0009090  -0.0008182   0.0011803   0.0007803   0.0004771  -0.0001736
   26   0.0018869   0.0006028  -0.0017483  -0.0018844   0.0003876  -0.0002714
   27  -0.0007276   0.0004219  -0.0001726   0.0015426  -0.0005580   0.0005293
   28  -0.0052673   0.0021699  -0.0011035  -0.0016407  -0.0007265   0.0005519
   29  -0.0260637   0.0078795   0.0009573  -0.0047930  -0.0055528   0.0008953
   30   0.0077691  -0.0029594  -0.0015114   0.0008140   0.0022682   0.0003769
   31  -0.1082830   0.0883677  -0.0624487  -0.0190653   0.0274949  -0.0167106
   32   0.0948227  -0.2111198   0.1080228   0.0024418   0.0045973  -0.0044878
   33  -0.0678080   0.1112570  -0.1085752  -0.0000074  -0.0018679  -0.0042336
   34   0.0046162   0.0150822  -0.0058616  -0.0079708  -0.0212522   0.0088924
   35   0.0034845  -0.0231862   0.0261168  -0.0083411  -0.0227534   0.0348706
   36  -0.0052242   0.0210457  -0.0165667   0.0163187   0.0198940  -0.0182298
   37  -0.0024818  -0.0014745  -0.0020619  -0.0008875  -0.0000469   0.0022389
   38  -0.0011997  -0.0014891   0.0025963   0.0005752  -0.0051428   0.0037516
   39   0.0004171   0.0011050   0.0001376  -0.0012159  -0.0017388   0.0008514
           19          20          21          22          23          24
    1  -0.2827732   0.0057132  -0.1130216   0.0084633   0.0132285   0.0063210
    2   0.0070769  -0.0477857   0.0096471  -0.0091528  -0.0130199  -0.0140547
    3  -0.1141401   0.0071681  -0.0983235  -0.0013554  -0.0000658  -0.0039326
    4   0.0008246  -0.0216581  -0.0184231  -0.1656322   0.1497967   0.0161602
    5   0.0008654   0.0023651   0.0017272   0.1453383  -0.2119685  -0.0365695
    6   0.0013279  -0.0073581  -0.0078816   0.0205977  -0.0347992  -0.0629107
    7   0.0006227  -0.0010426  -0.0003733  -0.0115824  -0.0072121   0.0078120
    8   0.0007545  -0.0029495  -0.0038820   0.0188949   0.0039220   0.0064922
    9   0.0004521  -0.0026813  -0.0021337   0.0068729   0.0000865   0.0124205
   10  -0.0030568  -0.0009328   0.0045891  -0.0049976  -0.0002080  -0.0029036
   11  -0.0014988  -0.0011501   0.0016695   0.0032272   0.0018492  -0.0047185
   12   0.0014567   0.0014783  -0.0006547  -0.0028896  -0.0025512   0.0030896
   13   0.0001492   0.0016264  -0.0005453  -0.0013262   0.0000846   0.0018026
   14  -0.0001348  -0.0054963   0.0034739  -0.0017559  -0.0007154  -0.0001499
   15  -0.0006484   0.0035750  -0.0009938   0.0005860   0.0000280   0.0012592
   16  -0.0006196   0.0269498  -0.0111553   0.0015530   0.0000837  -0.0008762
   17   0.0013775  -0.0013094  -0.0004036  -0.0011251  -0.0006138   0.0012083
   18   0.0001783   0.0117809  -0.0063155  -0.0015253  -0.0023530  -0.0016181
   19   0.2990134  -0.0099998   0.1222369   0.0000842  -0.0005711  -0.0001337
   20  -0.0099998   0.0554995  -0.0092627   0.0005401   0.0008939   0.0004738
   21   0.1222369  -0.0092627   0.1016853   0.0010313   0.0007291   0.0005586
   22   0.0000842   0.0005401   0.0010313   0.1732063  -0.1540908  -0.0202166
   23  -0.0005711   0.0008939   0.0007291  -0.1540908   0.2195469   0.0416033
   24  -0.0001337   0.0004738   0.0005586  -0.0202166   0.0416033   0.0371979
   25   0.0002106  -0.0009227  -0.0008286   0.0001972   0.0002967   0.0007065
   26  -0.0000026   0.0004841   0.0001997  -0.0012113  -0.0007737   0.0010050
   27   0.0001846   0.0000511   0.0001662   0.0005231   0.0007107  -0.0012289
   28  -0.0002223   0.0001141   0.0005623  -0.0001145  -0.0003422  -0.0000120
   29   0.0000335   0.0002817  -0.0002912   0.0011612   0.0000383   0.0006141
   30  -0.0009271  -0.0001785   0.0011796   0.0003409  -0.0000595   0.0010177
   31  -0.0000715   0.0016058  -0.0006859   0.0002224   0.0002075  -0.0002431
   32   0.0000155  -0.0003348   0.0000186   0.0002440   0.0005070   0.0001024
   33  -0.0000827  -0.0004039   0.0006865  -0.0000796   0.0003563   0.0010408
   34  -0.0147527  -0.0021111   0.0175991  -0.0007240  -0.0017075  -0.0078449
   35   0.0019025  -0.0007035  -0.0032152  -0.0019849   0.0006585   0.0021711
   36  -0.0103399  -0.0046932   0.0119494  -0.0039023  -0.0030536   0.0122602
   37   0.0005915   0.0001180  -0.0009855   0.0006503   0.0004340  -0.0005722
   38   0.0001815   0.0002050  -0.0004104  -0.0000848  -0.0003246   0.0018223
   39   0.0004353   0.0000504   0.0000772   0.0000170  -0.0006316   0.0008460
           25          26          27          28          29          30
    1  -0.0033547   0.0014125   0.0016525  -0.0020235  -0.0002285  -0.0045534
    2   0.0023361  -0.0024106   0.0029285   0.0003811  -0.0021172   0.0018239
    3  -0.0033755  -0.0022954   0.0029711  -0.0009908   0.0022430  -0.0036740
    4  -0.0028678   0.0028298   0.0021366  -0.0002198   0.0014874   0.0002282
    5  -0.0170608   0.0067493  -0.0026075   0.0003519  -0.0038180  -0.0034006
    6  -0.0134992  -0.0012080   0.0030548   0.0015622  -0.0038617  -0.0041311
    7  -0.1183388  -0.0664779  -0.1192689  -0.0037890   0.0228286   0.0202914
    8  -0.0664893  -0.1230212  -0.1375903   0.0011037   0.0002658   0.0017797
    9  -0.1123846  -0.1348080  -0.1775970   0.0008123  -0.0010054  -0.0000630
   10   0.0084678  -0.0106040  -0.0049656  -0.3164583   0.0037509   0.0567615
   11   0.0067014  -0.0044577  -0.0002557   0.0028315  -0.0452783   0.0028376
   12   0.0075699  -0.0050748  -0.0028240   0.0546391   0.0033461  -0.0624013
   13  -0.0009090   0.0018869  -0.0007276  -0.0052673  -0.0260637   0.0077691
   14  -0.0008182   0.0006028   0.0004219   0.0021699   0.0078795  -0.0029594
   15   0.0011803  -0.0017483  -0.0001726  -0.0011035   0.0009573  -0.0015114
   16   0.0007803  -0.0018844   0.0015426  -0.0016407  -0.0047930   0.0008140
   17   0.0004771   0.0003876  -0.0005580  -0.0007265  -0.0055528   0.0022682
   18  -0.0001736  -0.0002714   0.0005293   0.0005519   0.0008953   0.0003769
   19   0.0002106  -0.0000026   0.0001846  -0.0002223   0.0000335  -0.0009271
   20  -0.0009227   0.0004841   0.0000511   0.0001141   0.0002817  -0.0001785
   21  -0.0008286   0.0001997   0.0001662   0.0005623  -0.0002912   0.0011796
   22   0.0001972  -0.0012113   0.0005231  -0.0001145   0.0011612   0.0003409
   23   0.0002967  -0.0007737   0.0007107  -0.0003422   0.0000383  -0.0000595
   24   0.0007065   0.0010050  -0.0012289  -0.0000120   0.0006141   0.0010177
   25   0.1160482   0.0763403   0.1187872   0.0001858  -0.0009361  -0.0006371
   26   0.0763403   0.1199298   0.1392979   0.0004653   0.0006551   0.0005539
   27   0.1187872   0.1392979   0.1847536  -0.0000517   0.0002025   0.0002063
   28   0.0001858   0.0004653  -0.0000517   0.3364539  -0.0032748  -0.0610609
   29  -0.0009361   0.0006551   0.0002025  -0.0032748   0.0476024   0.0010578
   30  -0.0006371   0.0005539   0.0002063  -0.0610609   0.0010578   0.0564603
   31   0.0002258  -0.0001422  -0.0000954   0.0000112   0.0011669  -0.0002987
   32   0.0001220  -0.0003277  -0.0001164  -0.0004886   0.0001537  -0.0000247
   33  -0.0000915   0.0001797  -0.0000680   0.0002841  -0.0000741   0.0000411
   34  -0.0010102  -0.0019364   0.0004509  -0.0071273   0.0051085  -0.0197150
   35  -0.0000187   0.0020447  -0.0016108  -0.0025087  -0.0004572  -0.0037062
   36   0.0023625   0.0042233  -0.0089485   0.0051896  -0.0041183   0.0121114
   37   0.0003647  -0.0006760  -0.0001683   0.0002117  -0.0002408   0.0009872
   38  -0.0000276   0.0001377  -0.0008740  -0.0000766   0.0003470   0.0000076
   39   0.0003836  -0.0000536  -0.0008425  -0.0003824   0.0000346   0.0003874
           31          32          33          34          35          36
    1  -0.0059708  -0.0008893  -0.0006514  -0.1728732  -0.0281611   0.0628396
    2  -0.0019567   0.0045892   0.0065098  -0.0795777  -0.0136321   0.0925163
    3  -0.0020129   0.0061773   0.0093105   0.0569544   0.0311096  -0.0954591
    4   0.0007427  -0.0005053  -0.0014609  -0.0139942   0.0073845   0.0128342
    5  -0.0006529   0.0009355   0.0019491   0.0155313  -0.0118482  -0.0053533
    6  -0.0001491   0.0002962   0.0007288  -0.0356047   0.0875292   0.0558252
    7  -0.0007905  -0.0011768  -0.0005333   0.0364581  -0.0525130  -0.0753117
    8   0.0003711   0.0011692   0.0012662  -0.0155270   0.0226208  -0.0021656
    9   0.0008208   0.0005536  -0.0001106  -0.0010266  -0.0557406  -0.0830744
   10   0.0085677   0.0097692  -0.0047117  -0.1098213   0.0035276  -0.0339068
   11  -0.0091784  -0.0065636   0.0012241   0.0150203  -0.0462531   0.0282411
   12   0.0059281   0.0091681   0.0016722  -0.0391596   0.0280390  -0.1069029
   13  -0.1082830   0.0948227  -0.0678080   0.0046162   0.0034845  -0.0052242
   14   0.0883677  -0.2111198   0.1112570   0.0150822  -0.0231862   0.0210457
   15  -0.0624487   0.1080228  -0.1085752  -0.0058616   0.0261168  -0.0165667
   16  -0.0190653   0.0024418  -0.0000074  -0.0079708  -0.0083411   0.0163187
   17   0.0274949   0.0045973  -0.0018679  -0.0212522  -0.0227534   0.0198940
   18  -0.0167106  -0.0044878  -0.0042336   0.0088924   0.0348706  -0.0182298
   19  -0.0000715   0.0000155  -0.0000827  -0.0147527   0.0019025  -0.0103399
   20   0.0016058  -0.0003348  -0.0004039  -0.0021111  -0.0007035  -0.0046932
   21  -0.0006859   0.0000186   0.0006865   0.0175991  -0.0032152   0.0119494
   22   0.0002224   0.0002440  -0.0000796  -0.0007240  -0.0019849  -0.0039023
   23   0.0002075   0.0005070   0.0003563  -0.0017075   0.0006585  -0.0030536
   24  -0.0002431   0.0001024   0.0010408  -0.0078449   0.0021711   0.0122602
   25   0.0002258   0.0001220  -0.0000915  -0.0010102  -0.0000187   0.0023625
   26  -0.0001422  -0.0003277   0.0001797  -0.0019364   0.0020447   0.0042233
   27  -0.0000954  -0.0001164  -0.0000680   0.0004509  -0.0016108  -0.0089485
   28   0.0000112  -0.0004886   0.0002841  -0.0071273  -0.0025087   0.0051896
   29   0.0011669   0.0001537  -0.0000741   0.0051085  -0.0004572  -0.0041183
   30  -0.0002987  -0.0000247   0.0000411  -0.0197150  -0.0037062   0.0121114
   31   0.1244141  -0.1046871   0.0745256  -0.0007222  -0.0023043   0.0011631
   32  -0.1046871   0.2097704  -0.1189894  -0.0004040  -0.0030294  -0.0006016
   33   0.0745256  -0.1189894   0.1015291   0.0007183  -0.0014436  -0.0015299
   34  -0.0007222  -0.0004040   0.0007183   0.3430101   0.0920170  -0.0058265
   35  -0.0023043  -0.0030294  -0.0014436   0.0920170   0.1757811  -0.2932268
   36   0.0011631  -0.0006016  -0.0015299  -0.0058265  -0.2932268   0.5247476
   37   0.0007197   0.0007360  -0.0001015  -0.0550885  -0.0124844   0.0338038
   38  -0.0002923  -0.0003469   0.0000367  -0.0202434  -0.0792420   0.1472922
   39   0.0002068  -0.0001191  -0.0004918   0.0304240   0.1491069  -0.2861825
           37          38          39
    1   0.0038052   0.0095101  -0.0009326
    2  -0.0069642  -0.0011348  -0.0022103
    3   0.0161835  -0.0002442  -0.0017453
    4  -0.0023793  -0.0005743   0.0012656
    5  -0.0042891   0.0082090   0.0039931
    6  -0.0005987  -0.0068647  -0.0042740
    7   0.0000618  -0.0004744  -0.0010493
    8   0.0009699  -0.0020969  -0.0021014
    9  -0.0003899   0.0012585   0.0007198
   10   0.0093059  -0.0044846   0.0056963
   11   0.0067271  -0.0023696   0.0003888
   12  -0.0130699  -0.0005479  -0.0013539
   13  -0.0024818  -0.0011997   0.0004171
   14  -0.0014745  -0.0014891   0.0011050
   15  -0.0020619   0.0025963   0.0001376
   16  -0.0008875   0.0005752  -0.0012159
   17  -0.0000469  -0.0051428  -0.0017388
   18   0.0022389   0.0037516   0.0008514
   19   0.0005915   0.0001815   0.0004353
   20   0.0001180   0.0002050   0.0000504
   21  -0.0009855  -0.0004104   0.0000772
   22   0.0006503  -0.0000848   0.0000170
   23   0.0004340  -0.0003246  -0.0006316
   24  -0.0005722   0.0018223   0.0008460
   25   0.0003647  -0.0000276   0.0003836
   26  -0.0006760   0.0001377  -0.0000536
   27  -0.0001683  -0.0008740  -0.0008425
   28   0.0002117  -0.0000766  -0.0003824
   29  -0.0002408   0.0003470   0.0000346
   30   0.0009872   0.0000076   0.0003874
   31   0.0007197  -0.0002923   0.0002068
   32   0.0007360  -0.0003469  -0.0001191
   33  -0.0001015   0.0000367  -0.0004918
   34  -0.0550885  -0.0202434   0.0304240
   35  -0.0124844  -0.0792420   0.1491069
   36   0.0338038   0.1472922  -0.2861825
   37   0.0451262   0.0171908  -0.0352656
   38   0.0171908   0.0832480  -0.1478240
   39  -0.0352656  -0.1478240   0.2918707
 Gradient time:  CPU 551.86 s  wall 559.12 s
 **********************************************************************
 **                                                                  **
 **                       VIBRATIONAL ANALYSIS                       **
 **                       --------------------                       **
 **                                                                  **
 **        VIBRATIONAL FREQUENCIES (CM**-1) AND NORMAL MODES         **
 **     FORCE CONSTANTS (mDYN/ANGSTROM) AND REDUCED MASSES (AMU)     **
 **                  INFRARED INTENSITIES (KM/MOL)                   **
 **                                                                  **
 **********************************************************************
 

 Mode:                 1                      2                      3
 Frequency:      -653.49                 335.05                 391.92
 Force Cnst:      1.3581                 0.0777                 0.1020
 Red. Mass:       5.3975                 1.1751                 1.1269
 IR Active:          YES                    YES                    YES
 IR Intens:       34.449                 20.815                 30.289
 Raman Active:       YES                    YES                    YES
               X      Y      Z        X      Y      Z        X      Y      Z
 C          0.063  0.162 -0.013   -0.012 -0.017 -0.023   -0.022 -0.026  0.004
 C         -0.107 -0.014  0.365   -0.002 -0.033  0.000    0.004 -0.049  0.002
 C         -0.107  0.076 -0.076    0.037  0.034 -0.068    0.031  0.035 -0.027
 C         -0.013  0.012 -0.015    0.012 -0.002 -0.032    0.007 -0.016  0.023
 C         -0.011  0.006 -0.011   -0.004  0.032  0.031   -0.020 -0.004  0.021
 N         -0.003  0.040 -0.011   -0.006  0.027  0.025   -0.012 -0.021 -0.035
 H          0.056  0.101 -0.012   -0.013 -0.018 -0.022   -0.023 -0.008  0.009
 H         -0.151 -0.098  0.617   -0.031 -0.065  0.054    0.050  0.022 -0.158
 H          0.021  0.194 -0.243   -0.255 -0.551  0.580    0.152  0.374 -0.366
 H          0.014  0.036  0.119    0.007 -0.033 -0.063    0.003 -0.061  0.005
 H         -0.008 -0.041 -0.085   -0.014  0.074  0.105   -0.039  0.007  0.057
 C          0.168 -0.314 -0.268    0.002 -0.032 -0.012   -0.000 -0.003  0.023
 H          0.204  0.104 -0.036    0.007  0.441  0.235    0.023  0.707  0.393
 TransDip   0.032  0.036  0.182   -0.055 -0.035  0.131    0.001  0.173 -0.034

 Mode:                 4                      5                      6
 Frequency:       439.47                 482.98                 607.15
 Force Cnst:      0.4242                 0.5226                 1.0021
 Red. Mass:       3.7281                 3.8026                 4.6138
 IR Active:          YES                    YES                    YES
 IR Intens:        7.384                  6.140                 15.039
 Raman Active:       YES                    YES                    YES
               X      Y      Z        X      Y      Z        X      Y      Z
 C         -0.014  0.018  0.130   -0.004  0.050  0.034    0.085 -0.061 -0.082
 C          0.004  0.146 -0.049   -0.042  0.068 -0.131   -0.137 -0.174  0.055
 C          0.027  0.283 -0.092   -0.169 -0.177  0.108    0.023  0.116 -0.185
 C         -0.021 -0.006  0.151    0.012 -0.016 -0.015    0.080 -0.056 -0.023
 C          0.011 -0.171 -0.158    0.091 -0.082 -0.182   -0.059 -0.126 -0.110
 N         -0.002 -0.110 -0.061    0.038  0.158  0.235   -0.097  0.102  0.209
 H         -0.011  0.016  0.122    0.002 -0.098  0.009    0.184 -0.109 -0.292
 H         -0.023  0.150 -0.160    0.063  0.193 -0.318   -0.294 -0.363  0.346
 H         -0.186 -0.039  0.305   -0.112 -0.027 -0.048   -0.085  0.191 -0.165
 H         -0.021 -0.003  0.139    0.032  0.167  0.072    0.085 -0.112  0.004
 H          0.054 -0.425 -0.580    0.122 -0.215 -0.413   -0.102 -0.187 -0.155
 C          0.006 -0.109  0.094    0.053 -0.072 -0.051    0.129  0.245  0.131
 H          0.043 -0.082  0.116    0.077  0.508  0.252    0.118 -0.179 -0.090
 TransDip  -0.036 -0.068  0.041    0.016  0.053 -0.057   -0.045 -0.094 -0.068

 Mode:                 7                      8                      9
 Frequency:       741.32                 785.00                 826.14
 Force Cnst:      1.9319                 2.5508                 0.8664
 Red. Mass:       5.9665                 7.0257                 2.1545
 IR Active:          YES                    YES                    YES
 IR Intens:        3.380                  5.095                 17.317
 Raman Active:       YES                    YES                    YES
               X      Y      Z        X      Y      Z        X      Y      Z
 C          0.078  0.148  0.066   -0.194  0.087  0.140   -0.020 -0.010 -0.079
 C         -0.136  0.255  0.009   -0.178 -0.104  0.014   -0.067  0.097  0.089
 C         -0.129 -0.089 -0.200   -0.040 -0.127 -0.229    0.010  0.004  0.014
 C         -0.111 -0.217 -0.067    0.207 -0.157  0.096   -0.045  0.001 -0.120
 C          0.087 -0.183  0.221    0.103  0.091  0.039    0.023  0.016 -0.075
 N          0.141 -0.144 -0.021    0.147  0.314 -0.233   -0.010 -0.051  0.021
 H          0.075 -0.091  0.050   -0.122 -0.046 -0.031    0.138 -0.064 -0.413
 H         -0.080  0.274  0.191    0.141  0.191 -0.133    0.143  0.341 -0.230
 H          0.086 -0.335 -0.165   -0.181 -0.076 -0.177    0.151 -0.055 -0.032
 H         -0.071 -0.077  0.112    0.203 -0.049  0.063   -0.106  0.100 -0.407
 H          0.112 -0.115  0.316   -0.254 -0.162 -0.004    0.047  0.278  0.295
 C          0.027  0.255 -0.047   -0.043 -0.109  0.230    0.059 -0.088  0.195
 H          0.127  0.332  0.004   -0.096 -0.411  0.075    0.261 -0.148  0.206
 TransDip   0.001 -0.010  0.058   -0.053 -0.048 -0.012    0.038  0.075 -0.103

 Mode:                10                     11                     12
 Frequency:       852.88                 882.32                 892.68
 Force Cnst:      1.7573                 1.0119                 0.6886
 Red. Mass:       4.1003                 2.2062                 1.4666
 IR Active:          YES                    YES                    YES
 IR Intens:        9.559                  8.194                  2.787
 Raman Active:       YES                    YES                    YES
               X      Y      Z        X      Y      Z        X      Y      Z
 C          0.054 -0.085 -0.165    0.050  0.052  0.145   -0.038 -0.028 -0.002
 C          0.046  0.026  0.097    0.006  0.004 -0.083    0.060  0.052 -0.090
 C          0.015  0.157  0.132   -0.068  0.001  0.035   -0.022  0.013  0.036
 C         -0.093 -0.127  0.026    0.130  0.088 -0.124   -0.076 -0.063 -0.023
 C          0.089 -0.227 -0.012   -0.041 -0.134  0.001    0.022  0.045  0.009
 N          0.102  0.227 -0.040   -0.048 -0.016 -0.050    0.031  0.045 -0.026
 H         -0.063 -0.149  0.070    0.062  0.193  0.142   -0.079 -0.021  0.086
 H         -0.066 -0.014 -0.196   -0.202 -0.210  0.117   -0.327 -0.407  0.615
 H          0.005  0.161  0.148   -0.257  0.172  0.036    0.034  0.098 -0.066
 H         -0.140  0.081 -0.210    0.100  0.297 -0.295   -0.123 -0.094 -0.234
 H         -0.332 -0.109  0.592   -0.317  0.048  0.560    0.065 -0.007 -0.123
 C         -0.161 -0.006 -0.060    0.046 -0.038  0.033    0.020 -0.036  0.065
 H         -0.248 -0.000 -0.068   -0.175  0.031  0.044    0.398  0.014  0.147
 TransDip  -0.080 -0.056  0.016   -0.033  0.019  0.083   -0.002 -0.049  0.022

 Mode:                13                     14                     15
 Frequency:       914.10                 925.47                 957.76
 Force Cnst:      0.9873                 0.8264                 1.0734
 Red. Mass:       2.0055                 1.6376                 1.9861
 IR Active:          YES                    YES                    YES
 IR Intens:        1.289                 20.045                  2.706
 Raman Active:       YES                    YES                    YES
               X      Y      Z        X      Y      Z        X      Y      Z
 C         -0.055 -0.053 -0.078    0.023  0.012 -0.064   -0.131  0.118 -0.047
 C          0.031  0.107 -0.015   -0.013 -0.000  0.007    0.020 -0.134 -0.015
 C          0.041 -0.088 -0.091    0.025 -0.020  0.019    0.045 -0.012 -0.043
 C          0.044  0.132  0.128    0.015  0.087 -0.059   -0.073  0.087  0.052
 C          0.007 -0.073 -0.042   -0.026 -0.053  0.181    0.043 -0.097  0.015
 N         -0.016  0.001  0.019    0.002  0.023 -0.017    0.038 -0.026  0.038
 H          0.010 -0.151 -0.233    0.100 -0.062 -0.231   -0.290  0.223  0.287
 H         -0.008 -0.029  0.548    0.012  0.028 -0.013    0.186  0.024 -0.124
 H          0.310 -0.211 -0.187    0.050 -0.006 -0.007   -0.082  0.016  0.017
 H          0.085  0.380  0.301   -0.044  0.268 -0.362   -0.118  0.330 -0.178
 H         -0.129  0.032  0.258   -0.027 -0.561 -0.583   -0.016 -0.037  0.176
 C         -0.060 -0.035  0.013   -0.027 -0.026  0.031    0.024  0.032 -0.021
 H         -0.140  0.078  0.060   -0.095  0.020  0.049    0.660 -0.122 -0.019
 TransDip   0.002  0.014  0.034    0.017 -0.093 -0.108   -0.040  0.006  0.034

 Mode:                16                     17                     18
 Frequency:       972.72                1026.56                1083.39
 Force Cnst:      1.1334                 1.2926                 1.2155
 Red. Mass:       2.0331                 2.0818                 1.7576
 IR Active:          YES                    YES                    YES
 IR Intens:        2.464                  3.868                  5.254
 Raman Active:       YES                    YES                    YES
               X      Y      Z        X      Y      Z        X      Y      Z
 C         -0.135  0.088 -0.117    0.092  0.198 -0.036   -0.092  0.053 -0.045
 C          0.029  0.029 -0.005    0.001 -0.095 -0.068   -0.124  0.041 -0.014
 C         -0.018  0.031  0.051    0.023 -0.011 -0.020    0.066  0.041  0.092
 C          0.153 -0.073  0.002   -0.101 -0.019  0.065    0.135 -0.025 -0.006
 C          0.038 -0.008  0.010    0.040 -0.002 -0.019    0.013 -0.006  0.005
 N          0.015 -0.091  0.057    0.034 -0.024  0.028    0.005 -0.039  0.023
 H         -0.074  0.033 -0.268    0.261  0.471 -0.349   -0.167  0.085  0.094
 H          0.251  0.149  0.394   -0.221 -0.299 -0.032   -0.548 -0.256 -0.274
 H         -0.515  0.406  0.115    0.097 -0.045 -0.054    0.570 -0.254 -0.010
 H          0.132 -0.272 -0.124   -0.121 -0.034  0.001    0.143 -0.153 -0.012
 H          0.087  0.006 -0.006    0.218  0.156  0.045   -0.052 -0.052  0.009
 C         -0.060  0.009 -0.015   -0.072 -0.065  0.072   -0.006 -0.006 -0.039
 H         -0.177  0.036 -0.023   -0.492  0.014  0.071    0.087 -0.001 -0.033
 TransDip  -0.019  0.023 -0.040   -0.015  0.019 -0.058   -0.012 -0.063 -0.036

 Mode:                19                     20                     21
 Frequency:      1140.42                1175.54                1213.92
 Force Cnst:      1.2899                 1.4955                 1.3249
 Red. Mass:       1.6833                 1.8368                 1.5260
 IR Active:          YES                    YES                    YES
 IR Intens:       15.467                  1.895                  5.635
 Raman Active:       YES                    YES                    YES
               X      Y      Z        X      Y      Z        X      Y      Z
 C          0.067 -0.046 -0.126   -0.137  0.005  0.027    0.054  0.015  0.056
 C          0.047  0.040  0.049    0.067 -0.051 -0.011    0.024  0.017  0.033
 C         -0.085 -0.004 -0.052   -0.014  0.085  0.050    0.032 -0.022 -0.009
 C          0.064 -0.074 -0.018   -0.053 -0.069 -0.147    0.044 -0.055 -0.007
 C          0.011  0.046  0.010    0.025 -0.013  0.034   -0.000  0.040 -0.013
 N         -0.041 -0.023  0.018    0.010  0.006 -0.006   -0.021 -0.017  0.006
 H         -0.229  0.561  0.556    0.017  0.029 -0.307    0.271 -0.028 -0.390
 H         -0.047 -0.018 -0.088    0.068 -0.061  0.025   -0.213 -0.146 -0.188
 H         -0.048 -0.031 -0.065    0.160 -0.039  0.034   -0.219  0.138  0.043
 H          0.100  0.432  0.118    0.130  0.478  0.712    0.093  0.323  0.189
 H          0.082  0.004 -0.135    0.022 -0.054 -0.027   -0.113 -0.027 -0.008
 C         -0.039 -0.013  0.078    0.082  0.007  0.020   -0.167  0.005 -0.041
 H         -0.050 -0.016  0.084   -0.186 -0.012 -0.026    0.625 -0.016  0.051
 TransDip   0.028  0.123 -0.001    0.001 -0.001  0.044    0.057  0.036 -0.035

 Mode:                22                     23                     24
 Frequency:      1241.85                1271.84                1318.30
 Force Cnst:      1.4571                 1.2000                 1.5495
 Red. Mass:       1.6037                 1.2591                 1.5132
 IR Active:          YES                    YES                    YES
 IR Intens:        7.049                  1.071                  6.418
 Raman Active:       YES                    YES                    YES
               X      Y      Z        X      Y      Z        X      Y      Z
 C         -0.009  0.009  0.045   -0.017  0.042 -0.020   -0.054 -0.104  0.059
 C          0.000 -0.036 -0.026    0.003  0.038  0.027    0.004  0.009  0.012
 C         -0.029  0.048  0.016    0.080 -0.049 -0.013   -0.040  0.016  0.000
 C          0.029 -0.134  0.110   -0.002 -0.018  0.011    0.039  0.016  0.028
 C          0.001  0.073 -0.026   -0.032 -0.046  0.020    0.035 -0.088  0.042
 N         -0.037 -0.029  0.004   -0.041  0.026 -0.027   -0.058  0.063 -0.033
 H          0.054 -0.187 -0.106   -0.123 -0.460  0.145    0.144  0.562 -0.300
 H          0.138  0.057  0.093   -0.277 -0.156 -0.183    0.048  0.048 -0.003
 H          0.222 -0.140 -0.011   -0.267  0.192  0.046    0.099 -0.083 -0.020
 H         -0.105  0.637 -0.578    0.003  0.246  0.014    0.003 -0.099 -0.169
 H         -0.055  0.057 -0.010    0.560  0.292 -0.053    0.625  0.235 -0.037
 C          0.043  0.034 -0.064    0.038 -0.006  0.011   -0.005  0.022 -0.053
 H         -0.166  0.053 -0.098   -0.148 -0.008 -0.014    0.134  0.012 -0.054
 TransDip   0.051  0.057 -0.038   -0.031 -0.012  0.003    0.080 -0.015  0.003

 Mode:                25                     26                     27
 Frequency:      1320.63                1404.07                1626.45
 Force Cnst:      1.8067                 3.1433                11.7016
 Red. Mass:       1.7583                 2.7062                 7.5078
 IR Active:          YES                    YES                    YES
 IR Intens:       15.661                  1.583                 44.284
 Raman Active:       YES                    YES                    YES
               X      Y      Z        X      Y      Z        X      Y      Z
 C          0.104  0.076 -0.017   -0.049  0.074 -0.011    0.040  0.050 -0.001
 C         -0.057 -0.083 -0.073    0.254 -0.029  0.088   -0.031 -0.016 -0.017
 C         -0.041  0.076  0.053   -0.239  0.038 -0.071    0.035 -0.014  0.002
 C          0.058 -0.005 -0.047    0.059  0.052  0.012   -0.059  0.022 -0.011
 C         -0.039 -0.045  0.014    0.001 -0.018  0.006    0.569  0.048  0.055
 N         -0.033  0.021 -0.024   -0.011 -0.013  0.006   -0.457 -0.007 -0.061
 H         -0.018 -0.365  0.219   -0.018 -0.488 -0.136   -0.047 -0.322  0.137
 H          0.393  0.223  0.322   -0.135 -0.316 -0.394   -0.003 -0.005  0.039
 H          0.332 -0.164 -0.011    0.217 -0.320 -0.158   -0.037  0.054  0.003
 H          0.116 -0.004  0.186    0.019 -0.327 -0.171   -0.044 -0.239  0.103
 H          0.369  0.198 -0.014    0.042  0.000  0.008   -0.177 -0.431  0.168
 C         -0.109 -0.031  0.031   -0.026  0.025  0.041    0.009 -0.002  0.005
 H          0.268 -0.034  0.094    0.033 -0.044  0.015   -0.045 -0.001 -0.003
 TransDip   0.116 -0.046  0.021    0.020  0.034 -0.006    0.145  0.156  0.011

 Mode:                28                     29                     30
 Frequency:      3146.37                3184.20                3185.83
 Force Cnst:      6.3582                 6.5126                 6.5438
 Red. Mass:       1.0901                 1.0902                 1.0943
 IR Active:          YES                    YES                    YES
 IR Intens:       17.953                 13.357                 14.052
 Raman Active:       YES                    YES                    YES
               X      Y      Z        X      Y      Z        X      Y      Z
 C          0.000 -0.000  0.000   -0.062  0.003 -0.029   -0.026  0.002 -0.012
 C          0.001 -0.001 -0.000    0.026 -0.028 -0.004    0.014 -0.016 -0.003
 C          0.002  0.001  0.002    0.001  0.003  0.003   -0.001  0.001  0.000
 C         -0.084  0.001  0.017   -0.003 -0.001  0.001    0.010  0.002 -0.002
 C          0.006 -0.007  0.005   -0.017  0.026 -0.017    0.040 -0.058  0.038
 N         -0.000  0.000  0.000    0.001  0.000  0.000   -0.003 -0.000 -0.000
 H          0.002  0.000  0.000    0.714 -0.034  0.341    0.290 -0.015  0.137
 H         -0.010  0.011  0.002   -0.286  0.332  0.061   -0.162  0.190  0.034
 H         -0.018 -0.015 -0.024   -0.024 -0.029 -0.038   -0.004 -0.007 -0.008
 H          0.966 -0.012 -0.202    0.041  0.001 -0.008   -0.113 -0.005  0.025
 H         -0.063  0.089 -0.059    0.193 -0.295  0.195   -0.431  0.660 -0.434
 C          0.002  0.001 -0.002    0.000 -0.001  0.003   -0.001 -0.001  0.002
 H         -0.008 -0.017  0.032    0.003  0.017 -0.037    0.004  0.016 -0.033
 TransDip  -0.134  0.001  0.020   -0.095  0.024 -0.063    0.058 -0.103  0.023

 Mode:                31                     32                     33
 Frequency:      3194.85                3257.91                3263.53
 Force Cnst:      6.5720                 6.8478                 6.8804
 Red. Mass:       1.0928                 1.0950                 1.0964
 IR Active:          YES                    YES                    YES
 IR Intens:       18.873                  1.154                  0.549
 Raman Active:       YES                    YES                    YES
               X      Y      Z        X      Y      Z        X      Y      Z
 C          0.040 -0.001  0.019   -0.001  0.000  0.000   -0.009 -0.002 -0.001
 C          0.049 -0.056 -0.010    0.010 -0.008 -0.001   -0.004  0.004  0.000
 C          0.001  0.005  0.005   -0.042 -0.045 -0.059    0.012  0.012  0.017
 C          0.000  0.000 -0.000   -0.002  0.001  0.002    0.006 -0.001  0.001
 C         -0.003  0.004 -0.003   -0.000  0.001 -0.000    0.001 -0.001  0.001
 N         -0.000  0.000 -0.000    0.000 -0.000  0.000   -0.001 -0.000  0.000
 H         -0.455  0.019 -0.220    0.010 -0.000  0.004    0.065 -0.002  0.028
 H         -0.542  0.640  0.117   -0.070  0.079  0.010    0.034 -0.040 -0.009
 H         -0.051 -0.060 -0.078    0.459  0.505  0.666   -0.124 -0.138 -0.180
 H         -0.011  0.000  0.002    0.020 -0.003 -0.007   -0.043  0.002  0.006
 H          0.027 -0.041  0.028    0.004 -0.007  0.004   -0.008  0.013 -0.009
 C         -0.001  0.003 -0.004    0.002  0.012 -0.020    0.010  0.039 -0.075
 H         -0.006 -0.027  0.052   -0.032 -0.123  0.233   -0.113 -0.437  0.844
 TransDip   0.118 -0.072  0.012   -0.011 -0.006 -0.032    0.016  0.013  0.011

 STANDARD THERMODYNAMIC QUANTITIES AT   298.15 K  AND     1.00 ATM

   This Molecule has  1 Imaginary Frequencies
   Zero point vibrational energy:       62.991 kcal/mol

   Atom    1 Element C  Has Mass   12.00000
   Atom    2 Element C  Has Mass   12.00000
   Atom    3 Element C  Has Mass   12.00000
   Atom    4 Element C  Has Mass   12.00000
   Atom    5 Element C  Has Mass   12.00000
   Atom    6 Element N  Has Mass   14.00307
   Atom    7 Element H  Has Mass    1.00783
   Atom    8 Element H  Has Mass    1.00783
   Atom    9 Element H  Has Mass    1.00783
   Atom   10 Element H  Has Mass    1.00783
   Atom   11 Element H  Has Mass    1.00783
   Atom   12 Element C  Has Mass   12.00000
   Atom   13 Element H  Has Mass    1.00783
   Molecular Mass:    92.050050 amu
   Principal axes and moments of inertia in amu*Bohr^2:
                             1           2           3
    Eigenvalues --      376.98220   456.59814   566.63295
          X               0.13646     0.93930    -0.31480
          Y               0.99013    -0.13960     0.01267
          Z               0.03205     0.31342     0.94907
   Rotational Symmetry Number is   1
   The Molecule is an Asymmetric Top
   Translational Enthalpy:        0.889 kcal/mol
   Rotational Enthalpy:           0.889 kcal/mol
   Vibrational Enthalpy:         64.338 kcal/mol
   gas constant (RT):             0.592 kcal/mol
   Translational Entropy:        39.471  cal/mol.K
   Rotational Entropy:           26.081  cal/mol.K
   Vibrational Entropy:           6.228  cal/mol.K

   Total Enthalpy:               66.708 kcal/mol
   Total Entropy:                71.780  cal/mol.K
Archival summary:
1\1\c8-73\FREQ\ProcedureUnspecified\6-31+G**\166(2)\hpark21\ThuMar301:42:052022ThuMar301:42:052022\0\\#,FREQ,ProcedureUnspecified,6-31+G**,\\0,2\N\C,1,1.28479\H,2,1.08792,1,121.957\C,1,1.46855,2,105.226,3,-175.769,0\H,4,1.08614,1,115.319,2,-163.092,0\C,4,1.48737,1,108.265,2,-24.4536,0\H,6,1.08104,4,131.888,1,-141.041,0\C,4,1.52887,1,114.585,2,58.6557,0\H,8,1.08645,4,120.784,1,131.573,0\C,8,1.40441,4,111.711,1,-44.7709,0\H,10,1.08099,8,130.414,4,164.76,0\C,10,1.52758,8,98.7577,4,-21.9449,0\H,12,1.0895,10,118.202,8,-150.641,0\\\@

 Total job time:  568.62s(wall), 559.03s(cpu) 
 Thu Mar  3 01:42:05 2022

        *************************************************************
        *                                                           *
        *  Thank you very much for using Q-Chem.  Have a nice day.  *
        *                                                           *
        *************************************************************


