13   
From optimize.out: Frame 1 / 38, Energy=    -286.6105207535
C        0.0580620000   -0.1367630000   -0.0000000000
C       -0.1026890000    0.1604610000   -0.0000000000
C       -0.1930180000    0.3657710000   -0.0000000000
C       -0.0967320000    0.0706940000   -0.0000000000
C       -0.1108160000   -0.4346300000   -0.0000000000
N       -0.3511800000    1.0235130000   -0.0000000000
H        0.1332990000    0.0286530000   -0.0000000000
H        0.1387090000    0.0054650000   -0.0000000000
H        0.1755250000   -0.0138520000   -0.0000000000
H        0.1790260000   -0.0063290000    0.0000000000
H        0.1797610000    0.0135720000   -0.0000000000
C       -0.1316180000   -0.0649720000   -0.0000000000
H        0.1216710000   -0.0115820000   -0.0000000000
13   
From optimize.out: Frame 2 / 38, Energy=    -286.7039125707
C        0.0290330000   -0.1539040000   -0.0000000000
C       -0.0881030000    0.2559590000   -0.0000000000
C       -0.2243990000    0.2156060000   -0.0000000000
C       -0.0682250000    0.1084210000   -0.0000000000
C       -0.0550690000   -0.1497360000   -0.0000000000
N       -0.3579580000    0.7098420000   -0.0000000000
H        0.1313440000    0.0155060000   -0.0000000000
H        0.1548390000   -0.0064580000   -0.0000000000
H        0.1690580000   -0.0010970000   -0.0000000000
H        0.1681510000   -0.0017430000    0.0000000000
H        0.1640530000    0.0323820000   -0.0000000000
C       -0.1345420000   -0.0241830000   -0.0000000000
H        0.1118180000   -0.0005950000   -0.0000000000
13   
From optimize.out: Frame 3 / 38, Energy=    -286.7697086386
C        0.0340540000   -0.2120120000   -0.0000000000
C       -0.0791890000    0.4320070000   -0.0000000000
C       -0.2186980000   -0.0562380000   -0.0000000000
C       -0.0541580000    0.0255240000   -0.0000000000
C       -0.0957410000   -0.0044190000   -0.0000000000
N       -0.3389900000    0.7137510000   -0.0000000000
H        0.1368610000    0.0091250000   -0.0000000000
H        0.1472630000   -0.0224010000   -0.0000000000
H        0.1681050000    0.0162760000   -0.0000000000
H        0.1565750000    0.0007090000   -0.0000000000
H        0.1590810000    0.0251410000   -0.0000000000
C       -0.1345720000    0.0545560000   -0.0000000000
H        0.1194090000    0.0179810000   -0.0000000000
13   
From optimize.out: Frame 4 / 38, Energy=    -286.8110778128
C        0.0480060000   -0.2314580000   -0.0000000000
C       -0.0872150000    0.5421900000   -0.0000000000
C       -0.2067630000   -0.0535670000   -0.0000000000
C       -0.0446950000    0.0162420000   -0.0000000000
C       -0.1088020000   -0.0127800000   -0.0000000000
N       -0.3459220000    0.6492290000   -0.0000000000
H        0.1398400000    0.0077680000   -0.0000000000
H        0.1374260000   -0.0265900000   -0.0000000000
H        0.1661720000    0.0208180000   -0.0000000000
H        0.1488870000    0.0003770000   -0.0000000000
H        0.1581920000    0.0215060000   -0.0000000000
C       -0.1268800000    0.0513950000   -0.0000000000
H        0.1217530000    0.0148700000   -0.0000000000
13   
From optimize.out: Frame 5 / 38, Energy=    -286.8349188051
C        0.0488430000   -0.2245860000   -0.0000000000
C       -0.1019160000    0.6031570000   -0.0000000000
C       -0.2130990000   -0.0552080000   -0.0000000000
C       -0.0551360000    0.0181630000   -0.0000000000
C       -0.0904810000   -0.0167310000   -0.0000000000
N       -0.3352120000    0.5768780000   -0.0000000000
H        0.1458260000    0.0070870000   -0.0000000000
H        0.1381280000   -0.0290850000   -0.0000000000
H        0.1576610000    0.0233980000   -0.0000000000
H        0.1428700000    0.0011880000   -0.0000000000
H        0.1569000000    0.0275650000   -0.0000000000
C       -0.1161770000    0.0548180000   -0.0000000000
H        0.1217930000    0.0133560000   -0.0000000000
13   
From optimize.out: Frame 6 / 38, Energy=    -286.8539677569
C        0.0648110000   -0.2251920000   -0.0000000000
C       -0.1157470000    0.6994770000   -0.0000000000
C       -0.1954150000   -0.0555000000   -0.0000000000
C       -0.0517240000    0.0219930000   -0.0000000000
C       -0.0910210000   -0.0208310000   -0.0000000000
N       -0.3496340000    0.5169430000   -0.0000000000
H        0.1424130000    0.0070790000   -0.0000000000
H        0.1319310000   -0.0326300000   -0.0000000000
H        0.1560040000    0.0266330000   -0.0000000000
H        0.1389950000    0.0009120000   -0.0000000000
H        0.1549770000    0.0177850000   -0.0000000000
C       -0.1126480000    0.0344380000   -0.0000000000
H        0.1270570000    0.0088910000   -0.0000000000
13   
From optimize.out: Frame 7 / 38, Energy=    -286.8623736959
C        0.0565790000   -0.2309480000   -0.0000000000
C       -0.1151120000    0.6952640000   -0.0000000000
C       -0.1851310000   -0.0557650000   -0.0000000000
C       -0.0551400000    0.0092180000   -0.0000000000
C       -0.0918990000   -0.0210350000   -0.0000000000
N       -0.3456140000    0.5178270000   -0.0000000000
H        0.1400440000    0.0076910000   -0.0000000000
H        0.1366150000   -0.0321120000   -0.0000000000
H        0.1527210000    0.0263430000   -0.0000000000
H        0.1383170000    0.0013360000   -0.0000000000
H        0.1549610000    0.0202100000   -0.0000000000
C       -0.1148090000    0.0533570000   -0.0000000000
H        0.1284660000    0.0086130000   -0.0000000000
13   
From optimize.out: Frame 8 / 38, Energy=    -286.8712549342
C        0.0482820000   -0.2343360000   -0.0000000000
C       -0.1149730000    0.7067430000   -0.0000000000
C       -0.1968210000   -0.0539950000   -0.0000000000
C       -0.0652600000    0.0272820000   -0.0000000000
C       -0.0715850000   -0.0254300000   -0.0000000000
N       -0.3470530000    0.5144200000   -0.0000000000
H        0.1418030000    0.0075900000   -0.0000000000
H        0.1419080000   -0.0326340000   -0.0000000000
H        0.1507320000    0.0253470000   -0.0000000000
H        0.1370330000    0.0021460000   -0.0000000000
H        0.1530760000    0.0222070000   -0.0000000000
C       -0.1078840000    0.0337270000   -0.0000000000
H        0.1307420000    0.0069330000   -0.0000000000
13   
From optimize.out: Frame 9 / 38, Energy=    -286.8735130900
C        0.0470510000   -0.2336920000   -0.0000000000
C       -0.1196650000    0.7143110000   -0.0000000000
C       -0.1908550000   -0.0532770000   -0.0000000000
C       -0.0711660000    0.0352340000   -0.0000000000
C       -0.0643420000   -0.0276830000   -0.0000000000
N       -0.3479060000    0.5031730000   -0.0000000000
H        0.1406490000    0.0075770000   -0.0000000000
H        0.1437460000   -0.0330440000   -0.0000000000
H        0.1490040000    0.0271320000   -0.0000000000
H        0.1361000000    0.0030910000   -0.0000000000
H        0.1519440000    0.0218810000   -0.0000000000
C       -0.1074050000    0.0289320000   -0.0000000000
H        0.1328440000    0.0063650000   -0.0000000000
13   
From optimize.out: Frame 10 / 38, Energy=    -286.8745875430
C        0.0525580000   -0.2279810000   -0.0000000000
C       -0.1196750000    0.7137370000   -0.0000000000
C       -0.1934800000   -0.0547480000   -0.0000000000
C       -0.0771170000    0.0325220000   -0.0000000000
C       -0.0589490000   -0.0278120000   -0.0000000000
N       -0.3531010000    0.4995930000   -0.0000000000
H        0.1415090000    0.0073330000   -0.0000000000
H        0.1431780000   -0.0331190000   -0.0000000000
H        0.1490710000    0.0251560000   -0.0000000000
H        0.1376040000    0.0036830000   -0.0000000000
H        0.1517610000    0.0234190000   -0.0000000000
C       -0.1069430000    0.0318980000   -0.0000000000
H        0.1335840000    0.0063170000   -0.0000000000
13   
From optimize.out: Frame 20 / 38, Energy=    -286.8748596809
C        0.0482870000   -0.2319370000   -0.0000000000
C       -0.1174590000    0.6918390000   -0.0000000000
C       -0.1918690000   -0.0536910000   -0.0000000000
C       -0.0744110000    0.0321850000   -0.0000000000
C       -0.0603030000   -0.0286200000   -0.0000000000
N       -0.3515800000    0.5197950000   -0.0000000000
H        0.1405480000    0.0074940000   -0.0000000000
H        0.1431350000   -0.0321500000   -0.0000000000
H        0.1484290000    0.0261000000   -0.0000000000
H        0.1380530000    0.0038370000   -0.0000000000
H        0.1519910000    0.0249550000   -0.0000000000
C       -0.1091040000    0.0332310000   -0.0000000000
H        0.1342830000    0.0069620000   -0.0000000000
13   
From optimize.out: Frame 21 / 38, Energy=    -286.8751462519
C        0.0489550000   -0.2315930000   -0.0000000000
C       -0.1179180000    0.6960290000   -0.0000000000
C       -0.1919740000   -0.0539990000   -0.0000000000
C       -0.0754880000    0.0299260000   -0.0000000000
C       -0.0607250000   -0.0279560000   -0.0000000000
N       -0.3520070000    0.5174540000   -0.0000000000
H        0.1404250000    0.0074790000   -0.0000000000
H        0.1431390000   -0.0323490000   -0.0000000000
H        0.1480280000    0.0257860000   -0.0000000000
H        0.1378060000    0.0037330000   -0.0000000000
H        0.1524030000    0.0248540000   -0.0000000000
C       -0.1067600000    0.0338880000   -0.0000000000
H        0.1341180000    0.0067500000   -0.0000000000
13   
From optimize.out: Frame 22 / 38, Energy=    -286.8752548632
C        0.0489750000   -0.2314920000   -0.0000000000
C       -0.1174120000    0.6960190000   -0.0000000000
C       -0.1923570000   -0.0540190000   -0.0000000000
C       -0.0754520000    0.0292420000   -0.0000000000
C       -0.0610890000   -0.0277490000   -0.0000000000
N       -0.3520900000    0.5178330000   -0.0000000000
H        0.1404030000    0.0074710000   -0.0000000000
H        0.1432210000   -0.0323380000   -0.0000000000
H        0.1482060000    0.0255570000   -0.0000000000
H        0.1377330000    0.0036420000   -0.0000000000
H        0.1521770000    0.0251690000   -0.0000000000
C       -0.1061330000    0.0339850000   -0.0000000000
H        0.1338170000    0.0066810000   -0.0000000000
13   
From optimize.out: Frame 23 / 38, Energy=    -286.8753120904
C        0.0490220000   -0.2311940000   -0.0000000000
C       -0.1168040000    0.6951520000   -0.0000000000
C       -0.1925610000   -0.0540010000   -0.0000000000
C       -0.0752790000    0.0291360000   -0.0000000000
C       -0.0613610000   -0.0277660000   -0.0000000000
N       -0.3521360000    0.5183630000   -0.0000000000
H        0.1403810000    0.0074600000   -0.0000000000
H        0.1432490000   -0.0322920000   -0.0000000000
H        0.1483830000    0.0255000000   -0.0000000000
H        0.1376370000    0.0036110000   -0.0000000000
H        0.1519430000    0.0253780000   -0.0000000000
C       -0.1059860000    0.0339930000   -0.0000000000
H        0.1335110000    0.0066590000   -0.0000000000
13   
From optimize.out: Frame 24 / 38, Energy=    -286.8753600676
C        0.0486530000   -0.2311670000   -0.0000000000
C       -0.1159290000    0.6932330000   -0.0000000000
C       -0.1930120000   -0.0538850000   -0.0000000000
C       -0.0753680000    0.0297600000   -0.0000000000
C       -0.0613580000   -0.0279940000   -0.0000000000
N       -0.3520070000    0.5196720000   -0.0000000000
H        0.1404230000    0.0074610000   -0.0000000000
H        0.1433530000   -0.0321890000   -0.0000000000
H        0.1485570000    0.0255080000   -0.0000000000
H        0.1375280000    0.0036260000   -0.0000000000
H        0.1517090000    0.0256090000   -0.0000000000
C       -0.1058020000    0.0336840000   -0.0000000000
H        0.1332530000    0.0066820000   -0.0000000000
13   
From optimize.out: Frame 25 / 38, Energy=    -286.8753971342
C        0.0483430000   -0.2310980000   -0.0000000000
C       -0.1153050000    0.6922140000   -0.0000000000
C       -0.1933950000   -0.0538020000   -0.0000000000
C       -0.0758480000    0.0306280000   -0.0000000000
C       -0.0612070000   -0.0282340000   -0.0000000000
N       -0.3518430000    0.5201000000   -0.0000000000
H        0.1404600000    0.0074600000   -0.0000000000
H        0.1434490000   -0.0321300000   -0.0000000000
H        0.1485940000    0.0255830000   -0.0000000000
H        0.1373710000    0.0036680000   -0.0000000000
H        0.1517000000    0.0256110000   -0.0000000000
C       -0.1054190000    0.0332870000   -0.0000000000
H        0.1330990000    0.0067130000   -0.0000000000
13   
From optimize.out: Frame 26 / 38, Energy=    -286.8754190541
C        0.0480750000   -0.2311770000   -0.0000000000
C       -0.1150220000    0.6921130000   -0.0000000000
C       -0.1936960000   -0.0537680000   -0.0000000000
C       -0.0764360000    0.0314690000   -0.0000000000
C       -0.0609860000   -0.0283810000   -0.0000000000
N       -0.3516820000    0.5199070000   -0.0000000000
H        0.1405070000    0.0074620000   -0.0000000000
H        0.1435450000   -0.0321140000   -0.0000000000
H        0.1485360000    0.0256410000   -0.0000000000
H        0.1372610000    0.0037010000   -0.0000000000
H        0.1518000000    0.0255060000   -0.0000000000
C       -0.1050140000    0.0328940000   -0.0000000000
H        0.1331130000    0.0067470000   -0.0000000000
13   
From optimize.out: Frame 27 / 38, Energy=    -286.8754324700
C        0.0480790000   -0.2311500000   -0.0000000000
C       -0.1150610000    0.6928830000   -0.0000000000
C       -0.1937760000   -0.0538090000   -0.0000000000
C       -0.0768570000    0.0319610000   -0.0000000000
C       -0.0609070000   -0.0283790000   -0.0000000000
N       -0.3516110000    0.5190310000   -0.0000000000
H        0.1405220000    0.0074580000   -0.0000000000
H        0.1435800000   -0.0321460000   -0.0000000000
H        0.1484180000    0.0256750000   -0.0000000000
H        0.1371890000    0.0037040000   -0.0000000000
H        0.1519540000    0.0253330000   -0.0000000000
C       -0.1047150000    0.0326720000   -0.0000000000
H        0.1331860000    0.0067680000   -0.0000000000
13   
From optimize.out: Frame 28 / 38, Energy=    -286.8754436168
C        0.0481680000   -0.2311260000   -0.0000000000
C       -0.1151600000    0.6936990000   -0.0000000000
C       -0.1937710000   -0.0538710000   -0.0000000000
C       -0.0770540000    0.0322980000   -0.0000000000
C       -0.0609530000   -0.0283040000   -0.0000000000
N       -0.3515920000    0.5181770000   -0.0000000000
H        0.1405400000    0.0074510000   -0.0000000000
H        0.1435900000   -0.0321810000   -0.0000000000
H        0.1482950000    0.0256720000   -0.0000000000
H        0.1371640000    0.0036780000   -0.0000000000
H        0.1520470000    0.0252050000   -0.0000000000
C       -0.1045410000    0.0325150000   -0.0000000000
H        0.1332680000    0.0067870000   -0.0000000000
13   
From optimize.out: Frame 29 / 38, Energy=    -286.8754541314
C        0.0483560000   -0.2310380000   -0.0000000000
C       -0.1152710000    0.6943550000   -0.0000000000
C       -0.1936810000   -0.0539290000   -0.0000000000
C       -0.0770180000    0.0325040000   -0.0000000000
C       -0.0611380000   -0.0281830000   -0.0000000000
N       -0.3516170000    0.5174450000   -0.0000000000
H        0.1405540000    0.0074410000   -0.0000000000
H        0.1435570000   -0.0322100000   -0.0000000000
H        0.1481740000    0.0256390000   -0.0000000000
H        0.1371730000    0.0036280000   -0.0000000000
H        0.1520850000    0.0251230000   -0.0000000000
C       -0.1044850000    0.0324220000   -0.0000000000
H        0.1333110000    0.0068020000   -0.0000000000
13   
From optimize.out: Frame 30 / 38, Energy=    -286.8754635595
C        0.0485070000   -0.2309690000   -0.0000000000
C       -0.1153090000    0.6944470000   -0.0000000000
C       -0.1935880000   -0.0539430000   -0.0000000000
C       -0.0767860000    0.0326400000   -0.0000000000
C       -0.0613620000   -0.0280800000   -0.0000000000
N       -0.3516570000    0.5172230000   -0.0000000000
H        0.1405780000    0.0074330000   -0.0000000000
H        0.1434990000   -0.0322120000   -0.0000000000
H        0.1480960000    0.0255790000   -0.0000000000
H        0.1372310000    0.0035740000   -0.0000000000
H        0.1520270000    0.0251280000   -0.0000000000
C       -0.1045390000    0.0323640000   -0.0000000000
H        0.1333020000    0.0068150000   -0.0000000000
13   
From optimize.out: Frame 31 / 38, Energy=    -286.8754723535
C        0.0485960000   -0.2309060000   -0.0000000000
C       -0.1152920000    0.6940840000   -0.0000000000
C       -0.1935240000   -0.0539060000   -0.0000000000
C       -0.0764850000    0.0327460000   -0.0000000000
C       -0.0615410000   -0.0280140000   -0.0000000000
N       -0.3516850000    0.5173800000   -0.0000000000
H        0.1406020000    0.0074290000   -0.0000000000
H        0.1434210000   -0.0321920000   -0.0000000000
H        0.1480570000    0.0255050000   -0.0000000000
H        0.1373210000    0.0035330000   -0.0000000000
H        0.1519210000    0.0251760000   -0.0000000000
C       -0.1046370000    0.0323400000   -0.0000000000
H        0.1332460000    0.0068260000   -0.0000000000
13   
From optimize.out: Frame 32 / 38, Energy=    -286.8754803687
C        0.0485740000   -0.2308830000   -0.0000000000
C       -0.1152280000    0.6934510000   -0.0000000000
C       -0.1935330000   -0.0538280000   -0.0000000000
C       -0.0762440000    0.0328660000   -0.0000000000
C       -0.0616010000   -0.0279940000   -0.0000000000
N       -0.3516760000    0.5177600000   -0.0000000000
H        0.1406260000    0.0074290000   -0.0000000000
H        0.1433490000   -0.0321580000   -0.0000000000
H        0.1480530000    0.0254270000   -0.0000000000
H        0.1374310000    0.0035160000   -0.0000000000
H        0.1517940000    0.0252350000   -0.0000000000
C       -0.1047210000    0.0323420000   -0.0000000000
H        0.1331760000    0.0068360000   -0.0000000000
13   
From optimize.out: Frame 33 / 38, Energy=    -286.8754863620
C        0.0484820000   -0.2308690000   -0.0000000000
C       -0.1151570000    0.6929720000   -0.0000000000
C       -0.1936090000   -0.0537550000   -0.0000000000
C       -0.0761720000    0.0329660000   -0.0000000000
C       -0.0615390000   -0.0279990000   -0.0000000000
N       -0.3516280000    0.5179890000   -0.0000000000
H        0.1406310000    0.0074320000   -0.0000000000
H        0.1433050000   -0.0321310000   -0.0000000000
H        0.1480640000    0.0253730000   -0.0000000000
H        0.1375140000    0.0035290000   -0.0000000000
H        0.1517160000    0.0252510000   -0.0000000000
C       -0.1047440000    0.0323970000   -0.0000000000
H        0.1331360000    0.0068450000   -0.0000000000
13   
From optimize.out: Frame 34 / 38, Energy=    -286.8754901978
C        0.0483850000   -0.2308510000   -0.0000000000
C       -0.1150900000    0.6928450000   -0.0000000000
C       -0.1937090000   -0.0537290000   -0.0000000000
C       -0.0762280000    0.0330020000   -0.0000000000
C       -0.0614420000   -0.0279960000   -0.0000000000
N       -0.3515710000    0.5179250000   -0.0000000000
H        0.1406180000    0.0074350000   -0.0000000000
H        0.1433030000   -0.0321230000   -0.0000000000
H        0.1480710000    0.0253500000   -0.0000000000
H        0.1375430000    0.0035560000   -0.0000000000
H        0.1516940000    0.0252240000   -0.0000000000
C       -0.1047220000    0.0325100000   -0.0000000000
H        0.1331480000    0.0068510000   -0.0000000000
13   
From optimize.out: Frame 35 / 38, Energy=    -286.8754931215
C        0.0483240000   -0.2308050000   -0.0000000000
C       -0.1150150000    0.6929630000   -0.0000000000
C       -0.1937940000   -0.0537480000   -0.0000000000
C       -0.0763050000    0.0329650000   -0.0000000000
C       -0.0613910000   -0.0279650000   -0.0000000000
N       -0.3515200000    0.5176350000   -0.0000000000
H        0.1405910000    0.0074350000   -0.0000000000
H        0.1433210000   -0.0321280000   -0.0000000000
H        0.1480620000    0.0253490000   -0.0000000000
H        0.1375300000    0.0035830000   -0.0000000000
H        0.1517010000    0.0251750000   -0.0000000000
C       -0.1046980000    0.0326850000   -0.0000000000
H        0.1331930000    0.0068570000   -0.0000000000
13   
From optimize.out: Frame 36 / 38, Energy=    -286.8754958717
C        0.0482980000   -0.2307320000   -0.0000000000
C       -0.1149110000    0.6931760000   -0.0000000000
C       -0.1938550000   -0.0538070000   -0.0000000000
C       -0.0763350000    0.0328420000   -0.0000000000
C       -0.0614150000   -0.0279000000   -0.0000000000
N       -0.3514830000    0.5172350000   -0.0000000000
H        0.1405590000    0.0074320000   -0.0000000000
H        0.1433510000   -0.0321400000   -0.0000000000
H        0.1480380000    0.0253550000   -0.0000000000
H        0.1374880000    0.0036040000   -0.0000000000
H        0.1517070000    0.0251290000   -0.0000000000
C       -0.1047020000    0.0329440000   -0.0000000000
H        0.1332590000    0.0068630000   -0.0000000000
13   
From optimize.out: Frame 37 / 38, Energy=    -286.8754980584
C        0.0483070000   -0.2306590000   -0.0000000000
C       -0.1148020000    0.6933340000   -0.0000000000
C       -0.1938650000   -0.0538800000   -0.0000000000
C       -0.0762750000    0.0326660000   -0.0000000000
C       -0.0615180000   -0.0278210000   -0.0000000000
N       -0.3514670000    0.5169110000   -0.0000000000
H        0.1405360000    0.0074280000   -0.0000000000
H        0.1433750000   -0.0321500000   -0.0000000000
H        0.1480090000    0.0253580000   -0.0000000000
H        0.1374390000    0.0036120000   -0.0000000000
H        0.1516950000    0.0251100000   -0.0000000000
C       -0.1047450000    0.0332210000   -0.0000000000
H        0.1333130000    0.0068680000   -0.0000000000
