13   
From optimize.out: Frame 1 / 38, Energy=    -286.6105207535
C        1.6618174334    0.2115225506   -2.2107922527
C        1.1629364380   -0.9760588517   -2.0988638438
C       -0.2169433251   -1.2371443988   -2.3679373644
C       -1.4366963231    0.4312472604   -0.6186437886
C       -0.8635881300    0.8884109338   -1.9555944856
N        0.9045856183    1.4317804738   -2.6832781371
H        2.6707808131    0.1417703155   -1.7422032854
H        1.7548475705   -1.7061573825   -1.5068034230
H       -0.8397795963   -1.8402756146   -2.9702527282
H       -2.0757290003    0.9480777982    0.1703378286
H       -1.2889223129    1.5597027516   -2.7778466506
C       -1.2607651677   -0.8366902445   -1.0451037117
H       -1.7376353396   -1.5271014875   -0.4080473026
13   
From optimize.out: Frame 2 / 38, Energy=    -286.7039125707
C        1.4919291047    0.2523503810   -2.0971416776
C        1.1079530693   -0.9934768951   -2.0959844697
C       -0.2688417605   -1.2480593579   -2.3756637197
C       -1.2597526613    0.4372339783   -0.6922743644
C       -0.6969325922    0.7983196742   -2.0586483116
N        0.5390046372    1.3595180860   -2.3912367883
H        2.5121434988    0.3009047182   -1.6601131061
H        1.7491429903   -1.7355411906   -1.5813727253
H       -0.8975973469   -1.8067806251   -3.0231833109
H       -1.8158145835    1.0312456513    0.0881030629
H       -1.0928823217    1.4636415863   -2.8851038442
C       -1.2165504459   -0.8578517909   -1.0583999946
H       -1.7168929099   -1.5124201116   -0.3840098955
13   
From optimize.out: Frame 3 / 38, Energy=    -286.7697086386
C        1.5092096695    0.2764269785   -2.0075471399
C        1.0746579593   -0.9688646614   -2.1051818102
C       -0.3270353599   -1.2104254828   -2.3558517874
C       -1.2134407558    0.4426326479   -0.7663950717
C       -0.7313154735    0.7473362139   -2.1707548734
N        0.5754823525    1.3823233341   -2.1165709485
H        2.5455747387    0.3050380777   -1.6221994530
H        1.7229641967   -1.7509827177   -1.6760936743
H       -0.9463873653   -1.7609128761   -3.0311828394
H       -1.7261007675    1.0649896279   -0.0005974454
H       -1.1989593815    1.3467457347   -2.9966338657
C       -1.1951332718   -0.8695775740   -1.0485947215
H       -1.6546078631   -1.5156451984   -0.3174255146
13   
From optimize.out: Frame 4 / 38, Energy=    -286.8110778128
C        1.5347955455    0.3083722971   -1.9835022594
C        1.0501208529   -0.9438575579   -2.1015275156
C       -0.3817030208   -1.1491176875   -2.2968393310
C       -1.2215285640    0.4236803182   -0.7943062060
C       -0.6869952372    0.6912622887   -2.1856761595
N        0.6241183025    1.3651216357   -2.0178156055
H        2.5871959573    0.3733139855   -1.6749706737
H        1.7006449791   -1.7560124380   -1.7532523907
H       -0.9791903453   -1.6942758036   -3.0084728277
H       -1.7394404704    1.0612884020   -0.0695506017
H       -1.1524675465    1.2481959602   -3.0264338872
C       -1.2160494521   -0.8901848750   -1.0174876183
H       -1.6845923226   -1.5487024210   -0.2851940688
13   
From optimize.out: Frame 5 / 38, Energy=    -286.8349188051
C        1.5507619124    0.2978455214   -1.9671097348
C        1.0639038190   -0.9671636076   -2.0893914610
C       -0.3896664123   -1.0829122240   -2.2577947281
C       -1.2327509432    0.4303995584   -0.8090974781
C       -0.6706152774    0.6945194669   -2.1853134861
N        0.6030559374    1.2602163127   -2.0099223314
H        2.6001815726    0.4442066444   -1.6969503638
H        1.6964906263   -1.8086637066   -1.7912313589
H       -0.9619111552   -1.6105522925   -3.0124639274
H       -1.7633879301    1.0684850064   -0.1091107967
H       -1.1617542313    1.2155992847   -3.0224285674
C       -1.2186787010   -0.8856137721   -0.9945270470
H       -1.6807205389   -1.5672820877   -0.2696878645
13   
From optimize.out: Frame 6 / 38, Energy=    -286.8539677569
C        1.5751250682    0.3258765441   -1.9738527164
C        1.0513195598   -0.9511259862   -2.0847002178
C       -0.4261463373   -1.0249536566   -2.2037821569
C       -1.2685800208    0.4097422716   -0.8107624185
C       -0.6232083346    0.6361531300   -2.1477224252
N        0.6854943090    1.2831406726   -2.0225989295
H        2.6287026618    0.4984144484   -1.7655402646
H        1.6665887063   -1.8187905875   -1.8439113727
H       -0.9469760530   -1.5509927020   -3.0072899357
H       -1.8141180679    1.0680359990   -0.1551368638
H       -1.0931877291    1.1324900390   -2.9984465348
C       -1.2614867517   -0.9085432216   -0.9527535865
H       -1.7386183324   -1.6103628465   -0.2485317226
13   
From optimize.out: Frame 7 / 38, Energy=    -286.8623736959
C        1.5653816437    0.3110588794   -1.9321101562
C        1.0572325203   -0.9782758782   -2.1010096114
C       -0.4208093662   -0.9689354049   -2.1990552861
C       -1.2874936010    0.4299301022   -0.8358689306
C       -0.6217078312    0.6057803527   -2.1745618307
N        0.6730263131    1.2806256842   -1.9080181984
H        2.6203300088    0.4984658981   -1.7477305444
H        1.6572241508   -1.8733389454   -1.9355024988
H       -0.9327121607   -1.4724333900   -3.0250393749
H       -1.8471501555    1.1105111448   -0.2084079384
H       -1.1272537763    1.0419555047   -3.0361431354
C       -1.2328154298   -0.8943021474   -0.9147749680
H       -1.6683436378   -1.6019576960   -0.1968066716
13   
From optimize.out: Frame 8 / 38, Energy=    -286.8712549342
C        1.5857965009    0.2893228591   -1.9407327039
C        1.0614998897   -1.0130777316   -2.0754443774
C       -0.4236405023   -0.9364867266   -2.1888463518
C       -1.3305434660    0.4353163309   -0.8413337479
C       -0.6100119420    0.6589392203   -2.1462893385
N        0.7014556716    1.2807081666   -1.9773543012
H        2.6388528620    0.5103509550   -1.7818716715
H        1.6354393974   -1.9220891721   -1.9146663570
H       -0.8867307132   -1.4681561197   -3.0313859684
H       -1.9171028770    1.1044990873   -0.2265627521
H       -1.1563777001    1.0825259504   -2.9886673732
C       -1.2259657912   -0.8930509318   -0.8960142282
H       -1.6377626515   -1.6397177836   -0.2058599740
13   
From optimize.out: Frame 9 / 38, Energy=    -286.8735130900
C        1.5817678140    0.2875133487   -1.9405915864
C        1.0609462465   -1.0255627364   -2.0356422985
C       -0.4242323803   -0.9182267710   -2.1806346301
C       -1.3383035661    0.4271316517   -0.8506900904
C       -0.6061409240    0.6387005477   -2.1635030285
N        0.6959802496    1.2702458875   -2.0241292722
H        2.6316163893    0.5364971593   -1.7998552860
H        1.6280049528   -1.9374031504   -1.8838368441
H       -0.8479031881   -1.4614487198   -3.0377878815
H       -1.8675578522    1.1242457586   -0.2114142375
H       -1.1787374341    1.1257751631   -2.9580942984
C       -1.2591249229   -0.9051232749   -0.9025132361
H       -1.6414067061   -1.6732607599   -0.2263364553
13   
From optimize.out: Frame 10 / 38, Energy=    -286.8745875430
C        1.5984660065    0.2781524588   -1.9462810461
C        1.0636862675   -1.0248593577   -2.0333785736
C       -0.4231553907   -0.9038339822   -2.1855357417
C       -1.3986447960    0.4379624932   -0.8605103867
C       -0.6088470342    0.6598601548   -2.1534454473
N        0.7237540655    1.2649226735   -1.9900851398
H        2.6536489345    0.5145745705   -1.8130273955
H        1.6244092252   -1.9440720347   -1.9146352792
H       -0.8362885724   -1.4790256476   -3.0257372755
H       -1.9156355389    1.1476971410   -0.2174560450
H       -1.1907197768    1.1207003346   -2.9646645323
C       -1.2578658372   -0.8944150173   -0.8833234005
H       -1.5978988747   -1.6885796826   -0.2269488818
13   
From optimize.out: Frame 20 / 38, Energy=    -286.8748596809
C        1.5898364089    0.2626223214   -1.9752896683
C        1.0481059676   -1.0310606989   -2.0483264783
C       -0.4382650753   -0.9082147793   -2.1714343083
C       -1.3731168173    0.4412691576   -0.8259516932
C       -0.6022044446    0.6607653352   -2.1360246868
N        0.7157872294    1.2652584010   -1.9908781725
H        2.6530718196    0.4825022454   -1.8746089576
H        1.6085704180   -1.9563905542   -1.9610802462
H       -0.8761500173   -1.4698487486   -3.0111992761
H       -1.8489351451    1.1820363389   -0.1847490375
H       -1.1587155848    1.1543003591   -2.9416079805
C       -1.2651270408   -0.8896552698   -0.8640032567
H       -1.6179490400   -1.7045000037   -0.2298753829
13   
From optimize.out: Frame 21 / 38, Energy=    -286.8751462519
C        1.5863010604    0.2637776106   -1.9707745732
C        1.0462963129   -1.0311163890   -2.0492749280
C       -0.4407320412   -0.9091479414   -2.1678682170
C       -1.3816822803    0.4473193252   -0.8357685240
C       -0.6060226315    0.6604321746   -2.1366109978
N        0.7131599096    1.2649063992   -1.9898006561
H        2.6497158833    0.4818387582   -1.8716388778
H        1.6107457288   -1.9553794574   -1.9659826160
H       -0.8728795337   -1.4693917674   -3.0102209444
H       -1.8366685659    1.1760257582   -0.1703061711
H       -1.1515473357    1.1465010473   -2.9512868053
C       -1.2656379777   -0.8849463031   -0.8643761859
H       -1.6161398507   -1.7017351105   -0.2311196484
13   
From optimize.out: Frame 22 / 38, Energy=    -286.8752548632
C        1.5852560544    0.2630404594   -1.9681803981
C        1.0457731928   -1.0315115721   -2.0508665142
C       -0.4403037363   -0.9101519145   -2.1675051397
C       -1.3854987318    0.4510373030   -0.8413613642
C       -0.6066196565    0.6610652372   -2.1355112332
N        0.7133216991    1.2654022260   -1.9892020080
H        2.6483571211    0.4784543077   -1.8679481825
H        1.6118851019   -1.9542266574   -1.9694215544
H       -0.8735696698   -1.4689355741   -3.0084400068
H       -1.8354341606    1.1709362105   -0.1652786820
H       -1.1525812308    1.1422302048   -2.9540277825
C       -1.2634084422   -0.8821443448   -0.8658976489
H       -1.6122688631   -1.6961117815   -0.2313886307
13   
From optimize.out: Frame 23 / 38, Energy=    -286.8753120904
C        1.5852786610    0.2617295779   -1.9662507521
C        1.0458731445   -1.0315666935   -2.0514744167
C       -0.4389508880   -0.9095938743   -2.1678530156
C       -1.3866318809    0.4524236070   -0.8439092891
C       -0.6064301840    0.6611879052   -2.1355883936
N        0.7147001793    1.2649666515   -1.9895265499
H        2.6481951311    0.4760444214   -1.8644166206
H        1.6125287691   -1.9536942852   -1.9721568790
H       -0.8753648848   -1.4670762775   -3.0068497112
H       -1.8369433269    1.1668728876   -0.1632883942
H       -1.1564255719    1.1390954342   -2.9550798047
C       -1.2616985085   -0.8808016183   -0.8679908852
H       -1.6092219618   -1.6905036319   -0.2306444332
13   
From optimize.out: Frame 24 / 38, Energy=    -286.8753600676
C        1.5855902461    0.2603663992   -1.9645622137
C        1.0457449249   -1.0317314531   -2.0507187160
C       -0.4377639388   -0.9086646710   -2.1690409961
C       -1.3867459790    0.4523859285   -0.8447838843
C       -0.6052267989    0.6623204080   -2.1366082549
N        0.7162068202    1.2654682994   -1.9916503265
H        2.6480421540    0.4741967042   -1.8606739542
H        1.6124612124   -1.9532678803   -1.9742137730
H       -0.8772921382   -1.4661604728   -3.0055088896
H       -1.8386338568    1.1627423702   -0.1605110125
H       -1.1602523583    1.1369343152   -2.9565340627
C       -1.2606745678   -0.8802682956   -0.8707515120
H       -1.6065470415   -1.6852375477   -0.2294715496
13   
From optimize.out: Frame 25 / 38, Energy=    -286.8753971342
C        1.5857364185    0.2596665263   -1.9628745057
C        1.0454186003   -1.0317075120   -2.0485638732
C       -0.4373211103   -0.9070829754   -2.1703056144
C       -1.3856754816    0.4514758347   -0.8444526338
C       -0.6040972864    0.6634201711   -2.1390373994
N        0.7173479809    1.2658095566   -1.9952917850
H        2.6478142276    0.4741319963   -1.8570062667
H        1.6118766106   -1.9534947445   -1.9757343334
H       -0.8786668001   -1.4651922349   -3.0050021805
H       -1.8384525885    1.1587898114   -0.1567181056
H       -1.1628144698    1.1350130870   -2.9587364419
C       -1.2609637624   -0.8802511199   -0.8735619665
H       -1.6052936605   -1.6814942924   -0.2277440391
13   
From optimize.out: Frame 26 / 38, Energy=    -286.8754190541
C        1.5855481214    0.2599584386   -1.9617838300
C        1.0447948810   -1.0316762751   -2.0459317195
C       -0.4378741556   -0.9061484587   -2.1716157578
C       -1.3843288060    0.4507083406   -0.8437116324
C       -0.6033745749    0.6645591168   -2.1413811494
N        0.7175405188    1.2666569399   -1.9989499629
H        2.6473052330    0.4750115192   -1.8542890327
H        1.6108066684   -1.9540629241   -1.9762923893
H       -0.8788618501   -1.4657476920   -3.0055751031
H       -1.8364501127    1.1564029738   -0.1529393193
H       -1.1632094898    1.1343511357   -2.9609118111
C       -1.2620783541   -0.8803945662   -0.8752508673
H       -1.6049094011   -1.6805344441   -0.2263965702
13   
From optimize.out: Frame 27 / 38, Energy=    -286.8754324700
C        1.5851324172    0.2607442534   -1.9610001170
C        1.0442080779   -1.0314786995   -2.0437597542
C       -0.4387623420   -0.9057269346   -2.1726708509
C       -1.3829070032    0.4506460833   -0.8433153392
C       -0.6033807629    0.6650133432   -2.1432770253
N        0.7172111815    1.2671102126   -2.0015590271
H        2.6468039309    0.4761007458   -1.8519426411
H        1.6096779953   -1.9548514578   -1.9766819734
H       -0.8785307697   -1.4666574802   -3.0068072414
H       -1.8337715998    1.1553133953   -0.1504470582
H       -1.1630549964    1.1341308820   -2.9622831471
C       -1.2631575401   -0.8802999417   -0.8758933774
H       -1.6045599102   -1.6809602974   -0.2253915928
13   
From optimize.out: Frame 28 / 38, Energy=    -286.8754436168
C        1.5846217543    0.2616323422   -1.9602503910
C        1.0435574369   -1.0312326459   -2.0420285480
C       -0.4397424325   -0.9058487477   -2.1738734645
C       -1.3815378057    0.4512406737   -0.8433642846
C       -0.6037892912    0.6651889576   -2.1447020147
N        0.7166196184    1.2675806737   -2.0034127052
H        2.6462256725    0.4767419529   -1.8490223569
H        1.6083102229   -1.9556230814   -1.9773681237
H       -0.8780320707   -1.4682147225   -3.0084694918
H       -1.8310170228    1.1550203351   -0.1487860615
H       -1.1632357631    1.1341822502   -2.9631982411
C       -1.2637750589   -0.8798944599   -0.8759928730
H       -1.6032965817   -1.6816894237   -0.2245605891
13   
From optimize.out: Frame 29 / 38, Energy=    -286.8754541314
C        1.5840487715    0.2623214431   -1.9592823840
C        1.0428816193   -1.0308989644   -2.0409313374
C       -0.4406226343   -0.9062771849   -2.1751502810
C       -1.3801237494    0.4523360456   -0.8438429071
C       -0.6045737726    0.6649183448   -2.1459014781
N        0.7159102835    1.2677077707   -2.0045752722
H        2.6456074069    0.4769136199   -1.8449473961
H        1.6067178126   -1.9563261856   -1.9787476399
H       -0.8776482816   -1.4698319891   -3.0103784572
H       -1.8284510765    1.1553071565   -0.1481189747
H       -1.1643485210    1.1340819762   -2.9636154189
C       -1.2636500528   -0.8791918331   -0.8758436054
H       -1.6008391275   -1.6819760955   -0.2236939931
13   
From optimize.out: Frame 30 / 38, Energy=    -286.8754635595
C        1.5835151428    0.2625266427   -1.9581618278
C        1.0421709224   -1.0306207842   -2.0407131928
C       -0.4412768055   -0.9069019824   -2.1763259744
C       -1.3790478893    0.4534736575   -0.8444967543
C       -0.6054846302    0.6644144719   -2.1467483973
N        0.7151978415    1.2675911411   -2.0050735297
H        2.6449289390    0.4766120110   -1.8401102090
H        1.6050382073   -1.9567274820   -1.9807292366
H       -0.8773817468   -1.4713015159   -3.0120934532
H       -1.8264606141    1.1562151882   -0.1482712380
H       -1.1661399758    1.1338398639   -2.9638125308
C       -1.2627207628   -0.8784481998   -0.8756290908
H       -1.5974299502   -1.6815889079   -0.2228637103
13   
From optimize.out: Frame 31 / 38, Energy=    -286.8754723535
C        1.5829713735    0.2622277706   -1.9568649886
C        1.0414049587   -1.0304303387   -2.0413414591
C       -0.4417467236   -0.9074792527   -2.1772395573
C       -1.3783321556    0.4542716897   -0.8450594554
C       -0.6064066594    0.6637490527   -2.1474959816
N        0.7144833781    1.2671253133   -2.0052044128
H        2.6441243641    0.4762357577   -1.8347625801
H        1.6033485291   -1.9568620545   -1.9831823002
H       -0.8771799843   -1.4722639778   -3.0134064845
H       -1.8248218467    1.1576569491   -0.1490145311
H       -1.1681733465    1.1333667547   -2.9640033408
C       -1.2611979640   -0.8778785007   -0.8754801267
H       -1.5935652451   -1.6806350591   -0.2219739270
13   
From optimize.out: Frame 32 / 38, Energy=    -286.8754803687
C        1.5823602912    0.2615971046   -1.9554666026
C        1.0405445066   -1.0303837396   -2.0425776489
C       -0.4421557357   -0.9078766591   -2.1778869613
C       -1.3780262526    0.4544723419   -0.8453459496
C       -0.6072178558    0.6631800519   -2.1482720751
N        0.7137460144    1.2665332992   -2.0052871588
H        2.6430837607    0.4760898475   -1.8293733386
H        1.6017116298   -1.9568047578   -1.9857799700
H       -0.8769139618   -1.4728086349   -3.0141888907
H       -1.8231465633    1.1595031400   -0.1498542907
H       -1.1697864623    1.1328176774   -2.9645739009
C       -1.2594907509   -0.8776585984   -0.8754338620
H       -1.5897999418   -1.6795769683   -0.2209884958
13   
From optimize.out: Frame 33 / 38, Energy=    -286.8754863620
C        1.5817155755    0.2610063740   -1.9542593545
C        1.0397844754   -1.0304465041   -2.0439463988
C       -0.4425099418   -0.9079540476   -2.1782343564
C       -1.3779983203    0.4540723040   -0.8453543740
C       -0.6077525831    0.6629125875   -2.1490867571
N        0.7131013065    1.2660329769   -2.0054825084
H        2.6419502574    0.4763600119   -1.8251339205
H        1.6004982161   -1.9567127249   -1.9878020961
H       -0.8767074728   -1.4729505302   -3.0143035465
H       -1.8213858725    1.1611630808   -0.1504709384
H       -1.1704066174    1.1324078039   -2.9654517228
C       -1.2582293371   -0.8778334914   -0.8754788338
H       -1.5871510075   -1.6789737364   -0.2200243378
13   
From optimize.out: Frame 34 / 38, Energy=    -286.8754901978
C        1.5811458865    0.2607568099   -1.9534641533
C        1.0392963348   -1.0305329716   -2.0449993286
C       -0.4427811859   -0.9078135999   -2.1784499579
C       -1.3780568873    0.4534712579   -0.8453337178
C       -0.6080011345    0.6630006415   -2.1497759893
N        0.7126590633    1.2658660698   -2.0056994332
H        2.6409548069    0.4767908574   -1.8225806117
H        1.5998845351   -1.9566827395   -1.9888896475
H       -0.8767555194   -1.4730616964   -3.0139241768
H       -1.8197471271    1.1621820324   -0.1507545451
H       -1.1701517054    1.1323392823   -2.9663918709
C       -1.2576959276   -0.8781918937   -0.8755288756
H       -1.5858424612   -1.6790399456   -0.2192368374
13   
From optimize.out: Frame 35 / 38, Energy=    -286.8754931215
C        1.5806218649    0.2607957629   -1.9528985564
C        1.0390342601   -1.0305700058   -2.0458672297
C       -0.4429771743   -0.9076110773   -2.1787306108
C       -1.3780285353    0.4529808986   -0.8455249425
C       -0.6081420677    0.6632577596   -2.1503898307
N        0.7123451386    1.2659284610   -2.0057815605
H        2.6400731725    0.4771157853   -1.8207514256
H        1.5996579676   -1.9567108687   -1.9894959714
H       -0.8772383201   -1.4733666092   -3.0132878060
H       -1.8182115730    1.1627062110   -0.1510303288
H       -1.1696372246    1.1325492149   -2.9672175430
C       -1.2575309988   -0.8785282527   -0.8755354161
H       -1.5850578316   -1.6794631753   -0.2185179235
13   
From optimize.out: Frame 36 / 38, Energy=    -286.8754958717
C        1.5801024394    0.2610087966   -1.9523759642
C        1.0389249840   -1.0305469760   -2.0468142724
C       -0.4431199307   -0.9074272236   -2.1792027045
C       -1.3779070728    0.4527049141   -0.8460645127
C       -0.6083071877    0.6635800435   -2.1509945684
N        0.7120768191    1.2661395336   -2.0055883720
H        2.6392068769    0.4771728439   -1.8187625917
H        1.5996575591   -1.9567520352   -1.9900784690
H       -0.8783280069   -1.4740193870   -3.0124393022
H       -1.8167223851    1.1629791789   -0.1515220061
H       -1.1691952508    1.1330017336   -2.9679943767
C       -1.2573948441   -0.8787573358   -0.8754706214
H       -1.5840853222   -1.6799999822   -0.2177213839
13   
From optimize.out: Frame 37 / 38, Energy=    -286.8754980584
C        1.5797304692    0.2612370576   -1.9519525607
C        1.0389803278   -1.0304842227   -2.0477791682
C       -0.4431763066   -0.9073441003   -2.1797670530
C       -1.3777609767    0.4527543303   -0.8468533572
C       -0.6085068024    0.6637972012   -2.1514745130
N        0.7118841109    1.2663428681   -2.0050844631
H        2.6385747364    0.4768778504   -1.8166792403
H        1.5998566521   -1.9567657901   -1.9907637934
H       -0.8799099622   -1.4748478967   -3.0115782878
H       -1.8157978581    1.1630515192   -0.1522596604
H       -1.1690782561    1.1335521336   -2.9685230560
C       -1.2570896961   -0.8787695914   -0.8753338584
H       -1.5827977598   -1.6803172550   -0.2169801335
