13   
From optimize.out: Frame 1 / 2, Energy=    -286.9243440152
C        1.3374088556    0.8630327542   -0.5692167788
C        0.2717232502   -1.4149392997   -0.2190670591
C       -0.9148941645   -1.0760410417    0.3592297020
C       -1.3808469394    0.2523161617    0.6636972589
C       -0.7390608738    1.4560185790    0.4365928386
N        0.4570638263    1.7816787336   -0.1031862444
H        2.2450018753    1.3291826855   -0.9589944881
H        0.4654123397   -2.4734959299   -0.3795090058
H       -1.5903632012   -1.8875257230    0.6227485735
H       -2.3618319473    0.3238665003    1.1270289569
H       -1.2999171019    2.3394086893    0.7502820903
C        1.3143766211   -0.5156861831   -0.6458662843
H        2.1959274605   -0.9778159267   -1.0837395593
13   
From optimize.out: Frame 38 / 39, Energy=    -286.9243440236
C        1.3452290996    0.8639939312   -0.5445295076
C        0.2712568725   -1.4156140372   -0.2171282765
C       -0.9007732295   -1.0798263303    0.3894950535
C       -1.3838129674    0.2546336995    0.6476575414
C       -0.7389565349    1.4546123258    0.4376151236
N        0.4968753846    1.7760658483   -0.0262842695
H        2.2596942057    1.3251391444   -0.9255973475
H        0.4710668705   -2.4753717646   -0.3627381585
H       -1.5641489929   -1.8906271505    0.6827991920
H       -2.3848625621    0.3256890080    1.0662558554
H       -1.3182355346    2.3401401464    0.7064408741
C        1.2908773050   -0.5132927974   -0.6874809998
H        2.1557900835   -0.9655420237   -1.1665050808
13   
From optimize.out: Frame 37 / 39, Energy=    -286.9243414284
C        1.3533564927    0.8694295171   -0.5178067459
C        0.2651143738   -1.4076156022   -0.2266076384
C       -0.8863518189   -1.0826690965    0.4300007151
C       -1.3779917689    0.2547187790    0.6530616735
C       -0.7470744276    1.4491611670    0.4265611446
N        0.5270399733    1.7667946802    0.0258552127
H        2.2891529325    1.3165281820   -0.8627687716
H        0.4701933007   -2.4655977874   -0.3791140922
H       -1.5357457375   -1.8945599689    0.7481685561
H       -2.3960250280    0.3232174008    1.0309794973
H       -1.3408377760    2.3396487289    0.6353653585
C        1.2644416648   -0.5103870129   -0.7283228346
H        2.1147278191   -0.9586689872   -1.2353720751
13   
From optimize.out: Frame 37 / 39, Energy=    -286.9243414284
C        1.3600792870    0.8726219563   -0.4965182279
C        0.2635064927   -1.4025363668   -0.2384239155
C       -0.8709087218   -1.0799087643    0.4703146983
C       -1.3786764203    0.2559745391    0.6565786102
C       -0.7584731858    1.4457351437    0.4076166350
N        0.5389817930    1.7529108186    0.0496380609
H        2.3257278063    1.3039357768   -0.7714280698
H        0.4584580863   -2.4608749529   -0.4023586349
H       -1.5018894146   -1.8953552571    0.8126224531
H       -2.4029257151    0.3234303508    1.0187113664
H       -1.3613948669    2.3391430157    0.5697483156
C        1.2424892902   -0.5059842641   -0.7763660618
H        2.0850255692   -0.9490919959   -1.3001352296
13   
From optimize.out: Frame 36 / 39, Energy=    -286.9243305176
C        1.3705739120    0.8707641691   -0.4641644464
C        0.2705452071   -1.3999758113   -0.2447573985
C       -0.8532651768   -1.0748972583    0.4952575788
C       -1.3841197906    0.2557353650    0.6518615680
C       -0.7674081263    1.4447789846    0.3879703374
N        0.5476028832    1.7356650643    0.0778405455
H        2.3559054040    1.2920498075   -0.6870868065
H        0.4525777656   -2.4616728951   -0.4085986761
H       -1.4624958511   -1.8938475334    0.8668975923
H       -2.4106773534    0.3217726621    1.0087514877
H       -1.3721240302    2.3437935593    0.5062089637
C        1.2171421570   -0.4990935876   -0.8126335838
H        2.0357429994   -0.9350725262   -1.3775471620
13   
From optimize.out: Frame 34 / 39, Energy=    -286.9242877908
C        1.3874908308    0.8576996974   -0.4312692496
C        0.2518560933   -1.3905026634   -0.2566289990
C       -0.8487649984   -1.0642700179    0.5248580424
C       -1.3992249806    0.2519676190    0.6567312545
C       -0.7785121937    1.4299850144    0.3718952507
N        0.5592582716    1.7014718555    0.1228318369
H        2.3605637314    1.3040703029   -0.6685484369
H        0.4240813197   -2.4486947267   -0.4446954129
H       -1.4321722434   -1.8859185739    0.9339597618
H       -2.4333168851    0.3271842734    0.9895202835
H       -1.3737803922    2.3381423020    0.4518743792
C        1.2350603152   -0.5048122054   -0.8274960551
H        2.0474611314   -0.9163228772   -1.4230326554
13   
From optimize.out: Frame 34 / 39, Energy=    -286.9242877908
C        1.3627671005    0.8659627998   -0.4568118955
C        0.2728617583   -1.3953398274   -0.2693481042
C       -0.8092577720   -1.0516549820    0.5355597371
C       -1.3822334228    0.2598593589    0.6816697500
C       -0.7930853826    1.4508334820    0.3658136738
N        0.5375511198    1.7172591273    0.0715687253
H        2.3787074126    1.2572638250   -0.5722344403
H        0.3925641234   -2.4597061844   -0.4735073234
H       -1.3986407520   -1.8747970131    0.9321918000
H       -2.4185767415    0.3016342017    1.0138481969
H       -1.3935860090    2.3562416662    0.4392772784
C        1.2019602046   -0.4931416117   -0.8756165571
H        2.0489683607   -0.9344148423   -1.3924108410
13   
From optimize.out: Frame 33 / 39, Energy=    -286.9242220292
C        1.3593745811    0.8484682624   -0.4249597783
C        0.2843079863   -1.3824179126   -0.2760946032
C       -0.7843379420   -1.0331615883    0.5404303963
C       -1.3921038239    0.2691531151    0.6652538530
C       -0.7975350595    1.4609875775    0.3681976554
N        0.5443916483    1.6939905166    0.1142079755
H        2.3833702201    1.2237246041   -0.5314663636
H        0.4175752160   -2.4513331473   -0.4481983579
H       -1.3462936008   -1.8559414238    0.9749186393
H       -2.4404432758    0.2709944089    0.9556921782
H       -1.3847411340    2.3768557199    0.4224063977
C        1.1684639799   -0.4968105741   -0.8971890221
H        1.9879712043   -0.9245095583   -1.4631989703
13   
From optimize.out: Frame 32 / 39, Energy=    -286.9240219809
C        1.3758755288    0.8469287377   -0.3995167092
C        0.2885997482   -1.3875484844   -0.2531006389
C       -0.7893045011   -1.0322417581    0.5355071839
C       -1.4083586589    0.2728718764    0.6387218728
C       -0.7991988219    1.4583812563    0.3549477722
N        0.5538325743    1.6697013315    0.1569835044
H        2.4000266416    1.2180131440   -0.4958832125
H        0.4521317993   -2.4590202595   -0.3844091933
H       -1.3402030367   -1.8506868947    0.9942633257
H       -2.4572731063    0.2623519913    0.9271749428
H       -1.3678013988    2.3864816796    0.4106331030
C        1.1630907738   -0.4970541659   -0.9128368681
H        1.9285824577   -0.8881784541   -1.5724850828
13   
From optimize.out: Frame 31 / 39, Energy=    -286.9237375381
C        1.3916989954    0.8540177950   -0.3932598266
C        0.2937405365   -1.3890565254   -0.2256058125
C       -0.7969198127   -1.0375092968    0.5329885869
C       -1.4185360289    0.2723123905    0.6171693151
C       -0.7998106322    1.4526163389    0.3382016594
N        0.5581268088    1.6575585752    0.1750746249
H        2.4253424342    1.1966719031   -0.4327164343
H        0.4921507695   -2.4595380636   -0.3202341604
H       -1.3439722582   -1.8540051839    1.0004929724
H       -2.4642071179    0.2641020615    0.9174121437
H       -1.3568939010    2.3875422864    0.4020578483
C        1.1508028777   -0.4913362361   -0.9400937936
H        1.8684773287   -0.8533760449   -1.6714871232
13   
From optimize.out: Frame 31 / 39, Energy=    -286.9237375381
C        1.4001766066    0.8537483734   -0.3888581158
C        0.3042399068   -1.3762278610   -0.2095699349
C       -0.7921497987   -1.0385421396    0.5356764801
C       -1.4237259795    0.2704011259    0.5959902621
C       -0.7975780154    1.4488612527    0.3309489870
N        0.5622135851    1.6497378524    0.1889506496
H        2.4482655895    1.1518448913   -0.3605766995
H        0.5447370908   -2.4412074634   -0.2678845800
H       -1.3281073495   -1.8558385996    1.0151201342
H       -2.4715928984    0.2646388956    0.8884161912
H       -1.3500024996    2.3863554736    0.3964316928
C        1.1169375971   -0.4837716990   -0.9716283078
H        1.7865861653   -0.8300001023   -1.7530167590
13   
From optimize.out: Frame 30 / 39, Energy=    -286.9234865018
C        1.4147385960    0.8515318335   -0.3769160386
C        0.3178750331   -1.3742262614   -0.1874373073
C       -0.7928376818   -1.0445944995    0.5314473243
C       -1.4304754050    0.2666408962    0.5657064429
C       -0.7911934071    1.4424486488    0.3263882192
N        0.5701103189    1.6381857259    0.2126935844
H        2.4686230092    1.1279372628   -0.3194347987
H        0.6039564408   -2.4299218359   -0.2068490980
H       -1.3231357698   -1.8581216395    1.0247190172
H       -2.4802516502    0.2730514461    0.8514674589
H       -1.3374652210    2.3828183512    0.3999283284
C        1.0934341335   -0.4747705344   -0.9866772676
H        1.6866216034   -0.8009793939   -1.8350358652
13   
From optimize.out: Frame 29 / 39, Energy=    -286.9231423255
C        1.4303541608    0.8472007803   -0.3625571665
C        0.3292592457   -1.3737511134   -0.1675466954
C       -0.7962988549   -1.0524043670    0.5271067188
C       -1.4345774086    0.2589960428    0.5348485607
C       -0.7819441081    1.4338958620    0.3202614831
N        0.5803956699    1.6282132205    0.2339830530
H        2.4878552195    1.1022454861   -0.2836960304
H        0.6647130277   -2.4151640994   -0.1499423949
H       -1.3221013093   -1.8598121232    1.0359368130
H       -2.4859452347    0.2825545124    0.8157571261
H       -1.3243972350    2.3754374215    0.4023340301
C        1.0720086132   -0.4629411430   -0.9973687505
H        1.5806782138   -0.7644704796   -1.9091167469
13   
From optimize.out: Frame 27 / 39, Energy=    -286.9224230006
C        1.4439138304    0.8439013778   -0.3521148621
C        0.3354906260   -1.3717542372   -0.1551244464
C       -0.8009788007   -1.0602165283    0.5243811792
C       -1.4343815217    0.2464082122    0.5032290060
C       -0.7700182953    1.4231398875    0.3101733769
N        0.5928673107    1.6201822356    0.2484508879
H        2.5065156704    1.0664333069   -0.2404274643
H        0.7242199090   -2.3929882044   -0.0987237015
H       -1.3192504880   -1.8583968950    1.0547364974
H       -2.4871605224    0.2887499419    0.7805493418
H       -1.3111676398    2.3633822460    0.4048397362
C        1.0492999083   -0.4486224628   -1.0085677340
H        1.4706500130   -0.7202188802   -1.9714018171
13   
From optimize.out: Frame 26 / 39, Energy=    -286.9217297764
C        1.4549862058    0.8478542430   -0.3490019932
C        0.3346948618   -1.3823457253   -0.1496390339
C       -0.8095522283   -1.0698411974    0.5165142140
C       -1.4329304261    0.2311171933    0.4603999860
C       -0.7546883894    1.4103976888    0.3000318370
N        0.6082083935    1.6077984071    0.2640298578
H        2.5201923952    1.0465679939   -0.2067405021
H        0.7707390082   -2.3809628280   -0.0395047887
H       -1.3157188852   -1.8490230151    1.0839841215
H       -2.4868530615    0.2939195275    0.7341704387
H       -1.2924790549    2.3484220604    0.4239392928
C        1.0399912095   -0.4348340192   -1.0139392956
H        1.3634099714   -0.6690703291   -2.0242441344
13   
From optimize.out: Frame 25 / 39, Energy=    -286.9211289624
C        1.4594827749    0.8479120158   -0.3351912625
C        0.3103083809   -1.4219799934   -0.1528929071
C       -0.8291218655   -1.0837266813    0.5108745498
C       -1.4284245842    0.2156946784    0.4248160212
C       -0.7389409907    1.3991648205    0.2960003752
N        0.6227239163    1.6008827555    0.2680626315
H        2.5226582534    1.0489864730   -0.1725060861
H        0.7625248465   -2.4064662068    0.0169366406
H       -1.3214139366   -1.8309450670    1.1286271749
H       -2.4816456782    0.3033387476    0.6994916722
H       -1.2800979146    2.3331885729    0.4321064135
C        1.0677356611   -0.4154550002   -1.0385362145
H        1.3342111368   -0.5905951149   -2.0777890087
13   
From optimize.out: Frame 24 / 39, Energy=    -286.9202443334
C        1.4541139164    0.8254617033   -0.3162562809
C        0.3208370801   -1.4306460395   -0.1398937471
C       -0.8300501775   -1.0885095737    0.5018528580
C       -1.4238322823    0.2103606490    0.3985813261
C       -0.7290233449    1.3977815114    0.2998705303
N        0.6314699581    1.5900750483    0.2797181299
H        2.5181869305    1.0193669511   -0.1468230087
H        0.7820285525   -2.4051804998    0.0620227651
H       -1.3177504192   -1.8209191283    1.1403875364
H       -2.4776034300    0.3073713288    0.6699137395
H       -1.2716834153    2.3310057827    0.4347322206
C        1.0599023990   -0.3994504413   -1.0654250004
H        1.2834042326   -0.5367172921   -2.1186810688
13   
From optimize.out: Frame 24 / 39, Energy=    -286.9202443334
C        1.4441008373    0.7926541963   -0.3046619679
C        0.3693369917   -1.4008820477   -0.1130307481
C       -0.8106689810   -1.0833031061    0.4881670136
C       -1.4211648855    0.2133636215    0.3758469889
C       -0.7244554043    1.4032449211    0.3063669815
N        0.6355918807    1.5729454974    0.3028937374
H        2.5129705142    0.9615007730   -0.1363023129
H        0.8471228807   -2.3649129412    0.0954336738
H       -1.3014934700   -1.8209853756    1.1182752674
H       -2.4773710542    0.3035972356    0.6383273272
H       -1.2622647532    2.3391386100    0.4447799703
C        1.0081851420   -0.3920701789   -1.0771480972
H        1.1801103016   -0.5242912055   -2.1389478341
13   
From optimize.out: Frame 23 / 39, Energy=    -286.9189475391
C        1.4341151281    0.7603694542   -0.2942328421
C        0.4190836225   -1.3690047501   -0.0861160151
C       -0.7903318674   -1.0774358042    0.4746686220
C       -1.4187865951    0.2169772731    0.3544265203
C       -0.7205655565    1.4090777594    0.3128111973
N        0.6391200331    1.5560074252    0.3260747020
H        2.5079175809    0.9036673322   -0.1275965861
H        0.9134116763   -2.3229457909    0.1263316261
H       -1.2848305996   -1.8219481516    1.0941186510
H       -2.4774884674    0.2992937111    0.6079539302
H       -1.2531716786    2.3478323836    0.4550463818
C        0.9548359884   -0.3857837908   -1.0870029401
H        1.0766907353   -0.5161070511   -2.1564832473
13   
From optimize.out: Frame 22 / 39, Energy=    -286.9177838652
C        1.4186140538    0.7294817252   -0.2774119962
C        0.4644344222   -1.3453733917   -0.0624873602
C       -0.7684123196   -1.0718813306    0.4634485497
C       -1.4093699506    0.2192262923    0.3340431511
C       -0.7127762559    1.4156760845    0.3160401359
N        0.6461397175    1.5458237202    0.3488045969
H        2.4961430480    0.8360441335   -0.1072453869
H        0.9746523274   -2.2894641265    0.1533481759
H       -1.2662706197   -1.8192533393    1.0768546299
H       -2.4711311694    0.2930717348    0.5761849283
H       -1.2453897230    2.3549278238    0.4554942885
C        0.8965515054   -0.3684895719   -1.1011144366
H        0.9768149638   -0.4997897541   -2.1759592762
13   
From optimize.out: Frame 21 / 39, Energy=    -286.9160793670
C        1.3932107077    0.7050083707   -0.2489871994
C        0.4954183432   -1.3417985479   -0.0484459313
C       -0.7456120615   -1.0676103752    0.4582963270
C       -1.3861537176    0.2183425822    0.3181358695
C       -0.6976301864    1.4231498146    0.3121201641
N        0.6597415072    1.5510393640    0.3680320781
H        2.4715020714    0.7553446891   -0.0645970328
H        1.0183663744   -2.2776498143    0.1691407980
H       -1.2457887842   -1.8091406639    1.0760761412
H       -2.4518207251    0.2834985152    0.5450346854
H       -1.2412483459    2.3578534776    0.4351676120
C        0.8343894067   -0.3299010976   -1.1226273020
H        0.8956254102   -0.4681363146   -2.1973462099
13   
From optimize.out: Frame 21 / 39, Energy=    -286.9160793670
C        1.3658433447    0.6819779931   -0.2182552674
C        0.5232697141   -1.3424312832   -0.0364672196
C       -0.7227228172   -1.0636255476    0.4544340374
C       -1.3601496384    0.2168076851    0.3032306439
C       -0.6810094264    1.4307753622    0.3067221194
N        0.6746624922    1.5594523683    0.3864471913
H        2.4442742592    0.6722484205   -0.0174655476
H        1.0582342456   -2.2704141888    0.1825212567
H       -1.2249906466   -1.7975195281    1.0787470782
H       -2.4298830825    0.2732646815    0.5141437442
H       -1.2378852820    2.3598952632    0.4105829636
C        0.7716760534   -0.2870222036   -1.1455976197
H        0.8186807839   -0.4334090226   -2.2190433804
13   
From optimize.out: Frame 20 / 39, Energy=    -286.9149774578
C        1.3762071081    0.6898134726   -0.2249278578
C        0.4911310537   -1.3543002361   -0.0369952353
C       -0.7444494467   -1.0673338398    0.4646533620
C       -1.3703547554    0.2147035944    0.3142371066
C       -0.6877114836    1.4244728600    0.3044679005
N        0.6668388207    1.5609342659    0.3722195370
H        2.4491500718    0.7051240132   -0.0090130945
H        1.0367589477   -2.2770874713    0.1642937974
H       -1.2462263569   -1.7932735384    1.0995377468
H       -2.4362974577    0.2802521838    0.5352723842
H       -1.2471158638    2.3527271947    0.4060636707
C        0.8300687411   -0.2803504632   -1.1620723235
H        0.8820006210   -0.4556820359   -2.2277369940
13   
From optimize.out: Frame 18 / 39, Energy=    -286.9034967195
C        1.3962453108    0.7055936130   -0.2413621414
C        0.4443542443   -1.3686332097   -0.0408680711
C       -0.7771660778   -1.0729389450    0.4781817126
C       -1.3898317657    0.2125460385    0.3317027905
C       -0.7003795730    1.4147167392    0.3031678033
N        0.6532581544    1.5604782430    0.3498719391
H        2.4624445813    0.7676868567   -0.0113838800
H        0.9997746088   -2.2871916102    0.1384151406
H       -1.2777796606   -1.7912163524    1.1242235716
H       -2.4500466231    0.2915481446    0.5694143192
H       -1.2593014895    2.3434179044    0.4071654865
C        0.9183205184   -0.2837513753   -1.1760145933
H        0.9801077718   -0.4922560467   -2.2325140776
13   
From optimize.out: Frame 18 / 39, Energy=    -286.9034967195
C        1.4163260931    0.7214139889   -0.2578689211
C        0.3976414306   -1.3829050093   -0.0447794681
C       -0.8098534087   -1.0785393178    0.4916725441
C       -1.4093474570    0.2104042191    0.3491650112
C       -0.7130714941    1.4049657285    0.3018974714
N        0.6396650759    1.5599859277    0.3275317486
H        2.4758084704    0.8303719879   -0.0139587317
H        0.9627599438   -2.2972874553    0.1125810840
H       -1.3092989146   -1.7892202290    1.1487968661
H       -2.4638393311    0.3028445582    0.6035574384
H       -1.2714527947    2.3341372252    0.4083742954
C        1.0064976603   -0.2873328804   -1.1897959921
H        1.0781647261   -0.5288387437   -2.2371733462
13   
From optimize.out: Frame 17 / 39, Energy=    -286.8963890108
C        1.4364019929    0.7372305183   -0.2743716874
C        0.3509399746   -1.3971733388   -0.0486899141
C       -0.8425327920   -1.0841383289    0.5051600955
C       -1.4288584033    0.2082629204    0.3666229862
C       -0.7257603293    1.3952170887    0.3006274484
N        0.6260753025    1.5594937321    0.3051969898
H        2.4891691102    0.8930418779   -0.0165329573
H        0.9257542786   -2.3073808457    0.0867533087
H       -1.3408105051   -1.7872245910    1.1733641858
H       -2.4776286855    0.3141382252    0.6376922561
H       -1.2836011453    2.3248588025    0.4095828104
C        1.0946533629   -0.2909135147   -1.2035740402
H        1.1761978388   -0.5654125460   -2.2418314819
13   
From optimize.out: Frame 16 / 39, Energy=    -286.8906620736
C        1.4309842340    0.7307722781   -0.2796932001
C        0.3614857041   -1.3928990974   -0.0267237772
C       -0.8356362166   -1.0800475215    0.4998258412
C       -1.4204861869    0.2122941725    0.3621526803
C       -0.7245542959    1.3961866521    0.3054734814
N        0.6238713125    1.5648292564    0.3091314488
H        2.4780382339    0.8599680302    0.0061036833
H        0.9625967945   -2.2847468476    0.0858178878
H       -1.3431127535   -1.7818981070    1.1662566850
H       -2.4694597269    0.3068690895    0.6299302413
H       -1.2880677213    2.3235066175    0.4086784599
C        1.0946017830   -0.2614708928   -1.2251939869
H        1.1297388392   -0.5933636300   -2.2417594447
13   
From optimize.out: Frame 15 / 39, Energy=    -286.8776151038
C        1.4126723596    0.7142925512   -0.2738041268
C        0.4021549764   -1.3794872620   -0.0035539602
C       -0.8076304694   -1.0725220029    0.4859349393
C       -1.3997770301    0.2174847195    0.3464545978
C       -0.7150598856    1.4035213615    0.3108535496
N        0.6307628313    1.5701554979    0.3275417170
H        2.4587969151    0.7876541215    0.0290213013
H        1.0215271600   -2.2568754712    0.1019652759
H       -1.3245002341   -1.7782201885    1.1434002479
H       -2.4527124856    0.2926104164    0.6001538385
H       -1.2842473840    2.3283548506    0.4070340831
C        1.0364458544   -0.2315096045   -1.2363799469
H        1.0215673918   -0.5954589894   -2.2386215164
13   
From optimize.out: Frame 15 / 39, Energy=    -286.8776151038
C        1.3943570935    0.6978097719   -0.2679139627
C        0.4428317816   -1.3660729424    0.0196201483
C       -0.7796195349   -1.0649950906    0.4720414645
C       -1.3790640374    0.2226762279    0.3307536076
C       -0.7055637166    1.4108574294    0.3162346144
N        0.6376556266    1.5754827259    0.3459553951
H        2.4395520324    0.7153268186    0.0519431641
H        1.0804684407   -2.2289989325    0.1181156550
H       -1.3058842671   -1.7745415888    1.1205395772
H       -2.4359621424    0.2783491022    0.5703719205
H       -1.2804263390    2.3332039818    0.4053894016
C        0.9782791542   -0.2015427667   -1.2475679787
H        0.9133759086   -0.5975547369   -2.2354830069
13   
From optimize.out: Frame 14 / 39, Energy=    -286.8739722409
C        1.3899624037    0.7026379536   -0.2713648657
C        0.4594348705   -1.3853021250    0.0344663776
C       -0.7634373059   -1.0662359418    0.4612173605
C       -1.3604048407    0.2264067457    0.3219993966
C       -0.6989579078    1.4169839434    0.3182020458
N        0.6386457531    1.5931001207    0.3508886672
H        2.4327439501    0.6857444853    0.0695099433
H        1.1048288438   -2.2415711371    0.1193044796
H       -1.3012708047   -1.7693456807    1.1108102662
H       -2.4178843729    0.2698430687    0.5595433636
H       -1.2834534378    2.3343092261    0.4026367917
C        0.9570765494   -0.1583072792   -1.2574687790
H        0.8427162991   -0.6082633796   -2.2197450473
13   
From optimize.out: Frame 13 / 39, Energy=    -286.8481228756
C        1.4131252836    0.7377523248   -0.2867163604
C        0.4191086146   -1.4387353852    0.0202439881
C       -0.7834917312   -1.0807050068    0.4666193140
C       -1.3643608565    0.2238779850    0.3337545793
C       -0.7039375354    1.4147995263    0.3124953854
N        0.6288502370    1.6129072001    0.3284379372
H        2.4535241145    0.7573503014    0.0601246514
H        1.0468866034   -2.3081171753    0.0945151885
H       -1.3245757766   -1.7669907011    1.1328269350
H       -2.4162288030    0.2796195069    0.5912253486
H       -1.2946930911    2.3280819501    0.4008860562
C        1.0188673606   -0.1376474581   -1.2550429690
H        0.9069255801   -0.6221930679   -2.1993700544
13   
From optimize.out: Frame 12 / 39, Energy=    -286.8350702626
C        1.4358872359    0.7683390911   -0.3005379753
C        0.3803462864   -1.4918469240    0.0151830247
C       -0.8044323112   -1.0957219569    0.4730795255
C       -1.3686085347    0.2204590701    0.3425068980
C       -0.7069143368    1.4109668798    0.3073316574
N        0.6218518588    1.6266465326    0.3112606349
H        2.4728732284    0.8158453970    0.0549146897
H        0.9891230377   -2.3743502616    0.0845890507
H       -1.3518700325   -1.7645148830    1.1530872241
H       -2.4159654602    0.2887528474    0.6151729639
H       -1.3021001565    2.3213802726    0.3993892033
C        1.0779463926   -0.1103137095   -1.2614735503
H        0.9718627922   -0.6156423556   -2.1945033466
13   
From optimize.out: Frame 10 / 39, Energy=    -286.8110008136
C        1.4562520754    0.7815192450   -0.3083291181
C        0.3487997903   -1.5415479438    0.0429185707
C       -0.8276307185   -1.1120465295    0.4830275210
C       -1.3737121867    0.2140204153    0.3402067269
C       -0.7026415108    1.4014362248    0.3043190937
N        0.6250995074    1.6182210028    0.3135700838
H        2.4863074637    0.8252190530    0.0647756698
H        0.9344597897   -2.4366440897    0.1279439376
H       -1.3921865703   -1.7617149785    1.1662367919
H       -2.4206644970    0.2952094158    0.6105931381
H       -1.2955614110    2.3132774688    0.3988591004
C        1.1248605578   -0.0604120349   -1.2991254835
H        1.0366177099   -0.5365372490   -2.2449960324
13   
From optimize.out: Frame 8 / 39, Energy=    -286.7874807788
C        1.4744611347    0.7898872655   -0.3141935344
C        0.3213475652   -1.5865134904    0.0754895406
C       -0.8494484422   -1.1273389239    0.4929264356
C       -1.3785895094    0.2074492380    0.3357098075
C       -0.6971502617    1.3914447392    0.3020126055
N        0.6302938423    1.6056969644    0.3198931783
H        2.4973856659    0.8232521905    0.0770908269
H        0.8848645788   -2.4930748907    0.1792915938
H       -1.4320643875   -1.7590705981    1.1767955270
H       -2.4260547325    0.3005694252    0.6002340777
H       -1.2865435525    2.3055249145    0.3985800076
C        1.1653769413   -0.0096634422   -1.3404752034
H        1.0961211577   -0.4481633919   -2.3033548628
13   
From optimize.out: Frame 7 / 39, Energy=    -286.7172756863
C        1.4926387116    0.7982408181   -0.3200478113
C        0.2939428034   -1.6314012942    0.1080041972
C       -0.8712284444   -1.1426048786    0.5028082355
C       -1.3834583995    0.2008894220    0.3312206630
C       -0.6916685066    1.3814705283    0.2997101052
N        0.6354791965    1.5931945793    0.3262053405
H        2.5084447145    0.8212887285    0.0893846917
H        0.8353551151   -2.5494081260    0.2305504728
H       -1.4718732584   -1.7564307896    1.1873360066
H       -2.4314356485    0.3059201674    0.5898929275
H       -1.2775412854    2.2977857639    0.3983013974
C        1.2058232743    0.0409974090   -1.3817534321
H        1.1555217274   -0.3599423281   -2.3616127940
13   
From optimize.out: Frame 7 / 39, Energy=    -286.7172756863
C        1.5107856769    0.8065803031   -0.3258922295
C        0.2665841921   -1.6762135054    0.1404640980
C       -0.8929717683   -1.1578451250    0.5126733941
C       -1.3883190903    0.1943406529    0.3267390784
C       -0.6861959830    1.3715131143    0.2974114823
N        0.6406558184    1.5807132486    0.3325068728
H        2.5194851393    0.8193285730    0.1016578533
H        0.7859290270   -2.6056464943    0.2817230302
H       -1.5116150897   -1.7537954267    1.1978587358
H       -2.4368075029    0.3112618989    0.5795691921
H       -1.2685541785    2.2900596463    0.3980232563
C        1.2462014944    0.0915729457   -1.4229621468
H        1.2148222646   -0.2718698314   -2.4197726170
13   
From optimize.out: Frame 6 / 39, Energy=    -286.7037718746
C        1.5289029869    0.8149061600   -0.3317270969
C        0.2392702894   -1.7209524860    0.1728709539
C       -0.9146795599   -1.1730604663    0.5225224314
C       -1.3931718378    0.1878025856    0.3222648175
C       -0.6807324024    1.3615719724    0.2951166157
N        0.6458239809    1.5682523145    0.3387981074
H        2.5305075222    0.8173716208    0.1139109585
H        0.7365837094   -2.6617929596    0.3328119630
H       -1.5512919763   -1.7511643704    1.2083642690
H       -2.4421705788    0.3165949010    0.5692623275
H       -1.2595817579    2.2823461545    0.3977455698
C        1.2865137296    0.1420658335   -1.4641035196
H        1.2740258948   -0.1839412601   -2.4778373970
13   
From optimize.out: Frame 5 / 39, Energy=    -286.6934002061
C        1.5446944752    0.8147561808   -0.3385029808
C        0.2146533797   -1.7563964660    0.2049573725
C       -0.9358855784   -1.1860129750    0.5309228157
C       -1.4006242498    0.1820906117    0.3160554182
C       -0.6758539701    1.3500298824    0.2933024793
N        0.6510700907    1.5479943797    0.3461140930
H        2.5369824003    0.7969987623    0.1254494425
H        0.6952869419   -2.7048344222    0.3831346524
H       -1.5873757234   -1.7476448471    1.2183310655
H       -2.4497820617    0.3214809665    0.5583151345
H       -1.2475022993    2.2749257150    0.3996464942
C        1.3237452226    0.1942358514   -1.5047197818
H        1.3305913723   -0.0876236393   -2.5330062052
13   
From optimize.out: Frame 4 / 39, Energy=    -286.6802913410
C        1.5553446498    0.7958921608   -0.3473539725
C        0.1960006862   -1.7713041078    0.2363239946
C       -0.9559755903   -1.1939643339    0.5361214496
C       -1.4138136976    0.1782047865    0.3060173245
C       -0.6722693765    1.3349574238    0.2925504589
N        0.6564862938    1.5105289318    0.3556898599
H        2.5334142015    0.7359725779    0.1354056692
H        0.6717766730   -2.7189243976    0.4317462479
H       -1.6155122278   -1.7421649947    1.2271045484
H       -2.4623549663    0.3253783528    0.5459583317
H       -1.2285673288    2.2681551588    0.4063569227
C        1.3541603730    0.2500888788   -1.5441610744
H        1.3813103100    0.0271795628   -2.5817597605
13   