13   
From optimize.out: Frame 38 / 39, Energy=    -286.9243440236
C        1.3374088556    0.8630327542   -0.5692167788
C        0.2717232502   -1.4149392997   -0.2190670591
C       -0.9148941645   -1.0760410417    0.3592297020
C       -1.3808469394    0.2523161617    0.6636972589
C       -0.7390608738    1.4560185790    0.4365928386
N        0.4570638263    1.7816787336   -0.1031862444
H        2.2450018753    1.3291826855   -0.9589944881
H        0.4654123397   -2.4734959299   -0.3795090058
H       -1.5903632012   -1.8875257230    0.6227485735
H       -2.3618319473    0.3238665003    1.1270289569
H       -1.2999171019    2.3394086893    0.7502820903
C        1.3143766211   -0.5156861831   -0.6458662843
H        2.1959274605   -0.9778159267   -1.0837395593
13   
From optimize.out: Frame 37 / 39, Energy=    -286.9243414284
C        1.3387036173    0.8631237079   -0.5684732308
C        0.2717775770   -1.4150559076   -0.2195603714
C       -0.9144461213   -1.0755419422    0.3601078915
C       -1.3816531081    0.2515166974    0.6628015570
C       -0.7386903646    1.4562597644    0.4354643453
N        0.4581242285    1.7817299056   -0.1007722084
H        2.2463131833    1.3291977151   -0.9580640791
H        0.4634241874   -2.4745937008   -0.3775865920
H       -1.5891550543   -1.8873391589    0.6246343247
H       -2.3628648067    0.3223237388    1.1259390724
H       -1.2998207990    2.3394701245    0.7491801106
C        1.3130308303   -0.5153885489   -0.6474399554
H        2.1952566300   -0.9757023954   -1.0862308642
13   
From optimize.out: Frame 36 / 39, Energy=    -286.9243305176
C        1.3397915701    0.8620979747   -0.5680621788
C        0.2727320449   -1.4157305805   -0.2174073068
C       -0.9139087839   -1.0750974835    0.3604402007
C       -1.3858046372    0.2517787813    0.6576292469
C       -0.7377123735    1.4571865601    0.4367596808
N        0.4615161254    1.7811619851   -0.0906823322
H        2.2459591656    1.3294214592   -0.9588478585
H        0.4680637902   -2.4753098498   -0.3712298034
H       -1.5862745062   -1.8876547323    0.6293573913
H       -2.3685342395    0.3230231615    1.1175500411
H       -1.2987171904    2.3403334571    0.7514273771
C        1.3119507455   -0.5144878805   -0.6517434249
H        2.1909382890   -0.9767228524   -1.0951910333
13   
From optimize.out: Frame 35 / 39, Energy=    -286.9243170450
C        1.3401024168    0.8614434725   -0.5662116296
C        0.2733171651   -1.4156486256   -0.2163237125
C       -0.9130172876   -1.0747040419    0.3625945671
C       -1.3878881678    0.2520861290    0.6524110492
C       -0.7379782194    1.4573187488    0.4360529187
N        0.4639927222    1.7807676799   -0.0837596058
H        2.2467719244    1.3285087951   -0.9559586700
H        0.4710421704   -2.4752440721   -0.3658452336
H       -1.5831119652   -1.8876077287    0.6360890690
H       -2.3724361947    0.3239857918    1.1081052892
H       -1.2978333844    2.3399135854    0.7544950309
C        1.3101046806   -0.5147980960   -0.6564326909
H        2.1869341396   -0.9760216382   -1.1052163818
13   
From optimize.out: Frame 34 / 39, Energy=    -286.9242877908
C        1.3404523329    0.8608545852   -0.5646626098
C        0.2718765255   -1.4178441236   -0.2157677773
C       -0.9142423399   -1.0745285620    0.3621589519
C       -1.3884392933    0.2517478786    0.6478180662
C       -0.7367252051    1.4570502527    0.4359312597
N        0.4644619920    1.7813213123   -0.0821914176
H        2.2455058939    1.3289038095   -0.9570672442
H        0.4687404222   -2.4780567617   -0.3606210571
H       -1.5841396901   -1.8863943028    0.6389224358
H       -2.3723699175    0.3239677039    1.1044577955
H       -1.2968769060    2.3382350744    0.7581094372
C        1.3123621800   -0.5140698092   -0.6572781815
H        2.1893940054   -0.9711870573   -1.1098096588
13   
From optimize.out: Frame 33 / 39, Energy=    -286.9242220292
C        1.3437183510    0.8628200247   -0.5561345601
C        0.2731715070   -1.4177378367   -0.2133353188
C       -0.9078777920   -1.0775696669    0.3725382888
C       -1.3873505411    0.2535255777    0.6472126499
C       -0.7369501696    1.4564156275    0.4382296857
N        0.4807688915    1.7792590245   -0.0533375986
H        2.2504213315    1.3294070191   -0.9476961554
H        0.4711281262   -2.4780490241   -0.3582294350
H       -1.5764473075   -1.8887458356    0.6539156506
H       -2.3787749579    0.3245441595    1.0879192671
H       -1.3067631100    2.3401439993    0.7348444575
C        1.3026042389   -0.5134663217   -0.6699528236
H        2.1723514319   -0.9705467473   -1.1359741079
13   
From optimize.out: Frame 32 / 39, Energy=    -286.9240219809
C        1.3442098299    0.8633008421   -0.5452010865
C        0.2715010811   -1.4159291540   -0.2173279403
C       -0.9009701239   -1.0799976667    0.3887226477
C       -1.3838007119    0.2548841417    0.6467582117
C       -0.7384672112    1.4548035485    0.4384622673
N        0.4965321099    1.7764990346   -0.0270800261
H        2.2582799628    1.3246842909   -0.9271079943
H        0.4710990673   -2.4757305632   -0.3620750207
H       -1.5644693189   -1.8907706759    0.6818774568
H       -2.3846153216    0.3271750662    1.0660063413
H       -1.3183608347    2.3397773284    0.7089079654
C        1.2915525079   -0.5136698938   -0.6868966714
H        2.1575089632   -0.9650262987   -1.1650461507
13   
From optimize.out: Frame 31 / 39, Energy=    -286.9237375381
C        1.3453087096    0.8660090504   -0.5467636169
C        0.2640117872   -1.4225867855   -0.2170415249
C       -0.9042278064   -1.0822865638    0.3923837456
C       -1.3809632485    0.2544664677    0.6469761287
C       -0.7366426718    1.4528222178    0.4396992258
N        0.4972332882    1.7788466717   -0.0289939721
H        2.2569981705    1.3282793686   -0.9337475569
H        0.4603032544   -2.4829502605   -0.3595903428
H       -1.5720395210   -1.8894667038    0.6851443183
H       -2.3844015013    0.3259861739    1.0597657586
H       -1.3168971978    2.3361693148    0.7139261097
C        1.2995249521   -0.5111510634   -0.6886554415
H        2.1717917849   -0.9541378880   -1.1631028316
13   
From optimize.out: Frame 30 / 39, Energy=    -286.9234865018
C        1.3512065103    0.8682295072   -0.5265530130
C        0.2678575095   -1.4114973938   -0.2213582225
C       -0.8905812633   -1.0821086861    0.4148742745
C       -1.3792217945    0.2551203892    0.6517673879
C       -0.7435451394    1.4515041546    0.4334689607
N        0.5194838929    1.7701238639    0.0125848689
H        2.2774982303    1.3212440267   -0.8904150240
H        0.4709842687   -2.4703465031   -0.3713203774
H       -1.5465643525   -1.8925642310    0.7245194324
H       -2.3938737000    0.3213902535    1.0386957934
H       -1.3329124653    2.3415986822    0.6592021308
C        1.2726517300   -0.5116146938   -0.7128996500
H        2.1270165733   -0.9610793694   -1.2125665619
13   
From optimize.out: Frame 29 / 39, Energy=    -286.9231423255
C        1.3516962089    0.8690820770   -0.5149786558
C        0.2733033681   -1.4082828395   -0.2143319648
C       -0.8853239200   -1.0820999746    0.4194270514
C       -1.3780233437    0.2538784586    0.6487847709
C       -0.7465754547    1.4505978537    0.4248569335
N        0.5280168441    1.7682802605    0.0282666122
H        2.2812096243    1.3194346074   -0.8734294607
H        0.4867960455   -2.4658324828   -0.3602663791
H       -1.5366039482   -1.8928553922    0.7376947464
H       -2.4012302506    0.3211935891    1.0126257935
H       -1.3289890214    2.3430776228    0.6569376717
C        1.2626237419   -0.5093631026   -0.7173525972
H        2.0931001058   -0.9671106773   -1.2482345220
13   
From optimize.out: Frame 27 / 39, Energy=    -286.9224230006
C        1.3576615316    0.8716087340   -0.5037262286
C        0.2577104282   -1.4006516374   -0.2398090924
C       -0.8793496274   -1.0838062270    0.4595371904
C       -1.3758820892    0.2543516529    0.6568263632
C       -0.7533073750    1.4446981319    0.4154409521
N        0.5398103344    1.7605168954    0.0480870060
H        2.3118996811    1.3074561652   -0.8117814589
H        0.4632474647   -2.4573009101   -0.3990341111
H       -1.5167921763   -1.8985679573    0.7923032078
H       -2.3979931666    0.3269070086    1.0240563813
H       -1.3586063983    2.3352761464    0.5867298581
C        1.2507796884   -0.5086936112   -0.7585301937
H        2.1008217044   -0.9517943916   -1.2700998741
13   
From optimize.out: Frame 26 / 39, Energy=    -286.9217297764
C        1.3626858394    0.8741304833   -0.4908253993
C        0.2641835379   -1.4024708211   -0.2415892974
C       -0.8648801084   -1.0776666170    0.4849183964
C       -1.3801052092    0.2572845092    0.6582372788
C       -0.7631410247    1.4451474559    0.4006849127
N        0.5401487398    1.7467687801    0.0527303769
H        2.3400155031    1.3005097360   -0.7354910593
H        0.4509283471   -2.4614062680   -0.4126728954
H       -1.4900748072   -1.8941809413    0.8348033562
H       -2.4054583100    0.3219385385    1.0179207358
H       -1.3684298920    2.3399768174    0.5478033360
C        1.2360269975   -0.5041184417   -0.7953428367
H        2.0781003866   -0.9459132312   -1.3211769047
13   
From optimize.out: Frame 25 / 39, Energy=    -286.9211289624
C        1.3664530310    0.8706551760   -0.4693580144
C        0.2716389829   -1.4024048044   -0.2498887797
C       -0.8487820822   -1.0740426625    0.4967076869
C       -1.3827492090    0.2569412346    0.6544588347
C       -0.7681747053    1.4479058194    0.3931892330
N        0.5459668950    1.7354088865    0.0751785619
H        2.3611511275    1.2827664953   -0.6684581980
H        0.4450577795   -2.4671441049   -0.4067597173
H       -1.4543318386   -1.8930026874    0.8735725674
H       -2.4112684794    0.3222824787    1.0061769951
H       -1.3765430171    2.3463511067    0.4997017860
C        1.2128600605   -0.5010259694   -0.8195988017
H        2.0387214553   -0.9246909685   -1.3849221540
13   
From optimize.out: Frame 24 / 39, Energy=    -286.9202443334
C        1.3843848116    0.8670799087   -0.4278192824
C        0.2764573291   -1.3942757023   -0.2422748813
C       -0.8454124655   -1.0727713647    0.5052536613
C       -1.3902889426    0.2525538333    0.6415664744
C       -0.7713347357    1.4406620742    0.3673930640
N        0.5579822398    1.7233903496    0.1094337974
H        2.3676983106    1.2934503373   -0.6542970318
H        0.4633434456   -2.4555016439   -0.4061593440
H       -1.4409148659   -1.8944694449    0.8953550508
H       -2.4158898692    0.3209815737    1.0014109745
H       -1.3710802561    2.3450910320    0.4667916293
C        1.2008165941   -0.4911153467   -0.8239788849
H        1.9842384043   -0.9350756063   -1.4326752272
13   
From optimize.out: Frame 23 / 39, Energy=    -286.9189475391
C        1.3881957765    0.8569399708   -0.4303885828
C        0.2502478525   -1.3900159440   -0.2574373526
C       -0.8489107181   -1.0636347751    0.5264749177
C       -1.4000606372    0.2518074177    0.6574540085
C       -0.7791050013    1.4290343248    0.3715151143
N        0.5596737207    1.6995974261    0.1247060558
H        2.3602367375    1.3051100841   -0.6691722909
H        0.4218015017   -2.4478984798   -0.4474026742
H       -1.4311911540   -1.8853539526    0.9372777986
H       -2.4346736344    0.3275874288    0.9885508954
H       -1.3738233409    2.3376170933    0.4499292035
C        1.2371544424   -0.5055119333   -0.8278632018
H        2.0504544547   -0.9152786607   -1.4236438914
13   
From optimize.out: Frame 22 / 39, Energy=    -286.9177838652
C        1.3575189249    0.8678208661   -0.4622684270
C        0.2775182529   -1.3964369833   -0.2718143220
C       -0.8010727255   -1.0491773477    0.5374453698
C       -1.3785574416    0.2615214004    0.6866767808
C       -0.7959754123    1.4553286312    0.3646385031
N        0.5329845139    1.7208943342    0.0606052553
H        2.3825173297    1.2473910414   -0.5522277870
H        0.3865082515   -2.4621404068   -0.4789162756
H       -1.3919158609   -1.8726131491    0.9311614930
H       -2.4152622439    0.2962790441    1.0190649879
H       -1.3976674746    2.3600833510    0.4370701557
C        1.1947111611   -0.4905944311   -0.8854774796
H        2.0486927249   -0.9383563502   -1.3859582546
13   
From optimize.out: Frame 21 / 39, Energy=    -286.9160793670
C        1.3571530410    0.8372070958   -0.4078881035
C        0.2876420095   -1.3726363217   -0.2832089575
C       -0.7731506079   -1.0237356175    0.5433474975
C       -1.3969160164    0.2729327423    0.6576412298
C       -0.7981182297    1.4648753048    0.3729354101
N        0.5493016150    1.6828196186    0.1375829746
H        2.3808426594    1.2097701303   -0.5248996730
H        0.4298711506   -2.4428778709   -0.4422135962
H       -1.3198607157   -1.8470762497    0.9974066649
H       -2.4521465491    0.2575900727    0.9232155724
H       -1.3804466630    2.3848990411    0.4158963197
C        1.1531744655   -0.5003618070   -0.9016435479
H        1.9626538407   -0.9234061388   -1.4881717910
13   
From optimize.out: Frame 20 / 39, Energy=    -286.9149774578
C        1.3881028120    0.8536055323   -0.3938115842
C        0.2879657717   -1.4005135204   -0.2340331625
C       -0.8016097909   -1.0383556761    0.5291924037
C       -1.4156843345    0.2729798539    0.6279835255
C       -0.7999921932    1.4542204989    0.3436492806
N        0.5566564838    1.6614410210    0.1691608523
H        2.4099085801    1.2316277784   -0.4881697201
H        0.4605037993   -2.4733790011   -0.3511133334
H       -1.3573913772   -1.8529673782    0.9896265511
H       -2.4598647719    0.2661232792    0.9335725527
H       -1.3596070720    2.3875958067    0.4083958391
C        1.1755769148   -0.4957437929   -0.9149721012
H        1.9154351780   -0.8666344016   -1.6194811035
13   
From optimize.out: Frame 19 / 39, Energy=    -286.9103069701
C        1.3972130886    0.8546499249   -0.3924138067
C        0.3025950882   -1.3714893069   -0.2126840037
C       -0.7897285841   -1.0362115279    0.5388093435
C       -1.4229085836    0.2712889569    0.6005876901
C       -0.7995322414    1.4501566514    0.3298487229
N        0.5603812849    1.6516055505    0.1841423197
H        2.4490074428    1.1430734249   -0.3476889047
H        0.5406756435   -2.4383155028   -0.2728865640
H       -1.3233964796   -1.8555964701    1.0171546535
H       -2.4708653158    0.2610028917    0.8926330953
H       -1.3527337465    2.3874602227    0.3923396919
C        1.1128163970   -0.4845780493   -0.9786133406
H        1.7964760060   -0.8330467659   -1.7512288972
13   
From optimize.out: Frame 18 / 39, Energy=    -286.9034967195
C        1.4248420578    0.8497342527   -0.3679815692
C        0.3266839273   -1.3758041167   -0.1728825770
C       -0.7946300779   -1.0494272859    0.5272031174
C       -1.4348376805    0.2639612873    0.5455973902
C       -0.7863860658    1.4380049823    0.3243932375
N        0.5757191109    1.6304491919    0.2291533996
H        2.4799313909    1.1192112595   -0.3031462955
H        0.6404378453   -2.4250828836   -0.1687784730
H       -1.3229854705   -1.8595774006    1.0290798759
H       -2.4856628756    0.2799974424    0.8277354535
H       -1.3286629100    2.3801423105    0.4043031803
C        1.0822602510   -0.4691164982   -0.9913261247
H        1.6232904973   -0.7824925414   -1.8833506150
13   
From optimize.out: Frame 17 / 39, Energy=    -286.8963890108
C        1.4469988682    0.8399760566   -0.3463280212
C        0.3376470862   -1.3683502230   -0.1507203419
C       -0.8011486699   -1.0613008530    0.5262075157
C       -1.4345149782    0.2449627059    0.5023298596
C       -0.7690294174    1.4219493908    0.3086189565
N        0.5940743093    1.6209174238    0.2497043103
H        2.5113017735    1.0543591773   -0.2278575986
H        0.7368178266   -2.3872073451   -0.0925337669
H       -1.3196512596   -1.8606742272    1.0554153917
H       -2.4875294910    0.2906137380    0.7793210311
H       -1.3113692851    2.3621194581    0.3975815330
C        1.0421908654   -0.4451405999   -1.0146545890
H        1.4542123721   -0.7122247023   -1.9870842802
13   
From optimize.out: Frame 16 / 39, Energy=    -286.8906620736
C        1.4585500581    0.8524618930   -0.3540176765
C        0.3390491990   -1.3806648445   -0.1481925367
C       -0.8095983341   -1.0713862067    0.5122347803
C       -1.4331253511    0.2268432968    0.4446811190
C       -0.7502048626    1.4064238996    0.2960000159
N        0.6128779600    1.6018275950    0.2714280413
H        2.5247930223    1.0413933644   -0.2028955041
H        0.7926903863   -2.3709340805   -0.0224797768
H       -1.3119904204   -1.8466992407    1.0896031428
H       -2.4877558657    0.2935081566    0.7163360822
H       -1.2844863959    2.3441878842    0.4373648277
C        1.0317762223   -0.4336238509   -1.0073807339
H        1.3174243816   -0.6633378661   -2.0326817811
13   
From optimize.out: Frame 15 / 39, Energy=    -286.8776151038
C        1.4601641255    0.8445883260   -0.3214385483
C        0.2893131846   -1.4521607509   -0.1563265324
C       -0.8433838246   -1.0927414103    0.5098809000
C       -1.4249906693    0.2075506015    0.4103045474
C       -0.7307127211    1.3938620561    0.2960006377
N        0.6299163971    1.6001925493    0.2656041963
H        2.5210988025    1.0545332464   -0.1503065860
H        0.7404888896   -2.4324224605    0.0457303727
H       -1.3282978246   -1.8194366274    1.1571342692
H       -2.4771821801    0.3105200042    0.6871868140
H       -1.2768921246    2.3251535651    0.4282651367
C        1.0940040670   -0.4021826367   -1.0612953241
H        1.3464738781   -0.5374564628   -2.1107398833
13   
From optimize.out: Frame 14 / 39, Energy=    -286.8739722409
C        1.4253598220    0.7320627215   -0.2850887556
C        0.4627006529   -1.3410552582   -0.0625176184
C       -0.7725006197   -1.0722914501    0.4628334535
C       -1.4167013490    0.2201456636    0.3356454046
C       -0.7171550018    1.4141918964    0.3184613800
N        0.6422134593    1.5411564010    0.3463993918
H        2.5034872518    0.8529599194   -0.1199635475
H        0.9715326056   -2.2861496816    0.1534224441
H       -1.2702208679   -1.8227922979    1.0729385257
H       -2.4775914133    0.2955204514    0.5813230337
H       -1.2451990198    2.3554549419    0.4640478031
C        0.9080603250   -0.3802719888   -1.0956435049
H        0.9860141549   -0.5089313186   -2.1718580101
13   
From optimize.out: Frame 13 / 39, Energy=    -286.8481228756
C        1.3595822163    0.6767090840   -0.2112243901
C        0.5296415741   -1.3425760409   -0.0337267199
C       -0.7174861967   -1.0627138953    0.4535504196
C       -1.3542004032    0.2164565300    0.2998206139
C       -0.6772069150    1.4325199413    0.3054871502
N        0.6780761277    1.5613771025    0.3906602164
H        2.4380450575    0.6532375862   -0.0066827668
H        1.0673552507   -2.2687588163    0.1855824493
H       -1.2202324312   -1.7948608348    1.0793581375
H       -2.4248641701    0.2709233764    0.5070764886
H       -1.2371158774    2.3603623846    0.4049584671
C        0.7573284397   -0.2772123342   -1.1508527884
H        0.8010773276   -0.4254640834   -2.2240072774
13   
From optimize.out: Frame 12 / 39, Energy=    -286.8350702626
C        1.4505178443    0.7483515032   -0.2859751819
C        0.3181030499   -1.4072057468   -0.0514394434
C       -0.8655104578   -1.0880751292    0.5146435195
C       -1.4425770221    0.2067573214    0.3788981112
C       -0.7346821566    1.3883625840    0.2997344644
N        0.6165200037    1.5591476575    0.2894928801
H        2.4985632995    0.9371065951   -0.0183429577
H        0.8997346992   -2.3144777529    0.0685931744
H       -1.3629670674   -1.7858214096    1.1906380632
H       -2.4873243146    0.3220790760    0.6616932730
H       -1.2921429448    2.3183349188    0.4104325466
C        1.1566377722   -0.2934311454   -1.2132617194
H        1.2451272943   -0.5911284720   -2.2451067300
13   
From optimize.out: Frame 10 / 39, Energy=    -286.8110008136
C        1.3757046665    0.6810235656   -0.2619153682
C        0.4842573951   -1.3524116821    0.0432208628
C       -0.7510929546   -1.0573296172    0.4578922285
C       -1.3579697449    0.2279633054    0.3147635820
C       -0.6958927353    1.4183285450    0.3217147378
N        0.6446753095    1.5809080215    0.3647080458
H        2.4199528757    0.6416680617    0.0752869894
H        1.1404947557   -2.2006092220    0.1345633420
H       -1.2869256039   -1.7707952708    1.0972580706
H       -2.4189034465    0.2638252554    0.5400417552
H       -1.2765349535    2.3381423792    0.4037144437
C        0.9190416787   -0.1710242773   -1.2589619681
H        0.8031927574   -0.5996890644   -2.2322867215
13   
From optimize.out: Frame 8 / 39, Energy=    -286.7874807788
C        1.4357941207    0.7721177388   -0.3017404219
C        0.3796424806   -1.4910289632    0.0063249491
C       -0.8031184141   -1.0948654601    0.4719060489
C       -1.3682324941    0.2214031605    0.3452590347
C       -0.7088109523    1.4126617008    0.3069104429
N        0.6192636503    1.6322918127    0.3064660606
H        2.4738610570    0.8274288314    0.0509395391
H        0.9901802176   -2.3732438478    0.0702546302
H       -1.3473836750   -1.7646859511    1.1543740087
H       -2.4146085448    0.2891874227    0.6222315861
H       -1.3056930129    2.3219874961    0.3991726623
C        1.0793402307   -0.1174282920   -1.2526688994
H        0.9697653363   -0.6358256488   -2.1794296413
13   
From optimize.out: Frame 7 / 39, Energy=    -286.7172756863
C        1.5421917594    0.8210130499   -0.3360068838
C        0.2192359556   -1.7537678504    0.1966408917
C       -0.9306018963   -1.1842206886    0.5297465511
C       -1.3967312547    0.1830070123    0.3189830148
C       -0.6767249488    1.3542802954    0.2934333658
N        0.6496147497    1.5591124081    0.3434126326
H        2.5385922730    0.8159362260    0.1228984255
H        0.7003896665   -2.7029755413    0.3702849212
H       -1.5803943715   -1.7492345304    1.2160699184
H       -2.4461043137    0.3205065773    0.5617023984
H       -1.2530006234    2.2766884251    0.3975418909
C        1.3160821435    0.1791016017   -1.4942800933
H        1.3174508606   -0.1194469851   -2.5204270335
13   
From optimize.out: Frame 6 / 39, Energy=    -286.7037718746
C        1.5861620571    0.7370335644   -0.3739403611
C        0.1415601231   -1.8123918055    0.3293020630
C       -1.0154265124   -1.2167938320    0.5510579267
C       -1.4538381018    0.1669531039    0.2756385295
C       -0.6618299079    1.2896836638    0.2904817955
N        0.6725864182    1.3966971632    0.3844555761
H        2.5212819070    0.5486166255    0.1647103173
H        0.6047360267   -2.7562927922    0.5757510011
H       -1.6977938593   -1.7256009730    1.2529588415
H       -2.5004304740    0.3367929912    0.5090697619
H       -1.1713197758    2.2481615957    0.4270106660
C        1.4433782006    0.4164130678   -1.6610329148
H        1.5309338985    0.3707276273   -2.7254632026
13   
From optimize.out: Frame 5 / 39, Energy=    -286.6934002061
C        1.6186595380    0.6469561110   -0.4268323420
C        0.0518321443   -1.8504283581    0.3892998820
C       -1.0998470011   -1.2394350869    0.5527882456
C       -1.5182822104    0.1610655520    0.2417479163
C       -0.6530353565    1.2269228574    0.2892044550
N        0.6858343953    1.2305144096    0.3979539908
H        2.4598693784    0.2353105632    0.1374023198
H        0.5134843471   -2.7832666307    0.6850126603
H       -1.7803122167   -1.6920691040    1.2969883340
H       -2.5539135627    0.3576381922    0.5019249319
H       -1.0866851951    2.2155581681    0.4742636267
C        1.5843760025    0.6504399345   -1.7526085095
H        1.7780197369    0.8407933917   -2.7871455108
13   
From optimize.out: Frame 4 / 39, Energy=    -286.6802913410
C        1.6431085572    0.5512411422   -0.4944370746
C       -0.0410392917   -1.8681633872    0.3904165305
C       -1.1825547205   -1.2516829827    0.5345784942
C       -1.6004630727    0.1768081378    0.2141853405
C       -0.6542303410    1.1755498407    0.2964561709
N        0.6831103448    1.0644948150    0.3910923358
H        2.3641024535   -0.0787312402    0.0257136725
H        0.4381380945   -2.7879135822    0.7144265746
H       -1.8320216392   -1.6562690778    1.3358385023
H       -2.6199851960    0.3842533595    0.5284843511
H       -0.9963980704    2.1827312819    0.5597494492
C        1.7403943765    0.8563067337   -1.7764640500
H        2.0578385051    1.2513749593   -2.7200402969
13   
From optimize.out: Frame 3 / 39, Energy=    -286.6599605353
C        1.6603013629    0.4415706333   -0.5677357997
C       -0.1075366089   -1.8126232540    0.3501095827
C       -1.2535253792   -1.2350161638    0.4959585638
C       -1.7188714596    0.2191349563    0.1924792082
C       -0.6777540944    1.1477853599    0.3177265992
N        0.6568777372    0.9112340840    0.3678774359
H        2.2626296955   -0.3502444660   -0.1378928852
H        0.4302486634   -2.7055473153    0.6876998464
H       -1.8401265139   -1.6154041678    1.3605801138
H       -2.7208503382    0.3980648726    0.5811494825
H       -0.9155755568    2.1487332823    0.6926880315
C        1.8910601083    0.9623048427   -1.7580083949
H        2.3331223838    1.4900073357   -2.5826317841
13   
From optimize.out: Frame 2 / 39, Energy=    -286.6245649499
C        1.7135987731    0.3807194839   -0.6446250755
C       -0.1833376599   -1.7769523986    0.3434101451
C       -1.3145271533   -1.2305193700    0.4779786813
C       -1.8538359967    0.2508566113    0.1890011266
C       -0.7048156014    1.1389971537    0.3570912164
N        0.6450128666    0.8128285900    0.3345649566
H        2.2561088169   -0.4844065908   -0.2950476929
H        0.3904105712   -2.6708881449    0.7028518065
H       -1.8594325168   -1.6061248712    1.3760171975
H       -2.8573321943    0.3955542534    0.6154138682
H       -0.8628758546    2.1177252363    0.8272360701
C        2.0503056524    1.0368773007   -1.7776552099
H        2.5807202968    1.6353327463   -2.5062370900
13   
From optimize.out: Frame 1 / 39, Energy=    -286.5772974531
C        1.6120765315    0.1925544986   -0.6241180886
C       -0.0827024293   -1.5267489455    0.2332243899
C       -1.2375079201   -1.1043830048    0.4244851544
C       -1.9797015706    0.3378712006    0.1886619132
C       -0.7821377726    1.2144330977    0.3857898271
N        0.5418142332    0.7465792675    0.3463064550
H        2.0367756378   -0.7336972653   -0.2706807540
H        0.6109474546   -2.3692673312    0.5744963323
H       -1.6614655336   -1.5149066733    1.3732184829
H       -2.9813067723    0.4130923639    0.6601534753
H       -0.8715920687    2.1633462296    0.9358150233
C        2.0789073156    0.8219640582   -1.7636435647
H        2.7158928945    1.3591625040   -2.4637086463
13   
C5H5N+CH->C6H6N atoms 1-13 frame 212 charge -0.000 sz -1.000 sz^2 2.495
C        1.6120765315    0.1925544986   -0.6241180886
C       -0.0827024293   -1.5267489455    0.2332243899
C       -1.2375079201   -1.1043830048    0.4244851544
C       -1.9797015706    0.3378712006    0.1886619132
C       -0.7821377726    1.2144330977    0.3857898271
N        0.5418142332    0.7465792675    0.3463064550
H        2.0367756378   -0.7336972653   -0.2706807540
H        0.6109474546   -2.3692673312    0.5744963323
H       -1.6614655336   -1.5149066733    1.3732184829
H       -2.9813067723    0.4130923639    0.6601534753
H       -0.8715920687    2.1633462296    0.9358150233
C        2.0789073156    0.8219640582   -1.7636435647
H        2.7158928945    1.3591625040   -2.4637086463
13   
C5H5N+CH->C6H6N atoms 1-13 frame 213 charge +0.000 sz -1.000 sz^2 2.513
C        1.6173460042    0.1887824619   -0.6137091628
C       -0.0823668746   -1.5204437314    0.2440767522
C       -1.2469544581   -1.1014671011    0.4309586655
C       -1.9888569344    0.3410343307    0.1936546962
C       -0.7929828767    1.2024420220    0.3829399306
N        0.5285411584    0.7431872472    0.3414972727
H        2.0304041695   -0.7395223347   -0.2446282794
H        0.6097160432   -2.3564887360    0.5616752273
H       -1.6574541355   -1.5080591524    1.3754217803
H       -2.9794898388    0.4095288172    0.6775057592
H       -0.8611209614    2.1669905263    0.9100291287
C        2.0968649428    0.8241186618   -1.7693660545
H        2.7263537614    1.3498969884   -2.4900557161
13   
C5H5N+CH->C6H6N atoms 1-13 frame 214 charge -0.000 sz -1.000 sz^2 2.543
C        1.6226566946    0.1860423749   -0.6038644973
C       -0.0803607310   -1.5145669190    0.2553731478
C       -1.2570016934   -1.0984417979    0.4384972299
C       -1.9966242491    0.3433421516    0.1995827664
C       -0.8041418265    1.1898531095    0.3803200376
N        0.5155304604    0.7395641029    0.3365586915
H        2.0249182232   -0.7442054014   -0.2181750844
H        0.6073934312   -2.3405353543    0.5479916330
H       -1.6548629830   -1.5034864273    1.3771105347
H       -2.9757781730    0.4065252307    0.6946225549
H       -0.8511368941    2.1703219479    0.8824949321
C        2.1142563379    0.8261623028   -1.7746388986
H        2.7351514028    1.3394246796   -2.5158730475
13   
C5H5N+CH->C6H6N atoms 1-13 frame 215 charge -0.000 sz -1.000 sz^2 2.574
C        1.6280933054    0.1843857187   -0.5947159658
C       -0.0769983509   -1.5089300067    0.2668176087
C       -1.2675453129   -1.0952579119    0.4467859202
C       -2.0029570829    0.3449347322    0.2064205696
C       -0.8154427536    1.1768226991    0.3780466099
N        0.5028999646    0.7356225552    0.3315341307
H        2.0203856124   -0.7474539234   -0.1917951458
H        0.6044662492   -2.3222892037    0.5334079731
H       -1.6541900862   -1.5015442063    1.3785515273
H       -2.9705292870    0.4044140313    0.7115771081
H       -0.8416910890    2.1732172647    0.8534673123
C        2.1311285657    0.8281896251   -1.7793198112