13   
From optimize.out: Frame 38 / 39, Energy=    -286.9243440236
C        1.3374088556    0.8630327542   -0.5692167788
C        0.2717232502   -1.4149392997   -0.2190670591
C       -0.9148941645   -1.0760410417    0.3592297020
C       -1.3808469394    0.2523161617    0.6636972589
C       -0.7390608738    1.4560185790    0.4365928386
N        0.4570638263    1.7816787336   -0.1031862444
H        2.2450018753    1.3291826855   -0.9589944881
H        0.4654123397   -2.4734959299   -0.3795090058
H       -1.5903632012   -1.8875257230    0.6227485735
H       -2.3618319473    0.3238665003    1.1270289569
H       -1.2999171019    2.3394086893    0.7502820903
C        1.3143766211   -0.5156861831   -0.6458662843
H        2.1959274605   -0.9778159267   -1.0837395593
13   
From optimize.out: Frame 37 / 39, Energy=    -286.9243414284
C        1.3440856881    0.8631793932   -0.5479627540
C        0.2719230112   -1.4163860061   -0.2163194508
C       -0.9027149201   -1.0793843824    0.3846346680
C       -1.3846973573    0.2545409843    0.6468729975
C       -0.7380840242    1.4552107408    0.4384035199
N        0.4925505054    1.7771961757   -0.0337123817
H        2.2562949644    1.3258771968   -0.9323083230
H        0.4711064073   -2.4763161793   -0.3611036708
H       -1.5674948187   -1.8902592249    0.6748146316
H       -2.3831401140    0.3265105299    1.0715412900
H       -1.3154313851    2.3398699452    0.7154592199
C        1.2943440458   -0.5136184739   -0.6826168537
H        2.1612579972   -0.9664206994   -1.1577028928
13   
From optimize.out: Frame 37 / 39, Energy=    -286.9243414284
C        1.3511392774    0.8682041948   -0.5267834070
C        0.2678136696   -1.4116238090   -0.2213090136
C       -0.8907368292   -1.0821107138    0.4146178902
C       -1.3792416465    0.2551129347    0.6517127692
C       -0.7434664536    1.4515191800    0.4335399836
N        0.5192302436    1.7702233009    0.0121108844
H        2.2772645366    1.3213242272   -0.8909090000
H        0.4708625088   -2.4704901817   -0.3711866590
H       -1.5468547607   -1.8925289203    0.7240705696
H       -2.3937657202    0.3214426454    1.0389359838
H       -1.3327298968    2.3415367892    0.6598259655
C        1.2729580756   -0.5116094086   -0.7126232743
H        2.1275269954   -0.9610002388   -1.2120026923
13   
From optimize.out: Frame 36 / 39, Energy=    -286.9243305176
C        1.3561127514    0.8709527366   -0.5066477029
C        0.2617588324   -1.4026329309   -0.2331944508
C       -0.8809007365   -1.0833632317    0.4491233714
C       -1.3764380244    0.2542287972    0.6547385198
C       -0.7515595625    1.4462298801    0.4178856289
N        0.5367483836    1.7625325024    0.0429410255
H        2.3039316036    1.3105661352   -0.8277871659
H        0.4693613966   -2.4595159673   -0.3889688220
H       -1.5219359183   -1.8970848006    0.7781251808
H       -2.3988336126    0.3254236301    1.0210886511
H       -1.3509168213    2.3373016484    0.6049579541
C        1.2538547670   -0.5088674316   -0.7478392301
H        2.0988169412   -0.9557709679   -1.2644229598
13   
From optimize.out: Frame 35 / 39, Energy=    -286.9243170450
C        1.3629922559    0.8738478081   -0.4890792815
C        0.2647899502   -1.4024654515   -0.2422643621
C       -0.8635707245   -1.0773718512    0.4858773157
C       -1.3803202673    0.2572565879    0.6579299471
C       -0.7635504550    1.4453718161    0.4000752279
N        0.5406219779    1.7458447872    0.0545562712
H        2.3417346361    1.2990665333   -0.7300387292
H        0.4504508459   -2.4618729731   -0.4121919284
H       -1.4871675396   -1.8940851043    0.8379567728
H       -2.4059308985    0.3219665140    1.0169655214
H       -1.3690897987    2.3404952904    0.5438908440
C        1.2341426413   -0.5038669057   -0.7973157724
H        2.0748973764   -0.9441870512   -1.3263618265
13   
From optimize.out: Frame 34 / 39, Energy=    -286.9242877908
C        1.3750622489    0.8689386563   -0.4494148754
C        0.2739523166   -1.3985019454   -0.2462332749
C       -0.8471642973   -1.0734323004    0.5008106902
C       -1.3863691066    0.2548348017    0.6482690903
C       -0.7696918659    1.4444280287    0.3808042477
N        0.5517355760    1.7296386730    0.0916248252
H        2.3642944921    1.2878959091   -0.6616592879
H        0.4538369011   -2.4615544490   -0.4064714724
H       -1.4478902228   -1.8937068916    0.8840305442
H       -2.4134872525    0.3216579019    1.0038887834
H       -1.3739202938    2.3457461329    0.4839013078
C        1.2070778781   -0.4962677855   -0.8217017212
H        2.0125636261   -0.9296767316   -1.4078488571
13   
From optimize.out: Frame 34 / 39, Energy=    -286.9242877908
C        1.3881261722    0.8571251688   -0.4303416565
C        0.2507265481   -1.3900937451   -0.2571604219
C       -0.8488468252   -1.0638016478    0.5260873280
C       -1.3998821648    0.2518210504    0.6571638350
C       -0.7789630834    1.4292466965    0.3714398283
N        0.5596428271    1.7000319853    0.1244271199
H        2.3603730173    1.3048971279   -0.6689006059
H        0.4225602329   -2.4480373457   -0.4466493969
H       -1.4313687501   -1.8855204400    0.9365121123
H       -2.4343305636    0.3274667780    0.9887857747
H       -1.3737732406    2.3377535989    0.4502371825
C        1.2364907600   -0.5052489909   -0.8277922578
H        2.0492450702   -0.9156402364   -1.4238088417
13   
From optimize.out: Frame 33 / 39, Energy=    -286.9242220292
C        1.3622133299    0.8661557888   -0.4573899309
C        0.2733451289   -1.3954543871   -0.2696142488
C       -0.8083932588   -1.0513897331    0.5357665878
C       -1.3818480241    0.2600348929    0.6822048900
C       -0.7933937738    1.4513048765    0.3656908144
N        0.5370686993    1.7176353194    0.0704144471
H        2.3791077841    1.2562236481   -0.5701235240
H        0.3919090929   -2.4599609989   -0.4740938247
H       -1.3979260648   -1.8745628437    0.9320974566
H       -2.4182327225    0.3010700911    1.0143954895
H       -1.3940186640    2.3566453934    0.4390379450
C        1.2012061547   -0.4928772207   -0.8766609048
H        2.0489623182   -0.9348248267   -1.3917251972
13   
From optimize.out: Frame 32 / 39, Energy=    -286.9240219809
C        1.3573019684    0.8496679569   -0.4300227721
C        0.2835212911   -1.3823240125   -0.2785709475
C       -0.7845158735   -1.0340912798    0.5409451278
C       -1.3894434428    0.2682879323    0.6694597012
C       -0.7972460290    1.4609894791    0.3695582826
N        0.5426599917    1.6983173420    0.1062503859
H        2.3815243080    1.2250831396   -0.5360231586
H        0.4122209540   -2.4507183879   -0.4571528535
H       -1.3491896468   -1.8574706492    0.9704425935
H       -2.4371333638    0.2733378194    0.9622295928
H       -1.3874561277    2.3747981987    0.4245148018
C        1.1700813343   -0.4963861479   -0.8950634001
H        1.9976746363   -0.9294913908   -1.4465673538
13   
From optimize.out: Frame 31 / 39, Energy=    -286.9237375381
C        1.3684702399    0.8432034040   -0.4027408354
C        0.2877603975   -1.3828299933   -0.2652271684
C       -0.7835570899   -1.0290816380    0.5381714976
C       -1.4037789036    0.2729499693    0.6467964924
C       -0.7988034696    1.4609792321    0.3622265441
N        0.5519910215    1.6750022476    0.1491298491
H        2.3914710032    1.2177626725   -0.5114688731
H        0.4410723894   -2.4540310183   -0.4089015631
H       -1.3335843055   -1.8492304198    0.9945617620
H       -2.4549688208    0.2607103541    0.9270027412
H       -1.3728263870    2.3858851496    0.4131536684
C        1.1613662216   -0.4986731682   -0.9065173122
H        1.9453877034   -0.9026467916   -1.5361868024
13   
From optimize.out: Frame 31 / 39, Energy=    -286.9237375381
C        1.3894561993    0.8537606832   -0.3936039358
C        0.2901390462   -1.3962017960   -0.2308616144
C       -0.7998447650   -1.0380371498    0.5306210589
C       -1.4167575409    0.2727286608    0.6239137066
C       -0.7999238645    1.4536167895    0.3415991233
N        0.5572098258    1.6599799017    0.1713864409
H        2.4157169553    1.2184724875   -0.4673004357
H        0.4724138171   -2.4681701040   -0.3394922683
H       -1.3523412272   -1.8533579459    0.9937160191
H       -2.4614989700    0.2653626143    0.9274907459
H       -1.3585859975    2.3875756649    0.4060106002
C        1.1662534560   -0.4940850534   -0.9244263966
H        1.8977630654   -0.8616447528   -1.6390530441
13   
From optimize.out: Frame 30 / 39, Energy=    -286.9234865018
C        1.3950117379    0.8543975643   -0.3927515570
C        0.2990601509   -1.3785025377   -0.2178426819
C       -0.7925994852   -1.0367296266    0.5364855658
C       -1.4211629609    0.2716975348    0.6072074497
C       -0.7996433813    1.4511386143    0.3331834040
N        0.5594812471    1.6539821325    0.1805222909
H        2.4395598363    1.1644711493   -0.3816338170
H        0.5213034166   -2.4467880289   -0.2917887950
H       -1.3316107956   -1.8549611927    1.0105029337
H       -2.4682072126    0.2622401504    0.9025254517
H       -1.3543945742    2.3874929844    0.3962193997
C        1.1279814590   -0.4872760703   -0.9632354665
H        1.8252205620   -0.8411626737   -1.7193941780
13   
From optimize.out: Frame 29 / 39, Energy=    -286.9231423255
C        1.4073436595    0.8528475208   -0.3834553649
C        0.3114276179   -1.3730713958   -0.1980902210
C       -0.7915257894   -1.0410572813    0.5345537488
C       -1.4272825637    0.2686021583    0.5804246821
C       -0.7947120014    1.4457010619    0.3278483884
N        0.5660051260    1.6438482582    0.2006462989
H        2.4603461665    1.1343240085   -0.3313566972
H        0.5772549325   -2.4334635670   -0.2347137902
H       -1.3232457770   -1.8570561373    1.0215272129
H       -2.4762910603    0.2679675251    0.8688374136
H       -1.3439078178    2.3847770018    0.3967262822
C        1.1016125334   -0.4789088426   -0.9832746712
H        1.7329749738   -0.8145103106   -1.7996732822
13   
From optimize.out: Frame 27 / 39, Energy=    -286.9224230006
C        1.4241229154    0.8498622005   -0.3686175053
C        0.3260569294   -1.3756918084   -0.1739185510
C       -0.7945024990   -1.0490832987    0.5275052108
C       -1.4345271832    0.2641520161    0.5470287088
C       -0.7867282419    1.4383212728    0.3245352360
N        0.5753198893    1.6309998615    0.2279818258
H        2.4791264849    1.1198323574   -0.3043056757
H        0.6378411783   -2.4254273097   -0.1714882572
H       -1.3229961685   -1.8594737827    1.0287694795
H       -2.4852777164    0.2795030415    0.8294246460
H       -1.3292894394    2.3803327852    0.4039917879
C        1.0830555836   -0.4695189402   -0.9909952292
H        1.6277982676   -0.7838083953   -1.8799116763
13   
From optimize.out: Frame 27 / 39, Energy=    -286.9224230006
C        1.4383096689    0.8438029120   -0.3548198570
C        0.3333476825   -1.3712734040   -0.1594116686
C       -0.7985922846   -1.0566444160    0.5265979592
C       -1.4346415318    0.2524133478    0.5192980147
C       -0.7758361452    1.4282458853    0.3148051299
N        0.5868759818    1.6246554813    0.2416448940
H        2.4989993030    1.0797921100   -0.2573834410
H        0.6990206504   -2.4020609318   -0.1224345259
H       -1.3209588315   -1.8602440866    1.0450874365
H       -2.4867974636    0.2864503631    0.7983076342
H       -1.3181512971    2.3691874500    0.4002175502
C        1.0579048093   -0.4545431879   -1.0055059042
H        1.5205194578   -0.7397815233   -1.9464032221
13   
From optimize.out: Frame 26 / 39, Energy=    -286.9217297764
C        1.4507413336    0.8440213378   -0.3488193896
C        0.3381013562   -1.3723400323   -0.1499013593
C       -0.8038862733   -1.0645684027    0.5216804947
C       -1.4340647535    0.2390922057    0.4836522670
C       -0.7629304574    1.4169192931    0.3045305509
N        0.6001664966    1.6147325177    0.2567425733
H        2.5156727979    1.0501583887   -0.2197701395
H        0.7549199550   -2.3819349766   -0.0698370025
H       -1.3171692273   -1.8561464769    1.0664918676
H       -2.4876028340    0.2915514996    0.7589145625
H       -1.3026595085    2.3563098146    0.4104709069
C        1.0388166293   -0.4414092929   -1.0122979356
H        1.4098944853   -0.6963858756   -2.0018573964
13   
From optimize.out: Frame 25 / 39, Energy=    -286.9211289624
C        1.4587904424    0.8512892765   -0.3491656417
C        0.3316419759   -1.3913127852   -0.1494039390
C       -0.8146300334   -1.0745666537    0.5118842150
C       -1.4319138466    0.2239700208    0.4395613896
C       -0.7473018829    1.4045530545    0.2960001085
N        0.6154155077    1.6015840863    0.2705606916
H        2.5242428393    1.0433502972   -0.1950633958
H        0.7849159770   -2.3800915925   -0.0123211864
H       -1.3144190947   -1.8426389986    1.0996606057
H       -2.4861811185    0.2960417442    0.7119948591
H       -1.2833553752    2.3413530883    0.4360096037
C        1.0410438634   -0.4289412865   -1.0154102756
H        1.3217507456   -0.6445902512   -2.0443070347
13   
From optimize.out: Frame 24 / 39, Energy=    -286.9202443334
C        1.4599805224    0.8454839588   -0.3251444844
C        0.2949707482   -1.4440279593   -0.1554012754
C       -0.8395406626   -1.0903122164    0.5101486582
C       -1.4259160044    0.2097451813    0.4142149460
C       -0.7329299882    1.3952909890    0.2960005670
N        0.6279782434    1.6003785388    0.2662666694
H        2.5215190268    1.0530385605   -0.1562886727
H        0.7464269063   -2.4254280436    0.0379713421
H       -1.3264428272   -1.8225378001    1.1494524787
H       -2.4783849564    0.3085848751    0.6905025972
H       -1.2777559870    2.3273187541    0.4293002434
C        1.0869255346   -0.4057591329   -1.0551624398
H        1.3431694442   -0.5517757052   -2.1018606298
13   
From optimize.out: Frame 24 / 39, Energy=    -286.9202443334
C        1.4516989299    0.8172195482   -0.3125974547
C        0.3314849474   -1.4251373764   -0.1335100780
C       -0.8261434223   -1.0877675164    0.4984378945
C       -1.4229745187    0.2106140061    0.3921457515
C       -0.7274151764    1.3988067341    0.3014635994
N        0.6329073214    1.5858336198    0.2852554193
H        2.5168152741    1.0055060438   -0.1429264712
H        0.7966839588   -2.3968456048    0.0719235257
H       -1.3141721922   -1.8202528025    1.1366559558
H       -2.4772817149    0.3068717729    0.6614383429
H       -1.2691836431    2.3325235468    0.4369682923
C        1.0487783338   -0.3968534704   -1.0696495803
H        1.2588019023   -0.5305185011   -2.1256051972
13   
From optimize.out: Frame 23 / 39, Energy=    -286.9189475391
C        1.4416894995    0.7848581129   -0.3021435543
C        0.3813497524   -1.3931843536   -0.1065314085
C       -0.8057579975   -1.0818862766    0.4849074371
C       -1.4205905786    0.2142362420    0.3706743981
C       -0.7235160882    1.4046534284    0.3079231235
N        0.6364438550    1.5688553107    0.3084914508
H        2.5117503375    0.9475352184   -0.1342000637
H        0.8631302249   -2.3547787607    0.1028948767
H       -1.2974697387   -1.8212178657    1.1124419547
H       -2.4773994070    0.3025580253    0.6309927932
H       -1.2600689677    2.3412379727    0.4472590919
C        0.9953024481   -0.3905521489   -1.0795278336
H        1.1551366605   -0.5223149051   -2.1431822661
13   
From optimize.out: Frame 22 / 39, Energy=    -286.9177838652
C        1.4316800690    0.7524966776   -0.2916896539
C        0.4312145575   -1.3612313308   -0.0795527389
C       -0.7853725727   -1.0760050368    0.4713769798
C       -1.4182066385    0.2178584780    0.3492030447
C       -0.7196170000    1.4105001227    0.3143826477
N        0.6399803886    1.5518770016    0.3317274823
H        2.5066854009    0.8895643930   -0.1254736562
H        0.9295764910   -2.3127119165    0.1338662278
H       -1.2807672852   -1.8221829288    1.0882279537
H       -2.4775170991    0.2982442777    0.6005472436
H       -1.2509542923    2.3499523986    0.4575498914
C        0.9418265624   -0.3842508274   -1.0894060870
H        1.0514714187   -0.5141113090   -2.1607593350
13   
From optimize.out: Frame 21 / 39, Energy=    -286.9160793670
C        1.4152487754    0.7235540018   -0.2737346475
C        0.4729905193   -1.3412890262   -0.0580920071
C       -0.7640440425   -1.0708192302    0.4614065060
C       -1.4070939763    0.2195785861    0.3301385740
C       -0.7110143561    1.4170092035    0.3164670380
N        0.6477261122    1.5442646390    0.3532029727
H        2.4934277632    0.8222594735   -0.1025505200
H        0.9862620446   -2.2834764336    0.1583659398
H       -1.2625368634   -1.8184987952    1.0739253204
H       -2.4694864115    0.2917394963    0.5699101786
H       -1.2439565144    2.3562092926    0.4549648481
C        0.8848904771   -0.3644301083   -1.1041300351
H        0.9575864725   -0.4961010993   -2.1798741680
13   
From optimize.out: Frame 21 / 39, Energy=    -286.9160793670
C        1.3878156541    0.7004682869   -0.2429288729
C        0.5009088114   -1.3419232819   -0.0460845130
C       -0.7410998000   -1.0668248279    0.4575349361
C       -1.3810274144    0.2180400009    0.3151975342
C       -0.6943536598    1.4246530737    0.3110560228
N        0.6626829493    1.5526978581    0.3716623337
H        2.4661345281    0.7389635412   -0.0553057873
H        1.0262257104   -2.2762234223    0.1717785491
H       -1.2416887521   -1.8068497362    1.0766026752
H       -2.4474960572    0.2814810727    0.5389450127
H       -1.2405853698    2.3582559841    0.4303211277
C        0.8220264362   -0.3214481849   -1.1271555459
H        0.8804569637   -0.4612903645   -2.2016234725
13   
From optimize.out: Frame 20 / 39, Energy=    -286.9149774578
C        1.3603825328    0.6773825720   -0.2121230983
C        0.5288271036   -1.3425575375   -0.0340770189
C       -0.7181555575   -1.0628304255    0.4536633663
C       -1.3549608526    0.2165014157    0.3002564943
C       -0.6776929636    1.4322969439    0.3056450077
N        0.6776397864    1.5611310771    0.3901216947
H        2.4388412930    0.6556676089   -0.0080610547
H        1.0661893761   -2.2689704110    0.1851911583
H       -1.2208406408   -1.7952006771    1.0792800300
H       -2.4255057028    0.2712226491    0.5079798468
H       -1.2372142251    2.3603026757    0.4056774073
C        0.7591623954   -0.2784662616   -1.1501810567
H        0.8033274550   -0.4264796298   -2.2233727770
13   
From optimize.out: Frame 19 / 39, Energy=    -286.9103069701
C        1.3791251061    0.6921056885   -0.2272890121
C        0.4841800300   -1.3564655498   -0.0375333445
C       -0.7492979506   -1.0681642541    0.4666798799
C       -1.3731933388    0.2143720823    0.3168150840
C       -0.6895588648    1.4230301254    0.3042508459
N        0.6648471593    1.5608979746    0.3689184399
H        2.4510509756    0.7142436063   -0.0091886474
H        1.0313320766   -2.2785842297    0.1604403949
H       -1.2509073968   -1.7929181805    1.1032732010
H       -2.4382874207    0.2819171994    0.5403050355
H       -1.2489416924    2.3513303017    0.4061348963
C        0.8431436306   -0.2806979036   -1.1642650327
H        0.8965076859   -0.4610668605   -2.2285417408
13   
From optimize.out: Frame 18 / 39, Energy=    -286.9034967195
C        1.3992552603    0.7079649614   -0.2438363763
C        0.4373523653   -1.3707724389   -0.0414543584
C       -0.7820656486   -1.0737783963    0.4802038809
C       -1.3927570126    0.2122249968    0.3343202384
C       -0.7022819910    1.4132551403    0.3029773907
N        0.6512206601    1.5604044488    0.3465233224
H        2.4644477220    0.7770828591   -0.0117698297
H        0.9942264051   -2.2887048970    0.1345428211
H       -1.2825041460   -1.7909171494    1.1279069129
H       -2.4521140403    0.2932413871    0.5745321011
H       -1.2611228735    2.3420268044    0.4073466773
C        0.9315375703   -0.2842882144   -1.1780803153
H        0.9948057290   -0.4977395019   -2.2332124649
13   
From optimize.out: Frame 18 / 39, Energy=    -286.9034967195
C        1.4193854144    0.7238242343   -0.2603837406
C        0.3905247005   -1.3850793280   -0.0453753722
C       -0.8148333466   -1.0793925386    0.4937278818
C       -1.4123206863    0.2100779114    0.3518253929
C       -0.7150051172    1.4034801552    0.3017039355
N        0.6375941608    1.5599109231    0.3241282048
H        2.4778444683    0.8399221118   -0.0143510121
H        0.9571207336   -2.2988255644    0.1086452473
H       -1.3141008952   -1.7889161183    1.1525406248
H       -2.4659406599    0.3045655748    0.6087591667
H       -1.2733040545    2.3327233072    0.4085584583
C        1.0199315100   -0.2878785252   -1.1918955980
H        1.0931037721   -0.5344121433   -2.2378831891
13   
From optimize.out: Frame 17 / 39, Energy=    -286.8963890108
C        1.4395155685    0.7396835072   -0.2769311049
C        0.3436970358   -1.3993862171   -0.0492963861
C       -0.8476010445   -1.0850066808    0.5072518828
C       -1.4318843601    0.2079308259    0.3693305473
C       -0.7277282434    1.3937051701    0.3004304802
N        0.6239676616    1.5594173974    0.3017330873
H        2.4912412146    0.9027613645   -0.0169321945
H        0.9200150621   -2.3089462317    0.0827476735
H       -1.3456976444   -1.7869150871    1.1771743367
H       -2.4797672795    0.3158897625    0.6429862322
H       -1.2854852356    2.3234198099    0.4097702393
C        1.1083254497   -0.2914688360   -1.2057108806
H        1.1914018152   -0.5710847848   -2.2425539132
13   
From optimize.out: Frame 16 / 39, Energy=    -286.8906620736
C        1.4421936542    0.7408601685   -0.2832981340
C        0.3365904394   -1.4011090106   -0.0409069355
C       -0.8527796384   -1.0846541880    0.5083290098
C       -1.4331630782    0.2091168341    0.3717620955
C       -0.7303661988    1.3916967874    0.3021801295
N        0.6196527421    1.5615688540    0.2978617979
H        2.4898166037    0.9042342243   -0.0079250941
H        0.9265231948   -2.3018080157    0.0759334350
H       -1.3545062104   -1.7841495058    1.1802480112
H       -2.4797113735    0.3155973853    0.6481575512
H       -1.2904063004    2.3205388229    0.4096850478
C        1.1302013192   -0.2798113785   -1.2183466198
H        1.1959548462   -0.5920809780   -2.2436802943
13   
From optimize.out: Frame 15 / 39, Energy=    -286.8776151038
C        1.4238359128    0.7243391638   -0.2773943100
C        0.3773615787   -1.3876635816   -0.0176790836
C       -0.8247037434   -1.0771098198    0.4944033145
C       -1.4124020498    0.2143203822    0.3560246929
C       -0.7208480071    1.3990498685    0.3075736736
N        0.6265615226    1.5669084365    0.3163181795
H        2.4705270899    0.8317391863    0.0150499271
H        0.9856011670   -2.2738668281    0.0921212685
H       -1.3358470709   -1.7804623751    1.1573343240
H       -2.4629221843    0.3013029976    0.6183065655
H       -1.2865763940    2.3253991997    0.4080365522
C        1.0718997238   -0.2497750442   -1.2295605980
H        1.0875124548   -0.5941815857   -2.2405345062
13   
From optimize.out: Frame 15 / 39, Energy=    -286.8776151038
C        1.4054781715    0.7078181591   -0.2714904859
C        0.4181327179   -1.3742181527    0.0055487683
C       -0.7966278484   -1.0695654517    0.4804776192
C       -1.3916410214    0.2195239303    0.3402872903
C       -0.7113298155    1.4064029496    0.3129672177
N        0.6334703031    1.5722480190    0.3347745610
H        2.4512375761    0.7592441482    0.0380249484
H        1.0446791392   -2.2459256406    0.1083091021
H       -1.3171879315   -1.7767752443    1.1344206369
H       -2.4461329951    0.2870086099    0.5884555799
H       -1.2827464876    2.3302595765    0.4063880565
C        1.0135981284   -0.2197387099   -1.2407745762
H        0.9790700634   -0.5962821935   -2.2373887182
13   
From optimize.out: Frame 14 / 39, Energy=    -286.8739722409
C        1.3871204302    0.6912971544   -0.2655866619
C        0.4589038571   -1.3607727238    0.0287766202
C       -0.7685519534   -1.0620210835    0.4665519239
C       -1.3708799930    0.2247274784    0.3245498878
C       -0.7018116239    1.4137560306    0.3183607617
N        0.6403790835    1.5775876014    0.3532309426
H        2.4319480623    0.6867491102    0.0609999696
H        1.1037571113   -2.2179844530    0.1244969357
H       -1.2985287921   -1.7730881135    1.1115069498
H       -2.4293438059    0.2727142222    0.5586045943
H       -1.2789165812    2.3351199533    0.4047395609
C        0.9552965330   -0.1897023756   -1.2519885544
H        0.8706276720   -0.5983828012   -2.2342429302
13   
From optimize.out: Frame 13 / 39, Energy=    -286.8481228756
C        1.3844845332    0.6943336332   -0.2677343371
C        0.4689717678   -1.3726655064    0.0378298802
C       -0.7586945647   -1.0628141020    0.4599398336
C       -1.3594692687    0.2270047812    0.3192193724
C       -0.6977802582    1.4175005439    0.3195516338
N        0.6409623289    1.5884158753    0.3561981188
H        2.4278295764    0.6688101754    0.0717295038
H        1.1185318069   -2.2258334318    0.1251669858
H       -1.2957593304   -1.7699026181    1.1056034671
H       -2.4182759044    0.2675310046    0.5520507802
H       -1.2807953329    2.3357819364    0.4030508292
C        0.9424634244   -0.1631931926   -1.2580424672
H        0.8275312217   -0.6049690989   -2.2245636006
13   
From optimize.out: Frame 12 / 39, Energy=    -286.8350702626
C        1.4077024879    0.7295314964   -0.2831223333
C        0.4285496275   -1.4262258158    0.0235736739
C       -0.7787966738   -1.0773175704    0.4653546315
C       -1.3634346908    0.2244700078    0.3310025055
C       -0.7027717260    1.4153109328    0.3138314047
N        0.6311435219    1.6082700502    0.3336940074
H        2.4486591501    0.7405862499    0.0623218963
H        1.0604517962   -2.2925376977    0.1003187528
H       -1.3191197150   -1.7675420390    1.1276724854
H       -2.4166163980    0.2773306884    0.5838080960
H       -1.2920617109    2.3295398537    0.4012959310
C        1.0044011566   -0.1424842483   -1.2556108894
H        0.8918931742   -0.6189319081   -2.2041401618
13   
From optimize.out: Frame 12 / 39, Energy=    -286.8350702626
C        1.4309204427    0.7647293596   -0.2985103295
C        0.3881274871   -1.4797861252    0.0093174677
C       -0.7988987829   -1.0918210388    0.4707694293
C       -1.3674001129    0.2219352345    0.3427856387
C       -0.7077631939    1.4131213218    0.3081111755
N        0.6213247149    1.6281242252    0.3111898959
H        2.4694887238    0.8123623244    0.0529142888
H        1.0023717856   -2.3592419635    0.0754705197
H       -1.3424800995   -1.7651814599    1.1497415037
H       -2.4149568916    0.2871303723    0.6155654118
H       -1.3033280889    2.3232977709    0.3995410328
C        1.0663388889   -0.1217753039   -1.2531793116
H        0.9562551267   -0.6328947173   -2.1837167229
13   
From optimize.out: Frame 10 / 39, Energy=    -286.8110008136
C        1.4501879339    0.7787324531   -0.3063760986
C        0.3579421723   -1.5265731212    0.0320714992
C       -0.8203647878   -1.1069537215    0.4797308972
C       -1.3720878977    0.2162088066    0.3417043306
C       -0.7044702550    1.4047636773    0.3050872207
N        0.6233696442    1.6223918685    0.3114643112
H        2.4826181032    0.8258740749    0.0606743677
H        0.9509764240   -2.4178510071    0.1108436887
H       -1.3789061081   -1.7625956334    1.1627204289
H       -2.4188693933    0.2934243782    0.6140430037
H       -1.2985646177    2.3158592928    0.3989520464
C        1.1113674347   -0.0773127785   -1.2853548353
H        1.0168013473   -0.5659682898   -2.2255608604
13   
From optimize.out: Frame 8 / 39, Energy=    -286.7874807788
C        1.4684058724    0.7871045540   -0.3122433744
C        0.3304765608   -1.5715605940    0.0646583515
C       -0.8421931504   -1.1222535728    0.4896346387
C       -1.3769675987    0.2096344251    0.3372052184
C       -0.6989763282    1.3947673197    0.3027796079
N        0.6285665120    1.6098617230    0.3177904889
H        2.4937017073    0.8239062533    0.0729955299
H        0.9013570293   -2.4743093249    0.1622163831
H       -1.4188033707   -1.7599499635    1.1732843127
H       -2.4242622571    0.2987870013    0.6036788920
H       -1.2895423619    2.3081029581    0.3986728175
C        1.1519035749   -0.0265394397   -1.3267247183
H        1.0763338103   -0.4775513395   -2.2839481478
13   
From optimize.out: Frame 7 / 39, Energy=    -286.7172756863
C        1.4866238109    0.7954766549   -0.3181106502
C        0.3030109494   -1.6165480669    0.0972452037
C       -0.8640215129   -1.1375534242    0.4995383802
C       -1.3818472997    0.2030600437    0.3327061062
C       -0.6934824014    1.3847709620    0.3004719950
N        0.6337633798    1.5973315776    0.3241166667
H        2.5047853115    0.8219384316    0.0853166921
H        0.8517376345   -2.5307676428    0.2135890776
H       -1.4587006333   -1.7573042936    1.1838481964
H       -2.4296551210    0.3041496244    0.5933147803
H       -1.2805201062    2.3003466235    0.3983935886
C        1.1924397151    0.0242338992   -1.3680946013
H        1.1358662733   -0.3891343893   -2.3423354352
13   
From optimize.out: Frame 7 / 39, Energy=    -286.7172756863
C        1.5048417494    0.8038487558   -0.3239779261
C        0.2755453379   -1.6615355397    0.1298320560
C       -0.8858498755   -1.1528532755    0.5094421217
C       -1.3867270008    0.1964856622    0.3282069940
C       -0.6879884746    1.3747746044    0.2981643821
N        0.6389602476    1.5848014321    0.3304428445
H        2.5158689157    0.8199706100    0.0976378543
H        0.8021182398   -2.5872259607    0.2649617720
H       -1.4985978959   -1.7546586237    1.1944120802
H       -2.4350479848    0.3095122474    0.5829506685
H       -1.2714978504    2.2925902889    0.3981143597
C        1.2329758554    0.0750072380   -1.4094644843
H        1.1953987363   -0.3007174391   -2.4007227227
13   