13   
Frame   0 IRC: Energy =  -286.8593440000 ; +0.0000 kcal/mol
C       -0.2908560000    0.1027630000    0.0000000000
C       -0.0543320000   -0.1544550000   -0.0000000000
C       -0.1534170000    0.9800260000   -0.0000000000
C       -0.0265000000   -0.1154070000    0.0000000000
C       -0.0527380000    0.0533520000   -0.0000000000
N       -0.1710480000    0.0359080000   -0.0000000000
H        0.1442230000    0.0035930000    0.0000000000
H        0.1385130000    0.0051930000   -0.0000000000
H        0.1307960000   -0.0231030000   -0.0000000000
H        0.1335530000    0.0235530000    0.0000000000
H        0.1311770000    0.0011000000   -0.0000000000
C       -0.0627160000    0.0871970000    0.0000000000
H        0.1333440000    0.0002800000    0.0000000000
13   
Frame   1 IRC: Energy =  -286.8593410000 ; +0.0019 kcal/mol
C       -0.2905560000    0.1028610000    0.0000000000
C       -0.0546270000   -0.1545820000   -0.0000000000
C       -0.1531870000    0.9795700000   -0.0000000000
C       -0.0267510000   -0.1153480000    0.0000000000
C       -0.0528290000    0.0535990000   -0.0000000000
N       -0.1710360000    0.0358110000   -0.0000000000
H        0.1442120000    0.0036030000    0.0000000000
H        0.1385170000    0.0051830000   -0.0000000000
H        0.1308240000   -0.0231070000   -0.0000000000
H        0.1335380000    0.0234990000    0.0000000000
H        0.1311890000    0.0010800000   -0.0000000000
C       -0.0626900000    0.0875550000    0.0000000000
H        0.1333960000    0.0002760000    0.0000000000
13   
Frame   2 IRC: Energy =  -286.8593190000 ; +0.0157 kcal/mol
C       -0.2906850000    0.1018030000    0.0000000000
C       -0.0553120000   -0.1542840000   -0.0000000000
C       -0.1527180000    0.9800120000   -0.0000000000
C       -0.0272680000   -0.1156470000    0.0000000000
C       -0.0519800000    0.0533740000   -0.0000000000
N       -0.1713170000    0.0357890000   -0.0000000000
H        0.1442000000    0.0036460000    0.0000000000
H        0.1384590000    0.0051480000   -0.0000000000
H        0.1309860000   -0.0235350000   -0.0000000000
H        0.1334370000    0.0234140000    0.0000000000
H        0.1311520000    0.0011160000   -0.0000000000
C       -0.0624030000    0.0888450000    0.0000000000
H        0.1334490000    0.0003190000    0.0000000000
13   
Frame   3 IRC: Energy =  -286.8593130000 ; +0.0195 kcal/mol
C       -0.2902960000    0.1019190000    0.0000000000
C       -0.0557550000   -0.1544380000   -0.0000000000
C       -0.1524200000    0.9794530000   -0.0000000000
C       -0.0275670000   -0.1155980000    0.0000000000
C       -0.0519910000    0.0536350000   -0.0000000000
N       -0.1713010000    0.0356690000   -0.0000000000
H        0.1441840000    0.0036550000    0.0000000000
H        0.1384490000    0.0051350000   -0.0000000000
H        0.1310240000   -0.0235820000   -0.0000000000
H        0.1334080000    0.0233490000    0.0000000000
H        0.1311520000    0.0010970000   -0.0000000000
C       -0.0623900000    0.0893850000    0.0000000000
H        0.1335040000    0.0003200000    0.0000000000
13   
Frame   4 IRC: Energy =  -286.8592960000 ; +0.0301 kcal/mol
C       -0.2905300000    0.1010520000    0.0000000000
C       -0.0560470000   -0.1541500000   -0.0000000000
C       -0.1522100000    0.9800190000   -0.0000000000
C       -0.0278930000   -0.1158190000    0.0000000000
C       -0.0513920000    0.0533770000   -0.0000000000
N       -0.1715330000    0.0356910000   -0.0000000000
H        0.1441840000    0.0036870000    0.0000000000
H        0.1384250000    0.0051130000   -0.0000000000
H        0.1311430000   -0.0238730000   -0.0000000000
H        0.1333520000    0.0233040000    0.0000000000
H        0.1311290000    0.0011270000   -0.0000000000
C       -0.0621710000    0.0901220000    0.0000000000
H        0.1335420000    0.0003510000    0.0000000000
13   
Frame   5 IRC: Energy =  -286.8592890000 ; +0.0345 kcal/mol
C       -0.2900820000    0.1011840000    0.0000000000
C       -0.0565780000   -0.1543390000   -0.0000000000
C       -0.1519190000    0.9794140000   -0.0000000000
C       -0.0280980000   -0.1157850000    0.0000000000
C       -0.0513170000    0.0536080000   -0.0000000000
N       -0.1714810000    0.0355490000   -0.0000000000
H        0.1441670000    0.0036910000    0.0000000000
H        0.1384060000    0.0051020000   -0.0000000000
H        0.1311890000   -0.0239560000   -0.0000000000
H        0.1333180000    0.0232380000    0.0000000000
H        0.1310990000    0.0011170000   -0.0000000000
C       -0.0623140000    0.0908270000    0.0000000000
H        0.1336100000    0.0003500000    0.0000000000
13   
Frame   6 IRC: Energy =  -286.8592720000 ; +0.0452 kcal/mol
C       -0.2902540000    0.1003280000    0.0000000000
C       -0.0569000000   -0.1540050000   -0.0000000000
C       -0.1515830000    0.9800050000   -0.0000000000
C       -0.0286520000   -0.1159630000    0.0000000000
C       -0.0508200000    0.0533820000   -0.0000000000
N       -0.1717490000    0.0356170000   -0.0000000000
H        0.1441630000    0.0037270000    0.0000000000
H        0.1383740000    0.0050750000   -0.0000000000
H        0.1312930000   -0.0242010000   -0.0000000000
H        0.1332610000    0.0231850000    0.0000000000
H        0.1311230000    0.0011320000   -0.0000000000
C       -0.0618580000    0.0913360000    0.0000000000
H        0.1336040000    0.0003820000    0.0000000000
13   
Frame   7 IRC: Energy =  -286.8592580000 ; +0.0540 kcal/mol
C       -0.2900360000    0.0998750000    0.0000000000
C       -0.0574160000   -0.1541310000   -0.0000000000
C       -0.1512520000    0.9799300000   -0.0000000000
C       -0.0284190000   -0.1158710000    0.0000000000
C       -0.0506560000    0.0532730000   -0.0000000000
N       -0.1715720000    0.0354040000   -0.0000000000
H        0.1441840000    0.0037450000    0.0000000000
H        0.1383520000    0.0050710000   -0.0000000000
H        0.1314470000   -0.0242800000   -0.0000000000
H        0.1332160000    0.0230590000    0.0000000000
H        0.1310720000    0.0011610000   -0.0000000000
C       -0.0627530000    0.0924110000    0.0000000000
H        0.1338320000    0.0003520000    0.0000000000
13   
Frame   8 IRC: Energy =  -286.8592070000 ; +0.0860 kcal/mol
C       -0.2894480000    0.0988080000    0.0000000000
C       -0.0588680000   -0.1537600000   -0.0000000000
C       -0.1503530000    0.9797140000   -0.0000000000
C       -0.0304060000   -0.1163570000    0.0000000000
C       -0.0494530000    0.0534340000   -0.0000000000
N       -0.1722850000    0.0354370000   -0.0000000000
H        0.1441100000    0.0038040000    0.0000000000
H        0.1383000000    0.0049830000   -0.0000000000
H        0.1316700000   -0.0251110000   -0.0000000000
H        0.1330550000    0.0229250000    0.0000000000
H        0.1310700000    0.0011440000   -0.0000000000
C       -0.0611650000    0.0945080000    0.0000000000
H        0.1337740000    0.0004710000    0.0000000000
13   
Frame   9 IRC: Energy =  -286.8591950000 ; +0.0935 kcal/mol
C       -0.2895700000    0.0982340000    0.0000000000
C       -0.0587750000   -0.1534420000   -0.0000000000
C       -0.1503140000    0.9804130000   -0.0000000000
C       -0.0308560000   -0.1166000000    0.0000000000
C       -0.0489440000    0.0533600000   -0.0000000000
N       -0.1721730000    0.0356320000   -0.0000000000
H        0.1440940000    0.0038080000    0.0000000000
H        0.1382820000    0.0049760000   -0.0000000000
H        0.1316780000   -0.0252800000   -0.0000000000
H        0.1329960000    0.0229470000    0.0000000000
H        0.1310470000    0.0011880000   -0.0000000000
C       -0.0611220000    0.0942880000    0.0000000000
H        0.1336570000    0.0004760000    0.0000000000
13   
Frame  10 IRC: Energy =  -286.8591420000 ; +0.1268 kcal/mol
C       -0.2886180000    0.0972090000    0.0000000000
C       -0.0608960000   -0.1535670000   -0.0000000000
C       -0.1490290000    0.9797500000   -0.0000000000
C       -0.0315790000   -0.1164510000    0.0000000000
C       -0.0483070000    0.0531260000   -0.0000000000
N       -0.1726110000    0.0351620000   -0.0000000000
H        0.1441070000    0.0038780000    0.0000000000
H        0.1381930000    0.0049180000   -0.0000000000
H        0.1320860000   -0.0257790000   -0.0000000000
H        0.1328890000    0.0226210000    0.0000000000
H        0.1310070000    0.0011750000   -0.0000000000
C       -0.0613040000    0.0974470000    0.0000000000
H        0.1340650000    0.0005130000    0.0000000000
13   
Frame  11 IRC: Energy =  -286.8591310000 ; +0.1337 kcal/mol
C       -0.2883980000    0.0973320000    0.0000000000
C       -0.0611230000   -0.1537310000   -0.0000000000
C       -0.1488300000    0.9791160000   -0.0000000000
C       -0.0315050000   -0.1163150000    0.0000000000
C       -0.0486090000    0.0532000000   -0.0000000000
N       -0.1728300000    0.0350510000   -0.0000000000
H        0.1441090000    0.0038900000    0.0000000000
H        0.1382090000    0.0049130000   -0.0000000000
H        0.1321600000   -0.0257860000   -0.0000000000
H        0.1328970000    0.0225670000    0.0000000000
H        0.1310500000    0.0011400000   -0.0000000000
C       -0.0612760000    0.0981060000    0.0000000000
H        0.1341460000    0.0005180000    0.0000000000
13   
Frame  12 IRC: Energy =  -286.8590470000 ; +0.1864 kcal/mol
C       -0.2876470000    0.0948040000    0.0000000000
C       -0.0627120000   -0.1528840000   -0.0000000000
C       -0.1478320000    0.9804450000   -0.0000000000
C       -0.0340550000   -0.1170290000    0.0000000000
C       -0.0465670000    0.0526470000   -0.0000000000
N       -0.1732580000    0.0354120000   -0.0000000000
H        0.1440460000    0.0039500000    0.0000000000
H        0.1381400000    0.0048040000   -0.0000000000
H        0.1325670000   -0.0270530000   -0.0000000000
H        0.1326220000    0.0223490000    0.0000000000
H        0.1309940000    0.0012150000   -0.0000000000
C       -0.0604300000    0.1007130000    0.0000000000
H        0.1341310000    0.0006270000    0.0000000000
13   
Frame  13 IRC: Energy =  -286.8590180000 ; +0.2046 kcal/mol
C       -0.2877050000    0.0938330000    0.0000000000
C       -0.0623040000   -0.1524500000   -0.0000000000
C       -0.1479890000    0.9814900000   -0.0000000000
C       -0.0348040000   -0.1173450000    0.0000000000
C       -0.0458960000    0.0526910000   -0.0000000000
N       -0.1728980000    0.0357160000   -0.0000000000
H        0.1440170000    0.0039410000    0.0000000000
H        0.1381240000    0.0047870000   -0.0000000000
H        0.1325780000   -0.0272660000   -0.0000000000
H        0.1325390000    0.0223900000    0.0000000000
H        0.1309980000    0.0012840000   -0.0000000000
C       -0.0607320000    0.1003370000    0.0000000000
H        0.1340720000    0.0005930000    0.0000000000
13   
Frame  14 IRC: Energy =  -286.8586980000 ; +0.4054 kcal/mol
C       -0.2823400000    0.0880410000    0.0000000000
C       -0.0713220000   -0.1512170000   -0.0000000000
C       -0.1425430000    0.9817670000   -0.0000000000
C       -0.0415110000   -0.1174590000    0.0000000000
C       -0.0418590000    0.0501930000   -0.0000000000
N       -0.1751800000    0.0353330000   -0.0000000000
H        0.1440120000    0.0041270000    0.0000000000
H        0.1378530000    0.0044570000   -0.0000000000
H        0.1343620000   -0.0307240000   -0.0000000000
H        0.1319940000    0.0212230000    0.0000000000
H        0.1308720000    0.0012960000   -0.0000000000
C       -0.0590460000    0.1119420000    0.0000000000
H        0.1347080000    0.0010210000    0.0000000000
13   
Frame  15 IRC: Energy =  -286.8586600000 ; +0.4292 kcal/mol
C       -0.2821590000    0.0866870000    0.0000000000
C       -0.0715830000   -0.1507150000   -0.0000000000
C       -0.1420670000    0.9829280000   -0.0000000000
C       -0.0423530000   -0.1176570000    0.0000000000
C       -0.0413610000    0.0498830000   -0.0000000000
N       -0.1750420000    0.0356890000   -0.0000000000
H        0.1440110000    0.0041380000    0.0000000000
H        0.1378500000    0.0044300000   -0.0000000000
H        0.1345880000   -0.0310510000   -0.0000000000
H        0.1318790000    0.0211600000    0.0000000000
H        0.1309170000    0.0013580000   -0.0000000000
C       -0.0593550000    0.1121570000    0.0000000000
H        0.1346750000    0.0009930000    0.0000000000
13   
Frame  16 IRC: Energy =  -286.8582620000 ; +0.6790 kcal/mol
C       -0.2745030000    0.0783840000    0.0000000000
C       -0.0808470000   -0.1478800000   -0.0000000000
C       -0.1368830000    0.9864030000   -0.0000000000
C       -0.0521220000   -0.1173750000    0.0000000000
C       -0.0364350000    0.0442390000   -0.0000000000
N       -0.1773070000    0.0366060000   -0.0000000000
H        0.1440520000    0.0041780000    0.0000000000
H        0.1376890000    0.0039790000   -0.0000000000
H        0.1364320000   -0.0356670000   -0.0000000000
H        0.1313500000    0.0197990000    0.0000000000
H        0.1308640000    0.0014210000   -0.0000000000
C       -0.0573520000    0.1242640000    0.0000000000
H        0.1350630000    0.0016500000    0.0000000000
13   
Frame  17 IRC: Energy =  -286.8582290000 ; +0.6997 kcal/mol
C       -0.2733110000    0.0787210000    0.0000000000
C       -0.0819150000   -0.1482210000   -0.0000000000
C       -0.1366000000    0.9854310000   -0.0000000000
C       -0.0531770000   -0.1171260000    0.0000000000
C       -0.0360090000    0.0443110000   -0.0000000000
N       -0.1774360000    0.0360860000   -0.0000000000
H        0.1440420000    0.0041800000    0.0000000000
H        0.1376860000    0.0039410000   -0.0000000000
H        0.1364900000   -0.0358070000   -0.0000000000
H        0.1313630000    0.0196130000    0.0000000000
H        0.1307700000    0.0013580000   -0.0000000000
C       -0.0571380000    0.1257930000    0.0000000000
H        0.1352350000    0.0017200000    0.0000000000
13   
Frame  18 IRC: Energy =  -286.8581050000 ; +0.7775 kcal/mol
C       -0.2718260000    0.0744050000    0.0000000000
C       -0.0839710000   -0.1461260000   -0.0000000000
C       -0.1349300000    0.9888850000   -0.0000000000
C       -0.0561130000   -0.1170480000    0.0000000000
C       -0.0344570000    0.0413390000   -0.0000000000
N       -0.1778290000    0.0372000000   -0.0000000000
H        0.1440940000    0.0041700000    0.0000000000
H        0.1376930000    0.0038010000   -0.0000000000
H        0.1370780000   -0.0373830000   -0.0000000000
H        0.1311410000    0.0192640000    0.0000000000
H        0.1308700000    0.0015000000   -0.0000000000
C       -0.0568440000    0.1280790000    0.0000000000
H        0.1350940000    0.0019150000    0.0000000000
13   
Frame  19 IRC: Energy =  -286.8580620000 ; +0.8045 kcal/mol
C       -0.2703560000    0.0740830000    0.0000000000
C       -0.0855250000   -0.1461280000   -0.0000000000
C       -0.1342800000    0.9882950000   -0.0000000000
C       -0.0575400000   -0.1167120000    0.0000000000
C       -0.0340730000    0.0409960000   -0.0000000000
N       -0.1780890000    0.0368340000   -0.0000000000
H        0.1440910000    0.0041690000    0.0000000000
H        0.1376750000    0.0037270000   -0.0000000000
H        0.1371640000   -0.0377120000   -0.0000000000
H        0.1311490000    0.0190160000    0.0000000000
H        0.1308430000    0.0014350000   -0.0000000000
C       -0.0563100000    0.1299790000    0.0000000000
H        0.1352510000    0.0020180000    0.0000000000
13   
Frame  20 IRC: Energy =  -286.8579880000 ; +0.8509 kcal/mol
C       -0.2696200000    0.0714650000    0.0000000000
C       -0.0864700000   -0.1447520000   -0.0000000000
C       -0.1334010000    0.9903640000   -0.0000000000
C       -0.0593230000   -0.1165540000    0.0000000000
C       -0.0332440000    0.0390940000   -0.0000000000
N       -0.1783060000    0.0375400000   -0.0000000000
H        0.1441260000    0.0041590000    0.0000000000
H        0.1377340000    0.0036460000   -0.0000000000
H        0.1375130000   -0.0385930000   -0.0000000000
H        0.1310340000    0.0188120000    0.0000000000
H        0.1309280000    0.0015210000   -0.0000000000
C       -0.0561350000    0.1311590000    0.0000000000
H        0.1351630000    0.0021400000    0.0000000000
13   
Frame  21 IRC: Energy =  -286.8579500000 ; +0.8747 kcal/mol
C       -0.2683650000    0.0710640000    0.0000000000
C       -0.0878780000   -0.1446400000   -0.0000000000
C       -0.1328500000    0.9901070000   -0.0000000000
C       -0.0606220000   -0.1162630000    0.0000000000
C       -0.0326640000    0.0386060000   -0.0000000000
N       -0.1784260000    0.0372040000   -0.0000000000
H        0.1441300000    0.0041540000    0.0000000000
H        0.1377210000    0.0035860000   -0.0000000000
H        0.1375710000   -0.0389120000   -0.0000000000
H        0.1310330000    0.0185930000    0.0000000000
H        0.1308530000    0.0014880000   -0.0000000000
C       -0.0557780000    0.1327650000    0.0000000000
H        0.1352740000    0.0022470000    0.0000000000
13   
Frame  22 IRC: Energy =  -286.8578960000 ; +0.9086 kcal/mol
C       -0.2681580000    0.0688230000    0.0000000000
C       -0.0883360000   -0.1433790000   -0.0000000000
C       -0.1322600000    0.9923320000   -0.0000000000
C       -0.0619710000   -0.1161420000    0.0000000000
C       -0.0319210000    0.0369560000   -0.0000000000
N       -0.1784740000    0.0378620000   -0.0000000000
H        0.1441580000    0.0041450000    0.0000000000
H        0.1377640000    0.0035210000   -0.0000000000
H        0.1377960000   -0.0395450000   -0.0000000000
H        0.1309340000    0.0184340000    0.0000000000
H        0.1309280000    0.0015740000   -0.0000000000
C       -0.0556140000    0.1330940000    0.0000000000
H        0.1351550000    0.0023230000    0.0000000000
13   
Frame  23 IRC: Energy =  -286.8578400000 ; +0.9438 kcal/mol
C       -0.2664540000    0.0680190000    0.0000000000
C       -0.0902000000   -0.1430110000   -0.0000000000
C       -0.1313870000    0.9917770000   -0.0000000000
C       -0.0637990000   -0.1156390000    0.0000000000
C       -0.0315830000    0.0361590000   -0.0000000000
N       -0.1788650000    0.0375950000   -0.0000000000
H        0.1441710000    0.0041350000    0.0000000000
H        0.1378110000    0.0034250000   -0.0000000000
H        0.1379340000   -0.0400200000   -0.0000000000
H        0.1309670000    0.0181610000    0.0000000000
H        0.1309540000    0.0015150000   -0.0000000000
C       -0.0548620000    0.1354000000    0.0000000000
H        0.1353130000    0.0024850000    0.0000000000
13   
Frame  24 IRC: Energy =  -286.8577960000 ; +0.9714 kcal/mol
C       -0.2663380000    0.0661290000    0.0000000000
C       -0.0906030000   -0.1419400000   -0.0000000000
C       -0.1309060000    0.9940170000   -0.0000000000
C       -0.0649480000   -0.1155180000    0.0000000000
C       -0.0308400000    0.0346640000   -0.0000000000
N       -0.1787610000    0.0381140000   -0.0000000000
H        0.1442090000    0.0041240000    0.0000000000
H        0.1378690000    0.0033720000   -0.0000000000
H        0.1381650000   -0.0405390000   -0.0000000000
H        0.1308780000    0.0179930000    0.0000000000
H        0.1309830000    0.0015960000   -0.0000000000
C       -0.0549010000    0.1354440000    0.0000000000
H        0.1351930000    0.0025440000    0.0000000000
13   
Frame  25 IRC: Energy =  -286.8574850000 ; +1.1665 kcal/mol
C       -0.2557270000    0.0565660000    0.0000000000
C       -0.0973140000   -0.1377470000   -0.0000000000
C       -0.1244450000    0.9938220000   -0.0000000000
C       -0.0694570000   -0.1124060000    0.0000000000
C       -0.0320840000    0.0271620000   -0.0000000000
N       -0.1786200000    0.0397640000   -0.0000000000
H        0.1443710000    0.0038580000    0.0000000000
H        0.1377530000    0.0028350000   -0.0000000000
H        0.1387130000   -0.0426170000   -0.0000000000
H        0.1308740000    0.0162450000    0.0000000000
H        0.1310700000    0.0016280000   -0.0000000000
C       -0.0601570000    0.1473670000    0.0000000000
H        0.1350230000    0.0035230000    0.0000000000
13   
Frame  26 IRC: Energy =  -286.8574610000 ; +1.1816 kcal/mol
C       -0.2554800000    0.0560410000    0.0000000000
C       -0.0977760000   -0.1374680000   -0.0000000000
C       -0.1241330000    0.9941610000   -0.0000000000
C       -0.0692790000   -0.1122150000    0.0000000000
C       -0.0318720000    0.0265010000   -0.0000000000
N       -0.1786920000    0.0397420000   -0.0000000000
H        0.1444110000    0.0038590000    0.0000000000
H        0.1377270000    0.0028270000   -0.0000000000
H        0.1387220000   -0.0427170000   -0.0000000000
H        0.1308850000    0.0161590000    0.0000000000
H        0.1309870000    0.0016470000   -0.0000000000
C       -0.0604310000    0.1478650000    0.0000000000
H        0.1349300000    0.0035990000    0.0000000000
13   
Frame  27 IRC: Energy =  -286.8573540000 ; +1.2487 kcal/mol
C       -0.2526050000    0.0538820000    0.0000000000
C       -0.0985720000   -0.1367320000   -0.0000000000
C       -0.1227070000    0.9932960000   -0.0000000000
C       -0.0700280000   -0.1114750000    0.0000000000
C       -0.0329330000    0.0252850000   -0.0000000000
N       -0.1782690000    0.0402910000   -0.0000000000
H        0.1444160000    0.0037600000    0.0000000000
H        0.1376960000    0.0027040000   -0.0000000000
H        0.1388360000   -0.0429720000   -0.0000000000
H        0.1308630000    0.0157560000    0.0000000000
H        0.1311000000    0.0016440000   -0.0000000000
C       -0.0627460000    0.1507750000    0.0000000000
H        0.1349490000    0.0037860000    0.0000000000
13   
Frame  28 IRC: Energy =  -286.8572800000 ; +1.2952 kcal/mol
C       -0.2514300000    0.0526470000    0.0000000000
C       -0.0992880000   -0.1362940000   -0.0000000000
C       -0.1218400000    0.9929800000   -0.0000000000
C       -0.0695760000   -0.1110090000    0.0000000000
C       -0.0333870000    0.0242570000   -0.0000000000
N       -0.1783750000    0.0405140000   -0.0000000000
H        0.1444750000    0.0037320000    0.0000000000
H        0.1376300000    0.0026640000   -0.0000000000
H        0.1388830000   -0.0431060000   -0.0000000000
H        0.1308870000    0.0155630000    0.0000000000
H        0.1310810000    0.0016500000   -0.0000000000
C       -0.0638980000    0.1524780000    0.0000000000
H        0.1348370000    0.0039250000    0.0000000000
13   
Frame  29 IRC: Energy =  -286.8572010000 ; +1.3448 kcal/mol
C       -0.2498400000    0.0518180000    0.0000000000
C       -0.0992210000   -0.1361870000   -0.0000000000
C       -0.1213450000    0.9922140000   -0.0000000000
C       -0.0699040000   -0.1107050000    0.0000000000
C       -0.0340370000    0.0240200000   -0.0000000000
N       -0.1778580000    0.0407340000   -0.0000000000
H        0.1444520000    0.0036750000    0.0000000000
H        0.1376180000    0.0026170000   -0.0000000000
H        0.1389400000   -0.0431620000   -0.0000000000
H        0.1308380000    0.0153560000    0.0000000000
H        0.1311120000    0.0016500000   -0.0000000000
C       -0.0656370000    0.1539850000    0.0000000000
H        0.1348820000    0.0039850000    0.0000000000
13   
Frame  30 IRC: Energy =  -286.8570710000 ; +1.4263 kcal/mol
C       -0.2484720000    0.0505440000    0.0000000000
C       -0.0999170000   -0.1359520000   -0.0000000000
C       -0.1204230000    0.9912030000   -0.0000000000
C       -0.0688740000   -0.1102110000    0.0000000000
C       -0.0347680000    0.0230810000   -0.0000000000
N       -0.1780480000    0.0409940000   -0.0000000000
H        0.1445320000    0.0036360000    0.0000000000
H        0.1374830000    0.0025910000   -0.0000000000
H        0.1389710000   -0.0432410000   -0.0000000000
H        0.1308730000    0.0151720000    0.0000000000
H        0.1310890000    0.0016480000   -0.0000000000
C       -0.0672410000    0.1564070000    0.0000000000
H        0.1347940000    0.0041280000    0.0000000000
13   
Frame  31 IRC: Energy =  -286.8569070000 ; +1.5292 kcal/mol
C       -0.2461560000    0.0494850000    0.0000000000
C       -0.0993120000   -0.1361050000   -0.0000000000
C       -0.1197120000    0.9891810000   -0.0000000000
C       -0.0685090000   -0.1097690000    0.0000000000
C       -0.0360960000    0.0230450000   -0.0000000000
N       -0.1773800000    0.0413940000   -0.0000000000
H        0.1444960000    0.0035810000    0.0000000000
H        0.1374480000    0.0025620000   -0.0000000000
H        0.1391250000   -0.0432530000   -0.0000000000
H        0.1307610000    0.0149100000    0.0000000000
H        0.1311560000    0.0016330000   -0.0000000000
C       -0.0705520000    0.1592110000    0.0000000000
H        0.1347320000    0.0041240000    0.0000000000
13   
Frame  32 IRC: Energy =  -286.8566680000 ; +1.6792 kcal/mol
C       -0.2452750000    0.0483150000    0.0000000000
C       -0.0997710000   -0.1361610000   -0.0000000000
C       -0.1193080000    0.9875200000   -0.0000000000
C       -0.0671680000   -0.1093520000    0.0000000000
C       -0.0367710000    0.0225420000   -0.0000000000
N       -0.1775350000    0.0415550000   -0.0000000000
H        0.1446300000    0.0035340000    0.0000000000
H        0.1372100000    0.0025610000   -0.0000000000
H        0.1390150000   -0.0432230000   -0.0000000000
H        0.1307960000    0.0147620000    0.0000000000
H        0.1311120000    0.0016250000   -0.0000000000
C       -0.0718060000    0.1620690000    0.0000000000
H        0.1348700000    0.0042530000    0.0000000000
13   
Frame  33 IRC: Energy =  -286.8563790000 ; +1.8606 kcal/mol
C       -0.2426000000    0.0473910000    0.0000000000
C       -0.0981710000   -0.1368650000   -0.0000000000
C       -0.1188730000    0.9835950000   -0.0000000000
C       -0.0659130000   -0.1089170000    0.0000000000
C       -0.0382790000    0.0229370000   -0.0000000000
N       -0.1768950000    0.0420650000   -0.0000000000
H        0.1446060000    0.0034970000    0.0000000000
H        0.1372010000    0.0025840000   -0.0000000000
H        0.1392910000   -0.0431570000   -0.0000000000
H        0.1306140000    0.0145430000    0.0000000000
H        0.1311800000    0.0016060000   -0.0000000000
C       -0.0768700000    0.1666400000    0.0000000000
H        0.1347080000    0.0040830000    0.0000000000
13   
Frame  34 IRC: Energy =  -286.8559390000 ; +2.1367 kcal/mol
C       -0.2437040000    0.0471600000    0.0000000000
C       -0.0980950000   -0.1370930000   -0.0000000000
C       -0.1188970000    0.9818690000   -0.0000000000
C       -0.0656940000   -0.1085960000    0.0000000000
C       -0.0383820000    0.0236660000   -0.0000000000
N       -0.1767130000    0.0416720000   -0.0000000000
H        0.1448590000    0.0034520000    0.0000000000
H        0.1367180000    0.0026060000   -0.0000000000
H        0.1388870000   -0.0429980000   -0.0000000000
H        0.1305930000    0.0144380000    0.0000000000
H        0.1311370000    0.0015670000   -0.0000000000
C       -0.0754680000    0.1679390000    0.0000000000
H        0.1347580000    0.0043190000    0.0000000000
13   
Frame  35 IRC: Energy =  -286.8544360000 ; +3.0798 kcal/mol
C       -0.2388630000    0.0370920000    0.0000000000
C       -0.0916010000   -0.1409920000   -0.0000000000
C       -0.1235600000    0.9568270000   -0.0000000000
C       -0.0524490000   -0.1065010000    0.0000000000
C       -0.0414920000    0.0225400000   -0.0000000000
N       -0.1754260000    0.0453300000   -0.0000000000
H        0.1442530000    0.0035770000    0.0000000000
H        0.1369730000    0.0030570000   -0.0000000000
H        0.1389590000   -0.0415660000   -0.0000000000
H        0.1299580000    0.0138090000    0.0000000000
H        0.1312970000    0.0016180000   -0.0000000000
C       -0.0947980000    0.2032240000    0.0000000000
H        0.1367480000    0.0019860000    0.0000000000
13   
Frame  36 IRC: Energy =  -286.8518340000 ; +4.7126 kcal/mol
C       -0.2174960000    0.0227920000    0.0000000000
C       -0.0942480000   -0.1577650000   -0.0000000000
C       -0.1290500000    0.9098080000   -0.0000000000
C       -0.0318020000   -0.1043160000    0.0000000000
C       -0.0501940000    0.0191790000   -0.0000000000
N       -0.1756570000    0.0511310000   -0.0000000000
H        0.1430340000    0.0037770000    0.0000000000
H        0.1376640000    0.0042510000   -0.0000000000
H        0.1385110000   -0.0387170000   -0.0000000000
H        0.1295800000    0.0131460000    0.0000000000
H        0.1316300000    0.0015600000   -0.0000000000
C       -0.1224260000    0.2784320000    0.0000000000
H        0.1404540000   -0.0032780000    0.0000000000
13   
Frame  37 IRC: Energy =  -286.8489260000 ; +6.5374 kcal/mol
C       -0.1800590000    0.0039560000    0.0000000000
C       -0.0990150000   -0.1932190000   -0.0000000000
C       -0.1348960000    0.8372610000   -0.0000000000
C       -0.0121380000   -0.1027040000    0.0000000000
C       -0.0608040000    0.0117180000   -0.0000000000
N       -0.1769240000    0.0575730000   -0.0000000000
H        0.1411860000    0.0040520000    0.0000000000
H        0.1386120000    0.0068350000   -0.0000000000
H        0.1385540000   -0.0345150000   -0.0000000000
H        0.1292070000    0.0121610000    0.0000000000
H        0.1320340000    0.0015370000   -0.0000000000
C       -0.1596390000    0.4075460000    0.0000000000
H        0.1438810000   -0.0122030000    0.0000000000
13   
Frame  38 IRC: Energy =  -286.8475380000 ; +7.4084 kcal/mol (Transition State)
C       -0.1332550000   -0.0208150000    0.0000000000
C       -0.1042330000   -0.2335310000   -0.0000000000
C       -0.1398790000    0.7284080000   -0.0000000000
C        0.0019180000   -0.1018710000    0.0000000000
C       -0.0699850000   -0.0021650000   -0.0000000000
N       -0.1799310000    0.0622360000   -0.0000000000
H        0.1389430000    0.0043380000    0.0000000000
H        0.1392170000    0.0103190000   -0.0000000000
H        0.1389900000   -0.0287300000   -0.0000000000
H        0.1290790000    0.0106230000    0.0000000000
H        0.1326810000    0.0015530000   -0.0000000000
C       -0.1994860000    0.5940440000    0.0000000000
H        0.1459430000   -0.0244090000    0.0000000000
13   