13   
Frame   0 IRC: Energy =  -286.8593440000 ; +0.0000 kcal/mol
C        1.2020483640    0.2968718941    0.3973717450
C        0.6518928159   -1.0857946247   -0.1804447208
C       -0.6016286690   -0.8929725633   -0.8934841491
C       -1.0783918419    0.1715732368    0.0909278821
C       -0.4581395169    1.4742866052   -0.4016724722
N        0.8197271425    1.5144425158   -0.2709841290
H        2.2014198242    0.2461062344    0.8153561967
H        1.3416930674   -1.9208643611   -0.2378177434
H       -0.9371846917   -1.1568044435   -1.8916726194
H       -2.1289013505    0.1926387672    0.3862140645
H       -1.0035715481    2.2511441997   -0.9334929961
C        0.0453266776   -0.3687595079    1.0492656845
H       -0.0542902741   -0.7218679533    2.0704332572
13   
Frame   1 IRC: Energy =  -286.8593410000 ; +0.0019 kcal/mol
C        1.2021458895    0.2973886103    0.3970930282
C        0.6519346437   -1.0857929898   -0.1807998182
C       -0.6013231547   -0.8929877429   -0.8934659634
C       -1.0785068134    0.1716102999    0.0910401705
C       -0.4580874563    1.4744094750   -0.4016480151
N        0.8199992576    1.5142943061   -0.2706027045
H        2.2014771441    0.2461147068    0.8155819705
H        1.3417957237   -1.9206924895   -0.2379849798
H       -0.9376913159   -1.1576540659   -1.8913359991
H       -2.1287756497    0.1927301652    0.3859962972
H       -1.0034847691    2.2513870391   -0.9334023690
C        0.0449348529   -0.3686712133    1.0490956423
H       -0.0544183525   -0.7221361010    2.0704327402
13   
Frame   2 IRC: Energy =  -286.8593190000 ; +0.0157 kcal/mol
C        1.2022659699    0.2973682790    0.3980669684
C        0.6529950039   -1.0843996244   -0.1819107919
C       -0.6009786322   -0.8922017571   -0.8941857338
C       -1.0780871859    0.1723222809    0.0896784839
C       -0.4573292960    1.4755680491   -0.4011346535
N        0.8204311319    1.5157630319   -0.2692578613
H        2.2011508683    0.2463968425    0.8171385135
H        1.3429602105   -1.9193026967   -0.2397040947
H       -0.9420918962   -1.1655512000   -1.8877369131
H       -2.1287983919    0.1934410103    0.3842888706
H       -1.0021519861    2.2532388528   -0.9323190723
C        0.0452196385   -0.3687097010    1.0484232698
H       -0.0555854347   -0.7239333675    2.0686530143
13   
Frame   3 IRC: Energy =  -286.8593130000 ; +0.0195 kcal/mol
C        1.2023741172    0.2978765898    0.3978615573
C        0.6530626073   -1.0843873744   -0.1825201117
C       -0.6005762380   -0.8921702390   -0.8942782407
C       -1.0781630124    0.1723206060    0.0897517414
C       -0.4571463110    1.4757785561   -0.4010642478
N        0.8207083080    1.5157698630   -0.2687917600
H        2.2012161686    0.2464348225    0.8175056626
H        1.3431041017   -1.9189526329   -0.2399761327
H       -0.9429078851   -1.1670008312   -1.8870072815
H       -2.1286697870    0.1935988645    0.3839255140
H       -1.0019855812    2.2536733359   -0.9321683366
C        0.0447895894   -0.3686115372    1.0482571142
H       -0.0558060775   -0.7243300230    2.0685045215
13   
Frame   4 IRC: Energy =  -286.8592960000 ; +0.0301 kcal/mol
C        1.2024286468    0.2977872486    0.3985612440
C        0.6538372328   -1.0833028257   -0.1829859710
C       -0.6004111806   -0.8915902544   -0.8947580131
C       -1.0778648454    0.1729307686    0.0887250938
C       -0.4567001606    1.4765491090   -0.4006975587
N        0.8209727882    1.5167386521   -0.2679290737
H        2.2009391032    0.2466017231    0.8184876769
H        1.3439489119   -1.9181817105   -0.2411646746
H       -0.9458526291   -1.1722352788   -1.8847049482
H       -2.1287470732    0.1940309382    0.3828242578
H       -1.0010700964    2.2548169289   -0.9314127910
C        0.0450836905   -0.3686255293    1.0477328897
H       -0.0565643880   -0.7255197696    2.0673218681
13   
Frame   5 IRC: Energy =  -286.8592890000 ; +0.0345 kcal/mol
C        1.2025293452    0.2982145763    0.3984658559
C        0.6539683283   -1.0833305904   -0.1837314889
C       -0.5999452123   -0.8915627144   -0.8950173023
C       -1.0779480702    0.1728495101    0.0886850759
C       -0.4562999218    1.4768261813   -0.4004863425
N        0.8211815660    1.5168868615   -0.2674675186
H        2.2009694505    0.2466582198    0.8188998660
H        1.3441738540   -1.9178204794   -0.2415303299
H       -0.9468731484   -1.1740147507   -1.8837742556
H       -2.1287099486    0.1942294353    0.3824281022
H       -1.0008617948    2.2553306319   -0.9312324054
C        0.0446337653   -0.3682423655    1.0476944157
H       -0.0568182133   -0.7260245158    2.0670663274
13   
Frame   6 IRC: Energy =  -286.8592720000 ; +0.0452 kcal/mol
C        1.2026544669    0.2982461932    0.3989655831
C        0.6545811143   -1.0822245317   -0.1841512756
C       -0.5999562691   -0.8909453483   -0.8952914001
C       -1.0776236306    0.1735095994    0.0879056169
C       -0.4561334352    1.4774282969   -0.4004014784
N        0.8215254414    1.5176170815   -0.2665891827
H        2.2008054334    0.2468143731    0.8198479276
H        1.3447147136   -1.9168724170   -0.2424953989
H       -0.9493939821   -1.1786872835   -1.8816611111
H       -2.1285603796    0.1945454202    0.3813210712
H       -1.0000447940    2.2563714955   -0.9305186511
C        0.0449600143   -0.3688292261    1.0470249596
H       -0.0575286934   -0.7269736533    2.0660433396
13   
Frame   7 IRC: Energy =  -286.8592580000 ; +0.0540 kcal/mol
C        1.2030118815    0.2985579920    0.3989880266
C        0.6553654671   -1.0815434660   -0.1849624000
C       -0.5996528059   -0.8916299493   -0.8960558927
C       -1.0777089942    0.1734891215    0.0875353460
C       -0.4555239050    1.4784669595   -0.3993832256
N        0.8219693295    1.5182913057   -0.2664928164
H        2.2010722708    0.2467974043    0.8206941660
H        1.3451991585   -1.9167178737   -0.2432396263
H       -0.9516223321   -1.1819038504   -1.8814811358
H       -2.1288850487    0.1947872722    0.3807454498
H       -0.9997516265    2.2571092547   -0.9303702776
C        0.0446156907   -0.3675437712    1.0476586307
H       -0.0580890857   -0.7281603994    2.0663637552
13   
Frame   8 IRC: Energy =  -286.8592070000 ; +0.0860 kcal/mol
C        1.2028664530    0.2992507247    0.3999884063
C        0.6563859113   -1.0802186687   -0.1868217140
C       -0.5981239170   -0.8889271600   -0.8968431360
C       -1.0771715254    0.1747747201    0.0858327966
C       -0.4547245163    1.4795683009   -0.3995285187
N        0.8226656763    1.5197052967   -0.2633710146
H        2.2001297769    0.2472513749    0.8227501865
H        1.3469471177   -1.9144260888   -0.2457945483
H       -0.9576697335   -1.1937403976   -1.8737153534
H       -2.1283864552    0.1958747054    0.3779445826
H       -0.9976332537    2.2600531019   -0.9284761491
C        0.0443726484   -0.3687692820    1.0453007168
H       -0.0596581824   -0.7303966274    2.0627337454
13   
Frame   9 IRC: Energy =  -286.8591950000 ; +0.0935 kcal/mol
C        1.2029574746    0.2996468659    0.4000859337
C        0.6567659993   -1.0796984729   -0.1863280030
C       -0.5987625546   -0.8878522372   -0.8966588817
C       -1.0773412400    0.1747181838    0.0851349045
C       -0.4541785219    1.4796046735   -0.3995323488
N        0.8224244358    1.5194347550   -0.2627631121
H        2.1996989142    0.2472739365    0.8228785578
H        1.3473909455   -1.9143729978   -0.2461872756
H       -0.9583604385   -1.1953439951   -1.8727324484
H       -2.1280048173    0.1959709257    0.3775104407
H       -0.9974504759    2.2605079268   -0.9282596470
C        0.0447207375   -0.3693185034    1.0448508227
H       -0.0598604586   -0.7305710609    2.0620010573
13   
Frame  10 IRC: Energy =  -286.8591420000 ; +0.1268 kcal/mol
C        1.2035240000    0.2999803719    0.4007923054
C        0.6581041107   -1.0777702091   -0.1894798429
C       -0.5969799332   -0.8883299407   -0.8986787103
C       -1.0767126066    0.1758250206    0.0841764428
C       -0.4532654084    1.4817720615   -0.3981952970
N        0.8238963581    1.5218981963   -0.2611786190
H        2.2002454957    0.2475295270    0.8256800755
H        1.3482678208   -1.9121012963   -0.2485449528
H       -0.9651789271   -1.2068732058   -1.8681807800
H       -2.1284740350    0.1966366359    0.3749350148
H       -0.9957313497    2.2630055467   -0.9267934745
C        0.0439481039   -0.3679643157    1.0445990104
H       -0.0616436292   -0.7336083922    2.0608688275
13   
Frame  11 IRC: Energy =  -286.8591310000 ; +0.1337 kcal/mol
C        1.2035461092    0.2998189022    0.4008917811
C        0.6580081826   -1.0776560486   -0.1902199258
C       -0.5962760357   -0.8887341351   -0.8989298502
C       -1.0765626370    0.1760574792    0.0843134985
C       -0.4536692364    1.4821129531   -0.3981485620
N        0.8244432172    1.5224157836   -0.2610944228
H        2.2004576757    0.2475846416    0.8260502808
H        1.3482732375   -1.9117596087   -0.2487587095
H       -0.9659759313   -1.2080853872   -1.8677376048
H       -2.1286483628    0.1967295655    0.3746846499
H       -0.9954580300    2.2631789287   -0.9265783113
C        0.0436933896   -0.3677031539    1.0447057071
H       -0.0618315789   -0.7339599204    2.0608214691
13   
Frame  12 IRC: Energy =  -286.8590470000 ; +0.1864 kcal/mol
C        1.2035745086    0.3008494235    0.4016907126
C        0.6603321530   -1.0754015045   -0.1916746007
C       -0.5948884663   -0.8843939011   -0.9006578778
C       -1.0763628894    0.1771947718    0.0817052153
C       -0.4519977092    1.4840002688   -0.3974443201
N        0.8249481484    1.5234841865   -0.2578772867
H        2.1989599750    0.2478567979    0.8284602196
H        1.3508982057   -1.9098403323   -0.2520367187
H       -0.9735925127   -1.2229657433   -1.8584595577
H       -2.1281008150    0.1980579226    0.3712461000
H       -0.9933116172    2.2670229287   -0.9245419899
C        0.0434576735   -0.3687614783    1.0424793417
H       -0.0639166543   -0.7371033404    2.0571107624
13   
Frame  13 IRC: Energy =  -286.8590180000 ; +0.2046 kcal/mol
C        1.2040635678    0.3022917299    0.4012294952
C        0.6610568639   -1.0744607625   -0.1906656025
C       -0.5962634097   -0.8828663702   -0.9006960284
C       -1.0766522139    0.1766579111    0.0807615418
C       -0.4511508346    1.4842183607   -0.3972121585
N        0.8248544911    1.5222393398   -0.2568550344
H        2.1982661314    0.2477683234    0.8285399392
H        1.3517249533   -1.9102890538   -0.2525583084
H       -0.9743397744   -1.2247867081   -1.8574461017
H       -2.1275564429    0.1981657594    0.3707447078
H       -0.9933493870    2.2676579826   -0.9244473447
C        0.0435355590   -0.3690860482    1.0418482662
H       -0.0641895039   -0.7375104641    2.0567566284
13   
Frame  14 IRC: Energy =  -286.8586980000 ; +0.4054 kcal/mol
C        1.2047897102    0.3028451526    0.4047340382
C        0.6662201347   -1.0675139791   -0.2008771378
C       -0.5881205045   -0.8760185029   -0.9096073521
C       -1.0745244967    0.1813047587    0.0749567277
C       -0.4474938158    1.4913629330   -0.3935904987
N        0.8287335819    1.5307778772   -0.2480790773
H        2.1975584081    0.2484735700    0.8384249807
H        1.3557661116   -1.9022432463   -0.2629709447
H       -1.0002266268   -1.2715557325   -1.8301784170
H       -2.1278003703    0.1997325564    0.3594007584
H       -0.9859917393    2.2779729684   -0.9181876614
C        0.0416307819   -0.3687035590    1.0375619916
H       -0.0705411750   -0.7464347965    2.0484125924
13   
Frame  15 IRC: Energy =  -286.8586600000 ; +0.4292 kcal/mol
C        1.2052150001    0.3038864388    0.4046103315
C        0.6673706546   -1.0661019710   -0.2002912612
C       -0.5889655145   -0.8744765395   -0.9098996701
C       -1.0748316154    0.1811486953    0.0739679666
C       -0.4469038133    1.4921707128   -0.3932179828
N        0.8291466295    1.5303033195   -0.2468173165
H        2.1970764982    0.2483993369    0.8390465625
H        1.3565969448   -1.9023521704   -0.2640189633
H       -1.0025014095   -1.2756529491   -1.8288335533
H       -2.1272853297    0.1997561682    0.3583305315
H       -0.9856019193    2.2788320251   -0.9177519260
C        0.0417708056   -0.3687368044    1.0371857346
H       -0.0710869310   -0.7471762620    2.0476895465
13   
Frame  16 IRC: Energy =  -286.8582620000 ; +0.6790 kcal/mol
C        1.2057488153    0.3040683208    0.4071015923
C        0.6729773925   -1.0588413580   -0.2096216907
C       -0.5779099418   -0.8595648494   -0.9238845959
C       -1.0726630787    0.1857809847    0.0681339517
C       -0.4435401985    1.4989317602   -0.3894390483
N        0.8321776175    1.5370409597   -0.2386367570
H        2.1955200027    0.2487258836    0.8472646372
H        1.3586582444   -1.8965618925   -0.2721420858
H       -1.0262188702   -1.3201437960   -1.7941449158
H       -2.1273473792    0.1998367924    0.3468532777
H       -0.9799259037    2.2877385677   -0.9127959694
C        0.0391001564   -0.3703422037    1.0320743650
H       -0.0765768567   -0.7566691696    2.0392372391
13   
Frame  17 IRC: Energy =  -286.8582290000 ; +0.6997 kcal/mol
C        1.2059057208    0.3047401397    0.4067025529
C        0.6726568100   -1.0589972434   -0.2112600440
C       -0.5759540649   -0.8597901489   -0.9249960225
C       -1.0723429413    0.1865814096    0.0688164584
C       -0.4428814541    1.4991098496   -0.3892415450
N        0.8319807996    1.5372379413   -0.2380528633
H        2.1958118147    0.2487296708    0.8479205410
H        1.3584675433   -1.8958975052   -0.2724555247
H       -1.0274573354   -1.3223374471   -1.7918577040
H       -2.1275659185    0.1998676442    0.3462632833
H       -0.9796830683    2.2883330136   -0.9125900619
C        0.0379346029   -0.3702170259    1.0314476748
H       -0.0768725089   -0.7573602982    2.0393032551
13   
Frame  18 IRC: Energy =  -286.8581050000 ; +0.7775 kcal/mol
C        1.2060537070    0.3041883454    0.4079330302
C        0.6754678457   -1.0554975535   -0.2121905299
C       -0.5745399310   -0.8527435716   -0.9295521097
C       -1.0721035034    0.1871384694    0.0653556795
C       -0.4420451164    1.5015336256   -0.3879355358
N        0.8330751157    1.5391794364   -0.2355035190
H        2.1946263157    0.2489195020    0.8501027403
H        1.3594475135   -1.8950410921   -0.2748455064
H       -1.0349602112   -1.3366067783   -1.7805174368
H       -2.1270002624    0.1997003824    0.3424927360
H       -0.9779938849    2.2909558697   -0.9111474798
C        0.0384596971   -0.3712110697    1.0301000355
H       -0.0784872853   -0.7605155658    2.0357078961
13   
Frame  19 IRC: Energy =  -286.8580620000 ; +0.8045 kcal/mol
C        1.2061135697    0.3047252692    0.4076910066
C        0.6756095890   -1.0554248106   -0.2141253613
C       -0.5723052531   -0.8521406931   -0.9315921519
C       -1.0717017630    0.1880826448    0.0657008076
C       -0.4417058315    1.5021115804   -0.3876795687
N        0.8333525840    1.5397417829   -0.2345942536
H        2.1948641903    0.2489980805    0.8510687491
H        1.3591722107   -1.8941392527   -0.2753301733
H       -1.0370951034   -1.3405251859   -1.7763797033
H       -2.1271910033    0.1996987209    0.3414151570
H       -0.9774807759    2.2917956223   -0.9107472712
C        0.0373214145   -0.3712065678    1.0293231683
H       -0.0789538279   -0.7617171909    2.0352495947
13   
Frame  20 IRC: Energy =  -286.8579880000 ; +0.8509 kcal/mol
C        1.2062913608    0.3044476475    0.4083608939
C        0.6771689679   -1.0531035369   -0.2145169734
C       -0.5714275743   -0.8476330645   -0.9343179418
C       -1.0715186050    0.1883735868    0.0635787609
C       -0.4413304496    1.5035634741   -0.3869411747
N        0.8340258702    1.5408132406   -0.2330576645
H        2.1941190907    0.2492072404    0.8522843374
H        1.3596757521   -1.8939434970   -0.2764098118
H       -1.0415330596   -1.3487601009   -1.7695541792
H       -2.1267906625    0.1995176921    0.3392141650
H       -0.9765453084    2.2932431100   -0.9100192081
C        0.0376458320   -0.3718924252    1.0283837229
H       -0.0797812142   -0.7638333668    2.0329950735
13   
Frame  21 IRC: Energy =  -286.8579500000 ; +0.8747 kcal/mol
C        1.2063478164    0.3047685839    0.4082954479
C        0.6773386274   -1.0529354096   -0.2162132970
C       -0.5694654025   -0.8467706284   -0.9362537146
C       -1.0711916259    0.1891513979    0.0636583840
C       -0.4406440336    1.5040596958   -0.3865646299
N        0.8339382553    1.5414734969   -0.2323420071
H        2.1942694826    0.2493470138    0.8531369922
H        1.3593566572   -1.8932242299   -0.2766741593
H       -1.0435485079   -1.3523703983   -1.7655624069
H       -2.1269364785    0.1994671206    0.3382202081
H       -0.9761327256    2.2940507300   -0.9097631912
C        0.0368197611   -0.3719436887    1.0276972416
H       -0.0801518259   -0.7650736840    2.0323651322
13   
Frame  22 IRC: Energy =  -286.8578960000 ; +0.9086 kcal/mol
C        1.2064935918    0.3046184163    0.4087650429
C        0.6788438856   -1.0510566606   -0.2159173112
C       -0.5694105383   -0.8430916706   -0.9383273349
C       -1.0712278565    0.1893207850    0.0619329293
C       -0.4403440309    1.5050868326   -0.3860209324
N        0.8343604189    1.5421408486   -0.2311789352
H        2.1936259346    0.2495545060    0.8539041595
H        1.3596902578   -1.8933909887   -0.2772121613
H       -1.0467416305   -1.3581485624   -1.7607497276
H       -2.1264082602    0.1992331770    0.3366295258
H       -0.9755265607    2.2950120903   -0.9093512585
C        0.0372649714   -0.3725336638    1.0270308421
H       -0.0806201829   -0.7667451098    2.0304951614
13   
Frame  23 IRC: Energy =  -286.8578400000 ; +0.9438 kcal/mol
C        1.2066457876    0.3050061972    0.4087945929
C        0.6789532631   -1.0504363274   -0.2183587832
C       -0.5664263227   -0.8411989777   -0.9413835638
C       -1.0705150705    0.1902941814    0.0617023684
C       -0.4401959267    1.5061797002   -0.3856363438
N        0.8349225258    1.5432456311   -0.2299453458
H        2.1938271825    0.2499524860    0.8551933996
H        1.3590452938   -1.8926022092   -0.2770769283
H       -1.0500784777   -1.3637040700   -1.7544557256
H       -2.1265888754    0.1990462263    0.3351512308
H       -0.9748516127    2.2960248222   -0.9090418457
C        0.0362409154   -0.3727736776    1.0258521529
H       -0.0809786825   -0.7690339824    2.0292047917
13   
Frame  24 IRC: Energy =  -286.8577960000 ; +0.9714 kcal/mol
C        1.2068132473    0.3051098534    0.4091826346
C        0.6803196346   -1.0488592135   -0.2178341640
C       -0.5664564204   -0.8379269824   -0.9433622009
C       -1.0707717059    0.1905424751    0.0603427914
C       -0.4397304170    1.5070227178   -0.3850553850
N        0.8350630612    1.5438870467   -0.2291002460
H        2.1934439636    0.2501583029    0.8558512995
H        1.3592578544   -1.8931426956   -0.2770957431
H       -1.0529694184   -1.3683757025   -1.7510373021
H       -2.1260237902    0.1987218768    0.3339294418
H       -0.9744722583    2.2967272826   -0.9089100595
C        0.0366925531   -0.3731538102    1.0255219708
H       -0.0811663040   -0.7707111510    2.0275669624
13   
Frame  25 IRC: Energy =  -286.8574850000 ; +1.1665 kcal/mol
C        1.2041551576    0.3016018473    0.4138233369
C        0.6843863821   -1.0419706675   -0.2274917599
C       -0.5602241639   -0.8259675014   -0.9540646547
C       -1.0702913871    0.1925091432    0.0590654367
C       -0.4356143616    1.5085129971   -0.3826250290
N        0.8380929849    1.5448233864   -0.2198193581
H        2.1866971458    0.2390594593    0.8688094143
H        1.3734119191   -1.8748992096   -0.3129274831
H       -1.0683416718   -1.4007022889   -1.7149687084
H       -2.1268581053    0.2012647974    0.3293944966
H       -0.9657939797    2.2948263403   -0.9156279474
C        0.0310981050   -0.3769555300    1.0244881730
H       -0.0907180253   -0.7621027735    2.0319440832
13   
Frame  26 IRC: Energy =  -286.8574610000 ; +1.1816 kcal/mol
C        1.2035872833    0.3000525152    0.4147626237
C        0.6845985837   -1.0418622239   -0.2281036780
C       -0.5596363816   -0.8256974445   -0.9545620096
C       -1.0702221954    0.1929787464    0.0589820868
C       -0.4352495119    1.5084504874   -0.3824727628
N        0.8376925180    1.5459374573   -0.2200405528
H        2.1864779169    0.2386250574    0.8694059481
H        1.3738350968   -1.8737043552   -0.3145592344
H       -1.0690197003   -1.4020887285   -1.7133573189
H       -2.1271345422    0.2013835644    0.3292597330
H       -0.9652379385    2.2946471159   -0.9158917125
C        0.0314406825   -0.3772413006    1.0248253132
H       -0.0911318113   -0.7614808912    2.0317515642
13   
Frame  27 IRC: Energy =  -286.8573540000 ; +1.2487 kcal/mol
C        1.2032843600    0.3006300575    0.4151839850
C        0.6855705145   -1.0400313398   -0.2298811057
C       -0.5596267230   -0.8233877332   -0.9559237867
C       -1.0705404910    0.1925650703    0.0589385428
C       -0.4341036805    1.5083632414   -0.3820183602
N        0.8390719391    1.5440152253   -0.2171307790
H        2.1842785178    0.2348105336    0.8728316050
H        1.3790884324   -1.8683778517   -0.3267163155
H       -1.0717677570   -1.4093501440   -1.7054618471
H       -2.1271204241    0.2024330207    0.3284186885
H       -0.9629792817    2.2937807267   -0.9179222404
C        0.0291734235   -0.3779733907    1.0248828077
H       -0.0943288300   -0.7574774162    2.0347988056
13   
Frame  28 IRC: Energy =  -286.8572800000 ; +1.2952 kcal/mol
C        1.2022027741    0.2983317177    0.4167195139
C        0.6860754168   -1.0395451325   -0.2312482974
C       -0.5590577037   -0.8230035129   -0.9563730944
C       -1.0704597238    0.1929484047    0.0590592882
C       -0.4337575981    1.5081866205   -0.3819693813
N        0.8393401723    1.5447708463   -0.2167402187
H        2.1832834379    0.2327917836    0.8747208251
H        1.3816251827   -1.8645600376   -0.3337453000
H       -1.0729813460   -1.4129118462   -1.7015002959
H       -2.1277272637    0.2031021582    0.3281484752
H       -0.9613341160    2.2929732362   -0.9188082251
C        0.0289591857   -0.3784845067    1.0257167063
H       -0.0961684181   -0.7545997311    2.0360200041
13   
Frame  29 IRC: Energy =  -286.8572010000 ; +1.3448 kcal/mol
C        1.2023511499    0.2994936094    0.4164635964
C        0.6864698759   -1.0385864899   -0.2318388653
C       -0.5596590713   -0.8222388879   -0.9563209370
C       -1.0710326559    0.1924277031    0.0591940092
C       -0.4326600593    1.5076785750   -0.3816359017
N        0.8400433657    1.5427564377   -0.2151340373
H        2.1820129563    0.2305584272    0.8764228414
H        1.3849147831   -1.8617398205   -0.3410400592
H       -1.0738256273   -1.4161381870   -1.6982021897
H       -2.1275057943    0.2037636626    0.3277341947
H       -0.9603516797    2.2926690118   -0.9199307238
C        0.0273828683   -0.3786718016    1.0259130265
H       -0.0981401114   -0.7519722399    2.0383750456
13   
Frame  30 IRC: Energy =  -286.8570710000 ; +1.4263 kcal/mol
C        1.2009277548    0.2961941737    0.4185947746
C        0.6870523807   -1.0382758846   -0.2335225539
C       -0.5593056553   -0.8228709198   -0.9558217145
C       -1.0707845755    0.1927394460    0.0597440579
C       -0.4322374444    1.5072428744   -0.3818681941
N        0.8404717642    1.5433363232   -0.2151453192
H        2.1806700601    0.2277273769    0.8787935189
H        1.3885545413   -1.8561005933   -0.3516620141
H       -1.0745260148   -1.4199911734   -1.6939309900
H       -2.1286893522    0.2048306403    0.3274050269
H       -0.9581088954    2.2915459031   -0.9207960103
C        0.0270506439   -0.3789740368    1.0274156306
H       -0.1010752072   -0.7474041296    2.0407937871
13   
Frame  31 IRC: Energy =  -286.8569070000 ; +1.5292 kcal/mol
C        1.2008226190    0.2971044902    0.4184011184
C        0.6875402785   -1.0371948629   -0.2342629946
C       -0.5603521460   -0.8227673212   -0.9540939373
C       -1.0719570131    0.1920900344    0.0600848292
C       -0.4310603959    1.5061831409   -0.3817734329
N        0.8418701437    1.5404723953   -0.2137466476
H        2.1790263827    0.2244342879    0.8811845048
H        1.3935366297   -1.8514414221   -0.3636406236
H       -1.0749020236   -1.4239610669   -1.6903325844
H       -2.1285214698    0.2058720211    0.3266287469
H       -0.9565364380    2.2910968773   -0.9218803499
C        0.0250310114   -0.3791099642    1.0290980332
H       -0.1044975786   -0.7427786098    2.0443333378
13   
Frame  32 IRC: Energy =  -286.8566680000 ; +1.6792 kcal/mol
C        1.1990416847    0.2932178223    0.4208336681
C        0.6885707614   -1.0370673598   -0.2357839865
C       -0.5608194664   -0.8252000599   -0.9519894075
C       -1.0714750915    0.1922444408    0.0613790079
C       -0.4301259203    1.5053521546   -0.3823802305
N        0.8425364334    1.5401965396   -0.2146408143
H        2.1774984275    0.2208663221    0.8839468758
H        1.3980602664   -1.8439913957   -0.3784614173
H       -1.0744236599   -1.4275719157   -1.6857318326
H       -2.1304566932    0.2071459538    0.3257571006
H       -0.9540112817    2.2901486359   -0.9223606279
C        0.0246205007   -0.3783755449    1.0309333859
H       -0.1090159610   -0.7369655931    2.0484982783
13   
Frame  33 IRC: Energy =  -286.8563790000 ; +1.8606 kcal/mol
C        1.1994467066    0.2937046556    0.4207605470
C        0.6888646072   -1.0360755784   -0.2364583016
C       -0.5621096228   -0.8259205589   -0.9475509092
C       -1.0730011769    0.1917666489    0.0617776322
C       -0.4288982098    1.5039968842   -0.3826816458
N        0.8440186169    1.5366466401   -0.2143849974
H        2.1757835319    0.2170442563    0.8866507136
H        1.4039882161   -1.8384516200   -0.3938782531
H       -1.0739381467   -1.4315691154   -1.6824951834
H       -2.1304729313    0.2080925592    0.3241979701
H       -0.9522352490    2.2898985426   -0.9227798936
C        0.0222641721   -0.3776386541    1.0344691841
H       -0.1137105142   -0.7314946602    2.0523731372
13   
Frame  34 IRC: Energy =  -286.8559390000 ; +2.1367 kcal/mol
C        1.1976020240    0.2907844616    0.4229205923
C        0.6898191578   -1.0370597339   -0.2361953618
C       -0.5630692102   -0.8303998664   -0.9425396929
C       -1.0723852480    0.1913693313    0.0648620294
C       -0.4276738815    1.5026363768   -0.3840088884
N        0.8451187926    1.5360389542   -0.2174665911
H        2.1741929141    0.2122791238    0.8902219023
H        1.4080183152   -1.8283843058   -0.4130273412
H       -1.0713744769   -1.4341284266   -1.6763241789
H       -2.1335362121    0.2092863027    0.3217703749
H       -0.9496943703    2.2901631667   -0.9227171392
C        0.0234327019   -0.3779854299    1.0358443332
H       -0.1204505067   -0.7245999545    2.0566599613
13   
Frame  35 IRC: Energy =  -286.8544360000 ; +3.0798 kcal/mol
C        1.1945286485    0.2826711555    0.4215787720
C        0.7055230567   -1.0256424861   -0.2530250633
C       -0.5650875661   -0.8413003668   -0.9203007867
C       -1.0744369409    0.1921831610    0.0675279003
C       -0.4241152506    1.5003093886   -0.3869389537
N        0.8493305083    1.5285484461   -0.2226565815
H        2.1662823042    0.2010435019    0.8940602742
H        1.4210537719   -1.8219082151   -0.4536723760
H       -1.0668693963   -1.4389959329   -1.6660646668
H       -2.1362055721    0.2089716072    0.3141027457
H       -0.9459116067    2.2912913316   -0.9207238830
C        0.0130633755   -0.3596483589    1.0543216899
H       -0.1371553325   -0.7175232321    2.0717909289
13   
Frame  36 IRC: Energy =  -286.8518340000 ; +4.7126 kcal/mol
C        1.1874899142    0.2671836172    0.4223777142
C        0.7238461774   -1.0165456935   -0.2860648557
C       -0.5631572817   -0.8540217304   -0.9044194310
C       -1.0739316000    0.1929795813    0.0709410012
C       -0.4223150632    1.4987720280   -0.3885745821
N        0.8525708049    1.5220357557   -0.2259365432
H        2.1605297165    0.1938464443    0.8951324110
H        1.4309588315   -1.8223483178   -0.4815449087
H       -1.0630216241   -1.4414848229   -1.6570993863
H       -2.1379004502    0.2080675718    0.3080160316
H       -0.9436356010    2.2919609572   -0.9187057249
C       -0.0019288689   -0.3229475049    1.0807245220
H       -0.1495049551   -0.7174978859    2.0851537518
13   
Frame  37 IRC: Energy =  -286.8489260000 ; +6.5374 kcal/mol
C        1.1815371012    0.2511779254    0.4226664190
C        0.7395235787   -1.0094950226   -0.3241811979
C       -0.5570033399   -0.8651690855   -0.8908097502
C       -1.0733061753    0.1932699839    0.0732837158
C       -0.4203585116    1.4977201516   -0.3890410045
N        0.8543758847    1.5156326956   -0.2277275357
H        2.1560676869    0.1888977448    0.8952021786
H        1.4389334168   -1.8252713964   -0.5023260577
H       -1.0605142447   -1.4441327624   -1.6499698023
H       -2.1381478165    0.2070606841    0.3032706140
H       -0.9424094425    2.2925790011   -0.9170410329
C       -0.0198457308   -0.2818753360    1.1116501451
H       -0.1588524072   -0.7203945836    2.0950233088
13   
Frame  38 IRC: Energy =  -286.8475380000 ; +7.4084 kcal/mol (Transition State)
C        1.1749023170    0.2341591515    0.4242550400
C        0.7521020057   -1.0065411968   -0.3627214789
C       -0.5470320586   -0.8759113287   -0.8799892578
C       -1.0717235254    0.1934714688    0.0763698476
C       -0.4192507164    1.4969263554   -0.3896389735
N        0.8553550645    1.5101359277   -0.2287463290
H        2.1526054388    0.1852072824    0.8947818195
H        1.4454226870   -1.8280333301   -0.5203184164
H       -1.0584519335   -1.4465965699   -1.6424277474
H       -2.1380857111    0.2063231770    0.2993657236
H       -0.9415385258    2.2932776040   -0.9155736562
C       -0.0381630709   -0.2378394457    1.1439533585
H       -0.1661419713   -0.7245790955    2.1006900701
13   