
Running Job 1 of 1 irc_transition.in
qchem irc_transition.in_64565.0 ./irc_transition.d/ 1
/home/leeping/opt/qchem/5.0.2-openmp/exe/qcprog.exe_s irc_transition.in_64565.0 ./irc_transition.d/
Check license passed

                  Welcome to Q-Chem
     A Quantum Leap Into The Future Of Chemistry


 Q-Chem 5.0, Q-Chem, Inc., Pleasanton, CA (2017)

 Yihan Shao,  Zhengting Gan,  E. Epifanovsky,  A. T. B. Gilbert,  M. Wormit,  
 J. Kussmann,  A. W. Lange,  A. Behn,  Jia Deng,  Xintian Feng,  D. Ghosh,  
 M. Goldey,  P. R. Horn,  L. D. Jacobson,  I. Kaliman,  T. Kus,  A. Landau,  
 Jie Liu,  E. I. Proynov,  R. M. Richard,  R. P. Steele,  E. J. Sundstrom,  
 H. L. Woodcock III,  P. M. Zimmerman,  D. Zuev,  B. Albrecht,  E. Alguire,  
 S. A. Baeppler,  D. Barton,  Z. Benda,  Y. A. Bernard,  E. J. Berquist,  
 K. B. Bravaya,  H. Burton,  D. Casanova,  Chun-Min Chang,  Yunqing Chen,  
 A. Chien,  K. D. Closser,  M. P. Coons,  S. Dasgupta,  A. L. Dempwolff,  
 M. Diedenhofen,  Hainam Do,  R. G. Edgar,  Po-Tung Fang,  S. Fatehi,  
 Qingguo Feng,  J. Fosso-Tande,  Qinghui Ge,  A. Ghysels,  G. Gidofalvi,  
 J. Gomes,  J. Gonthier,  A. Gunina,  M. W. D. Hanson-Heine,  
 P. H. P. Harbach,  A. W. Hauser,  J. E. Herr,  E. G. Hohenstein,  
 Z. C. Holden,  Kerwin Hui,  T.-C. Jagau,  Hyunjun Ji,  B. Kaduk,  
 K. Khistyaev,  Jaehoon Kim,  P. Klunzinger,  K. Koh,  D. Kosenkov,  
 L. Koulias,  T. Kowalczyk,  C. M. Krauter,  A. Kunitsa,  Ka Un Lao,  
 A. Laurent,  K. V. Lawler,  Joonho Lee,  D. Lefrancois,  S. Lehtola,  
 D. S. Levine,  Yi-Pei Li,  You-Sheng Lin,  Fenglai Liu,  E. Livshits,  
 A. Luenser,  P. Manohar,  E. Mansoor,  S. F. Manzer,  Shan-Ping Mao,  
 Yuezhi Mao,  N. Mardirossian,  A. V. Marenich,  T. Markovich,  
 L. A. Martinez-Martinez,  S. A. Maurer,  N. J. Mayhall,  S. C. McKenzie,  
 J.-M. Mewes,  A. F. Morrison,  J. W. Mullinax,  K. Nanda,  
 T. S. Nguyen-Beck,  R. Olivares-Amaya,  J. A. Parkhill,  T. M. Perrine,  
 F. Plasser,  S. Prager,  A. Prociuk,  E. Ramos,  D. R. Rehn,  F. Rob,  
 M. Schneider,  N. Sergueev,  S. M. Sharada,  S. Sharma,  D. W. Small,  
 T. Stauch,  T. Stein,  Yu-Chuan Su,  A. J. W. Thom,  A. Tkatchenko,  
 T. Tsuchimochi,  L. Vogt,  O. Vydrov,  M. A. Watson,  J. Wenzel,  
 M. de Wergifosse,  T. A. Wesolowski,  A. White,  J. Witte,  A. Yamada,  
 Jun Yang,  K. Yao,  S. Yeganeh,  S. R. Yost,  Zhi-Qiang You,  A. Zech,  
 Igor Ying Zhang,  Xing Zhang,  Yan Zhao,  Ying Zhu,  B. R. Brooks,  
 G. K. L. Chan,  C. J. Cramer,  M. S. Gordon,  W. J. Hehre,  A. Klamt,  
 M. W. Schmidt,  C. D. Sherrill,  D. G. Truhlar,  A. Aspuru-Guzik,  R. Baer,  
 A. T. Bell,  N. A. Besley,  Jeng-Da Chai,  R. A. DiStasio Jr.,  A. Dreuw,  
 B. D. Dunietz,  T. R. Furlani,  Chao-Ping Hsu,  Yousung Jung,  Jing Kong,  
 D. S. Lambrecht,  WanZhen Liang,  C. Ochsenfeld,  V. A. Rassolov,  
 L. V. Slipchenko,  J. E. Subotnik,  T. Van Voorhis,  J. M. Herbert,  
 A. I. Krylov,  P. M. W. Gill,  M. Head-Gordon

 Contributors to earlier versions of Q-Chem not listed above: 
 R. D. Adamson,  B. Austin,  J. Baker,  G. J. O. Beran,  K. Brandhorst,  
 S. T. Brown,  E. F. C. Byrd,  A. K. Chakraborty,  C.-L. Cheng,  
 Siu Hung Chien,  D. M. Chipman,  D. L. Crittenden,  H. Dachsel,  
 R. J. Doerksen,  A. D. Dutoi,  L. Fusti-Molnar,  W. A. Goddard III,  
 A. Golubeva-Zadorozhnaya,  S. R. Gwaltney,  G. Hawkins,  A. Heyden,  
 S. Hirata,  G. Kedziora,  F. J. Keil,  C. Kelley,  Jihan Kim,  R. A. King,  
 R. Z. Khaliullin,  P. P. Korambath,  W. Kurlancheek,  A. M. Lee,  M. S. Lee,  
 S. V. Levchenko,  Ching Yeh Lin,  D. Liotard,  R. C. Lochan,  I. Lotan,  
 P. E. Maslen,  N. Nair,  D. P. O'Neill,  D. Neuhauser,  E. Neuscamman,  
 C. M. Oana,  R. Olson,  B. Peters,  R. Peverati,  P. A. Pieniazek,  
 Y. M. Rhee,  J. Ritchie,  M. A. Rohrdanz,  E. Rosta,  N. J. Russ,  
 H. F. Schaefer III,  N. E. Schultz,  N. Shenvi,  A. C. Simmonett,  A. Sodt,  
 D. Stuck,  K. S. Thanthiriwatte,  V. Vanovschi,  Tao Wang,  A. Warshel,  
 C. F. Williams,  Q. Wu,  X. Xu,  W. Zhang

 Please cite Q-Chem as follows:
 Y. Shao et al., Mol. Phys. 113, 184-215 (2015)
 DOI: 10.1080/00268976.2014.952696

 Q-Chem 5.0.2 for Intel X86 EM64T Linux

 Parts of Q-Chem use Armadillo 5.200.1 (Boston Tea Smuggler).
 http://arma.sourceforge.net/

 Q-Chem begins on Thu Mar  3 04:40:16 2022  

Host: 
0

     Scratch files written to ./irc_transition.d//
 Dec517 15110_ 26548  26544 5633   
Processing $rem in /home/leeping/opt/qchem/5.0.2-openmp/config/preferences.
 MEM_STATIC 2000
 MEM_TOTAL  8000
 SYMMETRY   OFF
 SYM_IGNORE TRUE 

Checking the input file for inconsistencies... 	...done.

--------------------------------------------------------------
User input:
--------------------------------------------------------------
$molecule
0 2
C        1.1722997819    0.2314619880    0.4234871801
C        0.7496865017   -1.0097548267   -0.3627750747
C       -0.5492935903   -0.8794313818   -0.8805066217
C       -1.0742266605    0.1906129619    0.0749795455
C       -0.4215763670    1.4937321563   -0.3917190604
N        0.8529832489    1.5070086776   -0.2304666120
H        2.1498651423    0.1827954822    0.8943296881
H        1.4430258308   -1.8313755913   -0.5196176095
H       -1.0605115782   -1.4506138143   -1.6427081574
H       -2.1406528892    0.2036497210    0.2976581923
H       -0.9436859199    2.2897456886   -0.9183415331
C       -0.0409892156   -0.2400118324    1.1431525371
H       -0.1692608261   -0.7261022465    2.1001800833
$end

$rem
method                b3lyp
basis                 6-31+g(d,p)
unrestricted          true
symmetry              off
sym_ignore            true
incdft                false
incfock               0
scf_convergence       8
thresh                14
jobtype               sp
scf_guess             read
scf_algorithm         diis
max_scf_cycles        100
scf_final_print       1
$end

--------------------------------------------------------------
 ----------------------------------------------------------------
             Standard Nuclear Orientation (Angstroms)
    I     Atom           X                Y                Z
 ----------------------------------------------------------------
    1      C       1.1722997819     0.2314619880     0.4234871801
    2      C       0.7496865017    -1.0097548267    -0.3627750747
    3      C      -0.5492935903    -0.8794313818    -0.8805066217
    4      C      -1.0742266605     0.1906129619     0.0749795455
    5      C      -0.4215763670     1.4937321563    -0.3917190604
    6      N       0.8529832489     1.5070086776    -0.2304666120
    7      H       2.1498651423     0.1827954822     0.8943296881
    8      H       1.4430258308    -1.8313755913    -0.5196176095
    9      H      -1.0605115782    -1.4506138143    -1.6427081574
   10      H      -2.1406528892     0.2036497210     0.2976581923
   11      H      -0.9436859199     2.2897456886    -0.9183415331
   12      C      -0.0409892156    -0.2400118324     1.1431525371
   13      H      -0.1692608261    -0.7261022465     2.1001800833
 ----------------------------------------------------------------
 Nuclear Repulsion Energy =   281.0259519694 hartrees
 There are       25 alpha and       24 beta electrons
 Requested basis set is 6-31+G(d,p)
 There are 53 shells and 163 basis functions

 Total QAlloc Memory Limit   8000 MB
 Mega-Array Size      1956 MB
 MEM_STATIC part      2000 MB

                       Distance Matrix (Angstroms)
             C (  1)   C (  2)   C (  3)   C (  4)   C (  5)   N (  6)
   C (  2)  1.528865
   C (  3)  2.428656  1.404414
   C (  4)  2.273765  2.226920  1.527581
   C (  5)  2.190509  2.764081  2.426341  1.530320
   N (  6)  1.468550  2.522355  2.843243  2.353791  1.284788
   H (  7)  1.086138  2.227777  3.400563  3.326584  3.159871  2.168089
   H (  8)  2.284303  1.086453  2.237359  3.283069  3.814373  3.402436
   H (  9)  3.476203  2.260399  1.080992  2.375766  3.262267  3.795184
   H ( 10)  3.315458  3.203527  2.256892  1.089505  2.257161  3.307494
   H ( 11)  3.242596  3.750049  3.193847  2.325959  1.087919  2.076986
   C ( 12)  1.487372  1.866947  2.182299  1.547259  2.346603  2.395433
   H ( 13)  2.351173  2.644063  3.008725  2.400160  3.346773  3.385806
             H (  7)   H (  8)   H (  9)   H ( 10)   H ( 11)   C ( 12)
   H (  8)  2.560421
   H (  9)  4.405804  2.770201
   H ( 10)  4.331858  4.201431  2.769172
   H ( 11)  4.158735  4.779018  3.811646  2.695029
   C ( 12)  2.245111  2.738530  3.204060  2.306574  3.385896
   H ( 13)  2.767402  3.268706  3.915157  2.828411  4.336651  1.081036

 
 A cutoff of  1.0D-14 yielded   1405 shell pairs
 There are     13515 function pairs
 
 -------------------------------------------------------
 OpenMP Integral Computing Module                       
 Release: version 1.0, May 2013, Q-Chem Inc. Pittsburgh 
 -------------------------------------------------------
 Integral Job Info:
 Integral job number is                      11
 Integral operator is                         1
 short-range coefficients                     0
 long-range coefficients              100000000
 Omega coefficients                           0
 if combine SR and LR in K                    0
 Integral screening is                        0
 Integral computing path is                   2
 max size of driver memory is            800000
 size of driver memory is                593474
 size of scratch memory is              2361544
 max col of scratch BK array               1296
 max len of scratch array in speh3          155
 max len of scratch index in speh4           18
 max int batch size is                      520
 min int batch size is                       52
 fixed nKL is                                52
 max L of basis functions is                  2
 order of int derivative is                   0
 number of shells is                         53
 number of basis is                         163
 number of cartesian basis is               163
 number of contracted shell pairs          1405
 number of primitive shell pairs           4830
 maxK2 (contraction) of shell pair           36
 max number of K2 of shell pair               1
 max number of CS2 of shell pair            127
 max number of PS2 of shell pair            702
 mem total for path MDJ                  535308
 -------------------------------------------------------
 Smallest overlap matrix eigenvalue = 2.76E-05

 Scale SEOQF with 1.000000e-01/1.000000e-01/1.000000e-01

 Standard Electronic Orientation quadrupole field applied
 Nucleus-field energy     =     0.0000000025 hartrees
 Guess MOs from SCF MO coefficient file
 Reading MOs from coefficient file
 Reading MOs from coefficient file
 An unrestricted hybrid HF-DFT SCF calculation will be
 performed using Pulay DIIS extrapolation
 Exchange:     0.2000 Hartree-Fock + 0.0800 Slater + 0.7200 B88
 Correlation:  0.1900 VWN1RPA + 0.8100 LYP
 Using SG-1 standard quadrature grid
 SCF converges when DIIS error is below 1.0E-08
Using Q-Chem read-in guess as SCF_GUESS READ specified.

 using 4 threads for integral computing
 -------------------------------------------------------
 OpenMP Integral computing Module                
 Release: version 1.0, May 2013, Q-Chem Inc. Pittsburgh 
 -------------------------------------------------------
 -------------------------------------------------------
 OpenMP BLAS3 based DFT computing Module                
 Release: version 1.0, May 2013, Q-Chem Inc. Pittsburgh 
 -------------------------------------------------------
 ---------------------------------------
  Cycle       Energy         DIIS Error
 ---------------------------------------
    1    -286.8475377375      1.35E-09
    2    -286.8475377375      2.03E-09 Convergence criterion met
 ---------------------------------------
 One-Electron    Energy =  -942.4280060746
 Total Coulomb   Energy =   416.1623976825
 Alpha Exchange  Energy =    -4.0179906196
 Beta  Exchange  Energy =    -3.9243172673
 DFT   Exchange  Energy =   -31.5544097820
 DFT Correlation Energy =    -2.1111636483
 Nuclear Repu.   Energy =   281.0259519719
 Nuclear Attr.   Energy = -1226.5700711045
 Kinetic         Energy =   284.1420650299
 <S^2> = 0.7773
 SCF time:  CPU 10.09 s  wall 2.69 s
 Final Alpha MO Eigenvalues
            1           2           3           4           5           6
    1 -14.3302325 -10.2352524 -10.2297076 -10.2287593 -10.2255923 -10.2208142
            7           8           9          10          11          12
    1 -10.2062863  -0.9723895  -0.8494023  -0.7507480  -0.6955355  -0.6015249
           13          14          15          16          17          18
    1  -0.5854052  -0.5475355  -0.5219671  -0.4717541  -0.4441296  -0.4243268
           19          20          21          22          23          24
    1  -0.4087324  -0.3781297  -0.3559494  -0.2960908  -0.2840616  -0.2770164
           25          26          27          28          29          30
    1  -0.1572051  -0.0168591  -0.0101294   0.0010241   0.0182909   0.0287218
 Final Beta MO Eigenvalues
            1           2           3           4           5           6
    1 -14.3287315 -10.2350532 -10.2312833 -10.2296753 -10.2215430 -10.2172865
            7           8           9          10          11          12
    1 -10.1970593  -0.9680539  -0.8415329  -0.7469541  -0.6837023  -0.5975661
           13          14          15          16          17          18
    1  -0.5768730  -0.5410812  -0.5192041  -0.4633655  -0.4410259  -0.4185820
           19          20          21          22          23          24
    1  -0.4064987  -0.3732599  -0.3507616  -0.2867006  -0.2746245  -0.2652205
           25          26          27          28          29
    1  -0.0542798  -0.0084913  -0.0016919   0.0027676   0.0186191
 SCF   energy in the final basis set = -286.84753774
 Total energy in the final basis set = -286.84753774
 
 --------------------------------------------------------------
 
                    Orbital Energies (a.u.)
 --------------------------------------------------------------
 
 Alpha MOs
 -- Occupied --
-14.330 -10.235 -10.230 -10.229 -10.226 -10.221 -10.206  -0.972
 -0.849  -0.751  -0.696  -0.602  -0.585  -0.548  -0.522  -0.472
 -0.444  -0.424  -0.409  -0.378  -0.356  -0.296  -0.284  -0.277
 -0.157
 -- Virtual --
 -0.017  -0.010   0.001   0.018   0.029   0.033   0.046   0.048
  0.062   0.071   0.074   0.095   0.100   0.107   0.109   0.118
  0.124   0.129   0.141   0.153   0.165   0.178   0.180   0.185
  0.192   0.197   0.207   0.218   0.225   0.234   0.240   0.251
  0.259   0.268   0.281   0.287   0.309   0.313   0.331   0.368
  0.372   0.382   0.407   0.455   0.629   0.668   0.675   0.695
  0.699   0.714   0.725   0.734   0.744   0.753   0.778   0.793
  0.806   0.814   0.858   0.901   0.917   0.936   0.955   1.002
  1.015   1.033   1.047   1.070   1.082   1.094   1.104   1.139
  1.202   1.217   1.326   1.341   1.384   1.419   1.437   1.487
  1.558   1.621   1.626   1.691   1.724   1.767   1.817   1.865
  1.879   1.908   1.952   1.980   2.043   2.093   2.105   2.126
  2.156   2.212   2.220   2.277   2.304   2.327   2.363   2.397
  2.404   2.437   2.447   2.485   2.504   2.520   2.534   2.553
  2.569   2.606   2.618   2.655   2.686   2.703   2.745   2.778
  2.852   2.857   2.981   3.071   3.083   3.291   3.316   3.326
  3.508   3.599   3.687   4.171   4.413   4.487   4.569   4.620
  4.694   4.831
 
 Beta MOs
 -- Occupied --
-14.329 -10.235 -10.231 -10.230 -10.222 -10.217 -10.197  -0.968
 -0.842  -0.747  -0.684  -0.598  -0.577  -0.541  -0.519  -0.463
 -0.441  -0.419  -0.406  -0.373  -0.351  -0.287  -0.275  -0.265
 -- Virtual --
 -0.054  -0.008  -0.002   0.003   0.019   0.031   0.038   0.047
  0.049   0.063   0.072   0.077   0.096   0.101   0.108   0.109
  0.119   0.128   0.132   0.142   0.153   0.164   0.179   0.181
  0.188   0.195   0.197   0.208   0.223   0.228   0.237   0.242
  0.254   0.260   0.273   0.282   0.288   0.312   0.315   0.333
  0.372   0.376   0.385   0.411   0.457   0.634   0.674   0.678
  0.700   0.711   0.727   0.734   0.744   0.749   0.759   0.784
  0.796   0.808   0.817   0.859   0.905   0.919   0.939   0.958
  1.005   1.019   1.036   1.049   1.071   1.087   1.101   1.109
  1.148   1.207   1.221   1.331   1.346   1.387   1.425   1.442
  1.491   1.566   1.626   1.635   1.698   1.732   1.770   1.828
  1.870   1.885   1.913   1.956   1.984   2.048   2.102   2.109
  2.130   2.165   2.220   2.229   2.283   2.310   2.330   2.367
  2.403   2.406   2.443   2.454   2.489   2.508   2.526   2.542
  2.556   2.573   2.614   2.620   2.664   2.693   2.706   2.748
  2.782   2.856   2.861   2.983   3.074   3.085   3.293   3.318
  3.327   3.509   3.602   3.691   4.173   4.423   4.486   4.581
  4.626   4.696   4.835
 --------------------------------------------------------------
 
          Ground-State Mulliken Net Atomic Charges

     Atom                 Charge (a.u.)    Spin (a.u.)
  --------------------------------------------------------
      1 C                    -0.133255      -0.020814
      2 C                    -0.104233      -0.233533
      3 C                    -0.139879       0.728410
      4 C                     0.001918      -0.101873
      5 C                    -0.069985      -0.002155
      6 N                    -0.179931       0.062228
      7 H                     0.138943       0.004338
      8 H                     0.139217       0.010319
      9 H                     0.138990      -0.028730
     10 H                     0.129079       0.010623
     11 H                     0.132681       0.001552
     12 C                    -0.199486       0.594043
     13 H                     0.145943      -0.024409
  --------------------------------------------------------
  Sum of atomic charges =     0.000000
  Sum of spin   charges =     1.000000

 -----------------------------------------------------------------
                    Cartesian Multipole Moments
 -----------------------------------------------------------------
    Charge (ESU x 10^10)
                 0.0000
    Dipole Moment (Debye)
         X      -1.3852      Y      -2.0677      Z       0.7526
       Tot       2.6001
    Quadrupole Moments (Debye-Ang)
        XX     -39.3848     XY      -5.3177     YY     -44.6063
        XZ       2.1581     YZ       0.2140     ZZ     -41.3547
    Octopole Moments (Debye-Ang^2)
       XXX     -10.8751    XXY     -11.1334    XYY     -10.9131
       YYY     -25.1160    XXZ       3.6200    XYZ       2.5318
       YYZ      -2.3946    XZZ      -5.3992    YZZ     -10.3536
       ZZZ       8.1612
    Hexadecapole Moments (Debye-Ang^3)
      XXXX    -225.6081   XXXY     -12.1174   XXYY     -96.1845
      XYYY     -29.0521   YYYY    -322.3763   XXXZ      -8.3397
      XXYZ       3.8710   XYYZ       1.2416   YYYZ       0.0161
      XXZZ     -67.6060   XYZZ      -0.2505   YYZZ     -77.0860
      XZZZ     -11.8287   YZZZ      -4.0984   ZZZZ    -174.7922
 -----------------------------------------------------------------
 Mayer SCF Bond Order, atomic valence on the diagonal:

            1           2           3           4           5           6
    1   3.8349503   0.9018380  -0.0114780  -0.0973270   0.0256167   1.0626839
    2   0.9018380   3.9246230   1.4691306  -0.0273728   0.0484348  -0.0423012
    3  -0.0114780   1.4691306   3.6115799   0.9280759   0.1182005   0.0495393
    4  -0.0973270  -0.0273728   0.9280759   3.5484462   0.8709788  -0.0285687
    5   0.0256167   0.0484348   0.1182005   0.8709788   3.8606069   1.7183957
    6   1.0626839  -0.0423012   0.0495393  -0.0285687   1.7183957   2.7141672
    7   0.9239810   0.0005532   0.0128876   0.0090687   0.0067532  -0.0212613
    8   0.0382846   0.8289845   0.0567901  -0.0041177   0.0049490  -0.0000777
    9  -0.0105148   0.0658364   0.8549781   0.0100973   0.0188611   0.0014292
   10   0.0043884   0.0119934   0.0126157   0.8906356  -0.0055087   0.0133574
   11   0.0178671  -0.0083935   0.0308593  -0.0575695   0.9624547  -0.0204400
   12   0.9727958   0.6347300   0.0995083   1.0184871   0.0896141  -0.0267047
   13   0.0068146   0.0411896  -0.0095274   0.0360585   0.0018571   0.0081152
            7           8           9          10          11          12
    1   0.9239810   0.0382846  -0.0105148   0.0043884   0.0178671   0.9727958
    2   0.0005532   0.8289845   0.0658364   0.0119934  -0.0083935   0.6347300
    3   0.0128876   0.0567901   0.8549781   0.0126157   0.0308593   0.0995083
    4   0.0090687  -0.0041177   0.0100973   0.8906356  -0.0575695   1.0184871
    5   0.0067532   0.0049490   0.0188611  -0.0055087   0.9624547   0.0896141
    6  -0.0212613  -0.0000777   0.0014292   0.0133574  -0.0204400  -0.0267047
    7   0.9456896   0.0000392   0.0006244   0.0016561   0.0020180   0.0090766
    8   0.0000392   0.9557492   0.0005243   0.0015534   0.0004015   0.0280951
    9   0.0006244   0.0005243   0.9581107   0.0004851   0.0001009   0.0151703
   10   0.0016561   0.0015534   0.0004851   0.9579801   0.0001670   0.0263270
   11   0.0020180   0.0004015   0.0001009   0.0001670   0.9481482   0.0200084
   12   0.0090766   0.0280951   0.0151703   0.0263270   0.0200084   3.7654472
   13   0.0002929   0.0003229   0.0005184   0.0003096   0.0006742   0.8783392
           13
    1   0.0068146
    2   0.0411896
    3  -0.0095274
    4   0.0360585
    5   0.0018571
    6   0.0081152
    7   0.0002929
    8   0.0003229
    9   0.0005184
   10   0.0003096
   11   0.0006742
   12   0.8783392
   13   0.9649649


Archival summary:
1\1\c8-73\SP\ProcedureUnspecified\6-31+G**\166(2)\hpark21\ThuMar304:40:212022ThuMar304:40:212022\0\\#,ProcedureUnspecified,6-31+G**,\\0,2\N\C,1,1.28479\H,2,1.08792,1,121.957\C,1,1.46855,2,105.226,3,-175.769,0\H,4,1.08614,1,115.319,2,-163.092,0\C,4,1.48737,1,108.265,2,-24.4536,0\H,6,1.08104,4,131.888,1,-141.041,0\C,4,1.52887,1,114.585,2,58.6557,0\H,8,1.08645,4,120.784,1,131.573,0\C,8,1.40441,4,111.711,1,-44.7709,0\H,10,1.08099,8,130.414,4,164.76,0\C,10,1.52758,8,98.7577,4,-21.9449,0\H,12,1.0895,10,118.202,8,-150.641,0\\\@

 Total job time:  5.03s(wall), 12.14s(cpu) 
 Thu Mar  3 04:40:21 2022

        *************************************************************
        *                                                           *
        *  Thank you very much for using Q-Chem.  Have a nice day.  *
        *                                                           *
        *************************************************************


