
Running Job 1 of 1 qcts1.in
qchem qcts1.in_46861.0 ./qcts1.d/ 1
/home/leeping/opt/qchem/5.0.2-openmp/exe/qcprog.exe_s qcts1.in_46861.0 ./qcts1.d/
Check license passed

                  Welcome to Q-Chem
     A Quantum Leap Into The Future Of Chemistry


 Q-Chem 5.0, Q-Chem, Inc., Pleasanton, CA (2017)

 Yihan Shao,  Zhengting Gan,  E. Epifanovsky,  A. T. B. Gilbert,  M. Wormit,  
 J. Kussmann,  A. W. Lange,  A. Behn,  Jia Deng,  Xintian Feng,  D. Ghosh,  
 M. Goldey,  P. R. Horn,  L. D. Jacobson,  I. Kaliman,  T. Kus,  A. Landau,  
 Jie Liu,  E. I. Proynov,  R. M. Richard,  R. P. Steele,  E. J. Sundstrom,  
 H. L. Woodcock III,  P. M. Zimmerman,  D. Zuev,  B. Albrecht,  E. Alguire,  
 S. A. Baeppler,  D. Barton,  Z. Benda,  Y. A. Bernard,  E. J. Berquist,  
 K. B. Bravaya,  H. Burton,  D. Casanova,  Chun-Min Chang,  Yunqing Chen,  
 A. Chien,  K. D. Closser,  M. P. Coons,  S. Dasgupta,  A. L. Dempwolff,  
 M. Diedenhofen,  Hainam Do,  R. G. Edgar,  Po-Tung Fang,  S. Fatehi,  
 Qingguo Feng,  J. Fosso-Tande,  Qinghui Ge,  A. Ghysels,  G. Gidofalvi,  
 J. Gomes,  J. Gonthier,  A. Gunina,  M. W. D. Hanson-Heine,  
 P. H. P. Harbach,  A. W. Hauser,  J. E. Herr,  E. G. Hohenstein,  
 Z. C. Holden,  Kerwin Hui,  T.-C. Jagau,  Hyunjun Ji,  B. Kaduk,  
 K. Khistyaev,  Jaehoon Kim,  P. Klunzinger,  K. Koh,  D. Kosenkov,  
 L. Koulias,  T. Kowalczyk,  C. M. Krauter,  A. Kunitsa,  Ka Un Lao,  
 A. Laurent,  K. V. Lawler,  Joonho Lee,  D. Lefrancois,  S. Lehtola,  
 D. S. Levine,  Yi-Pei Li,  You-Sheng Lin,  Fenglai Liu,  E. Livshits,  
 A. Luenser,  P. Manohar,  E. Mansoor,  S. F. Manzer,  Shan-Ping Mao,  
 Yuezhi Mao,  N. Mardirossian,  A. V. Marenich,  T. Markovich,  
 L. A. Martinez-Martinez,  S. A. Maurer,  N. J. Mayhall,  S. C. McKenzie,  
 J.-M. Mewes,  A. F. Morrison,  J. W. Mullinax,  K. Nanda,  
 T. S. Nguyen-Beck,  R. Olivares-Amaya,  J. A. Parkhill,  T. M. Perrine,  
 F. Plasser,  S. Prager,  A. Prociuk,  E. Ramos,  D. R. Rehn,  F. Rob,  
 M. Schneider,  N. Sergueev,  S. M. Sharada,  S. Sharma,  D. W. Small,  
 T. Stauch,  T. Stein,  Yu-Chuan Su,  A. J. W. Thom,  A. Tkatchenko,  
 T. Tsuchimochi,  L. Vogt,  O. Vydrov,  M. A. Watson,  J. Wenzel,  
 M. de Wergifosse,  T. A. Wesolowski,  A. White,  J. Witte,  A. Yamada,  
 Jun Yang,  K. Yao,  S. Yeganeh,  S. R. Yost,  Zhi-Qiang You,  A. Zech,  
 Igor Ying Zhang,  Xing Zhang,  Yan Zhao,  Ying Zhu,  B. R. Brooks,  
 G. K. L. Chan,  C. J. Cramer,  M. S. Gordon,  W. J. Hehre,  A. Klamt,  
 M. W. Schmidt,  C. D. Sherrill,  D. G. Truhlar,  A. Aspuru-Guzik,  R. Baer,  
 A. T. Bell,  N. A. Besley,  Jeng-Da Chai,  R. A. DiStasio Jr.,  A. Dreuw,  
 B. D. Dunietz,  T. R. Furlani,  Chao-Ping Hsu,  Yousung Jung,  Jing Kong,  
 D. S. Lambrecht,  WanZhen Liang,  C. Ochsenfeld,  V. A. Rassolov,  
 L. V. Slipchenko,  J. E. Subotnik,  T. Van Voorhis,  J. M. Herbert,  
 A. I. Krylov,  P. M. W. Gill,  M. Head-Gordon

 Contributors to earlier versions of Q-Chem not listed above: 
 R. D. Adamson,  B. Austin,  J. Baker,  G. J. O. Beran,  K. Brandhorst,  
 S. T. Brown,  E. F. C. Byrd,  A. K. Chakraborty,  C.-L. Cheng,  
 Siu Hung Chien,  D. M. Chipman,  D. L. Crittenden,  H. Dachsel,  
 R. J. Doerksen,  A. D. Dutoi,  L. Fusti-Molnar,  W. A. Goddard III,  
 A. Golubeva-Zadorozhnaya,  S. R. Gwaltney,  G. Hawkins,  A. Heyden,  
 S. Hirata,  G. Kedziora,  F. J. Keil,  C. Kelley,  Jihan Kim,  R. A. King,  
 R. Z. Khaliullin,  P. P. Korambath,  W. Kurlancheek,  A. M. Lee,  M. S. Lee,  
 S. V. Levchenko,  Ching Yeh Lin,  D. Liotard,  R. C. Lochan,  I. Lotan,  
 P. E. Maslen,  N. Nair,  D. P. O'Neill,  D. Neuhauser,  E. Neuscamman,  
 C. M. Oana,  R. Olson,  B. Peters,  R. Peverati,  P. A. Pieniazek,  
 Y. M. Rhee,  J. Ritchie,  M. A. Rohrdanz,  E. Rosta,  N. J. Russ,  
 H. F. Schaefer III,  N. E. Schultz,  N. Shenvi,  A. C. Simmonett,  A. Sodt,  
 D. Stuck,  K. S. Thanthiriwatte,  V. Vanovschi,  Tao Wang,  A. Warshel,  
 C. F. Williams,  Q. Wu,  X. Xu,  W. Zhang

 Please cite Q-Chem as follows:
 Y. Shao et al., Mol. Phys. 113, 184-215 (2015)
 DOI: 10.1080/00268976.2014.952696

 Q-Chem 5.0.2 for Intel X86 EM64T Linux

 Parts of Q-Chem use Armadillo 5.200.1 (Boston Tea Smuggler).
 http://arma.sourceforge.net/

 Q-Chem begins on Thu Mar  3 00:35:26 2022  

Host: 
0

     Scratch files written to ./qcts1.d//
 Dec517 15110_ 26548  26544 5633   
Processing $rem in /home/leeping/opt/qchem/5.0.2-openmp/config/preferences.
 MEM_STATIC 2000
 MEM_TOTAL  8000
 SYMMETRY   OFF
 SYM_IGNORE TRUE 

Checking the input file for inconsistencies... 	...done.

--------------------------------------------------------------
User input:
--------------------------------------------------------------
$molecule
0 2
C        1.3508310446    0.3425182941    0.2245868273
C        0.7876249647   -0.9055224206   -0.2863464906
C       -0.5186769396   -0.8373084709   -0.8234941720
C       -1.0704899465    0.2435019489    0.0581095270
C       -0.4073055694    1.5410387565   -0.3787639528
N        0.8772628773    1.5512413055   -0.2313299856
H        2.3195977034    0.3360888111    0.7147486835
H        1.4119930239   -1.8020257150   -0.2875602812
H       -1.0629061242   -1.6620716303   -1.2655426713
H       -2.1545702572    0.3036054138    0.1976181895
H       -0.9319215325    2.3800890487   -0.8267526571
C       -0.1614801760   -0.3149532393    1.1758656739
H       -0.4722956096   -1.2144851201    1.7165138671
$end

$rem
method                b3lyp
basis                 6-31g(d)
unrestricted          true
symmetry              off
sym_ignore            true
incdft                false
incfock               0
scf_convergence       8
thresh                14
jobtype               freq
scf_guess             read
scf_algorithm         diis
max_scf_cycles        100
$end

--------------------------------------------------------------
 ----------------------------------------------------------------
             Standard Nuclear Orientation (Angstroms)
    I     Atom           X                Y                Z
 ----------------------------------------------------------------
    1      C       1.3508310446     0.3425182941     0.2245868273
    2      C       0.7876249647    -0.9055224206    -0.2863464906
    3      C      -0.5186769396    -0.8373084709    -0.8234941720
    4      C      -1.0704899465     0.2435019489     0.0581095270
    5      C      -0.4073055694     1.5410387565    -0.3787639528
    6      N       0.8772628773     1.5512413055    -0.2313299856
    7      H       2.3195977034     0.3360888111     0.7147486835
    8      H       1.4119930239    -1.8020257150    -0.2875602812
    9      H      -1.0629061242    -1.6620716303    -1.2655426713
   10      H      -2.1545702572     0.3036054138     0.1976181895
   11      H      -0.9319215325     2.3800890487    -0.8267526571
   12      C      -0.1614801760    -0.3149532393     1.1758656739
   13      H      -0.4722956096    -1.2144851201     1.7165138671
 ----------------------------------------------------------------
 Nuclear Repulsion Energy =   279.2876971551 hartrees
 There are       25 alpha and       24 beta electrons
 Requested basis set is 6-31G(d)
 There are 40 shells and 117 basis functions

 Total QAlloc Memory Limit   8000 MB
 Mega-Array Size      1956 MB
 MEM_STATIC part      2000 MB

                       Distance Matrix (Angstroms)
             C (  1)   C (  2)   C (  3)   C (  4)   C (  5)   N (  6)
   C (  2)  1.461458
   C (  3)  2.446533  1.414074
   C (  4)  2.429056  2.211673  1.499958
   C (  5)  2.211680  2.724346  2.422132  1.521274
   N (  6)  1.375914  2.459014  2.829218  2.363831  1.293042
   H (  7)  1.085730  2.211500  3.434946  3.454337  3.175480  2.109974
   H (  8)  2.205698  1.092499  2.223824  3.235180  3.807131  3.396100
   H (  9)  3.473470  2.226131  1.082509  2.320199  3.387640  3.893486
   H ( 10)  3.505721  3.217565  2.240648  1.094671  2.217294  3.306449
   H ( 11)  3.235424  3.747549  3.243829  2.316719  1.086242  2.077177
   C ( 12)  1.903756  1.840553  2.097113  1.545170  2.433518  2.557708
   H ( 13)  2.823809  2.386275  2.568278  2.287765  3.462272  3.642066
             H (  7)   H (  8)   H (  9)   H ( 10)   H ( 11)   C ( 12)
   H (  8)  2.529803
   H (  9)  4.399492  2.664801
   H ( 10)  4.504071  4.170066  2.682621
   H ( 11)  4.138422  4.824391  4.068016  2.618395
   C ( 12)  2.606191  2.613201  2.930490  2.304776  3.444897
   H ( 13)  3.347011  2.812839  3.072754  2.727946  4.427237  1.094561

 
 A cutoff of  1.0D-14 yielded    811 shell pairs
 There are      7083 function pairs
 Smallest overlap matrix eigenvalue = 1.62E-03
 Guess MOs from SCF MO coefficient file
 Reading MOs from coefficient file
 Reading MOs from coefficient file
 An unrestricted hybrid HF-DFT SCF calculation will be
 performed using Pulay DIIS extrapolation
 Exchange:     0.2000 Hartree-Fock + 0.0800 Slater + 0.7200 B88
 Correlation:  0.1900 VWN1RPA + 0.8100 LYP
 Using SG-1 standard quadrature grid
 SCF converges when DIIS error is below 1.0E-08
Using Q-Chem read-in guess as SCF_GUESS READ specified.

 -------------------------------------------------------
 OpenMP BLAS3 based DFT computing Module                
 -------------------------------------------------------
 ---------------------------------------
  Cycle       Energy         DIIS Error
 ---------------------------------------
    1    -286.7822226048      5.14E-10
    2    -286.7822226048      7.53E-10 Convergence criterion met
 ---------------------------------------
 <S^2> = 0.7730
 SCF time:  CPU 3.40 s  wall 3.91 s
 SCF   energy in the final basis set = -286.78222260
 Total energy in the final basis set = -286.78222260
 
 --------------------------------------------------------------
 
                    Orbital Energies (a.u.)
 --------------------------------------------------------------
 
 Alpha MOs
 -- Occupied --
-14.328 -10.251 -10.229 -10.221 -10.219 -10.208 -10.189  -0.964
 -0.847  -0.752  -0.656  -0.615  -0.599  -0.537  -0.496  -0.450
 -0.444  -0.429  -0.404  -0.369  -0.350  -0.286  -0.269  -0.263
 -0.132
 -- Virtual --
 -0.030   0.039   0.054   0.093   0.141   0.149   0.155   0.168
  0.173   0.187   0.231   0.256   0.281   0.332   0.350   0.394
  0.482   0.509   0.528   0.544   0.557   0.567   0.590   0.596
  0.625   0.652   0.667   0.684   0.688   0.714   0.759   0.803
  0.817   0.828   0.846   0.858   0.864   0.885   0.909   0.945
  0.982   1.029   1.081   1.108   1.145   1.212   1.246   1.340
  1.366   1.406   1.460   1.530   1.541   1.588   1.650   1.661
  1.760   1.791   1.851   1.894   1.915   1.942   1.999   2.049
  2.090   2.153   2.170   2.216   2.239   2.292   2.320   2.355
  2.390   2.437   2.472   2.537   2.546   2.583   2.617   2.652
  2.681   2.781   2.820   2.941   3.060   3.984   4.196   4.225
  4.286   4.418   4.450   4.580
 
 Beta MOs
 -- Occupied --
-14.327 -10.251 -10.229 -10.223 -10.210 -10.208 -10.181  -0.962
 -0.838  -0.751  -0.645  -0.608  -0.590  -0.533  -0.495  -0.447
 -0.439  -0.422  -0.401  -0.363  -0.345  -0.278  -0.268  -0.229
 -- Virtual --
 -0.033  -0.005   0.050   0.060   0.095   0.142   0.150   0.159
  0.173   0.176   0.193   0.235   0.259   0.283   0.335   0.357
  0.396   0.496   0.511   0.538   0.546   0.565   0.578   0.599
  0.605   0.628   0.663   0.670   0.692   0.696   0.720   0.764
  0.804   0.817   0.833   0.849   0.860   0.868   0.890   0.910
  0.948   0.984   1.033   1.092   1.111   1.152   1.224   1.251
  1.345   1.371   1.408   1.464   1.536   1.549   1.593   1.655
  1.670   1.767   1.812   1.853   1.905   1.921   1.953   2.005
  2.052   2.097   2.162   2.181   2.220   2.255   2.305   2.326
  2.367   2.397   2.444   2.485   2.543   2.550   2.590   2.620
  2.660   2.686   2.784   2.827   2.942   3.061   3.985   4.197
  4.240   4.301   4.425   4.451   4.582
 --------------------------------------------------------------
 
          Ground-State Mulliken Net Atomic Charges

     Atom                 Charge (a.u.)    Spin (a.u.)
  --------------------------------------------------------
      1 C                     0.030317      -0.024605
      2 C                    -0.160770      -0.115290
      3 C                    -0.103122       0.583284
      4 C                    -0.269614      -0.032502
      5 C                     0.105034       0.027940
      6 N                    -0.340771       0.016130
      7 H                     0.163586       0.000792
      8 H                     0.151520       0.005422
      9 H                     0.139128      -0.028617
     10 H                     0.141024       0.003669
     11 H                     0.151417      -0.000149
     12 C                    -0.165296       0.581976
     13 H                     0.157547      -0.018052
  --------------------------------------------------------
  Sum of atomic charges =    -0.000000
  Sum of spin   charges =     1.000000

 -----------------------------------------------------------------
                    Cartesian Multipole Moments
 -----------------------------------------------------------------
    Charge (ESU x 10^10)
                -0.0000
    Dipole Moment (Debye)
         X      -0.9060      Y      -1.9900      Z       0.0772
       Tot       2.1879
    Quadrupole Moments (Debye-Ang)
        XX     -37.1495     XY      -3.9492     YY     -40.8261
        XZ       1.3148     YZ      -0.8215     ZZ     -43.8378
    Octopole Moments (Debye-Ang^2)
       XXX      -9.4834    XXY     -10.4485    XYY     -11.9225
       YYY     -29.3886    XXZ       3.6417    XYZ       2.3854
       YYZ      -0.5694    XZZ      -5.6246    YZZ      -9.9397
       ZZZ       2.0857
    Hexadecapole Moments (Debye-Ang^3)
      XXXX    -227.5336   XXXY     -12.4217   XXYY     -93.5123
      XYYY     -28.7059   YYYY    -302.5695   XXXZ      -0.9944
      XXYZ       4.9661   XYYZ       3.0113   YYYZ       5.1362
      XXZZ     -64.9309   XYZZ      -1.5015   YYZZ     -71.0727
      XZZZ      -9.3049   YZZZ       2.4607   ZZZZ    -158.6143
 -----------------------------------------------------------------
 Calculating MO derivatives via CPSCF
   1         3          39      0.283774    0.058985
   2         3          39      0.037968    0.008053
   3         3          39      0.005232    0.001297
   4         3          39      0.000713    0.000177
   5        30          12      0.000054    0.000015
   6        39           3      0.000004    0.000002
   7        42           0      0.000000    0.000000    Roots Converged
 Time for AOints: 5.8 s (CPU) 6.0 s (wall)
 ------------------------------------------------------------------------------
                     AOints        : Timing summary (seconds)
 ------------------------------------------------------------------------------
     job step          cpu (% of tot)      sys (% of tot)     wall (% of tot)
 ------------------------------------------------------------------------------
  cpscf_lag         0.5577E+02 (28.6)   0.3100E-04 (37.8)   0.5693E+02 (28.6)
  iterzp            0.1334E+03 (68.4)   0.4800E-04 (58.5)   0.1357E+03 (68.3)
  make_fx           0.0000E+00 ( 0.0)   0.0000E+00 ( 0.0)   0.0000E+00 ( 0.0)
  AOints            0.5759E+01 ( 3.0)   0.1000E-05 ( 1.2)   0.6006E+01 ( 3.0)
 ------------------------------------------------------------------------------
   Grand Totals     0.1951E+03          0.8200E-04          0.1988E+03
 ------------------------------------------------------------------------------
 Calculating analytic Hessian of the SCF energy
 Polarizability Matrix (a.u.)
            1           2           3
    1 -66.4331008  -0.5378341  -3.7803008
    2  -0.5378341 -70.3708452   0.7050349
    3  -3.7803008   0.7050349 -53.4961224
 
 Direct stationary perturbation theory relativistic correction:
 
 rels  =       0.069289299860
 relv  =      -0.340733178557
 rel2e =       0.158499572177
 E_rel =      -0.112944306520
 
 Hessian of the SCF Energy
            1           2           3           4           5           6
    1   0.5754042  -0.0780319   0.3139765  -0.1011708  -0.0663668  -0.0706937
    2  -0.0780319   0.5012935   0.0389818  -0.0138238  -0.2071530  -0.0840508
    3   0.3139765   0.0389818   0.2176284  -0.0416858  -0.0392477  -0.0556182
    4  -0.1011708  -0.0138238  -0.0416858   0.5851470  -0.1395834   0.1345427
    5  -0.0663668  -0.2071530  -0.0392477  -0.1395834   0.6027396   0.0660150
    6  -0.0706937  -0.0840508  -0.0556182   0.1345427   0.0660150   0.1463131
    7  -0.0185361  -0.0316185  -0.0224798  -0.2781890   0.0354335  -0.0629134
    8  -0.0271598  -0.0050555  -0.0053167  -0.0005732  -0.0979061  -0.0297207
    9  -0.0223425  -0.0287854   0.0244170  -0.0916632  -0.0033586  -0.0365858
   10  -0.0285127   0.0005869  -0.0023086  -0.0401796   0.0382231   0.0209130
   11   0.0028315  -0.0005445  -0.0064258   0.0420650  -0.0155962  -0.0024299
   12  -0.0118077  -0.0194818  -0.0022518   0.0126251  -0.0077007  -0.0084435
   13  -0.0431641   0.0577128  -0.0409724  -0.0107742  -0.0012513  -0.0029859
   14   0.0385497  -0.0261323   0.0114687   0.0093751   0.0003326   0.0073163
   15  -0.0144716   0.0285396  -0.0177197  -0.0021922  -0.0004604   0.0079639
   16  -0.1230598   0.0570411  -0.0135745   0.0118516   0.0049338   0.0042064
   17   0.0797369  -0.2067074   0.0291542  -0.0138377  -0.0433878   0.0079143
   18  -0.0564312   0.0422723  -0.0643590   0.0131888  -0.0117045   0.0089996
   19  -0.2811611   0.0003957  -0.1283399  -0.0043802  -0.0003024  -0.0009611
   20  -0.0077600  -0.0514072   0.0019349  -0.0247214   0.0021075  -0.0124916
   21  -0.1274366  -0.0042208  -0.0986813  -0.0098664   0.0036714  -0.0069763
   22   0.0099678  -0.0131422   0.0017132  -0.1402781   0.1307308  -0.0059884
   23   0.0145385  -0.0193635   0.0030931   0.1308155  -0.2373082  -0.0043746
   24   0.0042702  -0.0054350   0.0021867  -0.0134462  -0.0045256  -0.0551272
   25  -0.0043661   0.0030219  -0.0028878  -0.0069841  -0.0242679  -0.0052198
   26   0.0018845  -0.0036399  -0.0001672   0.0068673   0.0083497   0.0036989
   27   0.0015789   0.0092389   0.0004023  -0.0069873  -0.0078042  -0.0072499
   28  -0.0011733  -0.0000499   0.0002743  -0.0013203   0.0006252   0.0008010
   29  -0.0006431  -0.0035091   0.0015496   0.0039201  -0.0046422  -0.0043455
   30  -0.0041860   0.0029356  -0.0011110  -0.0021811  -0.0045355  -0.0034479
   31  -0.0047916  -0.0008908  -0.0020369  -0.0002173  -0.0006731  -0.0009071
   32   0.0008641   0.0072315   0.0035420  -0.0013308   0.0004604  -0.0004229
   33   0.0022422   0.0082219   0.0066831  -0.0009337   0.0018496   0.0014527
   34   0.0107029   0.0090654  -0.0492340  -0.0087300   0.0305160  -0.0167553
   35   0.0353387   0.0177961  -0.0270104  -0.0040102  -0.0165428   0.0688441
   36  -0.0178463   0.0166245  -0.0010009   0.0014113  -0.0028060   0.0299918
   37   0.0098606   0.0097332  -0.0124444  -0.0047750  -0.0080176   0.0059617
   38   0.0062176  -0.0028086  -0.0115566   0.0048376   0.0085464  -0.0159524
   39   0.0031479  -0.0048408  -0.0105757   0.0071881   0.0106073  -0.0212723
            7           8           9          10          11          12
    1  -0.0185361  -0.0271598  -0.0223425  -0.0285127   0.0028315  -0.0118077
    2  -0.0316185  -0.0050555  -0.0287854   0.0005869  -0.0005445  -0.0194818
    3  -0.0224798  -0.0053167   0.0244170  -0.0023086  -0.0064258  -0.0022518
    4  -0.2781890  -0.0005732  -0.0916632  -0.0401796   0.0420650   0.0126251
    5   0.0354335  -0.0979061  -0.0033586   0.0382231  -0.0155962  -0.0077007
    6  -0.0629134  -0.0297207  -0.0365858   0.0209130  -0.0024299  -0.0084435
    7   0.5197197   0.0910455   0.1360495  -0.1022658   0.0153416   0.0445217
    8   0.0910455   0.4460344   0.2346055   0.0440480  -0.1170969  -0.0887854
    9   0.1360495   0.2346055   0.2569319   0.0325618  -0.0571078  -0.0934933
   10  -0.1022658   0.0440480   0.0325618   0.6929823  -0.0397681  -0.0518487
   11   0.0153416  -0.1170969  -0.0571078  -0.0397681   0.4082757  -0.0055019
   12   0.0445217  -0.0887854  -0.0934933  -0.0518487  -0.0055019   0.3203644
   13   0.0125039  -0.0039444   0.0097556  -0.0986058  -0.0279653   0.0169929
   14   0.0020458  -0.0307913  -0.0161593  -0.0302829  -0.1300199   0.0411487
   15  -0.0059328  -0.0064249   0.0028199   0.0075699   0.0409517  -0.0700585
   16  -0.0168550  -0.0069039  -0.0242992  -0.0398333  -0.0286763  -0.0023983
   17   0.0117048   0.0047080   0.0218861  -0.0282137  -0.0054193   0.0158394
   18  -0.0085871  -0.0039136  -0.0118225   0.0058537   0.0032743   0.0092016
   19   0.0013457  -0.0005157   0.0014457  -0.0009747  -0.0010739  -0.0002755
   20   0.0006429  -0.0042243   0.0005202  -0.0002180  -0.0010657   0.0006577
   21   0.0003746  -0.0030277  -0.0010600   0.0031137   0.0018077   0.0008182
   22  -0.0114932   0.0214446   0.0044216  -0.0064659   0.0023304  -0.0025257
   23  -0.0033338   0.0041560   0.0015392  -0.0007248   0.0003194  -0.0013597
   24   0.0048151   0.0098575   0.0098746  -0.0009924  -0.0030564   0.0002756
   25  -0.1306742  -0.1119806  -0.0723537   0.0100117   0.0125007   0.0063239
   26  -0.1192529  -0.2236087  -0.1157786  -0.0110897  -0.0112244  -0.0012435
   27  -0.0644904  -0.1077826  -0.0551733  -0.0049038  -0.0057905  -0.0048756
   28  -0.0046609   0.0001561  -0.0001294  -0.3121712   0.0133753   0.0346898
   29   0.0237302   0.0007476   0.0033713   0.0143838  -0.0493361  -0.0008513
   30   0.0210310   0.0027691   0.0007344   0.0328012  -0.0003114  -0.0573781
   31  -0.0000621   0.0001597   0.0011163   0.0093452  -0.0084820   0.0060767
   32  -0.0004271   0.0008764   0.0029844   0.0102525  -0.0083405   0.0099301
   33  -0.0001821   0.0019235   0.0029243  -0.0058109  -0.0029197   0.0043786
   34   0.0292907  -0.0106634   0.0164138  -0.0908095   0.0026423  -0.0412611
   35  -0.0308796   0.0217261  -0.0467858   0.0099148  -0.0639782   0.0634882
   36  -0.0484021  -0.0054038  -0.1085964  -0.0418529   0.0287076  -0.0903778
   37  -0.0001237   0.0048871   0.0090236   0.0074792   0.0148787  -0.0111132
   38   0.0055676   0.0004342   0.0030689  -0.0071117  -0.0059736  -0.0061399
   39   0.0061959   0.0012197   0.0090295   0.0049038   0.0088020  -0.0081597
           13          14          15          16          17          18
    1  -0.0431641   0.0385497  -0.0144716  -0.1230598   0.0797369  -0.0564312
    2   0.0577128  -0.0261323   0.0285396   0.0570411  -0.2067074   0.0422723
    3  -0.0409724   0.0114687  -0.0177197  -0.0135745   0.0291542  -0.0643590
    4  -0.0107742   0.0093751  -0.0021922   0.0118516  -0.0138377   0.0131888
    5  -0.0012513   0.0003326  -0.0004604   0.0049338  -0.0433878  -0.0117045
    6  -0.0029859   0.0073163   0.0079639   0.0042064   0.0079143   0.0089996
    7   0.0125039   0.0020458  -0.0059328  -0.0168550   0.0117048  -0.0085871
    8  -0.0039444  -0.0307913  -0.0064249  -0.0069039   0.0047080  -0.0039136
    9   0.0097556  -0.0161593   0.0028199  -0.0242992   0.0218861  -0.0118225
   10  -0.0986058  -0.0302829   0.0075699  -0.0398333  -0.0282137   0.0058537
   11  -0.0279653  -0.1300199   0.0409517  -0.0286763  -0.0054193   0.0032743
   12   0.0169929   0.0411487  -0.0700585  -0.0023983   0.0158394   0.0092016
   13   0.7847514  -0.1083401   0.1115159  -0.5062156   0.0120239  -0.0479389
   14  -0.1083401   0.5308084  -0.1954472  -0.0190490  -0.0851643   0.0186801
   15   0.1115159  -0.1954472   0.2437804  -0.0314956   0.0088825  -0.0610423
   16  -0.5062156  -0.0190490  -0.0314956   0.6792845  -0.0494556   0.0779537
   17   0.0120239  -0.0851643   0.0088825  -0.0494556   0.3758629  -0.0944485
   18  -0.0479389   0.0186801  -0.0610423   0.0779537  -0.0944485   0.1381805
   19   0.0012764   0.0020593  -0.0022525  -0.0058272   0.0014618  -0.0022459
   20   0.0010865  -0.0047300   0.0027951   0.0320983  -0.0025175   0.0146680
   21  -0.0000230   0.0012564   0.0007794  -0.0098296   0.0048683  -0.0058845
   22  -0.0017331  -0.0021152  -0.0000110   0.0018288  -0.0023258  -0.0018533
   23  -0.0004831  -0.0006411  -0.0001299  -0.0003636  -0.0010007  -0.0037985
   24  -0.0004610   0.0010844   0.0006779  -0.0015698  -0.0007570   0.0003376
   25  -0.0013357  -0.0006344   0.0018525   0.0009933   0.0005925  -0.0002793
   26   0.0026970   0.0004910  -0.0031487  -0.0024540   0.0015776  -0.0007625
   27  -0.0028673   0.0007723  -0.0009534   0.0057989  -0.0042679   0.0036827
   28  -0.0091705   0.0015370  -0.0005867  -0.0010848  -0.0006213   0.0007442
   29  -0.0291686   0.0069002   0.0001370  -0.0046281  -0.0046038   0.0015668
   30   0.0076118  -0.0022078  -0.0009911   0.0019002   0.0021960   0.0004063
   31  -0.1121360   0.0949121  -0.0560033  -0.0204624   0.0279842  -0.0137301
   32   0.1033166  -0.2339284   0.1001176   0.0029835   0.0031558  -0.0029650
   33  -0.0573066   0.1066714  -0.0886492  -0.0009506  -0.0056945  -0.0034909
   34  -0.0068876   0.0135312  -0.0030168   0.0109975  -0.0302682   0.0252515
   35  -0.0035565  -0.0253539   0.0214832   0.0125793  -0.0329152   0.0324725
   36   0.0074099   0.0238230  -0.0162217  -0.0049201   0.0166624  -0.0176876
   37  -0.0085093  -0.0015885  -0.0049758   0.0083820  -0.0087817   0.0080739
   38  -0.0021276  -0.0017710   0.0027046   0.0018947  -0.0035885   0.0046587
   39  -0.0007312   0.0015931  -0.0003854  -0.0008215  -0.0022353   0.0034784
           19          20          21          22          23          24
    1  -0.2811611  -0.0077600  -0.1274366   0.0099678   0.0145385   0.0042702
    2   0.0003957  -0.0514072  -0.0042208  -0.0131422  -0.0193635  -0.0054350
    3  -0.1283399   0.0019349  -0.0986813   0.0017132   0.0030931   0.0021867
    4  -0.0043802  -0.0247214  -0.0098664  -0.1402781   0.1308155  -0.0134462
    5  -0.0003024   0.0021075   0.0036714   0.1307308  -0.2373082  -0.0045256
    6  -0.0009611  -0.0124916  -0.0069763  -0.0059884  -0.0043746  -0.0551272
    7   0.0013457   0.0006429   0.0003746  -0.0114932  -0.0033338   0.0048151
    8  -0.0005157  -0.0042243  -0.0030277   0.0214446   0.0041560   0.0098575
    9   0.0014457   0.0005202  -0.0010600   0.0044216   0.0015392   0.0098746
   10  -0.0009747  -0.0002180   0.0031137  -0.0064659  -0.0007248  -0.0009924
   11  -0.0010739  -0.0010657   0.0018077   0.0023304   0.0003194  -0.0030564
   12  -0.0002755   0.0006577   0.0008182  -0.0025257  -0.0013597   0.0002756
   13   0.0012764   0.0010865  -0.0000230  -0.0017331  -0.0004831  -0.0004610
   14   0.0020593  -0.0047300   0.0012564  -0.0021152  -0.0006411   0.0010844
   15  -0.0022525   0.0027951   0.0007794  -0.0000110  -0.0001299   0.0006779
   16  -0.0058272   0.0320983  -0.0098296   0.0018288  -0.0003636  -0.0015698
   17   0.0014618  -0.0025175   0.0048683  -0.0023258  -0.0010007  -0.0007570
   18  -0.0022459   0.0146680  -0.0058845  -0.0018533  -0.0037985   0.0003376
   19   0.2942131  -0.0011849   0.1368571   0.0002039  -0.0006606   0.0003223
   20  -0.0011849   0.0607593  -0.0043338   0.0005833   0.0008350   0.0001077
   21   0.1368571  -0.0043338   0.1018133   0.0007071   0.0006023  -0.0003693
   22   0.0002039   0.0005833   0.0007071   0.1477090  -0.1391764   0.0068671
   23  -0.0006606   0.0008350   0.0006023  -0.1391764   0.2503007   0.0054871
   24   0.0003223   0.0001077  -0.0003693   0.0068671   0.0054871   0.0334653
   25   0.0000550  -0.0013250  -0.0009256   0.0008772   0.0005354   0.0006116
   26   0.0004177   0.0005604  -0.0002501  -0.0012579   0.0000644   0.0009124
   27  -0.0004390  -0.0004525   0.0007979   0.0012681   0.0002723  -0.0020267
   28   0.0000066   0.0001123   0.0002017  -0.0002055  -0.0004434   0.0000227
   29  -0.0000244   0.0000360  -0.0002573   0.0016183   0.0002324  -0.0001189
   30  -0.0004093  -0.0000619   0.0009905   0.0004286   0.0001063   0.0009584
   31  -0.0003606   0.0014160  -0.0004301   0.0001792   0.0001551  -0.0001108
   32   0.0001620  -0.0003050  -0.0004011   0.0001931   0.0004347  -0.0002587
   33   0.0001983  -0.0005257   0.0005378  -0.0000354   0.0006722   0.0005109
   34  -0.0035246  -0.0004834   0.0061514  -0.0012822  -0.0012741   0.0008890
   35  -0.0002918   0.0000058  -0.0001371   0.0016255   0.0017483  -0.0043817
   36  -0.0033728  -0.0025648   0.0066305  -0.0045443  -0.0016921   0.0076803
   37  -0.0008725  -0.0002466   0.0011058   0.0006922   0.0004154  -0.0012181
   38  -0.0004428  -0.0000544   0.0004217  -0.0005084   0.0002227   0.0010844
   39  -0.0005275  -0.0002532   0.0006038  -0.0004475  -0.0004178   0.0015560
           25          26          27          28          29          30
    1  -0.0043661   0.0018845   0.0015789  -0.0011733  -0.0006431  -0.0041860
    2   0.0030219  -0.0036399   0.0092389  -0.0000499  -0.0035091   0.0029356
    3  -0.0028878  -0.0001672   0.0004023   0.0002743   0.0015496  -0.0011110
    4  -0.0069841   0.0068673  -0.0069873  -0.0013203   0.0039201  -0.0021811
    5  -0.0242679   0.0083497  -0.0078042   0.0006252  -0.0046422  -0.0045355
    6  -0.0052198   0.0036989  -0.0072499   0.0008010  -0.0043455  -0.0034479
    7  -0.1306742  -0.1192529  -0.0644904  -0.0046609   0.0237302   0.0210310
    8  -0.1119806  -0.2236087  -0.1077826   0.0001561   0.0007476   0.0027691
    9  -0.0723537  -0.1157786  -0.0551733  -0.0001294   0.0033713   0.0007344
   10   0.0100117  -0.0110897  -0.0049038  -0.3121712   0.0143838   0.0328012
   11   0.0125007  -0.0112244  -0.0057905   0.0133753  -0.0493361  -0.0003114
   12   0.0063239  -0.0012435  -0.0048756   0.0346898  -0.0008513  -0.0573781
   13  -0.0013357   0.0026970  -0.0028673  -0.0091705  -0.0291686   0.0076118
   14  -0.0006344   0.0004910   0.0007723   0.0015370   0.0069002  -0.0022078
   15   0.0018525  -0.0031487  -0.0009534  -0.0005867   0.0001370  -0.0009911
   16   0.0009933  -0.0024540   0.0057989  -0.0010848  -0.0046281   0.0019002
   17   0.0005925   0.0015776  -0.0042679  -0.0006213  -0.0046038   0.0021960
   18  -0.0002793  -0.0007625   0.0036827   0.0007442   0.0015668   0.0004063
   19   0.0000550   0.0004177  -0.0004390   0.0000066  -0.0000244  -0.0004093
   20  -0.0013250   0.0005604  -0.0004525   0.0001123   0.0000360  -0.0000619
   21  -0.0009256  -0.0002501   0.0007979   0.0002017  -0.0002573   0.0009905
   22   0.0008772  -0.0012579   0.0012681  -0.0002055   0.0016183   0.0004286
   23   0.0005354   0.0000644   0.0002723  -0.0004434   0.0002324   0.0001063
   24   0.0006116   0.0009124  -0.0020267   0.0000227  -0.0001189   0.0009584
   25   0.1302419   0.1225233   0.0732615   0.0005346  -0.0008972  -0.0008596
   26   0.1225233   0.2254465   0.1155095   0.0004611   0.0008676   0.0008018
   27   0.0732615   0.1155095   0.0677246  -0.0005019   0.0003611   0.0004215
   28   0.0005346   0.0004611  -0.0005019   0.3348741  -0.0144137  -0.0391104
   29  -0.0008972   0.0008676   0.0003611  -0.0144137   0.0529677   0.0017527
   30  -0.0008596   0.0008018   0.0004215  -0.0391104   0.0017527   0.0489689
   31   0.0002283  -0.0002058  -0.0002554   0.0002877   0.0011171  -0.0002827
   32   0.0001837  -0.0002145  -0.0005007  -0.0004131   0.0004587  -0.0002000
   33  -0.0002833   0.0005901  -0.0006703   0.0002991   0.0001030  -0.0000379
   34   0.0000640  -0.0002786  -0.0007859  -0.0062768   0.0054993  -0.0174961
   35  -0.0001878   0.0016594   0.0003230  -0.0007002  -0.0002432  -0.0034319
   36   0.0006537   0.0007236  -0.0019105   0.0033985  -0.0030356   0.0102079
   37   0.0003540  -0.0003119  -0.0006764   0.0003601  -0.0004936   0.0007523
   38  -0.0000645  -0.0003292   0.0001213   0.0003747   0.0001241   0.0001870
   39   0.0001057  -0.0008857  -0.0001691  -0.0001029  -0.0002327   0.0002782
           31          32          33          34          35          36
    1  -0.0047916   0.0008641   0.0022422   0.0107029   0.0353387  -0.0178463
    2  -0.0008908   0.0072315   0.0082219   0.0090654   0.0177961   0.0166245
    3  -0.0020369   0.0035420   0.0066831  -0.0492340  -0.0270104  -0.0010009
    4  -0.0002173  -0.0013308  -0.0009337  -0.0087300  -0.0040102   0.0014113
    5  -0.0006731   0.0004604   0.0018496   0.0305160  -0.0165428  -0.0028060
    6  -0.0009071  -0.0004229   0.0014527  -0.0167553   0.0688441   0.0299918
    7  -0.0000621  -0.0004271  -0.0001821   0.0292907  -0.0308796  -0.0484021
    8   0.0001597   0.0008764   0.0019235  -0.0106634   0.0217261  -0.0054038
    9   0.0011163   0.0029844   0.0029243   0.0164138  -0.0467858  -0.1085964
   10   0.0093452   0.0102525  -0.0058109  -0.0908095   0.0099148  -0.0418529
   11  -0.0084820  -0.0083405  -0.0029197   0.0026423  -0.0639782   0.0287076
   12   0.0060767   0.0099301   0.0043786  -0.0412611   0.0634882  -0.0903778
   13  -0.1121360   0.1033166  -0.0573066  -0.0068876  -0.0035565   0.0074099
   14   0.0949121  -0.2339284   0.1066714   0.0135312  -0.0253539   0.0238230
   15  -0.0560033   0.1001176  -0.0886492  -0.0030168   0.0214832  -0.0162217
   16  -0.0204624   0.0029835  -0.0009506   0.0109975   0.0125793  -0.0049201
   17   0.0279842   0.0031558  -0.0056945  -0.0302682  -0.0329152   0.0166624
   18  -0.0137301  -0.0029650  -0.0034909   0.0252515   0.0324725  -0.0176876
   19  -0.0003606   0.0001620   0.0001983  -0.0035246  -0.0002918  -0.0033728
   20   0.0014160  -0.0003050  -0.0005257  -0.0004834   0.0000058  -0.0025648
   21  -0.0004301  -0.0004011   0.0005378   0.0061514  -0.0001371   0.0066305
   22   0.0001792   0.0001931  -0.0000354  -0.0012822   0.0016255  -0.0045443
   23   0.0001551   0.0004347   0.0006722  -0.0012741   0.0017483  -0.0016921
   24  -0.0001108  -0.0002587   0.0005109   0.0008890  -0.0043817   0.0076803
   25   0.0002283   0.0001837  -0.0002833   0.0000640  -0.0001878   0.0006537
   26  -0.0002058  -0.0002145   0.0005901  -0.0002786   0.0016594   0.0007236
   27  -0.0002554  -0.0005007  -0.0006703  -0.0007859   0.0003230  -0.0019105
   28   0.0002877  -0.0004131   0.0002991  -0.0062768  -0.0007002   0.0033985
   29   0.0011171   0.0004587   0.0001030   0.0054993  -0.0002432  -0.0030356
   30  -0.0002827  -0.0002000  -0.0000379  -0.0174961  -0.0034319   0.0102079
   31   0.1283815  -0.1129499   0.0653806  -0.0012483  -0.0020572   0.0008967
   32  -0.1129499   0.2334792  -0.1105735  -0.0035272  -0.0029854  -0.0011496
   33   0.0653806  -0.1105735   0.0803067  -0.0022571  -0.0008716  -0.0035392
   34  -0.0012483  -0.0035272  -0.0022571   0.1378583   0.0566422   0.0585904
   35  -0.0020572  -0.0029854  -0.0008716   0.0566422   0.3324146  -0.2269036
   36   0.0008967  -0.0011496  -0.0035392   0.0585904  -0.2269036   0.2623285
   37   0.0008564   0.0006925  -0.0003603  -0.0701544  -0.0744171   0.0485780
   38  -0.0004855  -0.0003230   0.0005532  -0.0714015  -0.2333318   0.1570145
   39   0.0002862  -0.0001024  -0.0004066   0.0235101   0.1229112  -0.0775047
           37          38          39
    1   0.0098606   0.0062176   0.0031479
    2   0.0097332  -0.0028086  -0.0048408
    3  -0.0124444  -0.0115566  -0.0105757
    4  -0.0047750   0.0048376   0.0071881
    5  -0.0080176   0.0085464   0.0106073
    6   0.0059617  -0.0159524  -0.0212723
    7  -0.0001237   0.0055676   0.0061959
    8   0.0048871   0.0004342   0.0012197
    9   0.0090236   0.0030689   0.0090295
   10   0.0074792  -0.0071117   0.0049038
   11   0.0148787  -0.0059736   0.0088020
   12  -0.0111132  -0.0061399  -0.0081597
   13  -0.0085093  -0.0021276  -0.0007312
   14  -0.0015885  -0.0017710   0.0015931
   15  -0.0049758   0.0027046  -0.0003854
   16   0.0083820   0.0018947  -0.0008215
   17  -0.0087817  -0.0035885  -0.0022353
   18   0.0080739   0.0046587   0.0034784
   19  -0.0008725  -0.0004428  -0.0005275
   20  -0.0002466  -0.0000544  -0.0002532
   21   0.0011058   0.0004217   0.0006038
   22   0.0006922  -0.0005084  -0.0004475
   23   0.0004154   0.0002227  -0.0004178
   24  -0.0012181   0.0010844   0.0015560
   25   0.0003540  -0.0000645   0.0001057
   26  -0.0003119  -0.0003292  -0.0008857
   27  -0.0006764   0.0001213  -0.0001691
   28   0.0003601   0.0003747  -0.0001029
   29  -0.0004936   0.0001241  -0.0002327
   30   0.0007523   0.0001870   0.0002782
   31   0.0008564  -0.0004855   0.0002862
   32   0.0006925  -0.0003230  -0.0001024
   33  -0.0003603   0.0005532  -0.0004066
   34  -0.0701544  -0.0714015   0.0235101
   35  -0.0744171  -0.2333318   0.1229112
   36   0.0485780   0.1570145  -0.0775047
   37   0.0564503   0.0632500  -0.0427071
   38   0.0632500   0.2388525  -0.1361654
   39  -0.0427071  -0.1361654   0.1035277
 Gradient time:  CPU 259.72 s  wall 263.87 s
 **********************************************************************
 **                                                                  **
 **                       VIBRATIONAL ANALYSIS                       **
 **                       --------------------                       **
 **                                                                  **
 **        VIBRATIONAL FREQUENCIES (CM**-1) AND NORMAL MODES         **
 **     FORCE CONSTANTS (mDYN/ANGSTROM) AND REDUCED MASSES (AMU)     **
 **                  INFRARED INTENSITIES (KM/MOL)                   **
 **                                                                  **
 **********************************************************************
 

 Mode:                 1                      2                      3
 Frequency:      -590.48                -418.13                 336.82
 Force Cnst:      0.8276                 0.6398                 0.0779
 Red. Mass:       4.0288                 6.2109                 1.1656
 IR Active:          YES                    YES                    YES
 IR Intens:       71.928                  8.909                 37.857
 Raman Active:       YES                    YES                    YES
               X      Y      Z        X      Y      Z        X      Y      Z
 C         -0.138 -0.021  0.197    0.260  0.165 -0.247   -0.005 -0.024 -0.026
 C         -0.090 -0.049  0.157   -0.080  0.066  0.363    0.014 -0.002 -0.004
 C         -0.059  0.044 -0.164   -0.036  0.132 -0.054    0.012 -0.030 -0.054
 C          0.009 -0.002  0.007   -0.044  0.008  0.062    0.012  0.004 -0.050
 C         -0.002  0.009 -0.005   -0.004 -0.036 -0.026    0.005  0.041  0.049
 N         -0.025  0.027 -0.033    0.021  0.003 -0.008   -0.002  0.026  0.015
 H         -0.088 -0.011  0.107    0.175  0.188 -0.088    0.013 -0.013 -0.061
 H         -0.083 -0.042  0.223   -0.137  0.024  0.479   -0.017 -0.024  0.116
 H         -0.112 -0.043  0.079   -0.017  0.020  0.126   -0.121 -0.425  0.838
 H          0.028  0.003  0.141   -0.036  0.084  0.070    0.010  0.001 -0.075
 H         -0.014  0.000 -0.014    0.010 -0.087 -0.134   -0.006  0.119  0.205
 C          0.294 -0.038 -0.241   -0.090 -0.345 -0.130   -0.026  0.013 -0.011
 H          0.443  0.390  0.508   -0.352 -0.154  0.037   -0.003 -0.036 -0.079
 TransDip   0.044  0.104  0.247    0.051  0.081  0.007    0.054  0.070  0.176

 Mode:                 4                      5                      6
 Frequency:       434.32                 492.25                 608.61
 Force Cnst:      0.3099                 0.8736                 0.9595
 Red. Mass:       2.7881                 6.1193                 4.3965
 IR Active:          YES                    YES                    YES
 IR Intens:        4.334                 10.471                  0.331
 Raman Active:       YES                    YES                    YES
               X      Y      Z        X      Y      Z        X      Y      Z
 C         -0.020  0.000  0.141    0.041  0.073 -0.039    0.135 -0.066 -0.138
 C          0.026  0.122 -0.101   -0.081  0.082 -0.099   -0.068 -0.043  0.038
 C         -0.007  0.189 -0.065   -0.216 -0.246  0.175    0.043  0.139 -0.217
 C         -0.011  0.009  0.136   -0.014 -0.004 -0.050   -0.012 -0.069 -0.022
 C          0.021 -0.134 -0.148    0.099 -0.073 -0.225   -0.048 -0.182 -0.052
 N          0.003 -0.062 -0.032    0.049  0.192  0.359   -0.078 -0.030  0.218
 H         -0.018 -0.001  0.136    0.062 -0.147 -0.082    0.267 -0.102 -0.388
 H         -0.026  0.091 -0.196   -0.003  0.136 -0.114   -0.165 -0.112  0.066
 H         -0.094 -0.088  0.553   -0.151 -0.259  0.117   -0.011  0.074 -0.036
 H         -0.005  0.044  0.144    0.017  0.190  0.101   -0.019 -0.095 -0.059
 H          0.039 -0.317 -0.505    0.145 -0.208 -0.525   -0.058 -0.149  0.029
 C         -0.008 -0.073  0.076    0.103 -0.032 -0.131    0.027  0.254  0.132
 H          0.033 -0.221 -0.146    0.063  0.009 -0.089    0.132  0.402  0.447
 TransDip   0.008 -0.006  0.066   -0.008 -0.051 -0.090   -0.001 -0.010  0.015

 Mode:                 7                      8                      9
 Frequency:       707.02                 730.85                 765.38
 Force Cnst:      0.9840                 1.9976                 0.5153
 Red. Mass:       3.3410                 6.3474                 1.4931
 IR Active:          YES                    YES                    YES
 IR Intens:       14.341                  7.348                 14.733
 Raman Active:       YES                    YES                    YES
               X      Y      Z        X      Y      Z        X      Y      Z
 C          0.031  0.090  0.054   -0.230  0.034 -0.052   -0.009 -0.005 -0.023
 C         -0.069  0.151 -0.043   -0.136 -0.163  0.060    0.061 -0.092 -0.037
 C         -0.080 -0.101 -0.102    0.017 -0.029 -0.167    0.049  0.017  0.035
 C         -0.060 -0.163  0.022    0.281 -0.022  0.032    0.044  0.034  0.055
 C          0.116 -0.092  0.135    0.052  0.026 -0.139   -0.023  0.062 -0.027
 N          0.157  0.074 -0.114    0.044  0.294 -0.030   -0.028  0.004  0.031
 H          0.060 -0.052 -0.000   -0.122 -0.064 -0.279   -0.015  0.038 -0.009
 H          0.056  0.238 -0.231    0.080 -0.013  0.039    0.194 -0.000 -0.426
 H          0.088 -0.216 -0.103   -0.274  0.156 -0.155   -0.085  0.035  0.172
 H         -0.054  0.057 -0.021    0.257  0.086 -0.165    0.039 -0.069  0.049
 H          0.007 -0.151  0.156   -0.260 -0.037  0.100    0.014 -0.003 -0.193
 C         -0.145  0.013  0.028    0.002 -0.174  0.336   -0.078 -0.057 -0.058
 H          0.111  0.321  0.665   -0.117 -0.326  0.048   -0.278  0.432  0.623
 TransDip   0.006 -0.014  0.120   -0.058 -0.001 -0.064   -0.022  0.006  0.121

 Mode:                10                     11                     12
 Frequency:       844.86                 858.34                 915.23
 Force Cnst:      0.6287                 0.8828                 0.9901
 Red. Mass:       1.4950                 2.0337                 2.0063
 IR Active:          YES                    YES                    YES
 IR Intens:        6.750                 14.146                 19.969
 Raman Active:       YES                    YES                    YES
               X      Y      Z        X      Y      Z        X      Y      Z
 C          0.018  0.009  0.028    0.008 -0.012  0.017   -0.013 -0.014 -0.079
 C          0.005  0.035  0.005   -0.039  0.044  0.031    0.051 -0.101 -0.029
 C         -0.019  0.035  0.063    0.010  0.011  0.024    0.007  0.121  0.094
 C         -0.025  0.046 -0.064   -0.108 -0.026 -0.114   -0.117 -0.068 -0.034
 C          0.007 -0.093 -0.118   -0.002  0.156 -0.009    0.027 -0.046  0.038
 N         -0.009 -0.024  0.000   -0.012 -0.062  0.005    0.062  0.125 -0.009
 H         -0.018  0.066  0.099    0.217 -0.047 -0.384   -0.301  0.027  0.479
 H          0.036  0.059 -0.280    0.045  0.108 -0.262   -0.159 -0.249  0.098
 H         -0.002  0.040  0.045    0.107 -0.060  0.040   -0.147  0.200  0.149
 H         -0.038  0.119 -0.185   -0.150 -0.117 -0.377   -0.175 -0.117 -0.441
 H         -0.128  0.315  0.807    0.264  0.136 -0.372   -0.047 -0.170 -0.113
 C          0.040 -0.060  0.029    0.075 -0.094  0.136    0.013 -0.007 -0.003
 H         -0.032  0.053  0.185    0.348 -0.112  0.269    0.337 -0.040  0.116
 TransDip  -0.019  0.058  0.056    0.070  0.029 -0.094   -0.074 -0.114  0.046

 Mode:                13                     14                     15
 Frequency:       935.85                 947.38                 997.11
 Force Cnst:      1.0886                 0.8637                 0.9522
 Red. Mass:       2.1097                 1.6332                 1.6255
 IR Active:          YES                    YES                    YES
 IR Intens:       11.008                 24.068                 24.253
 Raman Active:       YES                    YES                    YES
               X      Y      Z        X      Y      Z        X      Y      Z
 C          0.028  0.045  0.057    0.095  0.055 -0.025    0.062  0.024  0.038
 C         -0.037  0.003  0.015   -0.060 -0.006  0.000    0.083  0.008 -0.118
 C         -0.037  0.013  0.060   -0.069 -0.039 -0.070   -0.059 -0.056 -0.034
 C          0.118  0.072 -0.146    0.061 -0.046 -0.037    0.039  0.078 -0.004
 C         -0.038 -0.121  0.160   -0.021  0.070  0.004   -0.023  0.018 -0.006
 N         -0.033 -0.017 -0.034   -0.029 -0.063  0.007   -0.053 -0.036  0.004
 H          0.156  0.044 -0.184   -0.325  0.228  0.793    0.061  0.185  0.052
 H          0.031  0.054 -0.247   -0.027  0.016 -0.260   -0.169 -0.175  0.672
 H         -0.321  0.186  0.105   -0.114 -0.064  0.018   -0.189  0.063 -0.101
 H          0.085  0.185 -0.467    0.071 -0.085  0.054    0.031  0.295 -0.134
 H         -0.185 -0.437 -0.239    0.107  0.092 -0.111   -0.027  0.011 -0.019
 C          0.046 -0.000 -0.013    0.065  0.023  0.079   -0.041 -0.065  0.048
 H         -0.272  0.058 -0.086   -0.150  0.020 -0.020    0.296  0.030  0.384
 TransDip   0.004 -0.039 -0.099    0.055  0.146 -0.018    0.044  0.062  0.138

 Mode:                16                     17                     18
 Frequency:      1021.14                1040.01                1079.45
 Force Cnst:      1.2161                 1.4652                 0.8759
 Red. Mass:       1.9795                 2.2992                 1.2758
 IR Active:          YES                    YES                    YES
 IR Intens:        3.243                  0.085                  9.145
 Raman Active:       YES                    YES                    YES
               X      Y      Z        X      Y      Z        X      Y      Z
 C         -0.118 -0.022 -0.145   -0.142 -0.004 -0.098    0.005 -0.031  0.006
 C         -0.009  0.044  0.032   -0.017  0.163 -0.022   -0.066  0.047 -0.062
 C          0.080 -0.050 -0.037   -0.011  0.063  0.082    0.046  0.023  0.047
 C         -0.031  0.150  0.030    0.139 -0.107 -0.021    0.029  0.004 -0.016
 C          0.023 -0.068  0.059    0.031  0.008 -0.006   -0.029  0.009  0.008
 N         -0.011 -0.055  0.033    0.012 -0.111  0.038    0.000  0.031 -0.014
 H         -0.340 -0.080  0.260   -0.217 -0.218  0.017   -0.022 -0.117  0.053
 H          0.260  0.239 -0.058    0.120  0.273  0.500   -0.525 -0.266  0.121
 H          0.343 -0.220 -0.048   -0.209  0.226  0.055    0.561 -0.276 -0.022
 H         -0.032  0.553 -0.135    0.106 -0.451 -0.204    0.026 -0.029 -0.034
 H          0.036 -0.163 -0.121    0.143  0.103  0.050   -0.110 -0.067 -0.043
 C          0.028 -0.016  0.021    0.001 -0.001 -0.028    0.053 -0.039  0.017
 H          0.209 -0.012  0.124   -0.107  0.156  0.168   -0.376  0.162  0.129
 TransDip   0.023  0.053  0.004   -0.009 -0.002 -0.003   -0.025 -0.093  0.009

 Mode:                19                     20                     21
 Frequency:      1104.84                1190.75                1204.31
 Force Cnst:      1.2387                 1.5764                 1.4079
 Red. Mass:       1.7223                 1.8871                 1.6476
 IR Active:          YES                    YES                    YES
 IR Intens:        5.309                  7.047                  2.190
 Raman Active:       YES                    YES                    YES
               X      Y      Z        X      Y      Z        X      Y      Z
 C          0.043 -0.036  0.004   -0.063  0.163  0.003   -0.094  0.044 -0.031
 C         -0.089  0.037  0.041   -0.075 -0.068 -0.041    0.044 -0.025  0.010
 C          0.038  0.006  0.055    0.053 -0.031 -0.012   -0.029  0.078  0.047
 C          0.147 -0.008  0.013    0.007 -0.007  0.134    0.025 -0.082 -0.137
 C         -0.018  0.034 -0.028    0.067 -0.030  0.002    0.063 -0.027  0.034
 N         -0.035 -0.011  0.005    0.002 -0.072  0.031   -0.015 -0.029  0.018
 H         -0.005 -0.066  0.095    0.044  0.527 -0.203   -0.036  0.474 -0.152
 H         -0.272 -0.084 -0.326   -0.271 -0.202 -0.086   -0.172 -0.174 -0.083
 H          0.114 -0.016  0.022    0.051 -0.053  0.024    0.134 -0.015  0.034
 H          0.146 -0.006 -0.057   -0.086 -0.075 -0.547    0.155  0.359  0.631
 H         -0.230 -0.066  0.033    0.333  0.161  0.067    0.203  0.019 -0.034
 C         -0.124  0.016 -0.073    0.004  0.028 -0.048   -0.023 -0.008  0.018
 H          0.774 -0.193  0.031   -0.008 -0.012 -0.138    0.093 -0.024  0.063
 TransDip   0.004 -0.066  0.032   -0.008  0.023 -0.082    0.023  0.036  0.020

 Mode:                22                     23                     24
 Frequency:      1264.12                1315.67                1348.55
 Force Cnst:      1.7428                 1.2845                 1.8617
 Red. Mass:       1.8511                 1.2595                 1.7375
 IR Active:          YES                    YES                    YES
 IR Intens:       22.029                  0.695                 13.737
 Raman Active:       YES                    YES                    YES
               X      Y      Z        X      Y      Z        X      Y      Z
 C          0.012 -0.077  0.006    0.012  0.020  0.006    0.027 -0.089  0.006
 C          0.067 -0.014  0.026    0.010  0.032  0.012    0.035 -0.003  0.021
 C         -0.130  0.072  0.005    0.076 -0.025  0.005   -0.106  0.033  0.005
 C          0.044 -0.153  0.072    0.000 -0.087  0.025    0.073  0.058  0.007
 C          0.022  0.089 -0.030   -0.034 -0.010  0.000   -0.012 -0.104  0.037
 N         -0.033 -0.005  0.007   -0.053  0.028 -0.024   -0.081  0.099 -0.042
 H          0.048  0.155 -0.054   -0.011 -0.494  0.042    0.020  0.075  0.031
 H          0.248  0.105  0.019   -0.218 -0.124 -0.093    0.141  0.063 -0.012
 H          0.303 -0.186 -0.066   -0.268  0.192  0.042    0.293 -0.185 -0.091
 H          0.008  0.582 -0.491    0.025  0.545 -0.038    0.043 -0.288 -0.134
 H         -0.261 -0.052  0.011    0.417  0.260 -0.032    0.756  0.302 -0.080
 C          0.007  0.035 -0.029    0.009  0.003 -0.011   -0.033 -0.004 -0.003
 H         -0.157  0.043 -0.119   -0.081  0.024 -0.027    0.073 -0.028  0.004
 TransDip   0.086  0.109 -0.058    0.021  0.008 -0.014    0.108 -0.032  0.036

 Mode:                25                     26                     27
 Frequency:      1391.82                1459.18                1608.14
 Force Cnst:      2.4202                 2.8164                 9.9617
 Red. Mass:       2.1205                 2.2451                 6.5379
 IR Active:          YES                    YES                    YES
 IR Intens:        4.810                  4.897                 45.837
 Raman Active:       YES                    YES                    YES
               X      Y      Z        X      Y      Z        X      Y      Z
 C          0.041  0.192  0.039   -0.076  0.130 -0.030    0.053  0.022 -0.000
 C         -0.093 -0.171 -0.082    0.213  0.005  0.086   -0.024 -0.010 -0.013
 C         -0.021  0.092  0.042   -0.154 -0.007 -0.059    0.034 -0.009  0.010
 C          0.022 -0.015 -0.040    0.025  0.048  0.006   -0.066  0.015  0.001
 C         -0.032 -0.012  0.003    0.002  0.005  0.002    0.527  0.049  0.026
 N          0.005 -0.040 -0.003    0.023 -0.058  0.020   -0.418  0.028 -0.056
 H          0.040 -0.591  0.048   -0.072 -0.590 -0.066   -0.002 -0.401  0.082
 H          0.446  0.194  0.267   -0.348 -0.408 -0.312   -0.011 -0.006  0.036
 H          0.376 -0.185  0.074    0.093 -0.184 -0.099   -0.042  0.062 -0.019
 H          0.052  0.078  0.108   -0.006 -0.247 -0.110   -0.073 -0.295  0.087
 H          0.057  0.059  0.045   -0.111 -0.063  0.020   -0.236 -0.399  0.152
 C         -0.017  0.004 -0.005   -0.005  0.014  0.022    0.005 -0.013  0.013
 H          0.158 -0.051  0.004    0.047 -0.030 -0.024   -0.128  0.022 -0.010
 TransDip   0.043 -0.051  0.021   -0.010  0.022 -0.067    0.157  0.146  0.030

 Mode:                28                     29                     30
 Frequency:      3105.92                3127.45                3139.71
 Force Cnst:      6.1863                 6.2817                 6.3367
 Red. Mass:       1.0884                 1.0900                 1.0910
 IR Active:          YES                    YES                    YES
 IR Intens:       21.759                 11.344                 16.893
 Raman Active:       YES                    YES                    YES
               X      Y      Z        X      Y      Z        X      Y      Z
 C         -0.000 -0.000  0.000    0.001  0.000 -0.001   -0.005  0.002 -0.003
 C          0.002 -0.003  0.000   -0.006  0.008 -0.001    0.050 -0.070  0.000
 C          0.002  0.001  0.000    0.001 -0.000 -0.000    0.000  0.004  0.001
 C         -0.083  0.005  0.012   -0.019  0.001 -0.000    0.001  0.000 -0.000
 C          0.002 -0.002  0.001   -0.000 -0.001  0.000    0.000 -0.000  0.000
 N          0.000  0.000 -0.000    0.001 -0.000  0.000   -0.000  0.001 -0.000
 H          0.005  0.000  0.001   -0.002  0.000  0.001    0.067 -0.004  0.034
 H         -0.021  0.030 -0.000    0.063 -0.091  0.001   -0.563  0.807  0.001
 H         -0.020 -0.026 -0.016   -0.002 -0.002 -0.001   -0.030 -0.050 -0.029
 H          0.964 -0.050 -0.130    0.200 -0.011 -0.022   -0.017 -0.000  0.003
 H         -0.025  0.034 -0.018   -0.010  0.015 -0.006   -0.002  0.004 -0.001
 C          0.005  0.014 -0.008   -0.020 -0.067  0.046   -0.003 -0.008  0.006
 H         -0.054 -0.165  0.101    0.253  0.798 -0.489    0.031  0.095 -0.059
 TransDip  -0.148  0.018  0.001   -0.051 -0.034  0.089    0.075 -0.108 -0.003

 Mode:                31                     32                     33
 Frequency:      3214.06                3221.91                3249.23
 Force Cnst:      6.6507                 6.6827                 6.8027
 Red. Mass:       1.0927                 1.0926                 1.0936
 IR Active:          YES                    YES                    YES
 IR Intens:       17.431                  6.942                  1.744
 Raman Active:       YES                    YES                    YES
               X      Y      Z        X      Y      Z        X      Y      Z
 C          0.007  0.002  0.003   -0.077  0.001 -0.041    0.004  0.001  0.001
 C         -0.000 -0.001 -0.000   -0.003  0.007  0.001    0.007 -0.006  0.001
 C         -0.002 -0.003 -0.001   -0.001 -0.003 -0.001   -0.046 -0.065 -0.037
 C          0.005  0.002 -0.001    0.001  0.000  0.000   -0.004  0.001  0.002
 C          0.043 -0.067  0.035    0.006 -0.006  0.003   -0.002  0.004 -0.002
 N         -0.002 -0.000  0.000   -0.000 -0.001  0.000    0.001 -0.000  0.000
 H         -0.084 -0.000 -0.045    0.877 -0.008  0.455   -0.035 -0.001 -0.019
 H         -0.003  0.005 -0.001    0.037 -0.059 -0.001   -0.039  0.051 -0.003
 H          0.025  0.035  0.019    0.026  0.038  0.020    0.505  0.751  0.405
 H         -0.046 -0.004  0.007   -0.005 -0.001  0.002    0.034 -0.004 -0.007
 H         -0.476  0.765 -0.409   -0.045  0.070 -0.038    0.022 -0.039  0.020
 C         -0.000  0.001 -0.001    0.000  0.000  0.000   -0.000  0.000  0.002
 H         -0.002 -0.007  0.003   -0.003 -0.006  0.003   -0.001  0.002 -0.006
 TransDip   0.083 -0.094  0.045   -0.079  0.019 -0.024   -0.007  0.023 -0.035

 STANDARD THERMODYNAMIC QUANTITIES AT   298.15 K  AND     1.00 ATM

   This Molecule has  2 Imaginary Frequencies
   Zero point vibrational energy:       62.416 kcal/mol

   Atom    1 Element C  Has Mass   12.00000
   Atom    2 Element C  Has Mass   12.00000
   Atom    3 Element C  Has Mass   12.00000
   Atom    4 Element C  Has Mass   12.00000
   Atom    5 Element C  Has Mass   12.00000
   Atom    6 Element N  Has Mass   14.00307
   Atom    7 Element H  Has Mass    1.00783
   Atom    8 Element H  Has Mass    1.00783
   Atom    9 Element H  Has Mass    1.00783
   Atom   10 Element H  Has Mass    1.00783
   Atom   11 Element H  Has Mass    1.00783
   Atom   12 Element C  Has Mass   12.00000
   Atom   13 Element H  Has Mass    1.00783
   Molecular Mass:    92.050050 amu
   Principal axes and moments of inertia in amu*Bohr^2:
                             1           2           3
    Eigenvalues --      375.04561   457.42074   592.35980
          X               0.26719     0.95464    -0.13145
          Y               0.96236    -0.25729     0.08760
          Z              -0.04981     0.14991     0.98744
   Rotational Symmetry Number is   1
   The Molecule is an Asymmetric Top
   Translational Enthalpy:        0.889 kcal/mol
   Rotational Enthalpy:           0.889 kcal/mol
   Vibrational Enthalpy:         63.575 kcal/mol
   gas constant (RT):             0.592 kcal/mol
   Translational Entropy:        39.471  cal/mol.K
   Rotational Entropy:           26.121  cal/mol.K
   Vibrational Entropy:           5.290  cal/mol.K

   Total Enthalpy:               65.945 kcal/mol
   Total Entropy:                70.883  cal/mol.K
Archival summary:
1\1\c8-73\FREQ\ProcedureUnspecified\6-31G*\166(2)\hpark21\ThuMar300:39:562022ThuMar300:39:562022\0\\#,FREQ,ProcedureUnspecified,6-31G*,\\0,2\N\C,1,1.29304\H,2,1.08624,1,121.381\C,1,1.37591,2,111.887,3,-173.662,0\H,4,1.08573,1,117.51,2,-158.487,0\C,4,1.46146,1,120.114,2,39.8231,0\H,6,1.0925,4,118.745,1,153.028,0\C,6,1.41407,4,116.59,1,-23.24,0\H,8,1.08251,6,125.647,4,178.136,0\C,8,1.49996,6,98.7048,4,-32.3441,0\H,10,1.09467,8,118.607,6,-156.63,0\C,10,1.54517,8,87.0378,6,-33.0052,0\H,12,1.09456,10,119.162,8,-78.611,0\\\@

 Total job time:  269.76s(wall), 263.32s(cpu) 
 Thu Mar  3 00:39:56 2022

        *************************************************************
        *                                                           *
        *  Thank you very much for using Q-Chem.  Have a nice day.  *
        *                                                           *
        *************************************************************


