13
image # 1 Energy = -286.85847
C 1.57548   0.44564   -0.08641  
C 0.82233   -0.81511  0.11690   
C -0.51843  -0.96800  -0.58274  
C -1.11971  0.31637   -0.03592  
C -0.37015  1.57900   -0.23919  
N 0.96094   1.61424   -0.25952  
H 2.66367   0.43912   -0.09786  
H 1.40561   -1.72499  0.24896   
H -0.91992  -1.74389  -1.21964  
H -2.20658  0.37962   -0.03338  
H -0.90387  2.51726   -0.37830  
C -0.50200  -0.74594  0.85908   
H -0.88738  -1.29332  1.70802   
13
image # 2 Energy = -286.85679
C 1.56803   0.44297   -0.06099  
C 0.81427   -0.82789  0.08243   
C -0.51978  -0.96140  -0.57180  
C -1.11750  0.31288   -0.03181  
C -0.37809  1.57901   -0.25512  
N 0.95421   1.60722   -0.25246  
H 2.64830   0.43992   -0.02989  
H 1.41686   -1.74827  0.18239   
H -0.93217  -1.73610  -1.23050  
H -2.20820  0.37205   -0.02153  
H -0.90867  2.51074   -0.41453  
C -0.48152  -0.72260  0.86422   
H -0.86212  -1.26719  1.73749   
13
image # 3 Energy = -286.85615
C 1.55993   0.43936   -0.05151  
C 0.82583   -0.83127  0.06369   
C -0.54162  -0.97050  -0.57147  
C -1.11848  0.32679   -0.02308  
C -0.38408  1.57425   -0.27630  
N 0.94875   1.59660   -0.23783  
H 2.63689   0.44080   0.05423   
H 1.41553   -1.76030  0.10732   
H -0.94209  -1.71613  -1.22616  
H -2.20560  0.36243   -0.00639  
H -0.91596  2.50684   -0.45957  
C -0.46515  -0.73920  0.87042   
H -0.82595  -1.22882  1.75295   
13
image # 4 Energy = -286.85390
C 1.54886   0.43103   -0.03068  
C 0.83505   -0.85406  0.03003   
C -0.54462  -0.96165  -0.57070  
C -1.11905  0.31722   -0.01572  
C -0.38310  1.57132   -0.29124  
N 0.93951   1.60379   -0.23289  
H 2.62535   0.44026   0.13295   
H 1.41481   -1.76534  0.03843   
H -0.95823  -1.71102  -1.23417  
H -2.20494  0.35633   0.01066   
H -0.91972  2.50077   -0.50094  
C -0.45540  -0.72258  0.87910   
H -0.79564  -1.20549  1.77914   
13
image # 5 Energy = -286.85217
C 1.55329   0.42999   -0.02296  
C 0.82032   -0.84364  -0.00111  
C -0.54679  -0.96499  -0.57872  
C -1.11160  0.31330   -0.00391  
C -0.39058  1.57360   -0.30548  
N 0.94034   1.60516   -0.22525  
H 2.60999   0.44269   0.22792   
H 1.41606   -1.77830  -0.03129  
H -0.97937  -1.70370  -1.23125  
H -2.20454  0.35200   0.03620   
H -0.92006  2.48833   -0.55234  
C -0.44806  -0.72627  0.87583   
H -0.76005  -1.18740  1.80474   
13
image # 6 Energy = -286.84907
C 1.54668   0.44776   -0.01211  
C 0.82296   -0.85742  -0.03825  
C -0.55445  -0.96069  -0.58299  
C -1.11845  0.32072   0.00212   
C -0.38141  1.56570   -0.31260  
N 0.93760   1.59405   -0.21907  
H 2.58422   0.44129   0.32014   
H 1.41265   -1.77991  -0.09336  
H -1.00172  -1.70350  -1.23275  
H -2.19684  0.34822   0.06161   
H -0.92264  2.47824   -0.60288  
C -0.42911  -0.71892  0.87891   
H -0.72420  -1.17692  1.82218   
13
image # 7 Energy = -286.84572
C 1.54028   0.43108   0.00541   
C 0.83309   -0.85995  -0.07486  
C -0.56656  -0.95483  -0.58689  
C -1.10919  0.32031   0.00844   
C -0.38949  1.56774   -0.32436  
N 0.93386   1.60219   -0.21621  
H 2.55382   0.43878   0.40777   
H 1.41060   -1.77996  -0.14997  
H -1.02206  -1.70284  -1.23212  
H -2.19682  0.34656   0.08648   
H -0.91935  2.46173   -0.64827  
C -0.40888  -0.70599  0.88663   
H -0.68712  -1.16918  1.82824   
13
image # 8 Energy = -286.84061
C 1.52531   0.42501   0.02501   
C 0.82732   -0.85975  -0.11288  
C -0.56627  -0.95443  -0.59420  
C -1.10937  0.31452   0.01609   
C -0.38120  1.57019   -0.33582  
N 0.92545   1.60411   -0.21444  
H 2.51865   0.43237   0.48829   
H 1.41387   -1.78606  -0.19732  
H -1.03935  -1.69840  -1.22313  
H -2.19106  0.34735   0.11163   
H -0.91887  2.45078   -0.69047  
C -0.38589  -0.68394  0.89413   
H -0.64918  -1.17005  1.82307   
13
image # 9 Energy = -286.83387
C 1.51237   0.42858   0.04915   
C 0.82899   -0.87174  -0.15137  
C -0.56628  -0.94697  -0.60189  
C -1.10039  0.31628   0.01880   
C -0.39408  1.56995   -0.34906  
N 0.93119   1.59951   -0.21216  
H 2.47062   0.42082   0.56216   
H 1.41507   -1.78830  -0.23678  
H -1.05678  -1.69807  -1.21026  
H -2.18686  0.34867   0.13675   
H -0.91777  2.44108   -0.72867  
C -0.35847  -0.65128  0.90430   
H -0.61031  -1.18257  1.80867   
13
image # 10 Energy = -286.82627
C 1.49092   0.41938   0.06518   
C 0.83209   -0.86925  -0.18032  
C -0.56254  -0.93146  -0.60996  
C -1.09643  0.32678   0.01880   
C -0.39189  1.57000   -0.36361  
N 0.91826   1.59710   -0.20949  
H 2.42246   0.40460   0.62690   
H 1.41924   -1.79605  -0.26194  
H -1.07384  -1.70421  -1.19076  
H -2.17773  0.34878   0.15778   
H -0.91939  2.43744   -0.76084  
C -0.32162  -0.61465  0.91614   
H -0.57407  -1.20967  1.78162   
13
image # 11 Energy = -286.81044
C 1.45856   0.40971   0.09548   
C 0.82985   -0.88575  -0.20966  
C -0.54847  -0.91642  -0.62830  
C -1.09664  0.31390   0.01549   
C -0.39797  1.58678   -0.38165  
N 0.90887   1.58753   -0.20854  
H 2.39059   0.38154   0.64161   
H 1.43103   -1.80572  -0.27228  
H -1.06906  -1.70545  -1.17496  
H -2.17004  0.34269   0.15184   
H -0.92323  2.44069   -0.75709  
C -0.28884  -0.54941  0.96601   
H -0.56008  -1.22862  1.75162   
13
image # 12 Energy = -286.79923
C 1.43517   0.40667   0.10197   
C 0.81667   -0.88838  -0.22432  
C -0.53939  -0.88964  -0.66045  
C -1.08369  0.30677   0.02091   
C -0.40576  1.57495   -0.39183  
N 0.90994   1.58297   -0.20635  
H 2.35172   0.35723   0.68420   
H 1.42921   -1.80014  -0.27581  
H -1.07310  -1.71173  -1.13580  
H -2.16518  0.33887   0.16071   
H -0.92958  2.45112   -0.77887  
C -0.24500  -0.49943  0.99611   
H -0.53650  -1.26373  1.69906   
13
image # 13 Energy = -286.77642
C 1.41069   0.38361   0.14538   
C 0.81340   -0.89661  -0.25170  
C -0.51529  -0.87638  -0.71895  
C -1.09389  0.28504   0.01991   
C -0.41133  1.56249   -0.37129  
N 0.90405   1.57274   -0.21288  
H 2.37778   0.36085   0.62996   
H 1.43243   -1.80512  -0.26081  
H -1.06124  -1.72488  -1.18596  
H -2.17006  0.32280   0.13613   
H -0.92752  2.43982   -0.74598  
C -0.22840  -0.41911  1.09725   
H -0.56553  -1.24298  1.70806   
13
image # 14 Energy = -286.77262
C 1.40367   0.39647   0.14015   
C 0.80776   -0.89998  -0.25844  
C -0.51581  -0.85847  -0.75328  
C -1.09386  0.27708   0.04392   
C -0.40409  1.55095   -0.37737  
N 0.90410   1.55599   -0.21376  
H 2.35433   0.35425   0.67638   
H 1.42153   -1.77822  -0.27679  
H -1.06517  -1.71070  -1.17603  
H -2.16553  0.32399   0.16447   
H -0.91983  2.41714   -0.78923  
C -0.21556  -0.41504  1.11513   
H -0.54570  -1.25206  1.69357   
13
image # 15 Energy = -286.77247
C 1.36424   0.35591   0.20138   
C 0.79965   -0.90314  -0.28629  
C -0.52284  -0.87355  -0.78711  
C -1.07366  0.25118   0.03268   
C -0.40022  1.56514   -0.37182  
N 0.88428   1.56801   -0.22576  
H 2.34572   0.36075   0.67124   
H 1.43378   -1.80202  -0.26700  
H -1.06735  -1.72112  -1.19149  
H -2.16631  0.32682   0.15248   
H -0.92191  2.42941   -0.76837  
C -0.18748  -0.34366  1.14694   
H -0.52023  -1.25202  1.68076   
13
image # 16 Energy = -286.77964
C 1.32660   0.32727   0.24734   
C 0.80972   -0.93690  -0.32894  
C -0.50454  -0.90705  -0.77447  
C -1.07605  0.25747   0.01682   
C -0.40233  1.56019   -0.36492  
N 0.88004   1.57892   -0.23030  
H 2.35087   0.35995   0.66318   
H 1.44346   -1.81157  -0.29261  
H -1.06011  -1.71946  -1.21879  
H -2.16367  0.31821   0.13442   
H -0.92890  2.44158   -0.74419  
C -0.19314  -0.28344  1.18669   
H -0.51177  -1.22105  1.69220   
13
image # 17 Energy = -286.79078
C 1.28483   0.29982   0.29512   
C 0.82649   -0.95680  -0.36249  
C -0.48811  -0.93379  -0.75121  
C -1.06702  0.25483   0.01679   
C -0.40087  1.56553   -0.36972  
N 0.87374   1.56783   -0.22678  
H 2.33727   0.35001   0.64966   
H 1.46650   -1.83485  -0.33657  
H -1.04465  -1.70732  -1.24425  
H -2.16541  0.30482   0.11470   
H -0.93829  2.44950   -0.71918  
C -0.20538  -0.21861  1.20974   
H -0.50590  -1.17289  1.70977   
13
image # 18 Energy = -286.80542
C 1.24497   0.26914   0.34039   
C 0.84128   -0.96829  -0.39037  
C -0.47251  -0.93032  -0.74824  
C -1.07344  0.24490   0.01932   
C -0.40084  1.56946   -0.37458  
N 0.86697   1.55896   -0.22531  
H 2.30553   0.33662   0.65314   
H 1.48215   -1.85008  -0.36901  
H -1.04111  -1.70808  -1.26190  
H -2.15361  0.29466   0.10594   
H -0.94270  2.45007   -0.70969  
C -0.19209  -0.16064  1.23728   
H -0.48806  -1.13326  1.70829   
13
image # 19 Energy = -286.81673
C 1.21791   0.24550   0.38381   
C 0.84343   -0.97988  -0.40951  
C -0.46940  -0.94131  -0.74366  
C -1.06137  0.24872   0.01638   
C -0.40302  1.54635   -0.37242  
N 0.86473   1.55471   -0.23015  
H 2.27858   0.31947   0.67387   
H 1.50684   -1.84495  -0.43832  
H -1.03130  -1.69004  -1.28924  
H -2.15978  0.28390   0.10813   
H -0.93954  2.44216   -0.72298  
C -0.18781  -0.12776  1.26073   
H -0.47895  -1.07910  1.74936   
13
image # 20 Energy = -286.82551
C 1.19642   0.23017   0.41212   
C 0.83455   -0.98925  -0.42765  
C -0.46040  -0.95085  -0.74697  
C -1.06259  0.24210   0.02987   
C -0.41245  1.54603   -0.38459  
N 0.86802   1.53778   -0.22522  
H 2.25545   0.30054   0.70874   
H 1.52772   -1.82677  -0.50885  
H -1.02501  -1.67152  -1.31352  
H -2.15653  0.27544   0.11405   
H -0.92833  2.41744   -0.74179  
C -0.18512  -0.09306  1.27506   
H -0.46792  -1.03595  1.79567   
13
image # 21 Energy = -286.83280
C 1.17513   0.21502   0.42579   
C 0.84679   -0.99313  -0.43581  
C -0.46926  -0.94926  -0.74962  
C -1.06709  0.23290   0.04890   
C -0.39526  1.53121   -0.39282  
N 0.85615   1.51784   -0.21760  
H 2.23776   0.28241   0.74743   
H 1.54487   -1.80125  -0.58085  
H -1.02357  -1.65797  -1.34136  
H -2.15072  0.26763   0.12149   
H -0.92246  2.40103   -0.77070  
C -0.18646  -0.06546  1.28598   
H -0.45940  -0.99576  1.84653   
13
image # 22 Energy = -286.83811
C 1.14722   0.19150   0.44186   
C 0.84982   -0.98593  -0.44892  
C -0.46674  -0.93637  -0.74899  
C -1.05876  0.22198   0.05981   
C -0.40072  1.51091   -0.39866  
N 0.86611   1.50223   -0.20868  
H 2.21205   0.26585   0.78488   
H 1.56017   -1.78612  -0.63800  
H -1.02878  -1.65518  -1.36499  
H -2.14967  0.26114   0.13001   
H -0.92049  2.39318   -0.79827  
C -0.17827  -0.03630  1.30294   
H -0.44285  -0.95886  1.87532   
13
image # 23 Energy = -286.84248
C 1.16008   0.17437   0.48222   
C 0.83050   -0.97757  -0.46565  
C -0.46044  -0.94890  -0.74950  
C -1.06795  0.21200   0.05851   
C -0.38672  1.50136   -0.40562  
N 0.86028   1.49730   -0.21700  
H 2.17269   0.23900   0.83696   
H 1.57286   -1.74843  -0.71354  
H -1.03008  -1.63355  -1.38555  
H -2.15751  0.25216   0.14616   
H -0.91178  2.36991   -0.83667  
C -0.16510  -0.04029  1.31459   
H -0.42388  -0.90581  1.92629   
13
image # 24 Energy = -286.84723
C 1.14134   0.17358   0.48803   
C 0.84683   -0.98394  -0.46832  
C -0.48083  -0.96103  -0.75096  
C -1.07259  0.20445   0.06410   
C -0.39060  1.49758   -0.41418  
N 0.87669   1.49279   -0.21684  
H 2.15754   0.20314   0.90600   
H 1.57525   -1.69832  -0.78936  
H -1.03010  -1.60819  -1.40311  
H -2.16432  0.23934   0.16555   
H -0.89753  2.33477   -0.87365  
C -0.16619  -0.03718  1.29857   
H -0.39992  -0.86328  1.98727   
13
image # 25 Energy = -286.85008
C 1.12162   0.16434   0.49290   
C 0.83721   -0.98279  -0.47919  
C -0.47115  -0.95806  -0.74546  
C -1.07294  0.19736   0.07428   
C -0.37913  1.48446   -0.41742  
N 0.87402   1.48433   -0.21051  
H 2.12603   0.16737   0.96887   
H 1.58612   -1.66545  -0.85881  
H -1.03710  -1.59567  -1.42383  
H -2.16186  0.22588   0.18389   
H -0.88974  2.30995   -0.91010  
C -0.16779  -0.01441  1.29553   
H -0.36747  -0.82085  2.02544   
13
image # 26 Energy = -286.85166
C 1.11790   0.15045   0.50709   
C 0.84118   -0.98329  -0.49248  
C -0.47616  -0.95835  -0.75208  
C -1.07120  0.19236   0.08455   
C -0.38061  1.47433   -0.42313  
N 0.87594   1.47466   -0.20097  
H 2.08134   0.13700   1.01458   
H 1.59434   -1.63981  -0.91406  
H -1.03954  -1.58337  -1.43633  
H -2.15503  0.21388   0.19889   
H -0.88375  2.28982   -0.94008  
C -0.16940  0.00961   1.30995   
H -0.33501  -0.77728  2.04407   
