13   
From optimize.out: Frame 2 / 3, Energy=    -286.8584653799
C        1.5751877236    0.4456964295   -0.0859246270
C        0.8224775221   -0.8153030354    0.1174561384
C       -0.5187162062   -0.9686041869   -0.5830774992
C       -1.1193980815    0.3160409781   -0.0361673903
C       -0.3701428071    1.5789271588   -0.2388473708
N        0.9609130039    1.6141495743   -0.2598457188
H        2.6634259738    0.4386562133   -0.0979529891
H        1.4063163589   -1.7246875642    0.2497027670
H       -0.9207244973   -1.7424615602   -1.2221101752
H       -2.2063341362    0.3789713473   -0.0331540677
H       -0.9040697882    2.5169144806   -0.3782928638
C       -0.5024268939   -0.7468623541    0.8584352223
H       -0.8865081718   -1.2914374808    1.7097785743
