13   
From optimize.out: Frame 53 / 54, Energy=    -286.9243193938
C        1.4248047795    0.8351905861   -0.3608573685
C        0.2641754905   -1.4178065682   -0.2075422499
C       -0.9823267957   -1.0560105798    0.2082138302
C       -1.4531096034    0.2801671230    0.4719680000
C       -0.7560878234    1.4684735380    0.3605923550
N        0.5127386001    1.7692626350   -0.0041128838
H        2.3887301342    1.2820544124   -0.6143378257
H        0.4497371851   -2.4790931123   -0.3605291759
H       -1.7079332310   -1.8526234531    0.3598812301
H       -2.4868337669    0.3703446867    0.7968987782
H       -1.3309948254    2.3624711309    0.6124714574
C        1.3779230141   -0.5422021264   -0.4692217660
H        2.2991768418   -1.0202282729   -0.7934243814
13   
From optimize.out: Frame 52 / 54, Energy=    -286.9243178579
C        1.4251669483    0.8352696372   -0.3602895900
C        0.2637689955   -1.4174878177   -0.2084709326
C       -0.9824128991   -1.0560895405    0.2085374233
C       -1.4526638889    0.2800329508    0.4738778011
C       -0.7565455537    1.4683633648    0.3593489615
N        0.5122988790    1.7690924845   -0.0059444233
H        2.3893763547    1.2821118402   -0.6127905677
H        0.4488715972   -2.4786312342   -0.3632000451
H       -1.7081529320   -1.8527163646    0.3594079220
H       -2.4858788543    0.3700853094    0.8004484792
H       -1.3316935230    2.3625970356    0.6097707564
C        1.3781362980   -0.5422644178   -0.4687744804
H        2.2997285781   -1.0203632476   -0.7919213043
13   
From optimize.out: Frame 51 / 54, Energy=    -286.9243161834
C        1.4254641991    0.8353763985   -0.3599211870
C        0.2634124648   -1.4170793489   -0.2092767296
C       -0.9825651191   -1.0562068655    0.2087710228
C       -1.4520812375    0.2798443152    0.4755523594
C       -0.7568125208    1.4682251677    0.3583068670
N        0.5121911104    1.7689025336   -0.0067168718
H        2.3897811218    1.2821331115   -0.6122719842
H        0.4483401790   -2.4780944021   -0.3652175571
H       -1.7084723442   -1.8528052620    0.3588530810
H       -2.4850314995    0.3698306397    0.8030685655
H       -1.3322443415    2.3625495901    0.6075447306
C        1.3779685022   -0.5422786169   -0.4684820336
H        2.3000494854   -1.0203972609   -0.7902102630
13   
From optimize.out: Frame 50 / 54, Energy=    -286.9243146828
C        1.4255869567    0.8355289211   -0.3594438052
C        0.2632820405   -1.4168846925   -0.2096489879
C       -0.9826639467   -1.0562835732    0.2085277770
C       -1.4516930850    0.2797684781    0.4761355915
C       -0.7569128644    1.4681620609    0.3574406287
N        0.5123678047    1.7689803054   -0.0066545059
H        2.3899440576    1.2821318381   -0.6119858911
H        0.4485982300   -2.4777028283   -0.3664528225
H       -1.7083480365   -1.8529168419    0.3594272134
H       -2.4846075838    0.3697123160    0.8038898925
H       -1.3324106202    2.3624126214    0.6065561492
C        1.3774477814   -0.5421237920   -0.4682604787
H        2.2994092657   -1.0207848131   -0.7895307611
13   
From optimize.out: Frame 49 / 54, Energy=    -286.9243078607
C        1.4260468805    0.8364088572   -0.3620453092
C        0.2624731836   -1.4179488755   -0.2082901257
C       -0.9847333346   -1.0565530495    0.2057266444
C       -1.4518791739    0.2793512949    0.4765351133
C       -0.7562495518    1.4674526229    0.3576866893
N        0.5113954783    1.7691421303   -0.0109721622
H        2.3890993547    1.2848850542   -0.6165662382
H        0.4479869838   -2.4785226519   -0.3661095924
H       -1.7110742566   -1.8528460656    0.3553746846
H       -2.4841536335    0.3699533933    0.8061530070
H       -1.3303018892    2.3612560864    0.6115770913
C        1.3792059731   -0.5416011949   -0.4658853634
H        2.3021839854   -1.0209776018   -0.7831844387
13   
From optimize.out: Frame 48 / 54, Energy=    -286.9242922217
C        1.4259727664    0.8352060619   -0.3585149638
C        0.2633161201   -1.4147313333   -0.2117980498
C       -0.9816372422   -1.0564324094    0.2115247548
C       -1.4499831569    0.2789035480    0.4779459902
C       -0.7581153327    1.4682122482    0.3562613907
N        0.5129106611    1.7671442214   -0.0022451262
H        2.3908220889    1.2812959801   -0.6100001989
H        0.4483938018   -2.4759129340   -0.3659474414
H       -1.7084563626   -1.8524043964    0.3596293157
H       -2.4836081282    0.3685075716    0.8041766268
H       -1.3335795658    2.3633719339    0.6012338672
C        1.3754954175   -0.5429025108   -0.4711213916
H        2.2984689326   -1.0202579813   -0.7911447737
13   
From optimize.out: Frame 47 / 54, Energy=    -286.9242289355
C        1.4236034844    0.8340328103   -0.3515333155
C        0.2608349816   -1.4230698411   -0.2181160681
C       -0.9771749023   -1.0584453435    0.2177113809
C       -1.4425103855    0.2789416547    0.4857409422
C       -0.7594478485    1.4721248427    0.3526359774
N        0.5135226937    1.7722550368   -0.0004880513
H        2.3897037693    1.2781732996   -0.6004279302
H        0.4391812663   -2.4836914842   -0.3829921456
H       -1.7091785933   -1.8493817876    0.3669081868
H       -2.4764849739    0.3667917315    0.8117241446
H       -1.3419642633    2.3672653547    0.5807365299
C        1.3772893348   -0.5417735264   -0.4698767622
H        2.3026254368   -1.0132227474   -0.7920228888
13   
From optimize.out: Frame 46 / 54, Energy=    -286.9240998424
C        1.4231538970    0.8320261531   -0.3407765255
C        0.2604692142   -1.4240762366   -0.2237102012
C       -0.9705810628   -1.0593957463    0.2322272742
C       -1.4401539456    0.2803832315    0.4899143662
C       -0.7615676695    1.4742681276    0.3494404495
N        0.5196317404    1.7725821042    0.0158843603
H        2.3947372430    1.2719343160   -0.5758002254
H        0.4360481435   -2.4845666639   -0.3929155469
H       -1.7009646127   -1.8504103996    0.3885107536
H       -2.4776298018    0.3675179568    0.8047007417
H       -1.3521520700    2.3704702797    0.5520259396
C        1.3725761678   -0.5422824571   -0.4827586796
H        2.2964327563   -1.0084506654   -0.8167427065
13   
From optimize.out: Frame 45 / 54, Energy=    -286.9239263475
C        1.4239269602    0.8317569194   -0.3281611166
C        0.2607578950   -1.4219818336   -0.2271417338
C       -0.9662843908   -1.0598323174    0.2440961600
C       -1.4413525728    0.2827774695    0.4888705350
C       -0.7623874668    1.4737103033    0.3438665951
N        0.5291434691    1.7713345809    0.0379063862
H        2.4034530887    1.2667207111   -0.5408129643
H        0.4393970730   -2.4815955812   -0.4000715814
H       -1.6858311796   -1.8553813450    0.4260304972
H       -2.4835097240    0.3713892882    0.7873975531
H       -1.3597040257    2.3699918827    0.5243381424
C        1.3624552212   -0.5407651620   -0.5035018984
H        2.2799356524   -1.0081249159   -0.8528165747
13   
From optimize.out: Frame 44 / 54, Energy=    -286.9238356154
C        1.4235358721    0.8327931330   -0.3292846887
C        0.2588424160   -1.4195016560   -0.2296481016
C       -0.9677361030   -1.0597623135    0.2476840966
C       -1.4421394916    0.2830606016    0.4901650070
C       -0.7612875018    1.4719561828    0.3430728211
N        0.5320566950    1.7694699330    0.0417653026
H        2.4080934389    1.2657683150   -0.5231603577
H        0.4415158782   -2.4788274960   -0.4017515854
H       -1.6812239520   -1.8578683123    0.4415158411
H       -2.4864330585    0.3736748068    0.7808496520
H       -1.3609810910    2.3678653069    0.5163319542
C        1.3583374021   -0.5411397273   -0.5155376314
H        2.2774194957   -1.0074887739   -0.8620023100
13   
From optimize.out: Frame 43 / 54, Energy=    -286.9236477094
C        1.4223559089    0.8322088186   -0.3334176000
C        0.2545677175   -1.4253068999   -0.2313381103
C       -0.9690534944   -1.0602444864    0.2493279271
C       -1.4405737518    0.2833172193    0.4975171321
C       -0.7608438050    1.4721492932    0.3463551581
N        0.5270684136    1.7717960904    0.0309912283
H        2.4052703997    1.2662568131   -0.5356708190
H        0.4254082238   -2.4858545088   -0.4075901122
H       -1.6900351089   -1.8560979451    0.4238188495
H       -2.4818275590    0.3755998045    0.7970880349
H       -1.3652594226    2.3658531956    0.5151016900
C        1.3734238816   -0.5411669056   -0.5070176438
H        2.2994985966   -0.9985104888   -0.8451657346
13   
From optimize.out: Frame 42 / 54, Energy=    -286.9236367277
C        1.4267016256    0.8302044436   -0.3137845071
C        0.2634906786   -1.4182755720   -0.2255274317
C       -0.9594735910   -1.0581547458    0.2654499033
C       -1.4469750331    0.2831415816    0.4840118107
C       -0.7668560159    1.4730802727    0.3365408012
N        0.5339368423    1.7625279280    0.0652930216
H        2.4106434156    1.2638442521   -0.5140107503
H        0.4352061045   -2.4791830180   -0.3965829305
H       -1.6744982308   -1.8576814907    0.4485765196
H       -2.4919421687    0.3733901720    0.7708546798
H       -1.3631601206    2.3729571066    0.5001306060
C        1.3628836105   -0.5407879744   -0.5220984033
H        2.2700428830   -1.0050629558   -0.8988533192
13   
From optimize.out: Frame 41 / 54, Energy=    -286.9234069555
C        1.4353732832    0.8288503256   -0.3048377609
C        0.2563478230   -1.4173774371   -0.2277450332
C       -0.9635479190   -1.0595520471    0.2679819021
C       -1.4512419417    0.2814429460    0.4753179780
C       -0.7655524389    1.4679897237    0.3356840803
N        0.5429827879    1.7509543298    0.0946520343
H        2.4119551376    1.2760240646   -0.5094323383
H        0.4344613077   -2.4789744952   -0.3854415447
H       -1.6691246503   -1.8587142151    0.4848056065
H       -2.5032481294    0.3740415115    0.7360682772
H       -1.3559229021    2.3719725683    0.4960311063
C        1.3628032122   -0.5391762189   -0.5327746731
H        2.2647144298   -0.9974810561   -0.9303096346
13   
From optimize.out: Frame 40 / 54, Energy=    -286.9230060906
C        1.4469892103    0.8288408325   -0.2907107493
C        0.2536975364   -1.4111548099   -0.2260913776
C       -0.9611180601   -1.0610498424    0.2817846767
C       -1.4549157261    0.2806409999    0.4615149311
C       -0.7644652658    1.4615472588    0.3422914258
N        0.5545727154    1.7379592949    0.1337572342
H        2.4187245467    1.2790014476   -0.5061717386
H        0.4429661972   -2.4738497447   -0.3660800647
H       -1.6635752663   -1.8596316010    0.5094966524
H       -2.5123388316    0.3739075515    0.7005316301
H       -1.3543609368    2.3690897245    0.4809675862
C        1.3511252380   -0.5333764761   -0.5499955879
H        2.2426986428   -0.9919246355   -0.9712946184
13   
From optimize.out: Frame 39 / 54, Energy=    -286.9224891850
C        1.4563234130    0.8324521479   -0.2835666219
C        0.2508646308   -1.4024583804   -0.2273791453
C       -0.9651269106   -1.0631302780    0.2818481853
C       -1.4627254530    0.2803403313    0.4555506227
C       -0.7653584821    1.4558217189    0.3502698944
N        0.5669801412    1.7296660196    0.1641621621
H        2.4339966802    1.2729081784   -0.4900682705
H        0.4612710554   -2.4640665083   -0.3457585067
H       -1.6510390349   -1.8652214567    0.5447220011
H       -2.5262289851    0.3744155568    0.6659899497
H       -1.3530358063    2.3680662041    0.4709873840
C        1.3333275563   -0.5236595084   -0.5850098456
H        2.2207511952   -0.9951340253   -1.0017478093
13   
From optimize.out: Frame 38 / 54, Energy=    -286.9217452679
C        1.4629673659    0.8488266187   -0.2792603450
C        0.2525195072   -1.4034055221   -0.2150478241
C       -0.9688629779   -1.0686482730    0.2960530975
C       -1.4638053672    0.2799872906    0.4477647358
C       -0.7577030046    1.4466053477    0.3607292760
N        0.5833796727    1.7239122164    0.1812107370
H        2.4518219068    1.2705957775   -0.4731444367
H        0.4662191490   -2.4649821378   -0.3334729888
H       -1.6520671468   -1.8729090668    0.5582089347
H       -2.5296369413    0.3807255177    0.6442104523
H       -1.3560469598    2.3548988819    0.4515997895
C        1.3141061044   -0.5132271249   -0.6046354696
H        2.1971086917   -0.9823795259   -1.0342159587
13   
From optimize.out: Frame 37 / 54, Energy=    -286.9211341333
C        1.4637392709    0.8600804581   -0.2811165864
C        0.2606420254   -1.3962270242   -0.2047890781
C       -0.9715970046   -1.0683257435    0.3052543659
C       -1.4638791183    0.2801740044    0.4491065944
C       -0.7592227896    1.4451374526    0.3638324396
N        0.5855260300    1.7228040779    0.1875955759
H        2.4659021046    1.2626687887   -0.4504515065
H        0.4707074897   -2.4581867647   -0.3303542123
H       -1.6494153151   -1.8779454705    0.5630479077
H       -2.5306776325    0.3832208563    0.6391338926
H       -1.3638825067    2.3500681240    0.4380634741
C        1.3065381395   -0.5129515559   -0.6259755932
H        2.1856193067   -0.9905172032   -1.0533472737
13   
From optimize.out: Frame 36 / 54, Energy=    -286.9202632662
C        1.4581363253    0.8661589620   -0.2805766992
C        0.2755816223   -1.3918159205   -0.1903372108
C       -0.9667461363   -1.0634550876    0.3237579311
C       -1.4631632511    0.2770523153    0.4432887649
C       -0.7629286717    1.4471436440    0.3472767064
N        0.5827431429    1.7124432269    0.1834218091
H        2.4771263403    1.2499702482   -0.3827654127
H        0.4762493803   -2.4572309822   -0.3089323900
H       -1.6447356013   -1.8763851555    0.5676793574
H       -2.5301354901    0.3783286911    0.6360076662
H       -1.3593208309    2.3562484867    0.4267398598
C        1.2928100395   -0.5186830162   -0.6531463028
H        2.1643831310   -0.9797754123   -1.1124140793
13   
From optimize.out: Frame 35 / 54, Energy=    -286.9189562713
C        1.4530166669    0.8632801763   -0.2753830264
C        0.2898176204   -1.3830898076   -0.1712678544
C       -0.9667205278   -1.0622961877    0.3337880221
C       -1.4564316871    0.2750020607    0.4441273963
C       -0.7572780654    1.4500282014    0.3428345722
N        0.5820271573    1.7055171794    0.1887413348
H        2.4692492081    1.2593871065   -0.3554102161
H        0.4849653857   -2.4485401363   -0.3056390451
H       -1.6439607811   -1.8782178788    0.5648477519
H       -2.5258859292    0.3783568500    0.6271682006
H       -1.3548189593    2.3581519176    0.4117463778
C        1.2829421304   -0.5331252953   -0.6582139207
H        2.1430777811   -0.9844541862   -1.1473395932
13   
From optimize.out: Frame 34 / 54, Energy=    -286.9170572648
C        1.4660202831    0.8913763069   -0.2908284550
C        0.2836258540   -1.4095899854   -0.1645927874
C       -0.9633065273   -1.0692916797    0.3621068557
C       -1.4572286495    0.2742207156    0.4268803787
C       -0.7793016996    1.4624865830    0.3116806197
N        0.5706372564    1.7178011791    0.1815570604
H        2.4973501560    1.2533665233   -0.3380174767
H        0.4481690621   -2.4723187690   -0.3526151452
H       -1.6470202357   -1.8754861375    0.6068999824
H       -2.5289668716    0.3635330960    0.6132654766
H       -1.3629942523    2.3721484014    0.4383113064
C        1.3162772758   -0.5286735669   -0.6367569964
H        2.1567383486   -0.9795726668   -1.1578908192
13   
From optimize.out: Frame 33 / 54, Energy=    -286.9144284735
C        1.4597327292    0.8866841517   -0.2730768381
C        0.3078670757   -1.3837809975   -0.1888996062
C       -0.9354736240   -1.0541665964    0.3434623273
C       -1.4480892794    0.2757448713    0.4174550884
C       -0.7955047932    1.4717265460    0.2645099581
N        0.5567251975    1.7218134938    0.1661955704
H        2.5134746301    1.1634249564   -0.1747256233
H        0.5161877970   -2.4510977545   -0.2993778462
H       -1.5971004551   -1.8663016132    0.6283845884
H       -2.5095686267    0.3466888737    0.6603887768
H       -1.3668226907    2.3868542491    0.3971479024
C        1.2444096481   -0.5096825729   -0.6989507114
H        2.0541623916   -0.9879076074   -1.2425135866
13   
From optimize.out: Frame 32 / 54, Energy=    -286.9110127988
C        1.4343551533    0.8447792327   -0.2436901801
C        0.2982549933   -1.3758054684   -0.1848198154
C       -0.9396493100   -1.0349566565    0.3207298121
C       -1.4546221342    0.2861703020    0.3910696103
C       -0.8170217435    1.4741674059    0.2273627079
N        0.5532820367    1.6913369046    0.1712617765
H        2.4800045812    1.1124181735   -0.0771370483
H        0.5487455790   -2.4403259408   -0.1638241873
H       -1.6026936429   -1.8390466949    0.6236567469
H       -2.5080020519    0.3384855454    0.6674161250
H       -1.3473664040    2.4009995091    0.4227954725
C        1.2602452701   -0.5329666299   -0.7920018561
H        2.0944676728   -0.9252556828   -1.3628191641
13   
From optimize.out: Frame 31 / 54, Energy=    -286.8999520691
C        1.4377607075    0.8736289441   -0.2615905188
C        0.2593498682   -1.4399097851   -0.2531666851
C       -0.9233212892   -1.0369940005    0.2964358907
C       -1.4731922523    0.2920465545    0.3882899214
C       -0.8596350378    1.4728252944    0.1683083629
N        0.5425429034    1.6916835768    0.1301371587
H        2.4694797196    1.1013735157    0.0261054645
H        0.5115207213   -2.4971693350   -0.1572608903
H       -1.5959806474   -1.8160996287    0.6539672581
H       -2.4934100860    0.3276028146    0.7644565510
H       -1.3177382481    2.4292773389    0.4105044485
C        1.2936625608   -0.4972079615   -0.8188198128
H        2.1489610799   -0.9010573281   -1.3473671486
13   
From optimize.out: Frame 30 / 54, Energy=    -286.8972661937
C        1.4133873719    0.7861252289   -0.1894115515
C        0.3314959665   -1.3678551845   -0.2374458787
C       -0.8866071454   -1.0018315054    0.2956992832
C       -1.5026891341    0.2962636103    0.3625570825
C       -0.8651628793    1.4931951426    0.1445652445
N        0.5307245525    1.6728624465    0.1526204329
H        2.4442880807    0.9339119781    0.1523293218
H        0.6847168939   -2.3835424037   -0.0756372436
H       -1.5218559999   -1.8087587893    0.6676504022
H       -2.5201270831    0.3282541086    0.7415269334
H       -1.3118452797    2.4562380876    0.3957607160
C        1.1916484514   -0.4829183318   -0.9264081289
H        2.0120262044   -0.9219443878   -1.4838066137
13   
From optimize.out: Frame 29 / 54, Energy=    -286.8842192281
C        1.3774494539    0.7088044747   -0.1433919116
C        0.3250242604   -1.3663889044   -0.2858405914
C       -0.8870156185   -0.9758225739    0.2920199866
C       -1.5520114426    0.3059155714    0.3577851138
C       -0.8739738129    1.5004364801    0.1000034910
N        0.5109266981    1.6185515390    0.1538392802
H        2.3907248706    0.8184935002    0.2629244262
H        0.7756178422   -2.3219663318   -0.0433075128
H       -1.4814894220   -1.7871748737    0.7257661203
H       -2.5559747155    0.3636239244    0.7674174263
H       -1.2868166652    2.4732984938    0.3803147198
C        1.2087893566   -0.4525860259   -1.0137943270
H        2.0487491949   -0.8851852739   -1.5537362212
13   
From optimize.out: Frame 28 / 54, Energy=    -286.8728919275
C        1.3603623601    0.6425601049   -0.1121623008
C        0.3510714546   -1.3324619279   -0.2731865224
C       -0.8895949107   -0.9612274534    0.3074659490
C       -1.5715502974    0.3029038524    0.3639511692
C       -0.8479946790    1.4916177206    0.1196314802
N        0.5179112971    1.5899399626    0.1528110469
H        2.3538166809    0.7206241069    0.3437790854
H        0.8446184572   -2.2595880902   -0.0050736557
H       -1.4691171081   -1.7888520284    0.7312505775
H       -2.5801204365    0.3814747704    0.7596518382
H       -1.2855640842    2.4706857366    0.3309611447
C        1.1968080557   -0.3969830987   -1.0867300771
H        2.0193532104   -0.8606936558   -1.6323497350
13   
From optimize.out: Frame 27 / 54, Energy=    -286.8676897409
C        1.3555157889    0.6056314249   -0.1086170025
C        0.3587324684   -1.2627215841   -0.2968387635
C       -0.8600149040   -0.9240889558    0.3286094626
C       -1.5494991631    0.2930088920    0.3151431791
C       -0.8286691228    1.4807055844    0.0784767885
N        0.4891816238    1.5541430602    0.1579906368
H        2.2815536268    0.6096025251    0.4740448914
H        0.8411043872   -2.1890979763    0.0302158835
H       -1.3903108479   -1.7602803563    0.7920322433
H       -2.5529283236    0.3656492633    0.7258319423
H       -1.2814812056    2.4387483141    0.3323380215
C        1.1772044451   -0.3526408124   -1.1340797158
H        1.9596112269   -0.8586593790   -1.6951475672
13   
From optimize.out: Frame 26 / 54, Energy=    -286.8634857259
C        1.3504521118    0.5483753500   -0.0814171877
C        0.3541664458   -1.2346318898   -0.2814187749
C       -0.8858787719   -0.9293100507    0.3357415257
C       -1.5402260481    0.2840422849    0.3131399912
C       -0.8022466482    1.4763636903    0.1160732192
N        0.5000149405    1.5443176705    0.1900065915
H        2.2668691520    0.5410250310    0.5136014048
H        0.8398248502   -2.1567475990    0.0599551242
H       -1.3786697608   -1.7591310712    0.8446192682
H       -2.5654450903    0.3633848593    0.6651967156
H       -1.2920324254    2.4345059014    0.2852651418
C        1.1848259662   -0.3310811665   -1.1798726922
H        1.9683452781   -0.7811130103   -1.7808903275
13   
From optimize.out: Frame 25 / 54, Energy=    -286.8606361842
C        1.3221773605    0.4703049740   -0.0433974712
C        0.4284715655   -1.1406299428   -0.1863886200
C       -0.8920189318   -0.9281606825    0.3297395545
C       -1.5308616588    0.2770903225    0.3104927410
C       -0.7803458665    1.4829627706    0.1695121168
N        0.5133218501    1.5466308551    0.2197006754
H        2.2829591101    0.4747997864    0.4737757426
H        0.9122808889   -2.0680375770    0.1415819683
H       -1.3866679148   -1.7902408910    0.7748207705
H       -2.5763940483    0.3498150646    0.5976686365
H       -1.2942172706    2.4371574513    0.2856785000
C        1.1216233994   -0.3551927840   -1.2051608983
H        1.8796715163   -0.7564993472   -1.8680237160
13   
From optimize.out: Frame 24 / 54, Energy=    -286.8584099581
C        1.3055066295    0.4285344636   -0.0207042567
C        0.4634144469   -1.0956522759   -0.1323190675
C       -0.8940366997   -0.9304142788    0.3234955334
C       -1.5230390912    0.2736042038    0.3144622635
C       -0.7662963420    1.4858418045    0.2070953351
N        0.5249028839    1.5482975423    0.2353093014
H        2.2893588183    0.4407344674    0.4489998623
H        0.9475240087   -2.0273093775    0.1807128900
H       -1.3884732922   -1.8076020933    0.7355786717
H       -2.5791067244    0.3443956380    0.5600769122
H       -1.2937277601    2.4378128692    0.2744809111
C        1.0851191233   -0.3655042126   -1.2150611206
H        1.8288539991   -0.7327387507   -1.9121272359
13   
From optimize.out: Frame 23 / 54, Energy=    -286.8574167166
C        1.2953717646    0.4080828085   -0.0142201588
C        0.4676058027   -1.0783162899   -0.1275902885
C       -0.9031135422   -0.9333113728    0.3002867762
C       -1.5334443209    0.2778698131    0.2984013203
C       -0.7705179717    1.4888000675    0.2013114954
N        0.5272138544    1.5437465048    0.2299530527
H        2.2771046196    0.4131234455    0.4584893273
H        0.9636642231   -2.0047403253    0.1805653389
H       -1.3808154206   -1.8077089487    0.7361254387
H       -2.5754914283    0.3544000334    0.5968435885
H       -1.2997192387    2.4401738389    0.2715360040
C        1.0871605688   -0.3816837773   -1.2176110201
H        1.8449810893   -0.7204357978   -1.9140908747
13   
From optimize.out: Frame 22 / 54, Energy=    -286.8568957393
C        1.2979173691    0.4016014436   -0.0084078379
C        0.4742237660   -1.0851822584   -0.1155108063
C       -0.9118729494   -0.9346149505    0.3275856724
C       -1.5319631118    0.2735551297    0.3389090997
C       -0.7654348091    1.4864307247    0.1803713736
N        0.5322926957    1.5545306502    0.2208802229
H        2.2824431050    0.4281971944    0.4582137699
H        0.9718333717   -2.0055172778    0.1957195674
H       -1.4252169529   -1.8314496119    0.6677138380
H       -2.5734495485    0.3608118089    0.6345637467
H       -1.2971945986    2.4373579167    0.2475628390
C        1.0982590191   -0.3595752373   -1.2285852792
H        1.8481626437   -0.7261455322   -1.9190162063
13   
From optimize.out: Frame 21 / 54, Energy=    -286.8564228935
C        1.2865920237    0.3838074494   -0.0187171828
C        0.5049440167   -1.0587338503   -0.1032313807
C       -0.9038237618   -0.9236103559    0.3186915312
C       -1.5413899241    0.2695054664    0.3176376774
C       -0.7625481442    1.4898639583    0.2232331122
N        0.5307521579    1.5510811036    0.2330146880
H        2.2916597718    0.4333317428    0.4018879648
H        1.0180253155   -1.9508682658    0.2547901584
H       -1.4058488951   -1.8264700253    0.6598187561
H       -2.6012497425    0.3453943106    0.5413632916
H       -1.2866112571    2.4420032096    0.3316921622
C        1.0651693568   -0.3631499476   -1.2469045033
H        1.8043290824   -0.7921547957   -1.9132762750
13   
From optimize.out: Frame 20 / 54, Energy=    -286.8535033297
C        1.2804796782    0.3752519153   -0.0264284814
C        0.5243545010   -1.0440805699   -0.0815730762
C       -0.8947208560   -0.9135130983    0.3296184550
C       -1.5494030213    0.2700091308    0.3190700833
C       -0.7678824050    1.4943543123    0.2440967717
N        0.5331482500    1.5547394191    0.2344784579
H        2.2960345905    0.4693489269    0.3607407618
H        1.0474223217   -1.9213859764    0.2903436238
H       -1.4096477511   -1.8293881777    0.6110893747
H       -2.6161924946    0.3418969731    0.5089199256
H       -1.2952092787    2.4427560423    0.3806348354
C        1.0743564100   -0.3541398646   -1.2699058439
H        1.7772600553   -0.8858490328   -1.9010848877
13   
From optimize.out: Frame 19 / 54, Energy=    -286.8476006823
C        1.2756758334    0.3791622565   -0.0306515538
C        0.5375744889   -1.0325435652   -0.0584646010
C       -0.8839687343   -0.9096230105    0.3309147733
C       -1.5466494219    0.2693758605    0.3141593942
C       -0.7687896298    1.4972665800    0.2593341864
N        0.5328289928    1.5675165800    0.2305059881
H        2.2918504331    0.4818356174    0.3540053482
H        1.0689050784   -1.9086715000    0.3011197083
H       -1.4027369139   -1.8288213922    0.5934572178
H       -2.6171343588    0.3352861757    0.4845105714
H       -1.3038978278    2.4400568935    0.4073982179
C        1.0910147569   -0.3201148859   -1.2977598796
H        1.7253273029   -0.9707256099   -1.8885293714
13   
From optimize.out: Frame 18 / 54, Energy=    -286.8423871475
C        1.2644726086    0.4013583431   -0.0422544339
C        0.5690142855   -0.9653726547   -0.0103169891
C       -0.8611813388   -0.9078082939    0.3129868527
C       -1.5331132967    0.2650306082    0.3105383028
C       -0.7610690824    1.4990435764    0.2957817307
N        0.5263315125    1.5929672617    0.2234584941
H        2.3009329434    0.5494514053    0.2665288789
H        1.1250864828   -1.8389376294    0.3133647998
H       -1.3753062601   -1.8463961724    0.5085141599
H       -2.6073063889    0.3242010344    0.4542666215
H       -1.3071381329    2.4312593791    0.4665497884
C        1.0503078179   -0.3723243325   -1.2836911600
H        1.6089688490   -1.1324725252   -1.8157270458
13   
From optimize.out: Frame 17 / 54, Energy=    -286.8347290584
C        1.2617142970    0.4087149943   -0.0509886393
C        0.5820509257   -0.9378099614    0.0328888748
C       -0.8481141581   -0.9066466186    0.3075956217
C       -1.5257350082    0.2639180923    0.3120395388
C       -0.7601854172    1.4999614292    0.3164692602
N        0.5215212557    1.6065678197    0.2091504396
H        2.3025418720    0.5710918417    0.2362356302
H        1.1429967488   -1.8203745767    0.3215469402
H       -1.3651728428   -1.8520264784    0.4580246326
H       -2.6019239290    0.3166314190    0.4402599225
H       -1.3129351839    2.4258105975    0.4986653445
C        1.0600641587   -0.3640435418   -1.3057752370
H        1.5431772813   -1.2117950167   -1.7761123288
13   
From optimize.out: Frame 16 / 54, Energy=    -286.8251658252
C        1.2590415098    0.4155511171   -0.0652875978
C        0.5836719291   -0.8999586543    0.0807296253
C       -0.8433667517   -0.9074855821    0.2905406404
C       -1.5211243275    0.2624749254    0.3148713629
C       -0.7574953529    1.4980212754    0.3379391374
N        0.5074758152    1.6147514468    0.1946299630
H        2.3050120384    0.6018665033    0.1910169861
H        1.1546152471   -1.7891988851    0.3303022905
H       -1.3560801182   -1.8608856322    0.4015358715
H       -2.5978456423    0.3102187074    0.4368661227
H       -1.3129292151    2.4179008690    0.5362395468
C        1.0783101234   -0.3714732208   -1.3318073783
H        1.5007147447   -1.2917828698   -1.7175765704
13   
From optimize.out: Frame 15 / 54, Energy=    -286.8144129900
C        1.2620510102    0.4099115280   -0.0738394023
C        0.5673415964   -0.8823754714    0.1312472962
C       -0.8518739927   -0.9108143361    0.2934028955
C       -1.5261136060    0.2625726049    0.3297542566
C       -0.7609200711    1.4940349228    0.3435605569
N        0.4926676667    1.6103907417    0.1751341816
H        2.3035615224    0.6173395635    0.1891568957
H        1.1414564356   -1.7845643481    0.3276639886
H       -1.3659732368   -1.8673465574    0.3688055979
H       -2.6034977617    0.3084478976    0.4437350851
H       -1.3098817505    2.4157519731    0.5471170805
C        1.1470208939   -0.3506254464   -1.3761720772
H        1.5041612937   -1.3227230721   -1.6995663552
13   