13   
From optimize.out: Frame 1 / 2, Energy=    -286.9243193853
C        1.4248047795    0.8351905861   -0.3608573685
C        0.2641754905   -1.4178065682   -0.2075422499
C       -0.9823267957   -1.0560105798    0.2082138302
C       -1.4531096034    0.2801671230    0.4719680000
C       -0.7560878234    1.4684735380    0.3605923550
N        0.5127386001    1.7692626350   -0.0041128838
H        2.3887301342    1.2820544124   -0.6143378257
H        0.4497371851   -2.4790931123   -0.3605291759
H       -1.7079332310   -1.8526234531    0.3598812301
H       -2.4868337669    0.3703446867    0.7968987782
H       -1.3309948254    2.3624711309    0.6124714574
C        1.3779230141   -0.5422021264   -0.4692217660
H        2.2991768418   -1.0202282729   -0.7934243814
13   
From optimize.out: Frame 53 / 54, Energy=    -286.9243193938
C        1.4238860894    0.8315853052   -0.3295888039
C        0.2591889609   -1.4227492555   -0.2273226363
C       -0.9666225818   -1.0594303577    0.2484030831
C       -1.4422210490    0.2824404756    0.4909588457
C       -0.7627833207    1.4731368568    0.3443040195
N        0.5271712598    1.7695404271    0.0368122082
H        2.4036943103    1.2671674627   -0.5411449902
H        0.4324617768   -2.4832589101   -0.3999786649
H       -1.6883291390   -1.8549382679    0.4213193836
H       -2.4835664000    0.3723979634    0.7910617055
H       -1.3606100672    2.3694127948    0.5219855868
C        1.3691038777   -0.5413090796   -0.5041727707
H        2.2886262828   -1.0039954147   -0.8526369663
13   
From optimize.out: Frame 52 / 54, Energy=    -286.9243178579
C        1.4395485341    0.8291900610   -0.3006779585
C        0.2553169891   -1.4150001091   -0.2270891570
C       -0.9625549730   -1.0602622119    0.2731395918
C       -1.4519551767    0.2812955465    0.4707970338
C       -0.7647203147    1.4654477196    0.3398260604
N        0.5468940330    1.7468891709    0.1071262077
H        2.4146759110    1.2760094771   -0.5101742054
H        0.4379659311   -2.4770136347   -0.3783266484
H       -1.6683654880   -1.8588979913    0.4900120816
H       -2.5053643563    0.3740615743    0.7254517703
H       -1.3563133868    2.3701278458    0.4903774655
C        1.3579113016   -0.5365772064   -0.5385785990
H        2.2569609957   -0.9952702417   -0.9418836429
13   
From optimize.out: Frame 51 / 54, Energy=    -286.9243161834
C        1.4589905160    0.8415070586   -0.2821457785
C        0.2521191502   -1.4038883319   -0.2203025214
C       -0.9670255555   -1.0660635687    0.2894782448
C       -1.4626065888    0.2801895516    0.4520424266
C       -0.7609599094    1.4512312217    0.3553873963
N        0.5749705650    1.7274715270    0.1701880353
H        2.4427383493    1.2719659486   -0.4817874369
H        0.4623742111   -2.4655265250   -0.3409948329
H       -1.6527928453   -1.8691369385    0.5488253940
H       -2.5267795248    0.3779784091    0.6574697931
H       -1.3549091018    2.3607350760    0.4612202363
C        1.3241526253   -0.5186661911   -0.5928817872
H        2.2097281089   -0.9877972374   -1.0164991696
13   
From optimize.out: Frame 50 / 54, Energy=    -286.9243146828
C        1.4588108560    0.8662228525   -0.2808555768
C        0.2745007578   -1.3926119315   -0.1909185670
C       -0.9670959868   -1.0640302269    0.3230858653
C       -1.4630531439    0.2772537233    0.4434097384
C       -0.7629758781    1.4473535452    0.3478654179
N        0.5826915702    1.7134742989    0.1837721477
H        2.4765853923    1.2512309668   -0.3876137708
H        0.4750984058   -2.4576514696   -0.3119127371
H       -1.6452078380   -1.8765105039    0.5682176767
H       -2.5301374980    0.3784030235    0.6356910808
H       -1.3598010499    2.3560940109    0.4279762821
C        1.2945760880   -0.5184758841   -0.6503299625
H        2.1660083247   -0.9807524052   -1.1083875946
13   
From optimize.out: Frame 49 / 54, Energy=    -286.9243078607
C        1.4634301519    0.8878864568   -0.2853161131
C        0.2898920475   -1.4012332709   -0.1709154316
C       -0.9570027229   -1.0651167979    0.3552932400
C       -1.4549963323    0.2746478869    0.4261078076
C       -0.7812753823    1.4636206266    0.3031445232
N        0.5683060788    1.7177117060    0.1785265368
H        2.4987907548    1.2325716293   -0.3008107080
H        0.4673956404   -2.4652791988   -0.3360281151
H       -1.6349366940   -1.8735418390    0.6084292269
H       -2.5241111789    0.3607980589    0.6256045256
H       -1.3632090376    2.3744469502    0.4263120940
C        1.2964320044   -0.5245520013   -0.6533052740
H        2.1312846702   -0.9819602069   -1.1770423123
13   
From optimize.out: Frame 49 / 54, Energy=    -286.9243078607
C        1.4580507855    0.8827842322   -0.2731949161
C        0.3019777444   -1.3879543028   -0.1836344115
C       -0.9414455068   -1.0549384103    0.3445228299
C       -1.4506446431    0.2766447311    0.4162761082
C       -0.7947859701    1.4701847162    0.2695383045
N        0.5590733426    1.7175123528    0.1698095739
H        2.5064392209    1.1752953676   -0.1957027932
H        0.5065179234   -2.4540439099   -0.2942709386
H       -1.6075929913   -1.8649750118    0.6236015480
H       -2.5132152170    0.3490673289    0.6519012791
H       -1.3638268825    2.3855819146    0.4082223205
C        1.2604116551   -0.5161105242   -0.6973962183
H        2.0790405390   -0.9790484842   -1.2396726865
13   
From optimize.out: Frame 48 / 54, Energy=    -286.9242922217
C        1.4440198987    0.8607382184   -0.2548817362
C        0.3019156396   -1.3788428529   -0.1863735548
C       -0.9380590501   -1.0422725316    0.3293872178
C       -1.4521341748    0.2821999018    0.4011182032
C       -0.8088272711    1.4732378337    0.2415097925
N        0.5545933232    1.7029435480    0.1693323726
H        2.4927512478    1.1318434949   -0.1143024864
H        0.5363463383   -2.4444282568   -0.2154481721
H       -1.6005635444   -1.8494264036    0.6254572886
H       -2.5085986631    0.3416096846    0.6647398438
H       -1.3547760974    2.3956124565    0.4130279031
C        1.2542144634   -0.5240991761   -0.7565644439
H        2.0791178900   -0.9491159167   -1.3170022282
13   
From optimize.out: Frame 47 / 54, Energy=    -286.9242289355
C        1.4367483203    0.8589951537   -0.2526292163
C        0.2813983911   -1.4044136769   -0.2151665540
C       -0.9322874634   -1.0365293234    0.3107894117
C       -1.4626000281    0.2884022690    0.3907646605
C       -0.8351004118    1.4734888713    0.2025654241
N        0.5486566885    1.6925567441    0.1529106134
H        2.4765248230    1.1093224671   -0.0349274238
H        0.5311556374   -2.4658232575   -0.1656679119
H       -1.5995312721   -1.8298597765    0.6372170814
H       -2.5016083762    0.3339633375    0.7100544290
H       -1.3349540273    2.4130010261    0.4164661759
C        1.2744588652   -0.5163491961   -0.8005966292
H        2.1171388534   -0.9167546384   -1.3517800608
13   
From optimize.out: Frame 46 / 54, Energy=    -286.9240998424
C        1.4314229901    0.8508756443   -0.2428220622
C        0.2781097780   -1.4211736671   -0.2490788562
C       -0.9137746326   -1.0278508139    0.2962443531
C       -1.4808622283    0.2931431015    0.3815986970
C       -0.8610724240    1.4781219982    0.1621345188
N        0.5394698170    1.6867895809    0.1359834097
H        2.4629292216    1.0578290495    0.0589270340
H        0.5565563456   -2.4676233023   -0.1360365651
H       -1.5767062620   -1.8141908147    0.6575252405
H       -2.5003572178    0.3277721684    0.7584942388
H       -1.3162059191    2.4362878526    0.4066706848
C        1.2671361715   -0.4934922767   -0.8467956446
H        2.1133543600   -0.9064885207   -1.3828450486
13   
From optimize.out: Frame 45 / 54, Energy=    -286.9239263475
C        1.4210064870    0.8138663134   -0.2124273385
C        0.3080975134   -1.3911645473   -0.2428965001
C       -0.8984926763   -1.0130169091    0.2959101169
C       -1.4935120777    0.2949710870    0.3708497170
C       -0.8634398208    1.4866567333    0.1519157748
N        0.5344012015    1.6785469357    0.1453528918
H        2.4520399766    0.9872458198    0.1123058451
H        0.6293433438   -2.4198561937   -0.1018123601
H       -1.5455438599   -1.8109729168    0.6636573219
H       -2.5117487694    0.3283083353    0.7491420560
H       -1.3135649960    2.4476401163    0.4004167671
C        1.2247935773   -0.4873158741   -0.8922421152
H        2.0566201004   -0.9149088998   -1.4401721768
13   
From optimize.out: Frame 45 / 54, Energy=    -286.9239263475
C        1.4071622789    0.7727318852   -0.1814401231
C        0.3303749508   -1.3676011984   -0.2458287123
C       -0.8866779003   -0.9973262912    0.2950619629
C       -1.5112326440    0.2979355033    0.3617304918
C       -0.8666890913    1.4944494723    0.1368463483
N        0.5272952085    1.6634548216    0.1528315591
H        2.4350099705    0.9139194243    0.1714863807
H        0.7004625712   -2.3728763219   -0.0700371535
H       -1.5148637834   -1.8050200674    0.6777170886
H       -2.5263365370    0.3343807961    0.7460116318
H       -1.3075098740    2.4591932565    0.3930851920
C        1.1946175642   -0.4776642315   -0.9415449883
H        2.0183872860   -0.9155770489   -1.4959196780
13   
From optimize.out: Frame 43 / 54, Energy=    -286.9236477094
C        1.3853216217    0.7241294082   -0.1529612441
C        0.3280344615   -1.3648930096   -0.2732895916
C       -0.8870565644   -0.9813979263    0.2937662127
C       -1.5409935193    0.3033856862    0.3592916510
C       -0.8703941096    1.4981797721    0.1119965802
N        0.5161600643    1.6302957934    0.1534843774
H        2.4018322253    0.8414248914    0.2402445906
H        0.7571158217   -2.3336444650   -0.0491391470
H       -1.4907046407   -1.7925556882    0.7118248596
H       -2.5485106538    0.3559327328    0.7606483626
H       -1.2928813929    2.4689749972    0.3814009705
C        1.2039338405   -0.4569784140   -0.9963687726
H        2.0381428458   -0.8928537782   -1.5408988493
13   
From optimize.out: Frame 43 / 54, Energy=    -286.9236477094
C        1.3683137671    0.6728772530   -0.1268440600
C        0.3389581692   -1.3465614693   -0.2798400428
C       -0.8875434279   -0.9670925497    0.3007489636
C       -1.5616830947    0.3040514587    0.3596620653
C       -0.8597481832    1.4954852986    0.1091856169
N        0.5137986133    1.6024768773    0.1534431760
H        2.3692564199    0.7638290268    0.3091678495
H        0.8118610214   -2.2871328741   -0.0221791499
H       -1.4727599979   -1.7872558536    0.7303616138
H       -2.5679283826    0.3725813510    0.7623776354
H       -1.2860422879    2.4710255064    0.3543594023
C        1.2019284227   -0.4220553433   -1.0535384696
H        2.0315889605   -0.8722286817   -1.5969046005
13   
From optimize.out: Frame 42 / 54, Energy=    -286.9236367277
C        1.3589091058    0.6314869647   -0.1110992359
C        0.3533686252   -1.3115501433   -0.2802786952
C       -0.8807252852   -0.9500913990    0.3138058748
C       -1.5649382197    0.2999368283    0.3493159936
C       -0.8421998715    1.4883456942    0.1072911617
N        0.5092966458    1.5792061883    0.1543641575
H        2.3321484564    0.6873340587    0.3828395536
H        0.8435647561   -2.2384514855    0.0055079848
H       -1.4454868899   -1.7802847541    0.7494760842
H       -2.5719668259    0.3767294598    0.7495108733
H       -1.2843398247    2.4611092352    0.3313740040
C        1.1909298730   -0.3836869735   -1.1009279631
H        2.0014394545   -0.8600836738   -1.6511797933
13   
From optimize.out: Frame 41 / 54, Energy=    -286.9234069555
C        1.3554686904    0.6022459760   -0.1047743209
C        0.3567695123   -1.2693010275   -0.2905639822
C       -0.8689286666   -0.9308634191    0.3263904160
C       -1.5515160625    0.2931350462    0.3226094549
C       -0.8274713515    1.4817436873    0.0911397921
N        0.4955234715    1.5582646087    0.1623530545
H        2.2907085006    0.6162091293    0.4596626590
H        0.8414579294   -2.1951065217    0.0294029981
H       -1.4010034566   -1.7646548200    0.7908534000
H       -2.5592975957    0.3678083848    0.7214025555
H       -1.2838430956    2.4431586942    0.3244885749
C        1.1815689746   -0.3562245035   -1.1339437622
H        1.9705631496   -0.8464152346   -1.6990208397
13   
From optimize.out: Frame 40 / 54, Energy=    -286.9230060906
C        1.3479439192    0.5520116640   -0.0830212325
C        0.3651200993   -1.2290401303   -0.2725986437
C       -0.8803793925   -0.9278835734    0.3332060833
C       -1.5412492789    0.2853101542    0.3132783568
C       -0.8057953911    1.4782972201    0.1139734940
N        0.4991329767    1.5470219995    0.1861246459
H        2.2725836862    0.5489929916    0.4986734926
H        0.8497315413   -2.1528964591    0.0635056163
H       -1.3825700221   -1.7635310354    0.8225421675
H       -2.5638400244    0.3621406491    0.6710537371
H       -1.2897465624    2.4358924317    0.2968086747
C        1.1745967407   -0.3395358858   -1.1720448585
H        1.9544717080   -0.7967800262   -1.7715015336
13   
From optimize.out: Frame 39 / 54, Energy=    -286.9224891850
C        1.3329774267    0.5001254034   -0.0579198077
C        0.4000893456   -1.1765357316   -0.2226871519
C       -0.8896735838   -0.9285997050    0.3320321188
C       -1.5344385611    0.2797457536    0.3115039074
C       -0.7887112766    1.4804421294    0.1491001378
N        0.5082390289    1.5457472913    0.2083584688
H        2.2768132519    0.5000957480    0.4889878937
H        0.8846049598   -2.1019220168    0.1104030798
H       -1.3836128714   -1.7783579178    0.8014816025
H       -2.5722118905    0.3549982996    0.6234622399
H       -1.2933827284    2.4361446426    0.2855206102
C        1.1457647931   -0.3459829041   -1.1955015985
H        1.9135421058   -0.7659009928   -1.8347415007
13   
From optimize.out: Frame 39 / 54, Energy=    -286.9224891850
C        1.3152112339    0.4531578224   -0.0338947802
C        0.4424332647   -1.1225889269   -0.1639362154
C       -0.8927464778   -0.9293138603    0.3269352192
C       -1.5274268446    0.2756777997    0.3125504569
C       -0.7743930321    1.4840928256    0.1856551930
N        0.5184306524    1.5473491549    0.2260859848
H        2.2854106231    0.4609244105    0.4633293413
H        0.9264683622   -2.0518537460    0.1572844112
H       -1.3872123540   -1.7974247614    0.7585607094
H       -2.5772575561    0.3477367009    0.5821207010
H       -1.2938844687    2.4373658249    0.2801739735
C        1.1064243322   -0.3592198679   -1.2089364381
H        1.8585422646   -0.7459033764   -1.8859285567
13   
From optimize.out: Frame 37 / 54, Energy=    -286.9211341333
C        1.2994029204    0.4088790457   -0.0121710275
C        0.4705452102   -1.0869897269   -0.1214803912
C       -0.9066929670   -0.9334834088    0.3229010187
C       -1.5302914146    0.2742111963    0.3277762604
C       -0.7664890691    1.4866051201    0.1888079637
N        0.5298290680    1.5516209447    0.2251696192
H        2.2831439345    0.4291868554    0.4564865347
H        0.9649634332   -2.0106293126    0.1898696430
H       -1.4108528708   -1.8226728616    0.6927036816
H       -2.5749533719    0.3563535418    0.6132545741
H       -1.2967933081    2.4378482958    0.2569829537
C        1.0941872094   -0.3638894506   -1.2239584560
H        1.8440012260   -0.7270402391   -1.9163423744
13   
From optimize.out: Frame 37 / 54, Energy=    -286.9211341333
C        1.2889747957    0.3875533381   -0.0165525940
C        0.4984865264   -1.0642976263   -0.1057839171
C       -0.9055074495   -0.9259170778    0.3205951966
C       -1.5394126169    0.2703630272    0.3221396362
C       -0.7631696774    1.4891470641    0.2142106329
N        0.5310829255    1.5518182361    0.2304512062
H        2.2897194157    0.4323199647    0.4137163700
H        1.0083160625   -1.9623660536    0.2423696934
H       -1.4099531587   -1.8275292438    0.6613882103
H       -2.5954006536    0.3486479801    0.5610087939
H       -1.2888673984    2.4410222589    0.3139992401
C        1.0721869063   -0.3623753165   -1.2430772875
H        1.8135443224   -0.7783865512   -1.9144651810
13   
From optimize.out: Frame 36 / 54, Energy=    -286.9202632662
C        1.2807676755    0.3764365252   -0.0259566966
C        0.5233109755   -1.0445029876   -0.0822338705
C       -0.8949298089   -0.9143012744    0.3284884039
C       -1.5483868991    0.2698991567    0.3186600070
C       -0.7673512641    1.4940692227    0.2430439807
N        0.5328533385    1.5551852985    0.2340894184
H        2.2954551498    0.4668730744    0.3638772416
H        1.0459715548   -1.9231929239    0.2874613805
H       -1.4087471561   -1.8291889258    0.6144455288
H       -2.6147029476    0.3418380780    0.5106964131
H       -1.2948176198    2.4424889598    0.3775425174
C        1.0740133945   -0.3536750398   -1.2689375671
H        1.7765636072   -0.8819291636   -1.9011767573
13   
From optimize.out: Frame 35 / 54, Energy=    -286.9189562713
C        1.2734493965    0.3835733246   -0.0329574150
C        0.5438225760   -1.0191945697   -0.0488961397
C       -0.8794401543   -0.9092623686    0.3273519255
C       -1.5439593634    0.2685123207    0.3134397682
C       -0.7672553116    1.4976197257    0.2665774723
N        0.5315377369    1.5725744396    0.2291054270
H        2.2936554166    0.4952730242    0.3366209926
H        1.0800701097   -1.8948131629    0.3035531973
H       -1.3972855709   -1.8323140598    0.5765763316
H       -2.6151812287    0.3330832057    0.4785001370
H       -1.3045417794    2.4383085477    0.4191535156
C        1.0829249939   -0.3304905629   -1.2949639777
H        1.7022031787   -1.0028698644   -1.8740612347
13   
From optimize.out: Frame 34 / 54, Energy=    -286.9170572648
C        1.2667573688    0.3969899626   -0.0403797846
C        0.5630454973   -0.9781491864   -0.0175137401
C       -0.8652048368   -0.9081185879    0.3165612910
C       -1.5355354342    0.2659131988    0.3114769204
C       -0.7627286746    1.4987213575    0.2893284949
N        0.5273880530    1.5883903860    0.2238440988
H        2.2990282115    0.5360796251    0.2836362521
H        1.1139700753   -1.8530423895    0.3112997771
H       -1.3806177062   -1.8429210224    0.5233634108
H       -2.6090628676    0.3260568458    0.4598857652
H       -1.3068954696    2.4327789408    0.4559546687
C        1.0602638602   -0.3599090367   -1.2886972236
H        1.6295919228   -1.1027900938   -1.8287599308
13   
From optimize.out: Frame 33 / 54, Energy=    -286.9144284735
C        1.2620512280    0.4077795254   -0.0506570149
C        0.5790710687   -0.9397727541    0.0283640057
C       -0.8507075542   -0.9070360566    0.3067634970
C       -1.5269561629    0.2640079798    0.3120296772
C       -0.7600623032    1.4994927953    0.3141216481
N        0.5209264283    1.6042771068    0.2108155234
H        2.3024601392    0.5696838727    0.2379370713
H        1.1400862092   -1.8209803893    0.3206516705
H       -1.3665021886   -1.8517675538    0.4632388498
H       -2.6027246983    0.3176722517    0.4432533404
H       -1.3115185463    2.4261448117    0.4955556351
C        1.0599802000   -0.3670021858   -1.3036613645
H        1.5538961800   -1.2024994039   -1.7784125391
13   
From optimize.out: Frame 33 / 54, Energy=    -286.9144284735
C        1.2604634009    0.4134595401   -0.0655865425
C        0.5795569635   -0.9012206369    0.0861013054
C       -0.8462439634   -0.9079403672    0.2925649595
C       -1.5231619940    0.2627398428    0.3178293986
C       -0.7588741511    1.4973053492    0.3363454670
N        0.5055379196    1.6126753037    0.1910647807
H        2.3044310705    0.6018298302    0.1970459178
H        1.1491095155   -1.7928783778    0.3293314038
H       -1.3599814186   -1.8608745763    0.4010712666
H       -2.5998158769    0.3106725789    0.4401182800
H       -1.3124606815    2.4182957915    0.5341816683
C        1.0930802945   -0.3658231419   -1.3383435184
H        1.5083589209   -1.2882411363   -1.7217243870
13   
From optimize.out: Frame 32 / 54, Energy=    -286.9110127988
C        1.2683503203    0.4037793881   -0.0778898625
C        0.5565417476   -0.8849252568    0.1566570240
C       -0.8606537485   -0.9103654546    0.2877577418
C       -1.5334057879    0.2635505971    0.3355625732
C       -0.7658946717    1.4912839659    0.3416629643
N        0.4833266558    1.6046972804    0.1557909881
H        2.3018102226    0.6193483961    0.2086073743
H        1.1203801155   -1.7974947682    0.3378167050
H       -1.3782969415   -1.8652795122    0.3571194599
H       -2.6094084778    0.3087946102    0.4603886445
H       -1.3100060024    2.4145524185    0.5498299390
C        1.2038201311   -0.3304048493   -1.3992873846
H        1.5234364368   -1.3175368153   -1.7140161669
13   
From optimize.out: Frame 31 / 54, Energy=    -286.8999520691
C        1.2660593924    0.3851737619   -0.0745976357
C        0.5636934008   -0.8955754676    0.1921464694
C       -0.8558951255   -0.9102324913    0.2793621437
C       -1.5345385676    0.2637379314    0.3245687172
C       -0.7636204004    1.4900511783    0.3414183040
N        0.4894456951    1.5942825539    0.1586291789
H        2.2925987741    0.5756754517    0.2484015938
H        1.1197546206   -1.8117107000    0.3733644458
H       -1.3757640210   -1.8626801130    0.3579341020
H       -2.6106457023    0.3077180740    0.4460268379
H       -1.3051537405    2.4154049761    0.5486122518
C        1.2350974080   -0.2740006266   -1.4349883574
H        1.4789682662   -1.2778445289   -1.7608780514
13   
From optimize.out: Frame 30 / 54, Energy=    -286.8972661937
C        1.2537536351    0.3651343923   -0.0638895032
C        0.5897453176   -0.9083857451    0.2112461381
C       -0.8363379064   -0.9106541927    0.2743334771
C       -1.5261093655    0.2626618645    0.2995738246
C       -0.7531877307    1.4919933297    0.3436887874
N        0.5118762300    1.5862184397    0.1899674247
H        2.2808858611    0.5057611204    0.2824274590
H        1.1481872644   -1.8155232296    0.4138317146
H       -1.3546845379   -1.8615683663    0.3754839110
H       -2.6043036473    0.3055802093    0.4007311815
H       -1.2975239251    2.4183880568    0.5429575601
C        1.2039471662   -0.2155240076   -1.4576129699
H        1.3837516384   -1.2240818716   -1.8127390049
13   
From optimize.out: Frame 29 / 54, Energy=    -286.8842192281
C        1.2389417935    0.3603995407   -0.0639020210
C        0.6098425299   -0.9072646137    0.2132474288
C       -0.8189616727   -0.9090224268    0.2706177987
C       -1.5170691208    0.2617193889    0.2932599764
C       -0.7431127485    1.5005563176    0.3420848718
N        0.5252331738    1.5945207240    0.1931612784
H        2.2639353293    0.4737275813    0.3091500719
H        1.1752452267   -1.8120974626    0.3883171636
H       -1.3239713858   -1.8634820025    0.3944494422
H       -2.5962801492    0.3001198923    0.3905243398
H       -1.2970388727    2.4252250427    0.5301502510
C        1.1934508378   -0.1969478811   -1.4690923112
H        1.2897850586   -1.2274541009   -1.7919682904
13   
From optimize.out: Frame 28 / 54, Energy=    -286.8728919275
C        1.2338062349    0.3798481198   -0.0780950698
C        0.6027648006   -0.8885518391    0.1903856036
C       -0.8206992298   -0.9064345401    0.2732567143
C       -1.5155646148    0.2619399595    0.3186033757
C       -0.7425727076    1.5104503053    0.3357686811
N        0.5143368604    1.6174125142    0.1547727937
H        2.2540107067    0.5207657839    0.3048934468
H        1.1751171385   -1.8026179168    0.2937359306
H       -1.3081614413   -1.8680656709    0.4004397066
H       -2.5934731254    0.2953620284    0.4376450922
H       -1.3066036323    2.4314861517    0.5170261842
C        1.2237780244   -0.2478731718   -1.4553647299
H        1.2832609857   -1.3037217242   -1.6930677292
13   
From optimize.out: Frame 27 / 54, Energy=    -286.8676897409
C        1.2332795142    0.3780954639   -0.0789265631
C        0.5822515619   -0.8858010682    0.1832648347
C       -0.8326088277   -0.9103180875    0.2900139061
C       -1.5204217589    0.2638956716    0.3370479918
C       -0.7451270333    1.5121246428    0.3232129842
N        0.5074613327    1.6214287730    0.1338595694
H        2.2419904821    0.5331653655    0.3312138640
H        1.1555148840   -1.8084275841    0.2374013970
H       -1.3155161274   -1.8725855676    0.4230341887
H       -2.5981421360    0.2988119988    0.4638783721
H       -1.3091991816    2.4358890484    0.4904802993
C        1.2778775819   -0.2553238083   -1.4500331781
H        1.3226397081   -1.3109548484   -1.6844476660
13   
From optimize.out: Frame 27 / 54, Energy=    -286.8676897409
C        1.2378117879    0.3541612249   -0.0652730764
C        0.5527483486   -0.9008133098    0.1948123282
C       -0.8522703368   -0.9200978619    0.3174710063
C       -1.5308036539    0.2671935007    0.3433092565
C       -0.7503185724    1.5045845701    0.3072733694
N        0.5066747920    1.6042404025    0.1370682088
H        2.2308714830    0.5053388233    0.3833119752
H        1.1202365131   -1.8290463617    0.2366189922
H       -1.3456860484   -1.8758570387    0.4574587839
H       -2.6095749975    0.3101255973    0.4609568501
H       -1.3036750096    2.4371579189    0.4565344283
C        1.3432343542   -0.2144053276   -1.4550594263
H        1.4007513397   -1.2425821380   -1.7744826962
13   
From optimize.out: Frame 26 / 54, Energy=    -286.8634857259
C        1.2425410318    0.3299425033   -0.0521478479
C        0.5234773666   -0.9167757287    0.2056499871
C       -0.8718703623   -0.9300538639    0.3439615471
C       -1.5408280175    0.2702943493    0.3485864389
C       -0.7551382018    1.4967015158    0.2919890013
N        0.5067966066    1.5868136938    0.1405824963
H        2.2198925901    0.4752457929    0.4343185533
H        1.0855238290   -1.8501081514    0.2379302948
H       -1.3763191463   -1.8787504218    0.4919991755
H       -2.6205989003    0.3213047770    0.4569204670
H       -1.2975962872    2.4379578144    0.4237880272
C        1.4063303655   -0.1724246466   -1.4595907171
H        1.4777891259   -1.1701476341   -1.8639874234
13   
From optimize.out: Frame 25 / 54, Energy=    -286.8606361842
C        1.2481390373    0.3047462968   -0.0417640947
C        0.4957863120   -0.9370382686    0.2129122649
C       -0.8908631406   -0.9406958572    0.3653965144
C       -1.5489787242    0.2724015344    0.3490623053
C       -0.7580982426    1.4873000869    0.2800892521
N        0.5112706534    1.5685223924    0.1455058627
H        2.2097603534    0.4347682601    0.4792795855
H        1.0540762517   -1.8729576708    0.2492568123
H       -1.4086840156   -1.8797853155    0.5265438777
H       -2.6294866924    0.3316613693    0.4476043920
H       -1.2889562713    2.4364969374    0.3973134001
C        1.4575834028   -0.1260217337   -1.4616771911
H        1.5484510761   -1.0793980314   -1.9495229811
13   
From optimize.out: Frame 24 / 54, Energy=    -286.8584099581
C        1.2544285467    0.2788864819   -0.0337323111
C        0.4695821573   -0.9607686439    0.2171451765
C       -0.9092338650   -0.9518461997    0.3824803541
C       -1.5555155988    0.2736662653    0.3455262638
C       -0.7594876303    1.4766877689    0.2710876678
N        0.5193516555    1.5496199327    0.1515759750
H        2.2003964179    0.3858649379    0.5189204151
H        1.0255454212   -1.8971615514    0.2688772947
H       -1.4422989014   -1.8792621320    0.5608829925
H       -2.6365370439    0.3412683986    0.4339362677
H       -1.2782299338    2.4331571959    0.3762359276
C        1.4986373711   -0.0762073187   -1.4617096455
H        1.6133614037   -0.9739051356   -2.0312263783
13   
From optimize.out: Frame 23 / 54, Energy=    -286.8574167166
C        1.2607073796    0.2530705642   -0.0257141616
C        0.4434224843   -0.9844587368    0.2213709027
C       -0.9275734051   -0.9629776145    0.3995351939
C       -1.5620413770    0.2749288494    0.3419962248
C       -0.7608746596    1.4660934653    0.2621013638
N        0.5274189400    1.5307495601    0.1576357832
H        2.1910483778    0.3370446295    0.5584939541
H        0.9970630219   -1.9213243456    0.2884644713
H       -1.4758567256   -1.8787398365    0.5951638164
H       -2.6435754275    0.3508591200    0.4202913453
H       -1.2675218044    2.4298231236    0.3551942343
C        1.5396216499   -0.0264774640   -1.4617420447
H        1.6781615454   -0.8685913148   -2.1127910834
13   
From optimize.out: Frame 22 / 54, Energy=    -286.8568957393
C        1.2649955545    0.2255842256   -0.0165032909
C        0.4303202681   -1.0032084525    0.2437811613
C       -0.9347820236   -0.9730385062    0.4044010821
C       -1.5591619718    0.2737682835    0.3313735815
C       -0.7572433392    1.4544665591    0.2600765081
N        0.5385496774    1.5095888744    0.1760031230
H        2.1950752228    0.2950492067    0.5704710150
H        0.9751892513   -1.9430933857    0.3351737951
H       -1.4990319457   -1.8796089967    0.6002668036
H       -2.6411702957    0.3538409002    0.3937369403
H       -1.2522442994    2.4243196040    0.3463676993
C        1.5449978208    0.0204737057   -1.4597568725
H        1.6945060803   -0.7581420182   -2.1853915457
13   
From optimize.out: Frame 21 / 54, Energy=    -286.8564228935
C        1.2669296732    0.1971164131   -0.0062586188
C        0.4321787530   -1.0158566946    0.2857265652
C       -0.9293639163   -0.9815855002    0.3955368468
C       -1.5459003033    0.2699462209    0.3131917170
C       -0.7481393087    1.4420614207    0.2658691927
N        0.5527362207    1.4865541027    0.2074897985
H        2.2138686052    0.2619972356    0.5513315896
H        0.9613747330   -1.9615005270    0.4105949464
H       -1.5099033152   -1.8819999979    0.5727119712
H       -2.6283250471    0.3493671226    0.3536545902
H       -1.2323664650    2.4165759895    0.3514271090
C        1.5105461982    0.0628291281   -1.4555882521
H        1.6563641723   -0.6455049134   -2.2456874557
13   