13   
From optimize.out: Frame 53 / 54, Energy=    -286.9243193938
C        1.4248047795    0.8351905861   -0.3608573685
C        0.2641754905   -1.4178065682   -0.2075422499
C       -0.9823267957   -1.0560105798    0.2082138302
C       -1.4531096034    0.2801671230    0.4719680000
C       -0.7560878234    1.4684735380    0.3605923550
N        0.5127386001    1.7692626350   -0.0041128838
H        2.3887301342    1.2820544124   -0.6143378257
H        0.4497371851   -2.4790931123   -0.3605291759
H       -1.7079332310   -1.8526234531    0.3598812301
H       -2.4868337669    0.3703446867    0.7968987782
H       -1.3309948254    2.3624711309    0.6124714574
C        1.3779230141   -0.5422021264   -0.4692217660
H        2.2991768418   -1.0202282729   -0.7934243814
13   
From optimize.out: Frame 52 / 54, Energy=    -286.9243178579
C        1.4234040941    0.8319390173   -0.3366936271
C        0.2605626440   -1.4233983961   -0.2248207953
C       -0.9691904717   -1.0595370398    0.2360685650
C       -1.4405418738    0.2811581117    0.4895765368
C       -0.7618329918    1.4740875913    0.3476365063
N        0.5227101521    1.7721783511    0.0230116516
H        2.3975580721    1.2702469653   -0.5644768167
H        0.4371320036   -2.4836050915   -0.3952315528
H       -1.6960667715   -1.8520192151    0.4006537845
H       -2.4795328020    0.3687708891    0.7991006727
H       -1.3545962133    2.3703154495    0.5430649568
C        1.3693005866   -0.5417913940   -0.4894720929
H        2.2910935716   -1.0083452386   -0.8284177889
13   
From optimize.out: Frame 51 / 54, Energy=    -286.9243161834
C        1.4241877979    0.8313638964   -0.3251414857
C        0.2583290936   -1.4223429210   -0.2288886827
C       -0.9650151916   -1.0593635793    0.2561239688
C       -1.4432721415    0.2832431812    0.4918241124
C       -0.7633781864    1.4725417374    0.3422180239
N        0.5299637242    1.7678891985    0.0454507719
H        2.4075353355    1.2652398245   -0.5265402554
H        0.4295384126   -2.4830422153   -0.4029501559
H       -1.6834857089   -1.8567654713    0.4342551729
H       -2.4860912614    0.3746683583    0.7860296527
H       -1.3643744850    2.3688477711    0.5087907943
C        1.3689807463   -0.5410071713   -0.5133747720
H        2.2870818646   -1.0012726092   -0.8677971452
13   
From optimize.out: Frame 51 / 54, Energy=    -286.9243161834
C        1.4419873649    0.8288449202   -0.2967938736
C        0.2548387560   -1.4138342877   -0.2268034456
C       -0.9621643630   -1.0604048882    0.2758411697
C       -1.4533337860    0.2809863197    0.4674585554
C       -0.7649334051    1.4643213993    0.3394462874
N        0.5495820654    1.7435549874    0.1169184435
H        2.4158096233    1.2777193795   -0.5075757605
H        0.4393039719   -2.4760564743   -0.3744171634
H       -1.6659648440   -1.8592365725    0.4988646302
H       -2.5084243540    0.3739652350    0.7158337936
H       -1.3550335227    2.3703310838    0.4874539732
C        1.3561538010   -0.5358738589   -0.5425802216
H        2.2521786923   -0.9943172432   -0.9536463884
13   
From optimize.out: Frame 50 / 54, Energy=    -286.9243146828
C        1.4604334445    0.8425815983   -0.2809027057
C        0.2518883578   -1.4030442940   -0.2197508373
C       -0.9674380881   -1.0665437780    0.2906355199
C       -1.4633935013    0.2801219359    0.4507341767
C       -0.7606227089    1.4501203576    0.3567401974
N        0.5771250944    1.7261066457    0.1747086216
H        2.4450235861    1.2714776986   -0.4795989774
H        0.4643320074   -2.4646329280   -0.3381585332
H       -1.6516750377   -1.8699771075    0.5530651853
H       -2.5283371890    0.3783189768    0.6525168829
H       -1.3548985431    2.3599207356    0.4589939780
C        1.3214369281   -0.5172059068   -0.5971504997
H        2.2061256497   -0.9872439340   -1.0218330086
13   
From optimize.out: Frame 49 / 54, Energy=    -286.9243078607
C        1.4586531880    0.8655982298   -0.2806265030
C        0.2742034686   -1.3922228377   -0.1916703723
C       -0.9671936211   -1.0639043977    0.3220510070
C       -1.4632292887    0.2773402861    0.4438254503
C       -0.7625868101    1.4469585761    0.3488039461
N        0.5829998597    1.7133989987    0.1838068323
H        2.4760909226    1.2511416681   -0.3890093457
H        0.4757381498   -2.4573191516   -0.3109085185
H       -1.6451672973   -1.8765290920    0.5672521137
H       -2.5301855018    0.3787799855    0.6362960555
H       -1.3597416382    2.3556783582    0.4277844450
C        1.2940764346   -0.5181542982   -0.6506398486
H        2.1663421339   -0.9807663252   -1.1069652617
13   
From optimize.out: Frame 49 / 54, Energy=    -286.9243078607
C        1.4641281834    0.8872881609   -0.2885810578
C        0.2845267911   -1.4057340596   -0.1655640474
C       -0.9638032837   -1.0682737960    0.3579863052
C       -1.4571126870    0.2743344057    0.4293899173
C       -0.7760971362    1.4606738180    0.3162136960
N        0.5722945514    1.7160137876    0.1826024130
H        2.4932613091    1.2542425522   -0.3405482187
H        0.4535231353   -2.4688588435   -0.3457798568
H       -1.6465750677   -1.8758836213    0.6007811449
H       -2.5285185771    0.3656900361    0.6152884016
H       -1.3618047010    2.3701118339    0.4344459590
C        1.3114268235   -0.5293213185   -0.6398791003
H        2.1547506588   -0.9802829555   -1.1563555562
13   
From optimize.out: Frame 48 / 54, Energy=    -286.9242922217
C        1.4624591176    0.8887187486   -0.2807742356
C        0.2973556771   -1.3949722057   -0.1783597636
C       -0.9475424357   -1.0607250851    0.3515469062
C       -1.4520522629    0.2750839719    0.4215420517
C       -0.7884788612    1.4677199437    0.2849639447
N        0.5627576986    1.7200736871    0.1728565690
H        2.5064827888    1.2024251219   -0.2455316981
H        0.4866937375   -2.4602995408   -0.3224624281
H       -1.6187465057   -1.8702841763    0.6190685044
H       -2.5179800297    0.3539928098    0.6399553269
H       -1.3651626159    2.3804775479    0.4149970418
C        1.2755726517   -0.5179173851   -0.6719824779
H        2.0986410397   -0.9842934380   -1.2058197414
13   
From optimize.out: Frame 47 / 54, Energy=    -286.9242289355
C        1.4543707827    0.8778301960   -0.2668678255
C        0.3058361697   -1.3820958735   -0.1880376003
C       -0.9363558913   -1.0501077899    0.3386592472
C       -1.4494695853    0.2779476270    0.4118801855
C       -0.8000510405    1.4722422674    0.2566612349
N        0.5559977031    1.7153741932    0.1672659928
H        2.5064028510    1.1526478971   -0.1541064468
H        0.5230668261   -2.4488218126   -0.2707371491
H       -1.5982822218   -1.8605430091    0.6273856579
H       -2.5092376301    0.3449556188    0.6618735627
H       -1.3627118344    2.3898429556    0.4025668951
C        1.2477555058   -0.5146021865   -0.7186111888
H        2.0626783650   -0.9746700836   -1.2679325656
13   
From optimize.out: Frame 46 / 54, Energy=    -286.9240998424
C        1.4370788212    0.8492767105   -0.2468441258
C        0.2992866174   -1.3766614482   -0.1852576821
C       -0.9392011513   -1.0370183781    0.3231695969
C       -1.4539209905    0.2850513846    0.3939014521
C       -0.8147124202    1.4739054387    0.2313495652
N        0.5536515766    1.6946078281    0.1707180420
H        2.4835967800    1.1178925159   -0.0876108174
H        0.5452512899   -2.4414820340   -0.1783725883
H       -1.6020933497   -1.8419718500    0.6241641661
H       -2.5081701857    0.3393659739    0.6666619095
H       -1.3494545650    2.3994813581    0.4200428272
C        1.2585456998   -0.5304676505   -0.7820150702
H        2.0901418774   -0.9319798490   -1.3499072752
13   
From optimize.out: Frame 45 / 54, Energy=    -286.9239263475
C        1.4365883933    0.8636978364   -0.2554285788
C        0.2727424107   -1.4178427749   -0.2296392357
C       -0.9289419809   -1.0362926734    0.3047987317
C       -1.4667997501    0.2900237372    0.3892467903
C       -0.8449660101    1.4732872974    0.1886369912
N        0.5462396991    1.6915642397    0.1442937305
H        2.4731027553    1.1051754839   -0.0094343196
H        0.5243348554   -2.4776017954   -0.1595202130
H       -1.5982915017   -1.8239988338    0.6435332905
H       -2.4984331652    0.3313490417    0.7310517481
H       -1.3279373244    2.4195430934    0.4147354608
C        1.2821591281   -0.5095173806   -0.8095881081
H        2.1302024903   -0.9093872717   -1.3526862878
13   
From optimize.out: Frame 45 / 54, Energy=    -286.9239263475
C        1.4320876753    0.8532619579   -0.2447904547
C        0.2761422819   -1.4231386679   -0.2495075782
C       -0.9147758639   -1.0288097302    0.2962644411
C       -1.4800578189    0.2930280982    0.3823004571
C       -0.8609216742    1.4775664921    0.1627820174
N        0.5397921152    1.6873028519    0.1353702684
H        2.4636162227    1.0623958927    0.0554847835
H        0.5518331132   -2.4707220221   -0.1382625234
H       -1.5787277151   -1.8143910067    0.6571520875
H       -2.4996286186    0.3277544069    0.7591195524
H       -1.3163666262    2.4355526061    0.4070727611
C        1.2699181981   -0.4938819691   -0.8438616038
H        2.1170887107   -0.9059189098   -1.3791242082
13   
From optimize.out: Frame 44 / 54, Energy=    -286.9238356154
C        1.4219162975    0.8167452759   -0.2146690319
C        0.3062499880   -1.3930691454   -0.2429470375
C       -0.8994544720   -1.0141358658    0.2959570432
C       -1.4923673334    0.2947879421    0.3715617371
C       -0.8632285298    1.4860671514    0.1528736392
N        0.5348601308    1.6794484970    0.1447528937
H        2.4531033540    0.9925115488    0.1081599922
H        0.6241106108   -2.4233037095   -0.1041996868
H       -1.5477943293   -1.8113275585    0.6628622796
H       -2.5107780434    0.3280262022    0.7495506609
H       -1.3139073975    2.4468037523    0.4009199687
C        1.2273460994   -0.4879186810   -0.8887599070
H        2.0599436249   -0.9146354096   -1.4360625514
13   
From optimize.out: Frame 43 / 54, Energy=    -286.9236477094
C        1.4098019203    0.7784110976   -0.1848202675
C        0.3308502978   -1.3677088968   -0.2422741188
C       -0.8866478979   -0.9992366482    0.2953322074
C       -1.5076099185    0.2972265664    0.3620809931
C       -0.8660419279    1.4939175958    0.1401194108
N        0.5287493617    1.6674439599    0.1527420347
H        2.4389441904    0.9223969160    0.1633631659
H        0.6937858930   -2.3773990868   -0.0724117734
H       -1.5178287101   -1.8066054068    0.6734484869
H       -2.5237035270    0.3317828817    0.7441099741
H       -1.3093482267    2.4579401690    0.3942197010
C        1.1933585640   -0.4798921405   -0.9351264687
H        2.0156899809   -0.9182770073   -1.4907833456
13   
From optimize.out: Frame 43 / 54, Energy=    -286.9236477094
C        1.3875979360    0.7306390253   -0.1563873637
C        0.3268518007   -1.3668029661   -0.2721744442
C       -0.8869002700   -0.9831672168    0.2930589805
C       -1.5380833524    0.3031899612    0.3591326665
C       -0.8714856999    1.4983916041    0.1125872517
N        0.5165173996    1.6338883560    0.1534950908
H        2.4058505459    0.8510864389    0.2316935564
H        0.7499483906   -2.3393547533   -0.0524370816
H       -1.4928885101   -1.7932699397    0.7093548656
H       -2.5458517291    0.3536358682    0.7601062291
H       -1.2938844771    2.4684808183    0.3846765032
C        1.2039489491   -0.4611515433   -0.9891174032
H        2.0383790167   -0.8955656529   -1.5339888510
13   
From optimize.out: Frame 42 / 54, Energy=    -286.9236367277
C        1.3703833739    0.6814102309   -0.1304774319
C        0.3357956390   -1.3523589745   -0.2806077142
C       -0.8880822413   -0.9697870075    0.2984074043
C       -1.5600914070    0.3046701257    0.3603349822
C       -0.8632305795    1.4967896306    0.1081203155
N        0.5138150614    1.6067197034    0.1534140716
H        2.3754621102    0.7780212604    0.2963605092
H        0.8041518848   -2.2961708603   -0.0274965450
H       -1.4763730599   -1.7878684328    0.7280341252
H       -2.5659597719    0.3710058412    0.7642060980
H       -1.2862986814    2.4722180321    0.3599053798
C        1.2038346914   -0.4295923715   -1.0439556785
H        2.0365929804   -0.8750571776   -1.5862455162
13   
From optimize.out: Frame 41 / 54, Energy=    -286.9234069555
C        1.3596569620    0.6371852907   -0.1116462975
C        0.3521864830   -1.3223115139   -0.2766290067
C       -0.8852896650   -0.9558221011    0.3105432986
C       -1.5683408474    0.3014636825    0.3568473713
C       -0.8451819255    1.4900295050    0.1136415877
N        0.5137298139    1.5847298739    0.1535649144
H        2.3432990970    0.7044653821    0.3627387262
H        0.8441069991   -2.2493285503    0.0000625885
H       -1.4576471880   -1.7846935416    0.7400970936
H       -2.5761627388    0.3791714344    0.7547294944
H       -1.2849698384    2.4660373789    0.3311615433
C        1.1939548326   -0.3905292652   -1.0936216181
H        2.0106580157   -0.8603975754   -1.6414896956
13   
From optimize.out: Frame 40 / 54, Energy=    -286.9230060906
C        1.3565900898    0.6138171120   -0.1094028606
C        0.3570343123   -1.2781803721   -0.2915959591
C       -0.8665716691   -0.9323211515    0.3239227479
C       -1.5543870629    0.2952022293    0.3259620585
C       -0.8329528653    1.4831243909    0.0875992220
N        0.4955499022    1.5620778752    0.1568425183
H        2.2975716040    0.6342117972    0.4451699050
H        0.8418833232   -2.2047229599    0.0223935317
H       -1.4077792056   -1.7666136119    0.7785592543
H       -2.5589557833    0.3691571778    0.7333285299
H       -1.2823862249    2.4458276288    0.3320328201
C        1.1815498217   -0.3624698147   -1.1235840976
H        1.9728537578   -0.8591103010   -1.6812276706
13   
From optimize.out: Frame 39 / 54, Energy=    -286.9224891850
C        1.3525832888    0.5724730211   -0.0928649195
C        0.3560881722   -1.2464541500   -0.2879086682
C       -0.8749933072   -0.9271126205    0.3327398161
C       -1.5441288737    0.2878161089    0.3139830836
C       -0.8133672167    1.4781910866    0.1002498079
N        0.4954554644    1.5484529350    0.1765318650
H        2.2730494856    0.5698876085    0.4969530430
H        0.8403633758   -2.1703630757    0.0474386106
H       -1.3835692075   -1.7596147770    0.8224866852
H       -2.5601770916    0.3643378912    0.6907165885
H       -1.2875916770    2.4362914283    0.3050769570
C        1.1816182557   -0.3401550902   -1.1605995568
H        1.9646693312   -0.8137503662   -1.7448033124
13   
From optimize.out: Frame 39 / 54, Energy=    -286.9224891850
C        1.3415398987    0.5237675358   -0.0694333576
C        0.3775874497   -1.2050024380   -0.2514652315
C       -0.8878141528   -0.9289477693    0.3338497019
C       -1.5372743888    0.2818510235    0.3123055769
C       -0.7953435129    1.4784437231    0.1329171814
N        0.5042092838    1.5450467873    0.1993661788
H        2.2719407133    0.5201508070    0.5010483400
H        0.8626630230   -2.1287861640    0.0856839386
H       -1.3811907822   -1.7689368990    0.8226187534
H       -2.5688962063    0.3591076545    0.6439118377
H       -1.2927210895    2.4353416710    0.2853954325
C        1.1649044915   -0.3386811581   -1.1878435451
H        1.9403952724   -0.7733547737   -1.8083548069
13   
From optimize.out: Frame 38 / 54, Energy=    -286.9217452679
C        1.3246552274    0.4771466965   -0.0467293413
C        0.4219598125   -1.1488678337   -0.1947166182
C       -0.8914808369   -0.9282614077    0.3302655391
C       -1.5316823100    0.2776995600    0.3107247337
C       -0.7822651485    1.4823844581    0.1648289818
N        0.5121556948    1.5464281385    0.2170984248
H        2.2815490615    0.4806034570    0.4772658774
H        0.9059311806   -2.0758117084    0.1344285736
H       -1.3859669940   -1.7875145719    0.7809375843
H       -2.5754345329    0.3510042580    0.6035864814
H       -1.2940258010    2.4369250819    0.2856422752
C        1.1271621767   -0.3530797547   -1.2029447582
H        1.8874424700   -0.7586563735   -1.8603877535
13   
From optimize.out: Frame 37 / 54, Energy=    -286.9211341333
C        1.3063036817    0.4305315734   -0.0217892528
C        0.4617437761   -1.0978027246   -0.1349042126
C       -0.8939402272   -0.9303065311    0.3237940693
C       -1.5234130997    0.2737708803    0.3142724748
C       -0.7669680705    1.4857041537    0.2052984259
N        0.5243491776    1.5482178555    0.2345630300
H        2.2890528388    0.4423631806    0.4501844337
H        0.9458389831   -2.0292566528    0.1788419828
H       -1.3883869745   -1.8067720286    0.7374548944
H       -2.5789770273    0.3446547488    0.5618742281
H       -1.2937511643    2.4377815327    0.2750162844
C        1.0868644467   -0.3650112080   -1.2145877763
H        1.8312836596   -0.7338747799   -1.9100185815
13   
From optimize.out: Frame 37 / 54, Energy=    -286.9211341333
C        1.2974570459    0.4027734727   -0.0094588834
C        0.4730270358   -1.0839406812   -0.1176951463
C       -0.9102889805   -0.9343792238    0.3226491966
C       -1.5322309597    0.2743353565    0.3315840537
C       -0.7663540004    1.4868591744    0.1841579884
N        0.5313742858    1.5525805467    0.2225208681
H        2.2814777435    0.4254713994    0.4582635991
H        0.9703561397   -2.0053767810    0.1929792192
H       -1.4171877973   -1.8271565736    0.6800847487
H       -2.5738187828    0.3596523637    0.6277427879
H       -1.2976511308    2.4378671216    0.2518979208
C        1.0962520797   -0.3635731378   -1.2266007974
H        1.8475873213   -0.7251130375   -1.9181255556
13   
From optimize.out: Frame 36 / 54, Energy=    -286.9202632662
C        1.2889929068    0.3875796346   -0.0165316837
C        0.4984315680   -1.0643407024   -0.1058345212
C       -0.9055301255   -0.9259432424    0.3205770184
C       -1.5393915149    0.2703639628    0.3221470497
C       -0.7631600942    1.4891361401    0.2141467646
N        0.5310787397    1.5518123800    0.2304422780
H        2.2897059118    0.4322432594    0.4138285873
H        1.0082329909   -1.9624534216    0.2422676631
H       -1.4099547693   -1.8275256580    0.6614924507
H       -2.5953563225    0.3486626976    0.5611210466
H       -1.2888548413    2.4410184445    0.3138574150
C        1.0721841019   -0.3623921375   -1.2430209735
H        1.8136214487   -0.7781613570   -1.9144930948
13   
From optimize.out: Frame 35 / 54, Energy=    -286.9189562713
C        1.2811131920    0.3761386534   -0.0256292441
C        0.5223427020   -1.0455993087   -0.0838178504
C       -0.8956643263   -0.9145596282    0.3284859343
C       -1.5485725041    0.2699569285    0.3189216216
C       -0.7673295357    1.4938889097    0.2419343584
N        0.5328999071    1.5543602531    0.2343267455
H        2.2955811625    0.4656159270    0.3650054623
H        1.0443754700   -1.9244416674    0.2866586860
H       -1.4092540188   -1.8290857259    0.6161399299
H       -2.6146437535    0.3422594545    0.5122825172
H       -1.2943181370    2.4426780150    0.3755621736
C        1.0734042182   -0.3550737144   -1.2675218707
H        1.7800656237   -0.8761380966   -1.9023484637
13   
From optimize.out: Frame 34 / 54, Energy=    -286.9170572648
C        1.2741889696    0.3821080653   -0.0321914588
C        0.5417470996   -1.0236288110   -0.0520745711
C       -0.8809444485   -0.9093821658    0.3285354248
C       -1.5448529414    0.2687991695    0.3136788120
C       -0.7677649782    1.4975024185    0.2641714128
N        0.5319666636    1.5708943305    0.2295706624
H        2.2930558410    0.4908094146    0.3423956913
H        1.0763613330   -1.8994165962    0.3027448461
H       -1.3990963866   -1.8311538728    0.5821837890
H       -2.6158300153    0.3338149837    0.4804966705
H       -1.3043278729    2.4388893095    0.4152486655
C        1.0856122344   -0.3270439923   -1.2958927145
H        1.7098845017   -0.9921922535   -1.8788672299
13   
From optimize.out: Frame 33 / 54, Energy=    -286.9144284735
C        1.2673218652    0.3957133303   -0.0393035350
C        0.5610183690   -0.9824558756   -0.0225621155
C       -0.8669767361   -0.9082698211    0.3175463655
C       -1.5365558675    0.2661357132    0.3114592357
C       -0.7630326082    1.4985916423    0.2865122204
N        0.5279839822    1.5864945250    0.2252508458
H        2.2986230368    0.5322550411    0.2887763047
H        1.1107981646   -1.8566726744    0.3102505707
H       -1.3822825526   -1.8419264719    0.5301172767
H       -2.6098058842    0.3270202595    0.4619584047
H       -1.3063140433    2.4334968042    0.4515060836
C        1.0606605975   -0.3590461812   -1.2872691828
H        1.6385616765   -1.0913362913   -1.8342424746
13   
From optimize.out: Frame 33 / 54, Energy=    -286.9144284735
C        1.2625031511    0.4066110535   -0.0484907295
C        0.5783225554   -0.9456926616    0.0205323584
C       -0.8518512627   -0.9069788481    0.3091374688
C       -1.5278451371    0.2642362626    0.3116101978
C       -0.7604381381    1.4996989309    0.3105527995
N        0.5228969490    1.6026781736    0.2132424238
H        2.3020817318    0.5649028576    0.2448992465
H        1.1378745623   -1.8256834548    0.3192069163
H       -1.3680709156   -1.8504162579    0.4724642159
H       -2.6034632676    0.3187962659    0.4442657215
H       -1.3112772757    2.4273689035    0.4894805635
C        1.0572739267   -0.3664117788   -1.2994593753
H        1.5619931205   -1.1891094463   -1.7874418072
13   
From optimize.out: Frame 32 / 54, Energy=    -286.9110127988
C        1.2594073792    0.4146153418   -0.0633302584
C        0.5834500351   -0.9051400005    0.0741808556
C       -0.8440166092   -0.9073707391    0.2928752430
C       -1.5217554691    0.2626724759    0.3144837235
C       -0.7578635873    1.4982868569    0.3350001935
N        0.5093984513    1.6136312159    0.1966176253
H        2.3046739051    0.5976538568    0.1972068239
H        1.1530248274   -1.7934664273    0.3291037982
H       -1.3573247926   -1.8596729306    0.4092684400
H       -2.5984039061    0.3110965233    0.4373306893
H       -1.3129300322    2.4189836068    0.5310961326
C        1.0758124908   -0.3704561955   -1.3282439204
H        1.5065273076   -1.2808335845   -1.7255893460
13   
From optimize.out: Frame 31 / 54, Energy=    -286.8999520691
C        1.2653876726    0.4080699903   -0.0761076856
C        0.5614034140   -0.8829444865    0.1416868428
C       -0.8566302056   -0.9105965661    0.2911180951
C       -1.5297206763    0.2630539772    0.3334304164
C       -0.7635864509    1.4927285389    0.3426185315
N        0.4875361050    1.6082178464    0.1651716428
H        2.3032987232    0.6213025624    0.1962956065
H        1.1308522585   -1.7901362789    0.3303927378
H       -1.3723693727   -1.8664778987    0.3628475170
H       -2.6063999534    0.3086957091    0.4531169279
H       -1.3102720803    2.4150884809    0.5485696458
C        1.1736007585   -0.3442190265   -1.3854383503
H        1.5168998074   -1.3227828485   -1.7037019277
13   
From optimize.out: Frame 31 / 54, Energy=    -286.8999520691
C        1.2731850510    0.3967775749   -0.0807981884
C        0.5486080174   -0.8881576662    0.1810867909
C       -0.8672197488   -0.9099883049    0.2822739972
C       -1.5394195038    0.2643610288    0.3390420298
C       -0.7696614462    1.4889265740    0.3401035787
N        0.4764572759    1.5989520857    0.1404827426
H        2.2993811458    0.6161594014    0.2286988892
H        1.1032906754   -1.8095030516    0.3499318413
H       -1.3879701126   -1.8633238708    0.3477718710
H       -2.6143180744    0.3089560063    0.4722553241
H       -1.3095717913    2.4136776209    0.5518866055
C        1.2531349805   -0.3078615598   -1.4218875574
H        1.5341035310   -1.3089758388   -1.7308479246
13   
From optimize.out: Frame 30 / 54, Energy=    -286.8972661937
C        1.2609612323    0.3768716386   -0.0701613566
C        0.5744864661   -0.9008826457    0.2000592834
C       -0.8477927527   -0.9104071983    0.2772788142
C       -1.5310464280    0.2632921270    0.3142135671
C       -0.7592982430    1.4908557935    0.3423589440
N        0.4987384558    1.5909416669    0.1716123209
H        2.2877462238    0.5467105986    0.2624981913
H        1.1315339989   -1.8132901953    0.3901296565
H       -1.3670309884   -1.8622195268    0.3652048236
H       -2.6080182483    0.3068323767    0.4272612714
H       -1.3019927794    2.4166408385    0.5462695659
C        1.2221921543   -0.2497743106   -1.4443615226
H        1.4395209084   -1.2555711631   -1.7823635591
13   
From optimize.out: Frame 29 / 54, Energy=    -286.8842192281
C        1.2487374136    0.3569657024   -0.0595245248
C        0.6003649148   -0.9136076252    0.2190317758
C       -0.8283657565   -0.9108260916    0.2722836312
C       -1.5226733522    0.2622232251    0.2893851044
C       -0.7489350398    1.4927850129    0.3446143093
N        0.5210196358    1.5829312481    0.2027418991
H        2.2761113019    0.4772617958    0.2962974935
H        1.1597773223   -1.8170773390    0.4303274717
H       -1.3460918642   -1.8611151827    0.3826377762
H       -2.6017184222    0.3047087471    0.3822672186
H       -1.2944137675    2.4196040562    0.5406525263
C        1.1912493281   -0.1916870615   -1.4668354879
H        1.3449382859   -1.2021664874   -1.8338791936
13   
From optimize.out: Frame 28 / 54, Energy=    -286.8728919275
C        1.2399303201    0.3565969846   -0.0611602268
C        0.6108935492   -0.9108534893    0.2175728762
C       -0.8188118069   -0.9095858436    0.2703692547
C       -1.5174375722    0.2617073488    0.2886310326
C       -0.7432577625    1.4986622352    0.3431132862
N        0.5272399685    1.5901406116    0.2002834365
H        2.2656725676    0.4647925486    0.3103904309
H        1.1749616515   -1.8140288608    0.4057890141
H       -1.3271558279   -1.8626634299    0.3936422483
H       -2.5968984597    0.3010976805    0.3817909543
H       -1.2952231887    2.4240790371    0.5322799449
C        1.1884155612   -0.1871804922   -1.4716729504
H        1.2916709999   -1.2127643307   -1.8110293014
13   
From optimize.out: Frame 27 / 54, Energy=    -286.8676897409
C        1.2347037376    0.3767020324   -0.0756567657
C        0.6053365522   -0.8918782225    0.1947031738
C       -0.8196041839   -0.9066069206    0.2716833679
C       -1.5154894790    0.2617710080    0.3131053952
C       -0.7424910381    1.5086767138    0.3376758065
N        0.5166295523    1.6132993413    0.1626268380
H        2.2564873620    0.5120342606    0.3038323484
H        1.1764609833   -1.8038170844    0.3134110500
H       -1.3103189005   -1.8669914244    0.3979100807
H       -2.5936293002    0.2959278744    0.4279665077
H       -1.3048231557    2.4301382502    0.5210197304
C        1.2150383049   -0.2388230758   -1.4580284771
H        1.2816995654   -1.2904327529   -1.7102490558
13   
From optimize.out: Frame 27 / 54, Energy=    -286.8676897409
C        1.2312524346    0.3888001594   -0.0850331460
C        0.5954470060   -0.8790867760    0.1781001666
C       -0.8238151299   -0.9059440397    0.2777335952
C       -1.5157784100    0.2624207028    0.3342476132
C       -0.7428050943    1.5154969741    0.3303420482
N        0.5078131166    1.6291163486    0.1324244911
H        2.2469635042    0.5456109109    0.3079127508
H        1.1712932932   -1.7992057437    0.2377513310
H       -1.3020224954   -1.8711223875    0.4076376345
H       -2.5930287376    0.2937519412    0.4651850359
H       -1.3116698922    2.4353215403    0.5056627419
C        1.2486464733   -0.2736247817   -1.4477851661
H        1.2877039316   -1.3415348488   -1.6441790962
13   
From optimize.out: Frame 26 / 54, Energy=    -286.8634857259
C        1.2357527995    0.3650344253   -0.0714757844
C        0.5661515051   -0.8939933265    0.1895663619
C       -0.8433382154   -0.9156549612    0.3049973884
C       -1.5260872130    0.2656953141    0.3404647965
C       -0.7479600832    1.5080099859    0.3145146536
N        0.5070321134    1.6120489899    0.1356105406
H        2.2359227865    0.5179802767    0.3596440741
H        1.1362632936   -1.8196793582    0.2369744346
H       -1.3319800101   -1.8743708264    0.4418198692
H       -2.6043811080    0.3049858883    0.4622840823
H       -1.3061846122    2.4365814776    0.4719558610
C        1.3135431123   -0.2329943806   -1.4527760279
H        1.3652656315   -1.2736435049   -1.7335802500
13   
From optimize.out: Frame 25 / 54, Energy=    -286.8606361842
C        1.2402531645    0.3412686912   -0.0579184228
C        0.5368560041   -0.9088998770    0.2010325573
C       -0.8628613009   -0.9253658827    0.3322611816
C       -1.5363960159    0.2689699253    0.3466819799
C       -0.7531150722    1.5005229978    0.2986872590
N        0.5062511101    1.5949816311    0.1387965901
H        2.2248820688    0.4903496426    0.4113753974
H        1.1012332941   -1.8401529727    0.2361975383
H       -1.3619375249   -1.8776192652    0.4760021039
H       -2.6157334783    0.3162198353    0.4593831288
H       -1.3006993322    2.4378414148    0.4382489802
C        1.3784397513   -0.1923639796   -1.4577668897
H        1.4428273315   -1.2057521610   -1.8229814039
13   
From optimize.out: Frame 25 / 54, Energy=    -286.8606361842
C        1.2451389519    0.3170813848   -0.0455952419
C        0.5082856496   -0.9257189196    0.2108931732
C       -0.8821003360   -0.9353771626    0.3572475517
C       -1.5458606461    0.2717982599    0.3507489911
C       -0.7574355070    1.4923621446    0.2843829925
N        0.5074160290    1.5775388337    0.1426104293
H        2.2142269347    0.4580950621    0.4603709768
H        1.0676854097   -1.8614124607    0.2398978753
H       -1.3926497719   -1.8800348732    0.5101641780
H       -2.6261236866    0.3270788325    0.4541240641
H       -1.2940727161    2.4380899884    0.4073673189
C        1.4380007293   -0.1497831256   -1.4616617105
H        1.5174889595   -1.1297179644   -1.9105505986
13   