
Running Job 1 of 1 optimize.in
qchem optimize.in_2476.0 ./optimize.d/ 1
/home/leeping/opt/qchem/5.0.2-openmp/exe/qcprog.exe_s optimize.in_2476.0 ./optimize.d/
Check license passed

                  Welcome to Q-Chem
     A Quantum Leap Into The Future Of Chemistry


 Q-Chem 5.0, Q-Chem, Inc., Pleasanton, CA (2017)

 Yihan Shao,  Zhengting Gan,  E. Epifanovsky,  A. T. B. Gilbert,  M. Wormit,  
 J. Kussmann,  A. W. Lange,  A. Behn,  Jia Deng,  Xintian Feng,  D. Ghosh,  
 M. Goldey,  P. R. Horn,  L. D. Jacobson,  I. Kaliman,  T. Kus,  A. Landau,  
 Jie Liu,  E. I. Proynov,  R. M. Richard,  R. P. Steele,  E. J. Sundstrom,  
 H. L. Woodcock III,  P. M. Zimmerman,  D. Zuev,  B. Albrecht,  E. Alguire,  
 S. A. Baeppler,  D. Barton,  Z. Benda,  Y. A. Bernard,  E. J. Berquist,  
 K. B. Bravaya,  H. Burton,  D. Casanova,  Chun-Min Chang,  Yunqing Chen,  
 A. Chien,  K. D. Closser,  M. P. Coons,  S. Dasgupta,  A. L. Dempwolff,  
 M. Diedenhofen,  Hainam Do,  R. G. Edgar,  Po-Tung Fang,  S. Fatehi,  
 Qingguo Feng,  J. Fosso-Tande,  Qinghui Ge,  A. Ghysels,  G. Gidofalvi,  
 J. Gomes,  J. Gonthier,  A. Gunina,  M. W. D. Hanson-Heine,  
 P. H. P. Harbach,  A. W. Hauser,  J. E. Herr,  E. G. Hohenstein,  
 Z. C. Holden,  Kerwin Hui,  T.-C. Jagau,  Hyunjun Ji,  B. Kaduk,  
 K. Khistyaev,  Jaehoon Kim,  P. Klunzinger,  K. Koh,  D. Kosenkov,  
 L. Koulias,  T. Kowalczyk,  C. M. Krauter,  A. Kunitsa,  Ka Un Lao,  
 A. Laurent,  K. V. Lawler,  Joonho Lee,  D. Lefrancois,  S. Lehtola,  
 D. S. Levine,  Yi-Pei Li,  You-Sheng Lin,  Fenglai Liu,  E. Livshits,  
 A. Luenser,  P. Manohar,  E. Mansoor,  S. F. Manzer,  Shan-Ping Mao,  
 Yuezhi Mao,  N. Mardirossian,  A. V. Marenich,  T. Markovich,  
 L. A. Martinez-Martinez,  S. A. Maurer,  N. J. Mayhall,  S. C. McKenzie,  
 J.-M. Mewes,  A. F. Morrison,  J. W. Mullinax,  K. Nanda,  
 T. S. Nguyen-Beck,  R. Olivares-Amaya,  J. A. Parkhill,  T. M. Perrine,  
 F. Plasser,  S. Prager,  A. Prociuk,  E. Ramos,  D. R. Rehn,  F. Rob,  
 M. Schneider,  N. Sergueev,  S. M. Sharada,  S. Sharma,  D. W. Small,  
 T. Stauch,  T. Stein,  Yu-Chuan Su,  A. J. W. Thom,  A. Tkatchenko,  
 T. Tsuchimochi,  L. Vogt,  O. Vydrov,  M. A. Watson,  J. Wenzel,  
 M. de Wergifosse,  T. A. Wesolowski,  A. White,  J. Witte,  A. Yamada,  
 Jun Yang,  K. Yao,  S. Yeganeh,  S. R. Yost,  Zhi-Qiang You,  A. Zech,  
 Igor Ying Zhang,  Xing Zhang,  Yan Zhao,  Ying Zhu,  B. R. Brooks,  
 G. K. L. Chan,  C. J. Cramer,  M. S. Gordon,  W. J. Hehre,  A. Klamt,  
 M. W. Schmidt,  C. D. Sherrill,  D. G. Truhlar,  A. Aspuru-Guzik,  R. Baer,  
 A. T. Bell,  N. A. Besley,  Jeng-Da Chai,  R. A. DiStasio Jr.,  A. Dreuw,  
 B. D. Dunietz,  T. R. Furlani,  Chao-Ping Hsu,  Yousung Jung,  Jing Kong,  
 D. S. Lambrecht,  WanZhen Liang,  C. Ochsenfeld,  V. A. Rassolov,  
 L. V. Slipchenko,  J. E. Subotnik,  T. Van Voorhis,  J. M. Herbert,  
 A. I. Krylov,  P. M. W. Gill,  M. Head-Gordon

 Contributors to earlier versions of Q-Chem not listed above: 
 R. D. Adamson,  B. Austin,  J. Baker,  G. J. O. Beran,  K. Brandhorst,  
 S. T. Brown,  E. F. C. Byrd,  A. K. Chakraborty,  C.-L. Cheng,  
 Siu Hung Chien,  D. M. Chipman,  D. L. Crittenden,  H. Dachsel,  
 R. J. Doerksen,  A. D. Dutoi,  L. Fusti-Molnar,  W. A. Goddard III,  
 A. Golubeva-Zadorozhnaya,  S. R. Gwaltney,  G. Hawkins,  A. Heyden,  
 S. Hirata,  G. Kedziora,  F. J. Keil,  C. Kelley,  Jihan Kim,  R. A. King,  
 R. Z. Khaliullin,  P. P. Korambath,  W. Kurlancheek,  A. M. Lee,  M. S. Lee,  
 S. V. Levchenko,  Ching Yeh Lin,  D. Liotard,  R. C. Lochan,  I. Lotan,  
 P. E. Maslen,  N. Nair,  D. P. O'Neill,  D. Neuhauser,  E. Neuscamman,  
 C. M. Oana,  R. Olson,  B. Peters,  R. Peverati,  P. A. Pieniazek,  
 Y. M. Rhee,  J. Ritchie,  M. A. Rohrdanz,  E. Rosta,  N. J. Russ,  
 H. F. Schaefer III,  N. E. Schultz,  N. Shenvi,  A. C. Simmonett,  A. Sodt,  
 D. Stuck,  K. S. Thanthiriwatte,  V. Vanovschi,  Tao Wang,  A. Warshel,  
 C. F. Williams,  Q. Wu,  X. Xu,  W. Zhang

 Please cite Q-Chem as follows:
 Y. Shao et al., Mol. Phys. 113, 184-215 (2015)
 DOI: 10.1080/00268976.2014.952696

 Q-Chem 5.0.2 for Intel X86 EM64T Linux

 Parts of Q-Chem use Armadillo 5.200.1 (Boston Tea Smuggler).
 http://arma.sourceforge.net/

 Q-Chem begins on Tue Mar  1 18:40:50 2022  

Host: 
0

     Scratch files written to ./optimize.d//
 Dec517 15110_ 26548  26544 5633   
Processing $rem in /home/leeping/opt/qchem/5.0.2-openmp/config/preferences.
 MEM_STATIC 2000
 MEM_TOTAL  8000
 SYMMETRY   OFF
 SYM_IGNORE TRUE 

Checking the input file for inconsistencies... 	...done.

--------------------------------------------------------------
User input:
--------------------------------------------------------------
$molecule
0 2
C        1.6724666002    0.2714977792   -2.2875031831
C        1.2259645833   -1.0686676246   -2.2454874339
C       -0.1041993824   -1.2614514482   -2.3964946520
C       -1.4259825743    0.4375325262   -0.7782271405
C       -0.8716363330    0.9961133296   -2.0347408725
N        0.8894013276    1.4096363791   -2.7601400372
H        2.7250213295    0.1963304939   -2.0257696814
H        1.8170177249   -1.7269903515   -1.6393003330
H       -0.6258770018   -1.7043079812   -3.3188764320
H       -1.4744974551    0.9328548670    0.2341907790
H       -1.5734813856    1.5042300734   -2.6584302618
C       -1.4768361376   -0.8649699484   -1.0867823532
H       -1.8523492621   -1.6609509111   -0.3408858609
$end

$rem
method                b3lyp
basis                 6-31g(d)
unrestricted          true
symmetry              off
sym_ignore            true
incdft                false
incfock               0
scf_convergence       8
thresh                14
jobtype               opt
scf_guess             read
scf_algorithm         diis
max_scf_cycles        100
geom_opt_tol_gradient 600
geom_opt_tol_displacement 2400
geom_opt_tol_energy   200
geom_opt_max_cycles   100
$end

--------------------------------------------------------------
 ----------------------------------------------------------------
             Standard Nuclear Orientation (Angstroms)
    I     Atom           X                Y                Z
 ----------------------------------------------------------------
    1      C       1.6724666002     0.2714977792    -2.2875031831
    2      C       1.2259645833    -1.0686676246    -2.2454874339
    3      C      -0.1041993824    -1.2614514482    -2.3964946520
    4      C      -1.4259825743     0.4375325262    -0.7782271405
    5      C      -0.8716363330     0.9961133296    -2.0347408725
    6      N       0.8894013276     1.4096363791    -2.7601400372
    7      H       2.7250213295     0.1963304939    -2.0257696814
    8      H       1.8170177249    -1.7269903515    -1.6393003330
    9      H      -0.6258770018    -1.7043079812    -3.3188764320
   10      H      -1.4744974551     0.9328548670     0.2341907790
   11      H      -1.5734813856     1.5042300734    -2.6584302618
   12      C      -1.4768361376    -0.8649699484    -1.0867823532
   13      H      -1.8523492621    -1.6609509111    -0.3408858609
 ----------------------------------------------------------------
 Nuclear Repulsion Energy =   247.0598904934 hartrees
 There are       25 alpha and       24 beta electrons
 Requested basis set is 6-31G(d)
 There are 40 shells and 117 basis functions

 Total QAlloc Memory Limit   8000 MB
 Mega-Array Size      1956 MB
 MEM_STATIC part      2000 MB
 A cutoff of  1.0D-14 yielded    800 shell pairs
 There are      7067 function pairs
 
 -------------------------------------------------------
 OpenMP Integral Computing Module                       
 Release: version 1.0, May 2013, Q-Chem Inc. Pittsburgh 
 -------------------------------------------------------
 Integral Job Info:
 Integral job number is                      11
 Integral operator is                         1
 short-range coefficients                     0
 long-range coefficients              100000000
 Omega coefficients                           0
 if combine SR and LR in K                    0
 Integral screening is                        0
 Integral computing path is                   2
 max size of driver memory is            800000
 size of driver memory is                593474
 size of scratch memory is              2361544
 max col of scratch BK array               1296
 max len of scratch array in speh3          155
 max len of scratch index in speh4           18
 max int batch size is                      520
 min int batch size is                       52
 fixed nKL is                                52
 max L of basis functions is                  2
 order of int derivative is                   0
 number of shells is                         40
 number of basis is                         117
 number of cartesian basis is               117
 number of contracted shell pairs           800
 number of primitive shell pairs           3356
 maxK2 (contraction) of shell pair           36
 max number of K2 of shell pair               1
 max number of CS2 of shell pair             88
 max number of PS2 of shell pair            420
 mem total for path MDJ                  532812
 -------------------------------------------------------
 Smallest overlap matrix eigenvalue = 3.43E-03

 Scale SEOQF with 1.000000e-01/1.000000e-01/1.000000e-01

 Standard Electronic Orientation quadrupole field applied
 Nucleus-field energy     =    -0.0000000158 hartrees
 Guess MOs from SCF MO coefficient file
 Reading MOs from coefficient file
 Reading MOs from coefficient file
 An unrestricted hybrid HF-DFT SCF calculation will be
 performed using Pulay DIIS extrapolation
 Exchange:     0.2000 Hartree-Fock + 0.0800 Slater + 0.7200 B88
 Correlation:  0.1900 VWN1RPA + 0.8100 LYP
 Using SG-1 standard quadrature grid
 SCF converges when DIIS error is below 1.0E-08
Using Q-Chem read-in guess as SCF_GUESS READ specified.

 using 4 threads for integral computing
 -------------------------------------------------------
 OpenMP Integral computing Module                
 Release: version 1.0, May 2013, Q-Chem Inc. Pittsburgh 
 -------------------------------------------------------
 -------------------------------------------------------
 OpenMP BLAS3 based DFT computing Module                
 Release: version 1.0, May 2013, Q-Chem Inc. Pittsburgh 
 -------------------------------------------------------
 ---------------------------------------
  Cycle       Energy         DIIS Error
 ---------------------------------------
    1    -286.6016109429      4.46E-09
    2    -286.6016109429      1.13E-08
    3    -286.6016109429      2.03E-09 Convergence criterion met
 ---------------------------------------
 <S^2> = 1.1683
 SCF time:  CPU 7.66 s  wall 3.27 s
 SCF   energy in the final basis set = -286.60161094
 Total energy in the final basis set = -286.60161094
 
 --------------------------------------------------------------
 
                    Orbital Energies (a.u.)
 --------------------------------------------------------------
 
 Alpha MOs
 -- Occupied --
-14.387 -10.245 -10.242 -10.234 -10.230 -10.219 -10.202  -0.864
 -0.804  -0.776  -0.650  -0.627  -0.537  -0.518  -0.481  -0.468
 -0.413  -0.409  -0.380  -0.351  -0.325  -0.301  -0.263  -0.223
 -0.209
 -- Virtual --
 -0.050  -0.041  -0.037   0.043   0.087   0.121   0.125   0.145
  0.156   0.176   0.182   0.242   0.280   0.321   0.376   0.384
  0.477   0.507   0.515   0.556   0.577   0.590   0.599   0.608
  0.618   0.628   0.668   0.674   0.693   0.724   0.739   0.760
  0.780   0.823   0.827   0.835   0.843   0.856   0.872   0.875
  0.917   0.951   0.991   1.015   1.074   1.118   1.158   1.191
  1.267   1.312   1.399   1.422   1.486   1.549   1.598   1.633
  1.687   1.738   1.759   1.776   1.803   1.846   1.851   1.921
  1.923   1.991   2.056   2.096   2.148   2.151   2.192   2.220
  2.258   2.306   2.380   2.407   2.439   2.510   2.535   2.587
  2.636   2.681   2.801   2.818   2.917   3.704   4.041   4.153
  4.165   4.227   4.358   4.425
 
 Beta MOs
 -- Occupied --
-14.370 -10.257 -10.236 -10.232 -10.232 -10.218 -10.197  -0.845
 -0.804  -0.746  -0.646  -0.629  -0.537  -0.508  -0.479  -0.459
 -0.408  -0.400  -0.375  -0.343  -0.311  -0.283  -0.247  -0.196
 -- Virtual --
 -0.110  -0.058  -0.033  -0.021   0.053   0.096   0.119   0.132
  0.148   0.160   0.172   0.185   0.250   0.277   0.327   0.387
  0.393   0.481   0.510   0.513   0.557   0.582   0.589   0.605
  0.612   0.621   0.641   0.669   0.677   0.694   0.723   0.744
  0.765   0.791   0.833   0.835   0.840   0.848   0.869   0.879
  0.881   0.913   0.954   0.995   1.024   1.077   1.123   1.165
  1.192   1.267   1.325   1.408   1.426   1.493   1.556   1.616
  1.643   1.682   1.744   1.777   1.799   1.823   1.853   1.866
  1.918   1.938   1.997   2.065   2.095   2.141   2.151   2.197
  2.227   2.277   2.319   2.382   2.416   2.441   2.517   2.544
  2.586   2.647   2.679   2.798   2.829   2.928   3.737   4.043
  4.150   4.160   4.239   4.352   4.433
 --------------------------------------------------------------
 
          Ground-State Mulliken Net Atomic Charges

     Atom                 Charge (a.u.)    Spin (a.u.)
  --------------------------------------------------------
      1 C                     0.056196      -0.206179
      2 C                    -0.122789       0.284101
      3 C                    -0.174291       0.693071
      4 C                    -0.108550       0.094605
      5 C                    -0.114812      -0.738240
      6 N                    -0.326473       0.914306
      7 H                     0.150833       0.027741
      8 H                     0.154386       0.021158
      9 H                     0.160847      -0.022245
     10 H                     0.169950      -0.004053
     11 H                     0.178166       0.027602
     12 C                    -0.148190      -0.069144
     13 H                     0.124727      -0.022723
  --------------------------------------------------------
  Sum of atomic charges =     0.000000
  Sum of spin   charges =     1.000000

 -----------------------------------------------------------------
                    Cartesian Multipole Moments
 -----------------------------------------------------------------
    Charge (ESU x 10^10)
                 0.0000
    Dipole Moment (Debye)
         X      -0.4222      Y      -1.3650      Z       1.7237
       Tot       2.2389
    Quadrupole Moments (Debye-Ang)
        XX     -38.1064     XY      -3.1484     YY     -42.8348
        XZ       1.5402     YZ       4.8814     ZZ     -47.2858
    Octopole Moments (Debye-Ang^2)
       XXX      13.8573    XXY       1.3372    XYY      -4.2371
       YYY      -2.0728    XXZ      76.3103    XYZ       7.0070
       YYZ      86.6684    XZZ     -10.6299    YZZ     -13.6177
       ZZZ     259.9381
    Hexadecapole Moments (Debye-Ang^3)
      XXXX    -426.9770   XXXY      -8.3159   XXYY    -121.7470
      XYYY     -12.7801   YYYY    -323.1286   XXXZ      57.7883
      XXYZ      -2.3623   XYYZ      39.8388   YYYZ      21.6728
      XXZZ    -254.2526   XYZZ     -18.1928   YYZZ    -255.2830
      XZZZ     121.8395   YZZZ      55.5357   ZZZZ   -1175.2675
 -----------------------------------------------------------------
 Calculating analytic gradient of the SCF energy
 Gradient of SCF Energy
            1           2           3           4           5           6
    1   0.0285045  -0.0391726   0.1778069  -0.0466757  -0.0623357   0.0204585
    2   0.0140296  -0.0705103   0.0049753  -0.0057327  -0.0028745   0.0591341
    3   0.0200789  -0.0330409   0.0130697   0.0113668   0.0241673  -0.0597508
            7           8           9          10          11          12
    1  -0.0091193  -0.0127995  -0.0172110   0.0156549  -0.0001822  -0.0461562
    2  -0.0351375   0.0135604  -0.0155520   0.0068006  -0.0128786   0.0617848
    3   0.0054378   0.0006066  -0.0268383   0.0242253   0.0152737  -0.0187305
           13
    1  -0.0087725
    2  -0.0175992
    3   0.0241344
 Max gradient component =       1.778E-01
 RMS gradient           =       4.133E-02
 Gradient time:  CPU 7.58 s  wall 4.70 s
 Geometry Optimization Parameters
   NAtoms,    NIC,     NZ,  NCons,   NDum,   NFix, NCnnct, MaxDiis
       13      82       0       0       0       0       0       0


** GEOMETRY OPTIMIZATION IN DELOCALIZED INTERNAL COORDINATES **
   Searching for a Minimum

   Optimization Cycle:   1

                       Coordinates (Angstroms)
     ATOM                X               Y               Z
      1  C         1.6724666002    0.2714977792   -2.2875031831
      2  C         1.2259645833   -1.0686676246   -2.2454874339
      3  C        -0.1041993824   -1.2614514482   -2.3964946520
      4  C        -1.4259825743    0.4375325262   -0.7782271405
      5  C        -0.8716363330    0.9961133296   -2.0347408725
      6  N         0.8894013276    1.4096363791   -2.7601400372
      7  H         2.7250213295    0.1963304939   -2.0257696814
      8  H         1.8170177249   -1.7269903515   -1.6393003330
      9  H        -0.6258770018   -1.7043079812   -3.3188764320
     10  H        -1.4744974551    0.9328548670    0.2341907790
     11  H        -1.5734813856    1.5042300734   -2.6584302618
     12  C        -1.4768361376   -0.8649699484   -1.0867823532
     13  H        -1.8523492621   -1.6609509111   -0.3408858609
   Point Group: c1    Number of degrees of freedom:    33


   Energy is   -286.601610943


 Attempting to Generate Delocalized Internal Coordinates

 33 Hessian modes will be used to form the next step
  Hessian Eigenvalues:
     0.007274    0.009557    0.013659    0.014945    0.019761    0.021775
     0.023330    0.027320    0.033057    0.060012    0.099885    0.103247
     0.123783    0.142406    0.150007    0.158237    0.158894    0.159987
     0.169202    0.200038    0.214537    0.224769    0.283814    0.288412
     0.307530    0.327309    0.351370    0.361775    0.369195    0.375358
     0.422436    0.525084    0.559793

 Minimum Search - Taking Simple RFO Step
 Searching for Lamda that Minimizes Along All modes
 Value Taken    Lamda =  -0.13136197
 Calculated Step too Large.  Step scaled by  0.431029
 Step Taken.  Stepsize is  0.300000

                             Maximum     Tolerance    Cnvgd?
         Gradient           0.094479      0.000600      NO
         Displacement       0.147017      0.002400      NO
         Energy change     *********      0.000002      NO


 New Cartesian Coordinates Obtained by Inverse Iteration

 Displacement from previous Coordinates is:  0.441155
 ----------------------------------------------------------------
             Standard Nuclear Orientation (Angstroms)
    I     Atom           X                Y                Z
 ----------------------------------------------------------------
    1      C       1.6452360467     0.2858225344    -2.2586415584
    2      C       1.1769890429    -1.0379667816    -2.2239665311
    3      C      -0.1788142476    -1.2488014633    -2.3812146150
    4      C      -1.3712605750     0.4058703454    -0.8094802305
    5      C      -0.8214955547     0.9724778347    -2.0662177153
    6      N       0.8812596362     1.3981112542    -2.7219644641
    7      H       2.7041712548     0.2604891047    -2.0031486916
    8      H       1.7749407534    -1.7157788074    -1.6340810333
    9      H      -0.7012772741    -1.6730806616    -3.2880227702
   10      H      -1.4201262357     0.9144397350     0.1822911166
   11      H      -1.5099340443     1.4922068941    -2.7066002859
   12      C      -1.4440602971    -0.9039030112    -1.0816878362
   13      H      -1.8106164718    -1.6890297939    -0.3457128476
 ----------------------------------------------------------------
 Nuclear Repulsion Energy =   250.5542412415 hartrees
 There are       25 alpha and       24 beta electrons
 Applying Cartesian multipole field
    Component          Value
    ---------          -----
     (2,0,0)        1.00000E-11
     (0,2,0)        2.00000E-11
     (0,0,2)       -3.00000E-11
 Nucleus-field energy     =    -0.0000000157 hartrees
 Requested basis set is 6-31G(d)
 There are 40 shells and 117 basis functions
 A cutoff of  1.0D-14 yielded    801 shell pairs
 There are      7068 function pairs
 Smallest overlap matrix eigenvalue = 3.27E-03
 Guess MOs from SCF MO coefficient file
 Reading MOs from coefficient file
 Reading MOs from coefficient file
 An unrestricted hybrid HF-DFT SCF calculation will be
 performed using Pulay DIIS extrapolation
 Exchange:     0.2000 Hartree-Fock + 0.0800 Slater + 0.7200 B88
 Correlation:  0.1900 VWN1RPA + 0.8100 LYP
 Using SG-1 standard quadrature grid
 SCF converges when DIIS error is below 1.0E-08
 Geometry optimization detected.  Setting ReadMinima to 0
 Setting SaveMinima to 0
Using Q-Chem read-in guess as SCF_GUESS READ specified.

 using 4 threads for integral computing
 -------------------------------------------------------
 OpenMP Integral computing Module                
 Release: version 1.0, May 2013, Q-Chem Inc. Pittsburgh 
 -------------------------------------------------------
 -------------------------------------------------------
 OpenMP BLAS3 based DFT computing Module                
 Release: version 1.0, May 2013, Q-Chem Inc. Pittsburgh 
 -------------------------------------------------------
 ---------------------------------------
  Cycle       Energy         DIIS Error
 ---------------------------------------
    1    -286.7131667224      2.86E-03
    2    -286.6527115409      1.18E-03
    3    -286.6509809112      1.59E-03
    4    -286.6554196335      5.05E-04
    5    -286.6559238814      1.15E-04
    6    -286.6559860380      6.48E-05
    7    -286.6560198945      2.53E-05
    8    -286.6560479566      1.74E-05
    9    -286.6560753388      7.96E-06
   10    -286.6560857110      7.00E-06
   11    -286.6560876044      2.84E-06
   12    -286.6560890351      1.77E-06
   13    -286.6560894286      8.64E-07
   14    -286.6560896533      5.61E-07
   15    -286.6560897159      3.47E-07
   16    -286.6560897323      1.63E-07
   17    -286.6560897360      7.83E-08
   18    -286.6560897365      3.42E-08
   19    -286.6560897366      1.30E-08
   20    -286.6560897366      4.53E-09 Convergence criterion met
 ---------------------------------------
 <S^2> = 1.0164
 SCF time:  CPU 50.91 s  wall 44.39 s
 SCF   energy in the final basis set = -286.65608974
 Total energy in the final basis set = -286.65608974
 
 --------------------------------------------------------------
 
                    Orbital Energies (a.u.)
 --------------------------------------------------------------
 
 Alpha MOs
 -- Occupied --
-14.378 -10.248 -10.241 -10.229 -10.228 -10.217 -10.203  -0.871
 -0.806  -0.770  -0.649  -0.632  -0.538  -0.521  -0.484  -0.468
 -0.418  -0.412  -0.385  -0.352  -0.330  -0.299  -0.261  -0.221
 -0.214
 -- Virtual --
 -0.046  -0.034  -0.022   0.058   0.103   0.124   0.128   0.146
  0.163   0.176   0.190   0.250   0.285   0.331   0.379   0.391
  0.482   0.505   0.513   0.554   0.582   0.584   0.599   0.611
  0.618   0.624   0.659   0.674   0.683   0.728   0.738   0.764
  0.787   0.825   0.831   0.840   0.852   0.858   0.869   0.874
  0.914   0.959   0.998   1.020   1.094   1.125   1.167   1.209
  1.278   1.336   1.419   1.426   1.499   1.546   1.603   1.622
  1.706   1.733   1.768   1.779   1.804   1.858   1.864   1.946
  1.947   1.994   2.075   2.096   2.128   2.159   2.208   2.248
  2.285   2.321   2.379   2.411   2.468   2.522   2.547   2.606
  2.645   2.714   2.805   2.821   2.932   3.727   4.042   4.160
  4.167   4.253   4.378   4.429
 
 Beta MOs
 -- Occupied --
-14.362 -10.256 -10.233 -10.231 -10.228 -10.216 -10.199  -0.853
 -0.803  -0.746  -0.647  -0.630  -0.538  -0.512  -0.482  -0.459
 -0.411  -0.406  -0.380  -0.344  -0.316  -0.281  -0.249  -0.203
 -- Virtual --
 -0.107  -0.054  -0.025  -0.006   0.067   0.110   0.124   0.134
  0.149   0.167   0.173   0.194   0.257   0.284   0.336   0.390
  0.399   0.487   0.510   0.510   0.557   0.584   0.591   0.602
  0.615   0.623   0.634   0.660   0.674   0.686   0.730   0.741
  0.770   0.797   0.834   0.841   0.845   0.855   0.870   0.871
  0.883   0.912   0.961   1.001   1.029   1.098   1.129   1.176
  1.210   1.281   1.346   1.423   1.438   1.505   1.553   1.621
  1.633   1.699   1.739   1.783   1.798   1.822   1.869   1.874
  1.946   1.960   1.999   2.083   2.095   2.122   2.160   2.217
  2.255   2.303   2.334   2.383   2.417   2.473   2.531   2.555
  2.610   2.653   2.712   2.806   2.827   2.942   3.756   4.046
  4.155   4.167   4.258   4.375   4.438
 --------------------------------------------------------------
 
          Ground-State Mulliken Net Atomic Charges

     Atom                 Charge (a.u.)    Spin (a.u.)
  --------------------------------------------------------
      1 C                     0.062159      -0.217444
      2 C                    -0.112013       0.348415
      3 C                    -0.188969       0.570989
      4 C                    -0.097990       0.078917
      5 C                    -0.115401      -0.583637
      6 N                    -0.340637       0.816807
      7 H                     0.146603       0.023436
      8 H                     0.149944       0.008105
      9 H                     0.164933      -0.013871
     10 H                     0.165274      -0.000254
     11 H                     0.175725       0.023088
     12 C                    -0.139982      -0.041707
     13 H                     0.130357      -0.012843
  --------------------------------------------------------
  Sum of atomic charges =     0.000000
  Sum of spin   charges =     1.000000

 -----------------------------------------------------------------
                    Cartesian Multipole Moments
 -----------------------------------------------------------------
    Charge (ESU x 10^10)
                 0.0000
    Dipole Moment (Debye)
         X      -0.5402      Y      -1.5036      Z       1.6739
       Tot       2.3140
    Quadrupole Moments (Debye-Ang)
        XX     -38.3175     XY      -2.8231     YY     -42.6851
        XZ       1.9385     YZ       4.9759     ZZ     -47.1305
    Octopole Moments (Debye-Ang^2)
       XXX      13.8082    XXY       1.2428    XYY      -4.8700
       YYY      -2.1595    XXZ      76.2178    XYZ       6.7542
       YYZ      86.3431    XZZ     -11.2890    YZZ     -13.3883
       ZZZ     258.1964
    Hexadecapole Moments (Debye-Ang^3)
      XXXX    -407.8114   XXXY     -12.2126   XXYY    -117.6412
      XYYY     -18.5132   YYYY    -318.0912   XXXZ      51.8437
      XXYZ      -1.3052   XYYZ      38.8820   YYYZ      23.3912
      XXZZ    -248.8926   XYZZ     -19.8217   YYZZ    -252.4702
      XZZZ     116.6970   YZZZ      54.7421   ZZZZ   -1158.3803
 -----------------------------------------------------------------
 Calculating analytic gradient of the SCF energy
 Gradient of SCF Energy
            1           2           3           4           5           6
    1   0.0235108  -0.0274757   0.1525312  -0.0392015  -0.0698844   0.0339514
    2   0.0121159  -0.0499656  -0.0174185  -0.0031370   0.0046845   0.0490453
    3   0.0192391  -0.0331204  -0.0031391   0.0084258   0.0369622  -0.0603689
            7           8           9          10          11          12
    1  -0.0052569  -0.0085188  -0.0166017   0.0156793   0.0000681  -0.0528274
    2  -0.0273386   0.0110521  -0.0101814   0.0039081  -0.0078460   0.0495619
    3   0.0065879   0.0032624  -0.0173804   0.0174920   0.0096230  -0.0068496
           13
    1  -0.0059744
    2  -0.0144807
    3   0.0192661
 Max gradient component =       1.525E-01
 RMS gradient           =       3.666E-02
 Gradient time:  CPU 7.57 s  wall 3.73 s
 Geometry Optimization Parameters
   NAtoms,    NIC,     NZ,  NCons,   NDum,   NFix, NCnnct, MaxDiis
       13      82       0       0       0       0       0       0

 Cartesian Hessian Update
 Hessian Updated using BFGS Update


** GEOMETRY OPTIMIZATION IN DELOCALIZED INTERNAL COORDINATES **
   Searching for a Minimum

   Optimization Cycle:   2

                       Coordinates (Angstroms)
     ATOM                X               Y               Z
      1  C         1.6452360467    0.2858225344   -2.2586415584
      2  C         1.1769890429   -1.0379667816   -2.2239665311
      3  C        -0.1788142476   -1.2488014633   -2.3812146150
      4  C        -1.3712605750    0.4058703454   -0.8094802305
      5  C        -0.8214955547    0.9724778347   -2.0662177153
      6  N         0.8812596362    1.3981112542   -2.7219644641
      7  H         2.7041712548    0.2604891047   -2.0031486916
      8  H         1.7749407534   -1.7157788074   -1.6340810333
      9  H        -0.7012772741   -1.6730806616   -3.2880227702
     10  H        -1.4201262357    0.9144397350    0.1822911166
     11  H        -1.5099340443    1.4922068941   -2.7066002859
     12  C        -1.4440602971   -0.9039030112   -1.0816878362
     13  H        -1.8106164718   -1.6890297939   -0.3457128476
   Point Group: c1    Number of degrees of freedom:    33


   Energy is   -286.656089737

 Hessian Updated using BFGS Update

 33 Hessian modes will be used to form the next step
  Hessian Eigenvalues:
     0.004927    0.009392    0.012207    0.014905    0.019403    0.020826
     0.023089    0.027430    0.029261    0.033825    0.071625    0.103631
     0.125616    0.142103    0.149868    0.157486    0.158774    0.167496
     0.173527    0.203083    0.220368    0.253304    0.284467    0.299679
     0.323342    0.326309    0.350831    0.359491    0.372053    0.390860
     0.423086    0.541612    0.698133

 Minimum Search - Taking Simple RFO Step
 Searching for Lamda that Minimizes Along All modes
 Value Taken    Lamda =  -0.16013530
 Calculated Step too Large.  Step scaled by  0.319536
 Step Taken.  Stepsize is  0.300000

                             Maximum     Tolerance    Cnvgd?
         Gradient           0.086280      0.000600      NO
         Displacement       0.143519      0.002400      NO
         Energy change     -0.054479      0.000002      NO


 New Cartesian Coordinates Obtained by Inverse Iteration

 Displacement from previous Coordinates is:  0.429791
 ----------------------------------------------------------------
             Standard Nuclear Orientation (Angstroms)
    I     Atom           X                Y                Z
 ----------------------------------------------------------------
    1      C       1.6155285378     0.2975297887    -2.2271502569
    2      C       1.1336534368    -1.0092226673    -2.2028117660
    3      C      -0.2456374686    -1.2178626802    -2.3635787082
    4      C      -1.3166361717     0.3780210229    -0.8350374311
    5      C      -0.7729459407     0.9377768338    -2.0992659860
    6      N       0.8610014931     1.3759643529    -2.6833542258
    7      H       2.6779066851     0.3136729002    -1.9799305866
    8      H       1.7289263020    -1.7120314830    -1.6310493275
    9      H      -0.7624208573    -1.6214395289    -3.2650065369
   10      H      -1.3653228282     0.9039893635     0.1373795664
   11      H      -1.4564806946     1.4556306412    -2.7537851676
   12      C      -1.4061310654    -0.9316036276    -1.0790745552
   13      H      -1.7664293947    -1.7095677328    -0.3557824811
 ----------------------------------------------------------------
 Nuclear Repulsion Energy =   255.0359726176 hartrees
 There are       25 alpha and       24 beta electrons
 Applying Cartesian multipole field
    Component          Value
    ---------          -----
     (2,0,0)        1.00000E-11
     (0,2,0)        2.00000E-11
     (0,0,2)       -3.00000E-11
 Nucleus-field energy     =    -0.0000000157 hartrees
 Requested basis set is 6-31G(d)
 There are 40 shells and 117 basis functions
 A cutoff of  1.0D-14 yielded    804 shell pairs
 There are      7076 function pairs
 Smallest overlap matrix eigenvalue = 2.97E-03
 Guess MOs from SCF MO coefficient file
 Reading MOs from coefficient file
 Reading MOs from coefficient file
 An unrestricted hybrid HF-DFT SCF calculation will be
 performed using Pulay DIIS extrapolation
 Exchange:     0.2000 Hartree-Fock + 0.0800 Slater + 0.7200 B88
 Correlation:  0.1900 VWN1RPA + 0.8100 LYP
 Using SG-1 standard quadrature grid
 SCF converges when DIIS error is below 1.0E-08
 Geometry optimization detected.  Setting ReadMinima to 0
 Setting SaveMinima to 0
Using Q-Chem read-in guess as SCF_GUESS READ specified.

 using 4 threads for integral computing
 -------------------------------------------------------
 OpenMP Integral computing Module                
 Release: version 1.0, May 2013, Q-Chem Inc. Pittsburgh 
 -------------------------------------------------------
 -------------------------------------------------------
 OpenMP BLAS3 based DFT computing Module                
 Release: version 1.0, May 2013, Q-Chem Inc. Pittsburgh 
 -------------------------------------------------------
 ---------------------------------------
  Cycle       Energy         DIIS Error
 ---------------------------------------
    1    -286.7752168495      2.99E-03
    2    -286.7019803693      1.24E-03
    3    -286.7012224802      1.49E-03
    4    -286.7051015411      4.20E-04
    5    -286.7054596605      1.09E-04
    6    -286.7055394323      6.24E-05
    7    -286.7055851578      2.45E-05
    8    -286.7056323975      2.12E-05
    9    -286.7056750872      1.63E-05
   10    -286.7056972166      7.39E-06
   11    -286.7057151603      2.61E-06
   12    -286.7057201693      1.77E-06
   13    -286.7057216375      1.33E-06
   14    -286.7057220242      5.02E-07
   15    -286.7057221216      2.22E-07
   16    -286.7057221305      1.27E-07
   17    -286.7057221335      5.09E-08
   18    -286.7057221342      2.61E-08
   19    -286.7057221343      9.68E-09 Convergence criterion met
 ---------------------------------------
 <S^2> = 0.8683
 SCF time:  CPU 48.35 s  wall 39.67 s
 SCF   energy in the final basis set = -286.70572213
 Total energy in the final basis set = -286.70572213
 
 --------------------------------------------------------------
 
                    Orbital Energies (a.u.)
 --------------------------------------------------------------
 
 Alpha MOs
 -- Occupied --
-14.368 -10.249 -10.238 -10.224 -10.223 -10.213 -10.204  -0.883
 -0.811  -0.766  -0.649  -0.637  -0.539  -0.524  -0.488  -0.468
 -0.422  -0.415  -0.390  -0.354  -0.335  -0.297  -0.261  -0.223
 -0.216
 -- Virtual --
 -0.042  -0.025  -0.005   0.077   0.117   0.127   0.134   0.148
  0.169   0.175   0.200   0.258   0.290   0.342   0.380   0.401
  0.487   0.504   0.511   0.551   0.580   0.586   0.602   0.612
  0.618   0.622   0.647   0.673   0.682   0.730   0.744   0.772
  0.797   0.825   0.831   0.845   0.850   0.860   0.869   0.881
  0.915   0.970   1.006   1.025   1.109   1.125   1.192   1.227
  1.304   1.352   1.427   1.435   1.527   1.558   1.591   1.641
  1.705   1.742   1.769   1.790   1.816   1.877   1.882   1.969
  1.983   2.003   2.096   2.114   2.124   2.173   2.233   2.283
  2.290   2.352   2.388   2.427   2.492   2.533   2.567   2.629
  2.658   2.754   2.808   2.843   2.950   3.753   4.050   4.168
  4.177   4.281   4.404   4.443
 
 Beta MOs
 -- Occupied --
-14.354 -10.254 -10.233 -10.227 -10.223 -10.212 -10.199  -0.866
 -0.806  -0.746  -0.648  -0.632  -0.538  -0.517  -0.486  -0.459
 -0.415  -0.410  -0.384  -0.347  -0.319  -0.279  -0.251  -0.210
 -- Virtual --
 -0.105  -0.043  -0.017   0.012   0.085   0.121   0.131   0.137
  0.151   0.172   0.174   0.204   0.264   0.290   0.347   0.390
  0.408   0.491   0.508   0.511   0.554   0.584   0.593   0.605
  0.614   0.625   0.631   0.648   0.673   0.687   0.737   0.743
  0.777   0.807   0.833   0.841   0.850   0.855   0.868   0.873
  0.889   0.914   0.973   1.010   1.031   1.114   1.129   1.200
  1.230   1.308   1.360   1.433   1.446   1.534   1.566   1.601
  1.657   1.705   1.746   1.779   1.806   1.831   1.885   1.892
  1.975   1.993   2.009   2.099   2.115   2.125   2.176   2.242
  2.291   2.306   2.364   2.391   2.432   2.501   2.543   2.574
  2.637   2.663   2.754   2.812   2.847   2.958   3.779   4.055
  4.168   4.177   4.283   4.404   4.451
 --------------------------------------------------------------
 
          Ground-State Mulliken Net Atomic Charges

     Atom                 Charge (a.u.)    Spin (a.u.)
  --------------------------------------------------------
      1 C                     0.069447      -0.220162
      2 C                    -0.103759       0.412663
      3 C                    -0.203266       0.380556
      4 C                    -0.087061       0.060385
      5 C                    -0.113871      -0.366314
      6 N                    -0.352925       0.724141
      7 H                     0.143381       0.019401
      8 H                     0.145982      -0.006952
      9 H                     0.167033      -0.002140
     10 H                     0.158341       0.005087
     11 H                     0.172881       0.015113
     12 C                    -0.129597      -0.015918
     13 H                     0.133414      -0.005859
  --------------------------------------------------------
  Sum of atomic charges =    -0.000000
  Sum of spin   charges =     1.000000

 -----------------------------------------------------------------
                    Cartesian Multipole Moments
 -----------------------------------------------------------------
    Charge (ESU x 10^10)
                -0.0000
    Dipole Moment (Debye)
         X      -0.5921      Y      -1.6138      Z       1.5889
       Tot       2.3409
    Quadrupole Moments (Debye-Ang)
        XX     -38.5025     XY      -2.5547     YY     -42.5605
        XZ       2.2013     YZ       5.0106     ZZ     -46.8141
    Octopole Moments (Debye-Ang^2)
       XXX      13.6770    XXY       1.1485    XYY      -5.1623
       YYY      -2.1408    XXZ      75.9332    XYZ       6.5338
       YYZ      86.0102    XZZ     -11.5237    YZZ     -12.9615
       ZZZ     255.6844
    Hexadecapole Moments (Debye-Ang^3)
      XXXX    -388.4060   XXXY     -15.0860   XXYY    -112.9493
      XYYY     -22.6728   YYYY    -308.9039   XXXZ      46.1526
      XXYZ      -0.3159   XYYZ      37.1436   YYYZ      24.2391
      XXZZ    -243.0103   XYZZ     -21.0106   YYZZ    -249.1138
      XZZZ     110.2114   YZZZ      52.9068   ZZZZ   -1138.7351
 -----------------------------------------------------------------
 Calculating analytic gradient of the SCF energy
 Gradient of SCF Energy
            1           2           3           4           5           6
    1   0.0134278  -0.0182126   0.1308518  -0.0319805  -0.0756842   0.0460583
    2   0.0101265  -0.0264233  -0.0374079  -0.0074519   0.0150737   0.0343169
    3   0.0182932  -0.0338071  -0.0112400   0.0012230   0.0481462  -0.0592869
            7           8           9          10          11          12
    1  -0.0032733  -0.0058426  -0.0149255   0.0153627   0.0014208  -0.0539547
    2  -0.0212747   0.0088480  -0.0050867   0.0017706  -0.0037615   0.0418485
    3   0.0070656   0.0048611  -0.0096732   0.0120198   0.0060045   0.0020377
           13
    1  -0.0032480
    2  -0.0105783
    3   0.0143561
 Max gradient component =       1.309E-01
 RMS gradient           =       3.360E-02
 Gradient time:  CPU 7.28 s  wall 4.63 s
 Geometry Optimization Parameters
   NAtoms,    NIC,     NZ,  NCons,   NDum,   NFix, NCnnct, MaxDiis
       13      82       0       0       0       0       0       0

 Cartesian Hessian Update
 Hessian Updated using BFGS Update


** GEOMETRY OPTIMIZATION IN DELOCALIZED INTERNAL COORDINATES **
   Searching for a Minimum

   Optimization Cycle:   3

                       Coordinates (Angstroms)
     ATOM                X               Y               Z
      1  C         1.6155285378    0.2975297887   -2.2271502569
      2  C         1.1336534368   -1.0092226673   -2.2028117660
      3  C        -0.2456374686   -1.2178626802   -2.3635787082
      4  C        -1.3166361717    0.3780210229   -0.8350374311
      5  C        -0.7729459407    0.9377768338   -2.0992659860
      6  N         0.8610014931    1.3759643529   -2.6833542258
      7  H         2.6779066851    0.3136729002   -1.9799305866
      8  H         1.7289263020   -1.7120314830   -1.6310493275
      9  H        -0.7624208573   -1.6214395289   -3.2650065369
     10  H        -1.3653228282    0.9039893635    0.1373795664
     11  H        -1.4564806946    1.4556306412   -2.7537851676
     12  C        -1.4061310654   -0.9316036276   -1.0790745552
     13  H        -1.7664293947   -1.7095677328   -0.3557824811
   Point Group: c1    Number of degrees of freedom:    33


   Energy is   -286.705722134

 Hessian Updated using BFGS Update

 33 Hessian modes will be used to form the next step
  Hessian Eigenvalues:
     0.005047    0.009438    0.012038    0.014968    0.019868    0.020879
     0.023029    0.027471    0.030877    0.035291    0.084770    0.106900
     0.126027    0.142010    0.149672    0.156163    0.158975    0.167493
     0.173928    0.203757    0.218254    0.255384    0.285138    0.301511
     0.320009    0.326899    0.351501    0.367969    0.374418    0.422906
     0.442249    0.537671    0.825589

 Minimum Search - Taking Simple RFO Step
 Searching for Lamda that Minimizes Along All modes
 Value Taken    Lamda =  -0.14589163
 Calculated Step too Large.  Step scaled by  0.318922
 Step Taken.  Stepsize is  0.300000

                             Maximum     Tolerance    Cnvgd?
         Gradient           0.077594      0.000600      NO
         Displacement       0.141493      0.002400      NO
         Energy change     -0.049632      0.000002      NO


 New Cartesian Coordinates Obtained by Inverse Iteration

 Displacement from previous Coordinates is:  0.426776
 ----------------------------------------------------------------
             Standard Nuclear Orientation (Angstroms)
    I     Atom           X                Y                Z
 ----------------------------------------------------------------
    1      C       1.5922010490     0.3070878046    -2.1940978314
    2      C       1.0967646605    -0.9857521365    -2.1829571812
    3      C      -0.3065537940    -1.1750904524    -2.3467205173
    4      C      -1.2660311628     0.3556795274    -0.8530695171
    5      C      -0.7277071080     0.8932832758    -2.1328647744
    6      N       0.8345742818     1.3500158072    -2.6443432474
    7      H       2.6564574350     0.3644954100    -1.9557558439
    8      H       1.6850177264    -1.7191447973    -1.6353265551
    9      H      -0.8198765719    -1.5525018987    -3.2481511109
   10      H      -1.3188416363     0.9047031808     0.0983140386
   11      H      -1.4110367675     1.3991865072    -2.8033415055
   12      C      -1.3669335747    -0.9520644565    -1.0738639308
   13      H      -1.7230225040    -1.7290405882    -0.3662694862
 ----------------------------------------------------------------
 Nuclear Repulsion Energy =   259.7125086276 hartrees
 There are       25 alpha and       24 beta electrons
 Applying Cartesian multipole field
    Component          Value
    ---------          -----
     (2,0,0)        1.00000E-11
     (0,2,0)        2.00000E-11
     (0,0,2)       -3.00000E-11
 Nucleus-field energy     =    -0.0000000157 hartrees
 Requested basis set is 6-31G(d)
 There are 40 shells and 117 basis functions
 A cutoff of  1.0D-14 yielded    805 shell pairs
 There are      7077 function pairs
 Smallest overlap matrix eigenvalue = 2.49E-03
 Guess MOs from SCF MO coefficient file
 Reading MOs from coefficient file
 Reading MOs from coefficient file
 An unrestricted hybrid HF-DFT SCF calculation will be
 performed using Pulay DIIS extrapolation
 Exchange:     0.2000 Hartree-Fock + 0.0800 Slater + 0.7200 B88
 Correlation:  0.1900 VWN1RPA + 0.8100 LYP
 Using SG-1 standard quadrature grid
 SCF converges when DIIS error is below 1.0E-08
 Geometry optimization detected.  Setting ReadMinima to 0
 Setting SaveMinima to 0
Using Q-Chem read-in guess as SCF_GUESS READ specified.

 using 4 threads for integral computing
 -------------------------------------------------------
 OpenMP Integral computing Module                
 Release: version 1.0, May 2013, Q-Chem Inc. Pittsburgh 
 -------------------------------------------------------
 -------------------------------------------------------
 OpenMP BLAS3 based DFT computing Module                
 Release: version 1.0, May 2013, Q-Chem Inc. Pittsburgh 
 -------------------------------------------------------
 ---------------------------------------
  Cycle       Energy         DIIS Error
 ---------------------------------------
    1    -286.8199184699      3.12E-03
    2    -286.7465900822      1.22E-03
    3    -286.7461299052      1.42E-03
    4    -286.7496842059      2.93E-04
    5    -286.7498675556      9.61E-05
    6    -286.7499295222      5.08E-05
    7    -286.7499616747      2.01E-05
    8    -286.7499998053      1.60E-05
    9    -286.7500295650      1.17E-05
   10    -286.7500408146      7.78E-06
   11    -286.7500491051      1.88E-06
   12    -286.7500510999      1.41E-06
   13    -286.7500518708      7.89E-07
   14    -286.7500521199      2.99E-07
   15    -286.7500521741      2.09E-07
   16    -286.7500521814      5.59E-08
   17    -286.7500521829      1.68E-08
   18    -286.7500521831      8.13E-09 Convergence criterion met
 ---------------------------------------
 <S^2> = 0.8021
 SCF time:  CPU 46.13 s  wall 42.86 s
 SCF   energy in the final basis set = -286.75005218
 Total energy in the final basis set = -286.75005218
 
 --------------------------------------------------------------
 
                    Orbital Energies (a.u.)
 --------------------------------------------------------------
 
 Alpha MOs
 -- Occupied --
-14.358 -10.246 -10.232 -10.221 -10.217 -10.209 -10.206  -0.897
 -0.818  -0.761  -0.651  -0.639  -0.539  -0.528  -0.493  -0.469
 -0.426  -0.416  -0.394  -0.358  -0.337  -0.296  -0.262  -0.231
 -0.213
 -- Virtual --
 -0.029  -0.015   0.012   0.097   0.126   0.130   0.143   0.151
  0.171   0.176   0.212   0.261   0.294   0.352   0.382   0.410
  0.490   0.505   0.511   0.546   0.579   0.585   0.606   0.611
  0.617   0.627   0.638   0.672   0.683   0.731   0.753   0.779
  0.805   0.824   0.832   0.843   0.846   0.867   0.873   0.887
  0.917   0.984   1.020   1.027   1.118   1.124   1.223   1.240
  1.352   1.364   1.428   1.438   1.538   1.578   1.602   1.675
  1.694   1.747   1.768   1.826   1.827   1.896   1.906   1.988
  2.018   2.027   2.099   2.132   2.151   2.195   2.257   2.292
  2.322   2.377   2.399   2.447   2.511   2.544   2.587   2.648
  2.669   2.792   2.818   2.871   2.964   3.780   4.062   4.182
  4.191   4.305   4.418   4.480
 
 Beta MOs
 -- Occupied --
-14.345 -10.249 -10.229 -10.224 -10.217 -10.209 -10.199  -0.881
 -0.812  -0.744  -0.649  -0.633  -0.537  -0.523  -0.490  -0.461
 -0.419  -0.411  -0.389  -0.351  -0.319  -0.278  -0.255  -0.218
 -- Virtual --
 -0.103  -0.026  -0.009   0.031   0.104   0.128   0.134   0.145
  0.156   0.174   0.176   0.217   0.267   0.296   0.357   0.391
  0.415   0.493   0.508   0.513   0.550   0.584   0.590   0.610
  0.616   0.621   0.634   0.641   0.673   0.689   0.736   0.755
  0.784   0.816   0.832   0.840   0.847   0.856   0.873   0.877
  0.894   0.918   0.987   1.025   1.032   1.124   1.129   1.231
  1.245   1.355   1.372   1.436   1.446   1.545   1.589   1.608
  1.685   1.702   1.755   1.776   1.835   1.840   1.905   1.910
  1.996   2.019   2.042   2.104   2.131   2.154   2.204   2.266
  2.302   2.334   2.385   2.401   2.453   2.522   2.555   2.593
  2.657   2.673   2.795   2.822   2.874   2.971   3.803   4.068
  4.182   4.193   4.306   4.423   4.485
 --------------------------------------------------------------
 
          Ground-State Mulliken Net Atomic Charges

     Atom                 Charge (a.u.)    Spin (a.u.)
  --------------------------------------------------------
      1 C                     0.073644      -0.221436
      2 C                    -0.099163       0.478204
      3 C                    -0.214670       0.210982
      4 C                    -0.078608       0.050656
      5 C                    -0.107820      -0.195184
      6 N                    -0.359474       0.659178
      7 H                     0.141596       0.016404
      8 H                     0.142393      -0.018456
      9 H                     0.167298       0.008634
     10 H                     0.150456       0.008725
     11 H                     0.168552       0.008630
     12 C                    -0.119317      -0.004090
     13 H                     0.135114      -0.002246
  --------------------------------------------------------
  Sum of atomic charges =    -0.000000
  Sum of spin   charges =     1.000000

 -----------------------------------------------------------------
                    Cartesian Multipole Moments
 -----------------------------------------------------------------
    Charge (ESU x 10^10)
                -0.0000
    Dipole Moment (Debye)
         X      -0.5807      Y      -1.6968      Z       1.4671
       Tot       2.3171
    Quadrupole Moments (Debye-Ang)
        XX     -38.5903     XY      -2.2778     YY     -42.5107
        XZ       2.3037     YZ       4.9643     ZZ     -46.2968
    Octopole Moments (Debye-Ang^2)
       XXX      13.6170    XXY       1.1195    XYY      -5.1628
       YYY      -2.0291    XXZ      75.4134    XYZ       6.2066
       YYZ      85.8307    XZZ     -11.4360    YZZ     -12.2168
       ZZZ     252.2425
    Hexadecapole Moments (Debye-Ang^3)
      XXXX    -370.7054   XXXY     -16.9151   XXYY    -108.2710
      XYYY     -25.5234   YYYY    -298.0984   XXXZ      40.8072
      XXYZ       0.4174   XYYZ      34.7541   YYYZ      24.2503
      XXZZ    -237.0480   XYZZ     -21.5075   YYZZ    -246.0300
      XZZZ     103.6164   YZZZ      49.5984   ZZZZ   -1116.3328
 -----------------------------------------------------------------
 Calculating analytic gradient of the SCF energy
 Gradient of SCF Energy
            1           2           3           4           5           6
    1   0.0032957  -0.0118670   0.1060491  -0.0246398  -0.0746898   0.0531742
    2   0.0090953  -0.0042789  -0.0516057  -0.0143762   0.0233582   0.0192415
    3   0.0174995  -0.0337827  -0.0117191  -0.0062832   0.0538355  -0.0560929
            7           8           9          10          11          12
    1  -0.0015246  -0.0037298  -0.0134535   0.0145839   0.0029211  -0.0488468
    2  -0.0157143   0.0066522   0.0002094   0.0002238  -0.0004010   0.0347042
    3   0.0070666   0.0062574  -0.0036492   0.0075717   0.0029375   0.0063415
           13
    1  -0.0012728
    2  -0.0071084
    3   0.0100173
 Max gradient component =       1.060E-01
 RMS gradient           =       3.065E-02
 Gradient time:  CPU 7.75 s  wall 2.98 s
 Geometry Optimization Parameters
   NAtoms,    NIC,     NZ,  NCons,   NDum,   NFix, NCnnct, MaxDiis
       13      82       0       0       0       0       0       0

 Cartesian Hessian Update
 Hessian Updated using BFGS Update


** GEOMETRY OPTIMIZATION IN DELOCALIZED INTERNAL COORDINATES **
   Searching for a Minimum

   Optimization Cycle:   4

                       Coordinates (Angstroms)
     ATOM                X               Y               Z
      1  C         1.5922010490    0.3070878046   -2.1940978314
      2  C         1.0967646605   -0.9857521365   -2.1829571812
      3  C        -0.3065537940   -1.1750904524   -2.3467205173
      4  C        -1.2660311628    0.3556795274   -0.8530695171
      5  C        -0.7277071080    0.8932832758   -2.1328647744
      6  N         0.8345742818    1.3500158072   -2.6443432474
      7  H         2.6564574350    0.3644954100   -1.9557558439
      8  H         1.6850177264   -1.7191447973   -1.6353265551
      9  H        -0.8198765719   -1.5525018987   -3.2481511109
     10  H        -1.3188416363    0.9047031808    0.0983140386
     11  H        -1.4110367675    1.3991865072   -2.8033415055
     12  C        -1.3669335747   -0.9520644565   -1.0738639308
     13  H        -1.7230225040   -1.7290405882   -0.3662694862
   Point Group: c1    Number of degrees of freedom:    33


   Energy is   -286.750052183

 Hessian Updated using BFGS Update

 33 Hessian modes will be used to form the next step
  Hessian Eigenvalues:
     0.007322    0.009535    0.013048    0.014977    0.019895    0.021291
     0.023324    0.027434    0.033374    0.044653    0.085934    0.114273
     0.130051    0.141937    0.149726    0.155368    0.159030    0.168147
     0.175311    0.208039    0.216925    0.255196    0.285246    0.301538
     0.317494    0.327025    0.351490    0.368739    0.375354    0.422830
     0.471654    0.543607    0.914546

 Minimum Search - Taking Simple RFO Step
 Searching for Lamda that Minimizes Along All modes
 Value Taken    Lamda =  -0.11882301
 Calculated Step too Large.  Step scaled by  0.341401
 Step Taken.  Stepsize is  0.300000

                             Maximum     Tolerance    Cnvgd?
         Gradient           0.061544      0.000600      NO
         Displacement       0.123219      0.002400      NO
         Energy change     -0.044330      0.000002      NO


 New Cartesian Coordinates Obtained by Inverse Iteration

 Displacement from previous Coordinates is:  0.424863
 ----------------------------------------------------------------
             Standard Nuclear Orientation (Angstroms)
    I     Atom           X                Y                Z
 ----------------------------------------------------------------
    1      C       1.5739527256     0.3117958166    -2.1587966970
    2      C       1.0674951178    -0.9714063900    -2.1663552700
    3      C      -0.3600963905    -1.1244295945    -2.3357609743
    4      C      -1.2210654308     0.3422491138    -0.8642994858
    5      C      -0.6894299405     0.8424412288    -2.1658894026
    6      N       0.8018214944     1.3217175073    -2.5996896439
    7      H       2.6376139788     0.4136049171    -1.9287138161
    8      H       1.6454458983    -1.7396043050    -1.6497789319
    9      H      -0.8706479737    -1.4727844623    -3.2398685638
   10      H      -1.2823620648     0.9188019929     0.0632015237
   11      H      -1.3754684902     1.3286394066    -2.8541902567
   12      C      -1.3259112187    -0.9650654527    -1.0644601799
   13      H      -1.6763356721    -1.7451025952    -0.3738457643
 ----------------------------------------------------------------
 Nuclear Repulsion Energy =   264.3031505351 hartrees
 There are       25 alpha and       24 beta electrons
 Applying Cartesian multipole field
    Component          Value
    ---------          -----
     (2,0,0)        1.00000E-11
     (0,2,0)        2.00000E-11
     (0,0,2)       -3.00000E-11
 Nucleus-field energy     =    -0.0000000158 hartrees
 Requested basis set is 6-31G(d)
 There are 40 shells and 117 basis functions
 A cutoff of  1.0D-14 yielded    807 shell pairs
 There are      7079 function pairs
 Smallest overlap matrix eigenvalue = 2.01E-03
 Guess MOs from SCF MO coefficient file
 Reading MOs from coefficient file
 Reading MOs from coefficient file
 An unrestricted hybrid HF-DFT SCF calculation will be
 performed using Pulay DIIS extrapolation
 Exchange:     0.2000 Hartree-Fock + 0.0800 Slater + 0.7200 B88
 Correlation:  0.1900 VWN1RPA + 0.8100 LYP
 Using SG-1 standard quadrature grid
 SCF converges when DIIS error is below 1.0E-08
 Geometry optimization detected.  Setting ReadMinima to 0
 Setting SaveMinima to 0
Using Q-Chem read-in guess as SCF_GUESS READ specified.

 using 4 threads for integral computing
 -------------------------------------------------------
 OpenMP Integral computing Module                
 Release: version 1.0, May 2013, Q-Chem Inc. Pittsburgh 
 -------------------------------------------------------
 -------------------------------------------------------
 OpenMP BLAS3 based DFT computing Module                
 Release: version 1.0, May 2013, Q-Chem Inc. Pittsburgh 
 -------------------------------------------------------
 ---------------------------------------
  Cycle       Energy         DIIS Error
 ---------------------------------------
    1    -286.8539502038      3.26E-03
    2    -286.7849209257      1.15E-03
    3    -286.7843958707      1.34E-03
    4    -286.7875664926      2.05E-04
    5    -286.7876459344      1.05E-04
    6    -286.7876783478      4.73E-05
    7    -286.7876927524      2.15E-05
    8    -286.7877043118      7.69E-06
    9    -286.7877109228      8.07E-06
   10    -286.7877137549      3.54E-06
   11    -286.7877144762      1.10E-06
   12    -286.7877146592      5.36E-07
   13    -286.7877147083      2.49E-07
   14    -286.7877147282      1.06E-07
   15    -286.7877147349      7.42E-08
   16    -286.7877147368      2.74E-08
   17    -286.7877147372      1.02E-08
   18    -286.7877147372      2.97E-09 Convergence criterion met
 ---------------------------------------
 <S^2> = 0.7854
 SCF time:  CPU 46.21 s  wall 30.70 s
 SCF   energy in the final basis set = -286.78771474
 Total energy in the final basis set = -286.78771474
 
 --------------------------------------------------------------
 
                    Orbital Energies (a.u.)
 --------------------------------------------------------------
 
 Alpha MOs
 -- Occupied --
-14.349 -10.240 -10.225 -10.219 -10.210 -10.206 -10.206  -0.912
 -0.826  -0.757  -0.653  -0.638  -0.540  -0.532  -0.498  -0.471
 -0.430  -0.415  -0.397  -0.361  -0.337  -0.298  -0.263  -0.240
 -0.211
 -- Virtual --
 -0.014  -0.006   0.032   0.113   0.130   0.132   0.151   0.164
  0.172   0.177   0.223   0.260   0.299   0.361   0.383   0.417
  0.491   0.505   0.515   0.542   0.574   0.586   0.604   0.610
  0.622   0.632   0.637   0.671   0.687   0.732   0.760   0.783
  0.807   0.825   0.831   0.843   0.845   0.875   0.879   0.891
  0.919   0.998   1.023   1.047   1.122   1.127   1.252   1.262
  1.376   1.409   1.426   1.436   1.535   1.591   1.629   1.679
  1.712   1.754   1.777   1.839   1.864   1.904   1.949   2.006
  2.037   2.070   2.105   2.155   2.173   2.222   2.279   2.300
  2.348   2.406   2.417   2.469   2.527   2.556   2.602   2.659
  2.675   2.814   2.843   2.899   2.972   3.806   4.075   4.194
  4.213   4.320   4.426   4.532
 
 Beta MOs
 -- Occupied --
-14.337 -10.242 -10.223 -10.222 -10.210 -10.205 -10.199  -0.897
 -0.820  -0.741  -0.652  -0.631  -0.536  -0.529  -0.494  -0.463
 -0.422  -0.410  -0.392  -0.355  -0.318  -0.280  -0.259  -0.226
 -- Virtual --
 -0.100  -0.009   0.002   0.048   0.118   0.132   0.137   0.152
  0.170   0.176   0.178   0.228   0.266   0.300   0.366   0.392
  0.421   0.494   0.508   0.519   0.546   0.579   0.594   0.605
  0.618   0.626   0.635   0.644   0.674   0.692   0.737   0.762
  0.787   0.822   0.831   0.837   0.844   0.857   0.881   0.883
  0.897   0.920   1.001   1.028   1.050   1.129   1.133   1.260
  1.269   1.381   1.415   1.434   1.443   1.543   1.599   1.636
  1.682   1.726   1.763   1.785   1.849   1.872   1.912   1.952
  2.013   2.042   2.080   2.115   2.154   2.175   2.235   2.288
  2.311   2.359   2.409   2.423   2.475   2.541   2.568   2.608
  2.667   2.680   2.817   2.845   2.903   2.978   3.827   4.081
  4.192   4.217   4.322   4.433   4.535
 --------------------------------------------------------------
 
          Ground-State Mulliken Net Atomic Charges

     Atom                 Charge (a.u.)    Spin (a.u.)
  --------------------------------------------------------
      1 C                     0.073933      -0.220874
      2 C                    -0.099883       0.530601
      3 C                    -0.220635       0.118429
      4 C                    -0.073272       0.052100
      5 C                    -0.098267      -0.112424
      6 N                    -0.360477       0.616740
      7 H                     0.140936       0.014211
      8 H                     0.139538      -0.024231
      9 H                     0.166169       0.014965
     10 H                     0.143558       0.009925
     11 H                     0.163377       0.006117
     12 C                    -0.110772      -0.004704
     13 H                     0.135795      -0.000854
  --------------------------------------------------------
  Sum of atomic charges =    -0.000000
  Sum of spin   charges =     1.000000

 -----------------------------------------------------------------
                    Cartesian Multipole Moments
 -----------------------------------------------------------------
    Charge (ESU x 10^10)
                -0.0000
    Dipole Moment (Debye)
         X      -0.5440      Y      -1.7535      Z       1.3257
       Tot       2.2645
    Quadrupole Moments (Debye-Ang)
        XX     -38.5878     XY      -2.0108     YY     -42.4965
        XZ       2.3157     YZ       4.8594     ZZ     -45.6240
    Octopole Moments (Debye-Ang^2)
       XXX      13.6266    XXY       1.2529    XYY      -4.8925
       YYY      -1.8534    XXZ      74.7150    XYZ       5.7720
       YYZ      85.6879    XZZ     -11.2270    YZZ     -11.2218
       ZZZ     248.0407
    Hexadecapole Moments (Debye-Ang^3)
      XXXX    -354.7963   XXXY     -17.3895   XXYY    -103.7149
      XYYY     -26.8436   YYYY    -286.7056   XXXZ      35.8248
      XXYZ       0.5604   XYYZ      31.7661   YYYZ      23.2832
      XXZZ    -231.1954   XYZZ     -21.1156   YYZZ    -243.0046
      XZZZ      97.4333   YZZZ      44.7029   ZZZZ   -1091.7278
 -----------------------------------------------------------------
 Calculating analytic gradient of the SCF energy
 Gradient of SCF Energy
            1           2           3           4           5           6
    1  -0.0049713  -0.0080021   0.0778910  -0.0169152  -0.0674575   0.0538807
    2   0.0084976   0.0136181  -0.0592544  -0.0199505   0.0282522   0.0056435
    3   0.0168357  -0.0319365  -0.0074045  -0.0116583   0.0533845  -0.0499067
            7           8           9          10          11          12
    1  -0.0000022  -0.0018628  -0.0115750   0.0134659   0.0040729  -0.0386754
    2  -0.0106272   0.0043857   0.0056412  -0.0010147   0.0016578   0.0269063
    3   0.0064168   0.0074094   0.0011355   0.0037971  -0.0000781   0.0060626
           13
    1   0.0001512
    2  -0.0037556
    3   0.0059425
 Max gradient component =       7.789E-02
 RMS gradient           =       2.710E-02
 Gradient time:  CPU 7.55 s  wall 6.02 s
 Geometry Optimization Parameters
   NAtoms,    NIC,     NZ,  NCons,   NDum,   NFix, NCnnct, MaxDiis
       13      82       0       0       0       0       0       0

 Cartesian Hessian Update
 Hessian Updated using BFGS Update


** GEOMETRY OPTIMIZATION IN DELOCALIZED INTERNAL COORDINATES **
   Searching for a Minimum

   Optimization Cycle:   5

                       Coordinates (Angstroms)
     ATOM                X               Y               Z
      1  C         1.5739527256    0.3117958166   -2.1587966970
      2  C         1.0674951178   -0.9714063900   -2.1663552700
      3  C        -0.3600963905   -1.1244295945   -2.3357609743
      4  C        -1.2210654308    0.3422491138   -0.8642994858
      5  C        -0.6894299405    0.8424412288   -2.1658894026
      6  N         0.8018214944    1.3217175073   -2.5996896439
      7  H         2.6376139788    0.4136049171   -1.9287138161
      8  H         1.6454458983   -1.7396043050   -1.6497789319
      9  H        -0.8706479737   -1.4727844623   -3.2398685638
     10  H        -1.2823620648    0.9188019929    0.0632015237
     11  H        -1.3754684902    1.3286394066   -2.8541902567
     12  C        -1.3259112187   -0.9650654527   -1.0644601799
     13  H        -1.6763356721   -1.7451025952   -0.3738457643
   Point Group: c1    Number of degrees of freedom:    33


   Energy is   -286.787714737

 Hessian Updated using BFGS Update

 33 Hessian modes will be used to form the next step
  Hessian Eigenvalues:
     0.008088    0.009583    0.013740    0.014984    0.019922    0.021466
     0.023523    0.027393    0.033544    0.056450    0.085243    0.117996
     0.137510    0.141880    0.150112    0.157145    0.159424    0.168955
     0.179321    0.214815    0.218228    0.255685    0.285329    0.301605
     0.316706    0.327028    0.351475    0.368975    0.375931    0.422817
     0.487879    0.558313    0.999983

 Minimum Search - Taking Simple RFO Step
 Searching for Lamda that Minimizes Along All modes
 Value Taken    Lamda =  -0.09007549
 Calculated Step too Large.  Step scaled by  0.370072
 Step Taken.  Stepsize is  0.300000

                             Maximum     Tolerance    Cnvgd?
         Gradient           0.043079      0.000600      NO
         Displacement       0.110945      0.002400      NO
         Energy change     -0.037663      0.000002      NO


 New Cartesian Coordinates Obtained by Inverse Iteration

 Displacement from previous Coordinates is:  0.419874
 ----------------------------------------------------------------
             Standard Nuclear Orientation (Angstroms)
    I     Atom           X                Y                Z
 ----------------------------------------------------------------
    1      C       1.5600859543     0.3107751490    -2.1238785149
    2      C       1.0461281070    -0.9665515371    -2.1548596271
    3      C      -0.4051892598    -1.0680010661    -2.3332526373
    4      C      -1.1838069444     0.3377958884    -0.8706198215
    5      C      -0.6580940236     0.7866145948    -2.1973377814
    6      N       0.7656042587     1.2933861468    -2.5482262557
    7      H       2.6194750568     0.4601211439    -1.8985518887
    8      H       1.6106337893    -1.7712680004    -1.6752458490
    9      H      -0.9119343348    -1.3899464431    -3.2411918472
   10      H      -1.2579639259     0.9451882897     0.0299634350
   11      H      -1.3485417494     1.2510840183    -2.9019179065
   12      C      -1.2849264096    -0.9717063232    -1.0493743788
   13      H      -1.6264584849    -1.7566346776    -0.3739543895
 ----------------------------------------------------------------
 Nuclear Repulsion Energy =   268.5601079599 hartrees
 There are       25 alpha and       24 beta electrons
 Applying Cartesian multipole field
    Component          Value
    ---------          -----
     (2,0,0)        1.00000E-11
     (0,2,0)        2.00000E-11
     (0,0,2)       -3.00000E-11
 Nucleus-field energy     =    -0.0000000158 hartrees
 Requested basis set is 6-31G(d)
 There are 40 shells and 117 basis functions
 A cutoff of  1.0D-14 yielded    807 shell pairs
 There are      7079 function pairs
 Smallest overlap matrix eigenvalue = 1.60E-03
 Guess MOs from SCF MO coefficient file
 Reading MOs from coefficient file
 Reading MOs from coefficient file
 An unrestricted hybrid HF-DFT SCF calculation will be
 performed using Pulay DIIS extrapolation
 Exchange:     0.2000 Hartree-Fock + 0.0800 Slater + 0.7200 B88
 Correlation:  0.1900 VWN1RPA + 0.8100 LYP
 Using SG-1 standard quadrature grid
 SCF converges when DIIS error is below 1.0E-08
 Geometry optimization detected.  Setting ReadMinima to 0
 Setting SaveMinima to 0
Using Q-Chem read-in guess as SCF_GUESS READ specified.

 using 4 threads for integral computing
 -------------------------------------------------------
 OpenMP Integral computing Module                
 Release: version 1.0, May 2013, Q-Chem Inc. Pittsburgh 
 -------------------------------------------------------
 -------------------------------------------------------
 OpenMP BLAS3 based DFT computing Module                
 Release: version 1.0, May 2013, Q-Chem Inc. Pittsburgh 
 -------------------------------------------------------
 ---------------------------------------
  Cycle       Energy         DIIS Error
 ---------------------------------------
    1    -286.8757693168      3.41E-03
    2    -286.8156071551      1.02E-03
    3    -286.8149578951      1.25E-03
    4    -286.8176713268      2.11E-04
    5    -286.8177371705      1.32E-04
    6    -286.8177763811      3.10E-05
    7    -286.8177837327      1.84E-05
    8    -286.8177885470      7.09E-06
    9    -286.8177902912      5.48E-06
   10    -286.8177908635      2.16E-06
   11    -286.8177909833      7.31E-07
   12    -286.8177909934      2.34E-07
   13    -286.8177909960      1.25E-07
   14    -286.8177909965      3.48E-08
   15    -286.8177909967      1.43E-08
   16    -286.8177909968      7.34E-09 Convergence criterion met
 ---------------------------------------
 <S^2> = 0.7805
 SCF time:  CPU 41.90 s  wall 30.53 s
 SCF   energy in the final basis set = -286.81779100
 Total energy in the final basis set = -286.81779100
 
 --------------------------------------------------------------
 
                    Orbital Energies (a.u.)
 --------------------------------------------------------------
 
 Alpha MOs
 -- Occupied --
-14.340 -10.232 -10.218 -10.217 -10.207 -10.205 -10.202  -0.926
 -0.834  -0.754  -0.658  -0.634  -0.544  -0.532  -0.502  -0.474
 -0.432  -0.413  -0.398  -0.363  -0.335  -0.303  -0.263  -0.247
 -0.209
 -- Virtual --
 -0.007   0.009   0.058   0.121   0.134   0.134   0.156   0.169
  0.179   0.188   0.230   0.255   0.301   0.368   0.384   0.424
  0.490   0.503   0.526   0.537   0.569   0.587   0.604   0.610
  0.627   0.635   0.644   0.668   0.695   0.735   0.762   0.780
  0.808   0.825   0.827   0.842   0.851   0.879   0.886   0.895
  0.919   1.007   1.023   1.074   1.124   1.129   1.269   1.306
  1.387   1.423   1.427   1.455   1.549   1.603   1.634   1.680
  1.730   1.767   1.801   1.855   1.890   1.914   1.991   2.031
  2.055   2.094   2.125   2.180   2.192   2.239   2.303   2.321
  2.365   2.410   2.472   2.490   2.544   2.567   2.612   2.654
  2.690   2.826   2.870   2.924   2.975   3.833   4.087   4.202
  4.241   4.330   4.434   4.590
 
 Beta MOs
 -- Occupied --
-14.329 -10.233 -10.220 -10.217 -10.205 -10.201 -10.199  -0.912
 -0.827  -0.738  -0.657  -0.627  -0.539  -0.530  -0.499  -0.466
 -0.424  -0.408  -0.394  -0.356  -0.316  -0.288  -0.260  -0.233
 -- Virtual --
 -0.097  -0.001   0.020   0.069   0.124   0.135   0.138   0.157
  0.172   0.180   0.197   0.235   0.260   0.303   0.373   0.391
  0.428   0.493   0.507   0.530   0.543   0.573   0.594   0.607
  0.618   0.631   0.636   0.652   0.673   0.699   0.740   0.764
  0.785   0.819   0.831   0.836   0.847   0.859   0.887   0.890
  0.899   0.921   1.010   1.029   1.078   1.131   1.136   1.278
  1.312   1.392   1.430   1.435   1.464   1.555   1.610   1.640
  1.688   1.741   1.775   1.812   1.865   1.896   1.923   1.994
  2.038   2.058   2.102   2.140   2.181   2.194   2.253   2.311
  2.334   2.374   2.414   2.477   2.497   2.559   2.579   2.617
  2.661   2.695   2.829   2.872   2.927   2.980   3.854   4.093
  4.200   4.246   4.332   4.442   4.593
 --------------------------------------------------------------
 
          Ground-State Mulliken Net Atomic Charges

     Atom                 Charge (a.u.)    Spin (a.u.)
  --------------------------------------------------------
      1 C                     0.070663      -0.220914
      2 C                    -0.104369       0.572451
      3 C                    -0.220715       0.060678
      4 C                    -0.070309       0.059241
      5 C                    -0.087309      -0.071843
      6 N                    -0.356910       0.588282
      7 H                     0.141054       0.012493
      8 H                     0.137807      -0.027152
      9 H                     0.163903       0.018922
     10 H                     0.138223       0.009901
     11 H                     0.157808       0.005823
     12 C                    -0.105783      -0.007766
     13 H                     0.135937      -0.000115
  --------------------------------------------------------
  Sum of atomic charges =    -0.000000
  Sum of spin   charges =     1.000000

 -----------------------------------------------------------------
                    Cartesian Multipole Moments
 -----------------------------------------------------------------
    Charge (ESU x 10^10)
                 0.0000
    Dipole Moment (Debye)
         X      -0.4931      Y      -1.7984      Z       1.1766
       Tot       2.2050
    Quadrupole Moments (Debye-Ang)
        XX     -38.5304     XY      -1.7902     YY     -42.4948
        XZ       2.2401     YZ       4.7291     ZZ     -44.8401
    Octopole Moments (Debye-Ang^2)
       XXX      13.6826    XXY       1.5194    XYY      -4.4428
       YYY      -1.6648    XXZ      73.9683    XYZ       5.3203
       YYZ      85.5156    XZZ     -10.8479    YZZ     -10.0968
       ZZZ     243.2984
    Hexadecapole Moments (Debye-Ang^3)
      XXXX    -341.1639   XXXY     -16.7795   XXYY     -99.4635
      XYYY     -26.9912   YYYY    -275.4928   XXXZ      31.3962
      XXYZ       0.1629   XYYZ      28.4537   YYYZ      21.5296
      XXZZ    -225.8769   XYZZ     -20.0308   YYZZ    -239.9252
      XZZZ      91.5373   YZZZ      38.5935   ZZZZ   -1066.0230
 -----------------------------------------------------------------
 Calculating analytic gradient of the SCF energy
 Gradient of SCF Energy
            1           2           3           4           5           6
    1  -0.0101618  -0.0048627   0.0488313  -0.0090407  -0.0523993   0.0450471
    2   0.0066251   0.0264211  -0.0609642  -0.0227673   0.0312705  -0.0061453
    3   0.0166731  -0.0279314  -0.0022803  -0.0147472   0.0473360  -0.0413635
            7           8           9          10          11          12
    1   0.0010476  -0.0002911  -0.0091551   0.0120589   0.0046505  -0.0267262
    2  -0.0060230   0.0021614   0.0110061  -0.0020238   0.0022847   0.0187259
    3   0.0054147   0.0081241   0.0044430   0.0006320  -0.0027994   0.0040831
           13
    1   0.0010013
    2  -0.0005714
    3   0.0024157
 Max gradient component =       6.096E-02
 RMS gradient           =       2.277E-02
 Gradient time:  CPU 7.86 s  wall 2.46 s
 Geometry Optimization Parameters
   NAtoms,    NIC,     NZ,  NCons,   NDum,   NFix, NCnnct, MaxDiis
       13      82       0       0       0       0       0       0

 Cartesian Hessian Update
 Hessian Updated using BFGS Update


** GEOMETRY OPTIMIZATION IN DELOCALIZED INTERNAL COORDINATES **
   Searching for a Minimum

   Optimization Cycle:   6

                       Coordinates (Angstroms)
     ATOM                X               Y               Z
      1  C         1.5600859543    0.3107751490   -2.1238785149
      2  C         1.0461281070   -0.9665515371   -2.1548596271
      3  C        -0.4051892598   -1.0680010661   -2.3332526373
      4  C        -1.1838069444    0.3377958884   -0.8706198215
      5  C        -0.6580940236    0.7866145948   -2.1973377814
      6  N         0.7656042587    1.2933861468   -2.5482262557
      7  H         2.6194750568    0.4601211439   -1.8985518887
      8  H         1.6106337893   -1.7712680004   -1.6752458490
      9  H        -0.9119343348   -1.3899464431   -3.2411918472
     10  H        -1.2579639259    0.9451882897    0.0299634350
     11  H        -1.3485417494    1.2510840183   -2.9019179065
     12  C        -1.2849264096   -0.9717063232   -1.0493743788
     13  H        -1.6264584849   -1.7566346776   -0.3739543895
   Point Group: c1    Number of degrees of freedom:    33


   Energy is   -286.817790997

 Hessian Updated using BFGS Update

 33 Hessian modes will be used to form the next step
  Hessian Eigenvalues:
     0.008291    0.009624    0.013917    0.014982    0.019944    0.021407
     0.023674    0.027368    0.033554    0.065896    0.093688    0.118306
     0.138675    0.142007    0.150159    0.158487    0.162298    0.169724
     0.184792    0.216344    0.228516    0.258073    0.285390    0.301929
     0.316116    0.327023    0.351460    0.369001    0.376302    0.422807
     0.496863    0.575035    1.067375

 Minimum Search - Taking Simple RFO Step
 Searching for Lamda that Minimizes Along All modes
 Value Taken    Lamda =  -0.06298740
 Calculated Step too Large.  Step scaled by  0.397021
 Step Taken.  Stepsize is  0.300000

                             Maximum     Tolerance    Cnvgd?
         Gradient           0.035730      0.000600      NO
         Displacement       0.120971      0.002400      NO
         Energy change     -0.030076      0.000002      NO


 New Cartesian Coordinates Obtained by Inverse Iteration

 Displacement from previous Coordinates is:  0.392195
 ----------------------------------------------------------------
             Standard Nuclear Orientation (Angstroms)
    I     Atom           X                Y                Z
 ----------------------------------------------------------------
    1      C       1.5548727443     0.3054409885    -2.0965696756
    2      C       1.0310327902    -0.9679413385    -2.1497513583
    3      C      -0.4416733452    -1.0071296645    -2.3353442449
    4      C      -1.1621044903     0.3406128047    -0.8744555110
    5      C      -0.6340487661     0.7274991590    -2.2237327993
    6      N       0.7386946871     1.2739558009    -2.4885744524
    7      H       2.6078009119     0.4969484345    -1.8739152405
    8      H       1.5799910886    -1.8081437222    -1.7116442490
    9      H      -0.9435998666    -1.3158819928    -3.2448861906
   10      H      -1.2580576794     0.9796023707    -0.0030372636
   11      H      -1.3278266444     1.1751279435    -2.9411769565
   12      C      -1.2464638558    -0.9738883243    -1.0295064868
   13      H      -1.5736055406    -1.7653452760    -0.3658530341
 ----------------------------------------------------------------
 Nuclear Repulsion Energy =   272.0437859733 hartrees
 There are       25 alpha and       24 beta electrons
 Applying Cartesian multipole field
    Component          Value
    ---------          -----
     (2,0,0)        1.00000E-11
     (0,2,0)        2.00000E-11
     (0,0,2)       -3.00000E-11
 Nucleus-field energy     =    -0.0000000157 hartrees
 Requested basis set is 6-31G(d)
 There are 40 shells and 117 basis functions
 A cutoff of  1.0D-14 yielded    807 shell pairs
 There are      7079 function pairs
 Smallest overlap matrix eigenvalue = 1.29E-03
 Guess MOs from SCF MO coefficient file
 Reading MOs from coefficient file
 Reading MOs from coefficient file
 An unrestricted hybrid HF-DFT SCF calculation will be
 performed using Pulay DIIS extrapolation
 Exchange:     0.2000 Hartree-Fock + 0.0800 Slater + 0.7200 B88
 Correlation:  0.1900 VWN1RPA + 0.8100 LYP
 Using SG-1 standard quadrature grid
 SCF converges when DIIS error is below 1.0E-08
 Geometry optimization detected.  Setting ReadMinima to 0
 Setting SaveMinima to 0
Using Q-Chem read-in guess as SCF_GUESS READ specified.

 using 4 threads for integral computing
 -------------------------------------------------------
 OpenMP Integral computing Module                
 Release: version 1.0, May 2013, Q-Chem Inc. Pittsburgh 
 -------------------------------------------------------
 -------------------------------------------------------
 OpenMP BLAS3 based DFT computing Module                
 Release: version 1.0, May 2013, Q-Chem Inc. Pittsburgh 
 -------------------------------------------------------
 ---------------------------------------
  Cycle       Energy         DIIS Error
 ---------------------------------------
    1    -286.8833077748      3.47E-03
    2    -286.8379978666      8.31E-04
    3    -286.8376727751      1.01E-03
    4    -286.8394419103      1.75E-04
    5    -286.8394923561      1.08E-04
    6    -286.8395188737      2.49E-05
    7    -286.8395256581      1.97E-05
    8    -286.8395289460      7.12E-06
    9    -286.8395300190      4.48E-06
   10    -286.8395302998      1.38E-06
   11    -286.8395303400      3.26E-07
   12    -286.8395303415      1.52E-07
   13    -286.8395303418      7.50E-08
   14    -286.8395303418      1.23E-08
   15    -286.8395303419      8.50E-09 Convergence criterion met
 ---------------------------------------
 <S^2> = 0.7790
 SCF time:  CPU 38.77 s  wall 30.62 s
[...]
     0.229115    0.245434    0.286347    0.295844    0.309879    0.320920
     0.351188    0.358529    0.373027    0.384480    0.388570    0.474058
     0.507537    0.672726    0.878587

 Minimum Search - Taking Simple RFO Step
 Searching for Lamda that Minimizes Along All modes
 Value Taken    Lamda =  -0.00000292
 Step Taken.  Stepsize is  0.008212

                             Maximum     Tolerance    Cnvgd?
         Gradient           0.000303      0.000600     YES
         Displacement       0.004096      0.002400      NO
         Energy change     -0.000003      0.000002      NO


 New Cartesian Coordinates Obtained by Inverse Iteration

 Displacement from previous Coordinates is:  0.007292
 ----------------------------------------------------------------
             Standard Nuclear Orientation (Angstroms)
    I     Atom           X                Y                Z
 ----------------------------------------------------------------
    1      C       1.6060445252     0.2655231896    -2.0967672007
    2      C       1.0624263217    -1.0245289037    -2.2016393565
    3      C      -0.4242945997    -0.8998226162    -2.2677164103
    4      C      -1.3073226274     0.4311607163    -0.8712472175
    5      C      -0.5891394424     0.6695235152    -2.1998210712
    6      N       0.7362700261     1.2701346964    -2.0908364897
    7      H       2.6693643377     0.4797709341    -1.9979513712
    8      H       1.6267664731    -1.9506007948    -2.1906056255
    9      H      -0.8996948146    -1.4506520653    -3.0898360780
   10      H      -1.7227557046     1.1247982847    -0.1465071217
   11      H      -1.1788921778     1.1591910976    -2.9844229867
   12      C      -1.1808703273    -0.8990443222    -0.9287426452
   13      H      -1.4728899565    -1.7145965484    -0.2723538883
 ----------------------------------------------------------------
 Nuclear Repulsion Energy =   273.0831475995 hartrees
 There are       25 alpha and       24 beta electrons
 Applying Cartesian multipole field
    Component          Value
    ---------          -----
     (2,0,0)        1.00000E-11
     (0,2,0)        2.00000E-11
     (0,0,2)       -3.00000E-11
 Nucleus-field energy     =    -0.0000000142 hartrees
 Requested basis set is 6-31G(d)
 There are 40 shells and 117 basis functions
 A cutoff of  1.0D-14 yielded    806 shell pairs
 There are      7078 function pairs
 Smallest overlap matrix eigenvalue = 9.72E-04
 Guess MOs from SCF MO coefficient file
 Reading MOs from coefficient file
 Reading MOs from coefficient file
 An unrestricted hybrid HF-DFT SCF calculation will be
 performed using Pulay DIIS extrapolation
 Exchange:     0.2000 Hartree-Fock + 0.0800 Slater + 0.7200 B88
 Correlation:  0.1900 VWN1RPA + 0.8100 LYP
 Using SG-1 standard quadrature grid
 SCF converges when DIIS error is below 1.0E-08
 Geometry optimization detected.  Setting ReadMinima to 0
 Setting SaveMinima to 0
Using Q-Chem read-in guess as SCF_GUESS READ specified.

 using 4 threads for integral computing
 -------------------------------------------------------
 OpenMP Integral computing Module                
 Release: version 1.0, May 2013, Q-Chem Inc. Pittsburgh 
 -------------------------------------------------------
 -------------------------------------------------------
 OpenMP BLAS3 based DFT computing Module                
 Release: version 1.0, May 2013, Q-Chem Inc. Pittsburgh 
 -------------------------------------------------------
 ---------------------------------------
  Cycle       Energy         DIIS Error
 ---------------------------------------
    1    -286.8760557289      5.33E-05
    2    -286.8754976029      1.24E-05
    3    -286.8754976196      1.27E-05
    4    -286.8754978821      2.32E-06
    5    -286.8754978898      1.16E-06
    6    -286.8754978927      2.89E-07
    7    -286.8754978932      2.04E-07
    8    -286.8754978934      6.15E-08
    9    -286.8754978935      2.91E-08
   10    -286.8754978935      1.23E-08
   11    -286.8754978935      2.81E-09 Convergence criterion met
 ---------------------------------------
 <S^2> = 0.7769
 SCF time:  CPU 28.30 s  wall 18.92 s
 SCF   energy in the final basis set = -286.87549789
 Total energy in the final basis set = -286.87549789
 
 --------------------------------------------------------------
 
                    Orbital Energies (a.u.)
 --------------------------------------------------------------
 
 Alpha MOs
 -- Occupied --
-14.328 -10.217 -10.216 -10.207 -10.203 -10.200 -10.195  -0.944
 -0.838  -0.752  -0.665  -0.618  -0.554  -0.523  -0.515  -0.481
 -0.428  -0.403  -0.386  -0.354  -0.341  -0.322  -0.270  -0.253
 -0.203
 -- Virtual --
  0.012   0.031   0.114   0.130   0.143   0.147   0.160   0.166
  0.186   0.188   0.216   0.266   0.295   0.362   0.409   0.452
  0.486   0.502   0.531   0.544   0.575   0.593   0.597   0.618
  0.624   0.634   0.655   0.680   0.695   0.748   0.773   0.786
  0.813   0.825   0.839   0.855   0.860   0.876   0.910   0.928
  0.956   0.970   1.018   1.065   1.091   1.170   1.235   1.411
  1.420   1.436   1.471   1.496   1.519   1.572   1.637   1.694
  1.762   1.821   1.882   1.886   1.935   1.948   1.977   2.028
  2.051   2.143   2.175   2.212   2.222   2.265   2.309   2.353
  2.412   2.425   2.522   2.559   2.574   2.606   2.619   2.674
  2.693   2.864   2.906   2.917   2.993   3.909   4.086   4.197
  4.295   4.373   4.449   4.716
 
 Beta MOs
 -- Occupied --
-14.318 -10.219 -10.218 -10.203 -10.199 -10.198 -10.194  -0.932
 -0.831  -0.734  -0.665  -0.610  -0.549  -0.520  -0.512  -0.475
 -0.420  -0.396  -0.381  -0.343  -0.334  -0.301  -0.264  -0.246
 -- Virtual --
 -0.087   0.016   0.054   0.116   0.132   0.147   0.149   0.162
  0.168   0.190   0.193   0.222   0.270   0.296   0.368   0.414
  0.455   0.491   0.509   0.534   0.548   0.579   0.598   0.613
  0.618   0.629   0.634   0.661   0.684   0.707   0.751   0.776
  0.794   0.821   0.831   0.845   0.859   0.863   0.884   0.913
  0.931   0.963   0.976   1.025   1.070   1.095   1.177   1.239
  1.418   1.436   1.441   1.477   1.504   1.523   1.579   1.639
  1.699   1.774   1.829   1.898   1.900   1.939   1.954   1.979
  2.031   2.053   2.148   2.185   2.225   2.234   2.270   2.322
  2.357   2.417   2.432   2.535   2.568   2.585   2.616   2.627
  2.679   2.697   2.867   2.908   2.920   2.996   3.925   4.094
  4.195   4.301   4.375   4.457   4.717
 --------------------------------------------------------------
 
          Ground-State Mulliken Net Atomic Charges

     Atom                 Charge (a.u.)    Spin (a.u.)
  --------------------------------------------------------
      1 C                     0.048301      -0.230639
      2 C                    -0.114927       0.693707
      3 C                    -0.193665      -0.053961
      4 C                    -0.075950       0.032451
      5 C                    -0.061737      -0.027731
      6 N                    -0.351409       0.516397
      7 H                     0.140556       0.007429
      8 H                     0.143342      -0.032170
      9 H                     0.148183       0.025208
     10 H                     0.137361       0.003603
     11 H                     0.151437       0.025300
     12 C                    -0.104845       0.033541
     13 H                     0.133353       0.006866
  --------------------------------------------------------
  Sum of atomic charges =     0.000000
  Sum of spin   charges =     1.000000

 -----------------------------------------------------------------
                    Cartesian Multipole Moments
 -----------------------------------------------------------------
    Charge (ESU x 10^10)
                 0.0000
    Dipole Moment (Debye)
         X      -0.4824      Y      -2.0996      Z       0.0344
       Tot       2.1546
    Quadrupole Moments (Debye-Ang)
        XX     -37.9040     XY      -2.5847     YY     -41.7266
        XZ       0.3730     YZ       4.3013     ZZ     -40.0019
    Octopole Moments (Debye-Ang^2)
       XXX      13.0524    XXY       1.9081    XYY      -3.9803
       YYY      -5.4155    XXZ      69.3080    XYZ       5.3516
       YYZ      77.4193    XZZ      -3.7399    YZZ      -6.2658
       ZZZ     217.7784
    Hexadecapole Moments (Debye-Ang^3)
      XXXX    -343.4054   XXXY     -11.0730   XXYY     -95.2741
      XYYY     -21.2139   YYYY    -256.3661   XXXZ      27.8476
      XXYZ      -1.1745   XYYZ      21.8659   YYYZ      14.3985
      XXZZ    -207.9026   XYZZ     -14.2514   YYZZ    -204.5557
      XZZZ      70.6552   YZZZ       7.7873   ZZZZ    -938.4302
 -----------------------------------------------------------------
 Calculating analytic gradient of the SCF energy
 Gradient of SCF Energy
            1           2           3           4           5           6
    1  -0.0000761  -0.0000749  -0.0002342  -0.0000554   0.0002175   0.0000874
    2   0.0000762   0.0000391   0.0002456  -0.0000102  -0.0002682  -0.0000438
    3   0.0000215  -0.0000461  -0.0000500  -0.0000799   0.0000691  -0.0000181
            7           8           9          10          11          12
    1  -0.0000110   0.0000346   0.0000536  -0.0000436  -0.0000229   0.0000523
    2   0.0000539   0.0000279  -0.0000816  -0.0000552   0.0000291  -0.0000316
    3   0.0000041   0.0000098   0.0000194  -0.0000094   0.0000517   0.0000685
           13
    1   0.0000730
    2   0.0000188
    3  -0.0000406
 Max gradient component =       2.682E-04
 RMS gradient           =       9.091E-05
 Gradient time:  CPU 7.45 s  wall 2.18 s
 Geometry Optimization Parameters
   NAtoms,    NIC,     NZ,  NCons,   NDum,   NFix, NCnnct, MaxDiis
       13      82       0       0       0       0       0       0

 Cartesian Hessian Update
 Hessian Updated using BFGS Update


** GEOMETRY OPTIMIZATION IN DELOCALIZED INTERNAL COORDINATES **
   Searching for a Minimum

   Optimization Cycle:  20

                       Coordinates (Angstroms)
     ATOM                X               Y               Z
      1  C         1.6060445252    0.2655231896   -2.0967672007
      2  C         1.0624263217   -1.0245289037   -2.2016393565
      3  C        -0.4242945997   -0.8998226162   -2.2677164103
      4  C        -1.3073226274    0.4311607163   -0.8712472175
      5  C        -0.5891394424    0.6695235152   -2.1998210712
      6  N         0.7362700261    1.2701346964   -2.0908364897
      7  H         2.6693643377    0.4797709341   -1.9979513712
      8  H         1.6267664731   -1.9506007948   -2.1906056255
      9  H        -0.8996948146   -1.4506520653   -3.0898360780
     10  H        -1.7227557046    1.1247982847   -0.1465071217
     11  H        -1.1788921778    1.1591910976   -2.9844229867
     12  C        -1.1808703273   -0.8990443222   -0.9287426452
     13  H        -1.4728899565   -1.7145965484   -0.2723538883
   Point Group: c1    Number of degrees of freedom:    33


   Energy is   -286.875497894

 Hessian Updated using BFGS Update

 33 Hessian modes will be used to form the next step
  Hessian Eigenvalues:
     0.013719    0.015618    0.016833    0.018433    0.023096    0.033473
     0.045166    0.049504    0.077907    0.130205    0.136637    0.138756
     0.149827    0.152839    0.160836    0.171544    0.197539    0.216629
     0.242456    0.244282    0.288332    0.296315    0.309877    0.321384
     0.351196    0.359988    0.373255    0.385969    0.395095    0.474166
     0.508838    0.681716    0.947722

 Minimum Search - Taking Simple RFO Step
 Searching for Lamda that Minimizes Along All modes
 Value Taken    Lamda =  -0.00000115
 Step Taken.  Stepsize is  0.004421

                             Maximum     Tolerance    Cnvgd?
         Gradient           0.000271      0.000600     YES
         Displacement       0.002334      0.002400     YES
         Energy change     -0.000000      0.000002     YES


                       Distance Matrix (Angstroms)
             C (  1)   C (  2)   C (  3)   C (  4)   C (  5)   N (  6)
   C (  2)  1.403835
   C (  3)  2.347239  1.493404
   C (  4)  3.164971  3.082967  2.121646
   C (  5)  2.234428  2.365901  1.579440  1.528958
   N (  6)  1.328829  2.320374  2.467167  2.523400  1.459220
   H (  7)  1.089181  2.210578  3.398055  4.133505  3.270261  2.090492
   H (  8)  2.218207  1.084532  2.305847  4.002796  3.431527  3.343064
   H (  9)  3.195336  2.195540  1.097861  2.937604  2.320284  3.328222
   H ( 10)  3.952566  4.074361  3.206964  1.085802  2.389238  3.138208
   H ( 11)  3.056542  3.225661  2.307081  2.238757  1.096897  2.116282
   C ( 12)  3.238425  2.582323  1.537940  1.337438  2.103851  3.119491
   H ( 13)  4.090134  3.259780  2.396848  2.233911  3.190638  4.134717
             H (  7)   H (  8)   H (  9)   H ( 10)   H ( 11)   C ( 12)
   H (  8)  2.651572
   H (  9)  4.202015  2.727924
   H ( 10)  4.809847  4.985551  3.996694
   H ( 11)  4.030362  4.262942  2.626851  2.889764
   C ( 12)  4.227132  3.252829  2.248034  2.236397  2.908979
   H ( 13)  4.995118  3.652842  2.887287  2.853144  3.962374  1.086852

 
 Final energy is   -286.875497893501     


 ******************************
 **  OPTIMIZATION CONVERGED  **
 ******************************

                       Coordinates (Angstroms)
     ATOM                X               Y               Z
      1  C         1.6060445252    0.2655231896   -2.0967672007
      2  C         1.0624263217   -1.0245289037   -2.2016393565
      3  C        -0.4242945997   -0.8998226162   -2.2677164103
      4  C        -1.3073226274    0.4311607163   -0.8712472175
      5  C        -0.5891394424    0.6695235152   -2.1998210712
      6  N         0.7362700261    1.2701346964   -2.0908364897
      7  H         2.6693643377    0.4797709341   -1.9979513712
      8  H         1.6267664731   -1.9506007948   -2.1906056255
      9  H        -0.8996948146   -1.4506520653   -3.0898360780
     10  H        -1.7227557046    1.1247982847   -0.1465071217
     11  H        -1.1788921778    1.1591910976   -2.9844229867
     12  C        -1.1808703273   -0.8990443222   -0.9287426452
     13  H        -1.4728899565   -1.7145965484   -0.2723538883

Z-matrix Print:
$molecule
0 2
N 
C  1 1.328829
H  2 1.089181 1 119.332957
C  2 1.403835 1 116.206421 3 178.531874 0
H  4 1.084532 2 125.620978 1 -178.029948 0
C  1 1.459220 2 106.440196 3 -178.423901 0
H  6 1.096897 1 110.979488 2 -130.777105 0
C  4 1.493404 2 108.184246 1 -0.561082 0
H  8 1.097861 4 114.981288 2 129.942630 0
C  6 1.528958 1 115.208690 2 94.820859 0
H  10 1.085802 6 131.308801 1 68.740659 0
C  10 1.337438 6 94.202942 1 -109.115500 0
H  12 1.086852 10 134.023684 6 179.157531 0
$end

 
 --------------------------------------------------------------
 
                    Orbital Energies (a.u.)
 --------------------------------------------------------------
 
 Alpha MOs
 -- Occupied --
-14.328 -10.217 -10.216 -10.207 -10.203 -10.200 -10.195  -0.944
 -0.838  -0.752  -0.665  -0.618  -0.554  -0.523  -0.515  -0.481
 -0.428  -0.403  -0.386  -0.354  -0.341  -0.322  -0.270  -0.253
 -0.203
 -- Virtual --
  0.012   0.031   0.114   0.130   0.143   0.147   0.160   0.166
  0.186   0.188   0.216   0.266   0.295   0.362   0.409   0.452
  0.486   0.502   0.531   0.544   0.575   0.593   0.597   0.618
  0.624   0.634   0.655   0.680   0.695   0.748   0.773   0.786
  0.813   0.825   0.839   0.855   0.860   0.876   0.910   0.928
  0.956   0.970   1.018   1.065   1.091   1.170   1.235   1.411
  1.420   1.436   1.471   1.496   1.519   1.572   1.637   1.694
  1.762   1.821   1.882   1.886   1.935   1.948   1.977   2.028
  2.051   2.143   2.175   2.212   2.222   2.265   2.309   2.353
  2.412   2.425   2.522   2.559   2.574   2.606   2.619   2.674
  2.693   2.864   2.906   2.917   2.993   3.909   4.086   4.197
  4.295   4.373   4.449   4.716
 
 Beta MOs
 -- Occupied --
-14.318 -10.219 -10.218 -10.203 -10.199 -10.198 -10.194  -0.932
 -0.831  -0.734  -0.665  -0.610  -0.549  -0.520  -0.512  -0.475
 -0.420  -0.396  -0.381  -0.343  -0.334  -0.301  -0.264  -0.246
 -- Virtual --
 -0.087   0.016   0.054   0.116   0.132   0.147   0.149   0.162
  0.168   0.190   0.193   0.222   0.270   0.296   0.368   0.414
  0.455   0.491   0.509   0.534   0.548   0.579   0.598   0.613
  0.618   0.629   0.634   0.661   0.684   0.707   0.751   0.776
  0.794   0.821   0.831   0.845   0.859   0.863   0.884   0.913
  0.931   0.963   0.976   1.025   1.070   1.095   1.177   1.239
  1.418   1.436   1.441   1.477   1.504   1.523   1.579   1.639
  1.699   1.774   1.829   1.898   1.900   1.939   1.954   1.979
  2.031   2.053   2.148   2.185   2.225   2.234   2.270   2.322
  2.357   2.417   2.432   2.535   2.568   2.585   2.616   2.627
  2.679   2.697   2.867   2.908   2.920   2.996   3.925   4.094
  4.195   4.301   4.375   4.457   4.717
 --------------------------------------------------------------
 
          Ground-State Mulliken Net Atomic Charges

     Atom                 Charge (a.u.)    Spin (a.u.)
  --------------------------------------------------------
      1 C                     0.048301      -0.230639
      2 C                    -0.114927       0.693707
      3 C                    -0.193665      -0.053961
      4 C                    -0.075950       0.032451
      5 C                    -0.061737      -0.027731
      6 N                    -0.351409       0.516397
      7 H                     0.140556       0.007429
      8 H                     0.143342      -0.032170
      9 H                     0.148183       0.025208
     10 H                     0.137361       0.003603
     11 H                     0.151437       0.025300
     12 C                    -0.104845       0.033541
     13 H                     0.133353       0.006866
  --------------------------------------------------------
  Sum of atomic charges =     0.000000
  Sum of spin   charges =     1.000000

 -----------------------------------------------------------------
                    Cartesian Multipole Moments
 -----------------------------------------------------------------
    Charge (ESU x 10^10)
                 0.0000
    Dipole Moment (Debye)
         X      -0.4824      Y      -2.0996      Z       0.0344
       Tot       2.1546
    Quadrupole Moments (Debye-Ang)
        XX     -37.9040     XY      -2.5847     YY     -41.7266
        XZ       0.3730     YZ       4.3013     ZZ     -40.0019
    Octopole Moments (Debye-Ang^2)
       XXX      13.0524    XXY       1.9081    XYY      -3.9803
       YYY      -5.4155    XXZ      69.3080    XYZ       5.3516
       YYZ      77.4193    XZZ      -3.7399    YZZ      -6.2658
       ZZZ     217.7784
    Hexadecapole Moments (Debye-Ang^3)
      XXXX    -343.4054   XXXY     -11.0730   XXYY     -95.2741
      XYYY     -21.2139   YYYY    -256.3661   XXXZ      27.8476
      XXYZ      -1.1745   XYYZ      21.8659   YYYZ      14.3985
      XXZZ    -207.9026   XYZZ     -14.2514   YYZZ    -204.5557
      XZZZ      70.6552   YZZZ       7.7873   ZZZZ    -938.4302
 -----------------------------------------------------------------
Archival summary:
1\1\c8-66\OPT\ProcedureUnspecified\6-31G*\166(2)\hpark21\TueMar118:52:372022TueMar118:52:372022\0\\#,OPT,ProcedureUnspecified,6-31G*,\\0,2\N\C,1,1.32883\H,2,1.08918,1,119.333\C,2,1.40384,1,116.206,3,178.532,0\H,4,1.08453,2,125.621,1,-178.03,0\C,1,1.45922,2,106.44,3,-178.424,0\H,6,1.0969,1,110.979,2,-130.777,0\C,4,1.4934,2,108.184,1,-0.561082,0\H,8,1.09786,4,114.981,2,129.943,0\C,6,1.52896,1,115.209,2,94.8209,0\H,10,1.0858,6,131.309,1,68.7407,0\C,10,1.33744,6,94.2029,1,-109.116,0\H,12,1.08685,10,134.024,6,179.158,0\\\@

 Total job time:  706.91s(wall), 902.71s(cpu) 
 Tue Mar  1 18:52:37 2022

        *************************************************************
        *                                                           *
        *  Thank you very much for using Q-Chem.  Have a nice day.  *
        *                                                           *
        *************************************************************


