13   
From optimize.out: Frame 1 / 20, Energy=    -286.6016109429
C        0.0561960000   -0.2061790000   -0.0000000000
C       -0.1227890000    0.2841010000   -0.0000000000
C       -0.1742910000    0.6930710000   -0.0000000000
C       -0.1085500000    0.0946050000   -0.0000000000
C       -0.1148120000   -0.7382400000   -0.0000000000
N       -0.3264730000    0.9143060000   -0.0000000000
H        0.1508330000    0.0277410000   -0.0000000000
H        0.1543860000    0.0211580000   -0.0000000000
H        0.1608470000   -0.0222450000   -0.0000000000
H        0.1699500000   -0.0040530000    0.0000000000
H        0.1781660000    0.0276020000   -0.0000000000
C       -0.1481900000   -0.0691440000   -0.0000000000
H        0.1247270000   -0.0227230000   -0.0000000000
13   
From optimize.out: Frame 2 / 20, Energy=    -286.6560897366
C        0.0621590000   -0.2174440000   -0.0000000000
C       -0.1120130000    0.3484150000   -0.0000000000
C       -0.1889690000    0.5709890000   -0.0000000000
C       -0.0979900000    0.0789170000   -0.0000000000
C       -0.1154010000   -0.5836370000   -0.0000000000
N       -0.3406370000    0.8168070000   -0.0000000000
H        0.1466030000    0.0234360000   -0.0000000000
H        0.1499440000    0.0081050000   -0.0000000000
H        0.1649330000   -0.0138710000   -0.0000000000
H        0.1652740000   -0.0002540000    0.0000000000
H        0.1757250000    0.0230880000   -0.0000000000
C       -0.1399820000   -0.0417070000   -0.0000000000
H        0.1303570000   -0.0128430000   -0.0000000000
13   
From optimize.out: Frame 3 / 20, Energy=    -286.7057221343
C        0.0694470000   -0.2201620000   -0.0000000000
C       -0.1037590000    0.4126630000   -0.0000000000
C       -0.2032660000    0.3805560000   -0.0000000000
C       -0.0870610000    0.0603850000   -0.0000000000
C       -0.1138710000   -0.3663140000   -0.0000000000
N       -0.3529250000    0.7241410000   -0.0000000000
H        0.1433810000    0.0194010000   -0.0000000000
H        0.1459820000   -0.0069520000   -0.0000000000
H        0.1670330000   -0.0021400000   -0.0000000000
H        0.1583410000    0.0050870000    0.0000000000
H        0.1728810000    0.0151130000   -0.0000000000
C       -0.1295970000   -0.0159180000   -0.0000000000
H        0.1334140000   -0.0058590000   -0.0000000000
13   
From optimize.out: Frame 4 / 20, Energy=    -286.7500521831
C        0.0736440000   -0.2214360000   -0.0000000000
C       -0.0991630000    0.4782040000   -0.0000000000
C       -0.2146700000    0.2109820000   -0.0000000000
C       -0.0786080000    0.0506560000   -0.0000000000
C       -0.1078200000   -0.1951840000   -0.0000000000
N       -0.3594740000    0.6591780000   -0.0000000000
H        0.1415960000    0.0164040000   -0.0000000000
H        0.1423930000   -0.0184560000   -0.0000000000
H        0.1672980000    0.0086340000   -0.0000000000
H        0.1504560000    0.0087250000    0.0000000000
H        0.1685520000    0.0086300000   -0.0000000000
C       -0.1193170000   -0.0040900000   -0.0000000000
H        0.1351140000   -0.0022460000   -0.0000000000
13   
From optimize.out: Frame 5 / 20, Energy=    -286.7877147372
C        0.0739330000   -0.2208740000   -0.0000000000
C       -0.0998830000    0.5306010000   -0.0000000000
C       -0.2206350000    0.1184290000   -0.0000000000
C       -0.0732720000    0.0521000000   -0.0000000000
C       -0.0982670000   -0.1124240000   -0.0000000000
N       -0.3604770000    0.6167400000   -0.0000000000
H        0.1409360000    0.0142110000   -0.0000000000
H        0.1395380000   -0.0242310000   -0.0000000000
H        0.1661690000    0.0149650000   -0.0000000000
H        0.1435580000    0.0099250000    0.0000000000
H        0.1633770000    0.0061170000   -0.0000000000
C       -0.1107720000   -0.0047040000   -0.0000000000
H        0.1357950000   -0.0008540000   -0.0000000000
13   
From optimize.out: Frame 6 / 20, Energy=    -286.8177909968
C        0.0706630000   -0.2209140000   -0.0000000000
C       -0.1043690000    0.5724510000   -0.0000000000
C       -0.2207150000    0.0606780000   -0.0000000000
C       -0.0703090000    0.0592410000   -0.0000000000
C       -0.0873090000   -0.0718430000   -0.0000000000
N       -0.3569100000    0.5882820000   -0.0000000000
H        0.1410540000    0.0124930000   -0.0000000000
H        0.1378070000   -0.0271520000   -0.0000000000
H        0.1639030000    0.0189220000   -0.0000000000
H        0.1382230000    0.0099010000    0.0000000000
H        0.1578080000    0.0058230000   -0.0000000000
C       -0.1057830000   -0.0077660000   -0.0000000000
H        0.1359370000   -0.0001150000   -0.0000000000
13   
From optimize.out: Frame 7 / 20, Energy=    -286.8395303419
C        0.0662770000   -0.2232540000   -0.0000000000
C       -0.1107990000    0.6122440000   -0.0000000000
C       -0.2138830000    0.0146630000   -0.0000000000
C       -0.0695760000    0.0678650000   -0.0000000000
C       -0.0769260000   -0.0500630000   -0.0000000000
N       -0.3525840000    0.5674990000   -0.0000000000
H        0.1415230000    0.0111720000   -0.0000000000
H        0.1369560000   -0.0289130000   -0.0000000000
H        0.1603150000    0.0218510000   -0.0000000000
H        0.1347510000    0.0087610000   -0.0000000000
H        0.1525380000    0.0068350000   -0.0000000000
C       -0.1048410000   -0.0093940000   -0.0000000000
H        0.1362500000    0.0007360000   -0.0000000000
13   
From optimize.out: Frame 8 / 20, Energy=    -286.8535901546
C        0.0623470000   -0.2259140000   -0.0000000000
C       -0.1168370000    0.6484160000   -0.0000000000
C       -0.2053690000   -0.0137150000   -0.0000000000
C       -0.0702750000    0.0755080000   -0.0000000000
C       -0.0694980000   -0.0407030000   -0.0000000000
N       -0.3499990000    0.5458020000   -0.0000000000
H        0.1415760000    0.0100760000   -0.0000000000
H        0.1378950000   -0.0304940000   -0.0000000000
H        0.1564780000    0.0231590000   -0.0000000000
H        0.1336930000    0.0069400000   -0.0000000000
H        0.1489930000    0.0093520000   -0.0000000000
C       -0.1052390000   -0.0103160000   -0.0000000000
H        0.1362370000    0.0018890000   -0.0000000000
13   
From optimize.out: Frame 9 / 20, Energy=    -286.8627706007
C        0.0573640000   -0.2269890000   -0.0000000000
C       -0.1203910000    0.6742820000   -0.0000000000
C       -0.2047070000   -0.0271350000   -0.0000000000
C       -0.0727140000    0.0797140000   -0.0000000000
C       -0.0631660000   -0.0376390000   -0.0000000000
N       -0.3463260000    0.5250750000   -0.0000000000
H        0.1411470000    0.0091280000   -0.0000000000
H        0.1410890000   -0.0318330000   -0.0000000000
H        0.1535960000    0.0232080000   -0.0000000000
H        0.1345120000    0.0054140000   -0.0000000000
H        0.1480310000    0.0135420000   -0.0000000000
C       -0.1035840000   -0.0098230000   -0.0000000000
H        0.1351480000    0.0030560000   -0.0000000000
13   
From optimize.out: Frame 10 / 20, Energy=    -286.8680344355
C        0.0569300000   -0.2271630000   -0.0000000000
C       -0.1253590000    0.6963370000   -0.0000000000
C       -0.1929910000   -0.0401030000   -0.0000000000
C       -0.0753040000    0.0687970000   -0.0000000000
C       -0.0635120000   -0.0339000000   -0.0000000000
N       -0.3477270000    0.5135290000   -0.0000000000
H        0.1413440000    0.0081740000   -0.0000000000
H        0.1401800000   -0.0325550000   -0.0000000000
H        0.1519690000    0.0234750000   -0.0000000000
H        0.1345610000    0.0044450000   -0.0000000000
H        0.1475460000    0.0161420000   -0.0000000000
C       -0.1032190000   -0.0011940000   -0.0000000000
H        0.1355830000    0.0040150000   -0.0000000000
13   
From optimize.out: Frame 11 / 20, Energy=    -286.8721884081
C        0.0515950000   -0.2290540000   -0.0000000000
C       -0.1258260000    0.7037650000   -0.0000000000
C       -0.1984240000   -0.0446440000   -0.0000000000
C       -0.0793850000    0.0628580000   -0.0000000000
C       -0.0573110000   -0.0334320000   -0.0000000000
N       -0.3454130000    0.5074860000   -0.0000000000
H        0.1409290000    0.0077690000   -0.0000000000
H        0.1445250000   -0.0329520000   -0.0000000000
H        0.1495750000    0.0233270000   -0.0000000000
H        0.1364240000    0.0038070000   -0.0000000000
H        0.1498760000    0.0208720000   -0.0000000000
C       -0.1001010000    0.0052620000   -0.0000000000
H        0.1335350000    0.0049360000   -0.0000000000
13   
From optimize.out: Frame 12 / 20, Energy=    -286.8733571575
C        0.0497700000   -0.2304400000   -0.0000000000
C       -0.1221210000    0.7034440000   -0.0000000000
C       -0.1960240000   -0.0500710000   -0.0000000000
C       -0.0777110000    0.0445280000   -0.0000000000
C       -0.0627780000   -0.0305190000   -0.0000000000
N       -0.3436510000    0.5126920000   -0.0000000000
H        0.1401140000    0.0075140000   -0.0000000000
H        0.1434010000   -0.0327200000   -0.0000000000
H        0.1503440000    0.0231010000   -0.0000000000
H        0.1369050000    0.0031670000   -0.0000000000
H        0.1500530000    0.0243550000   -0.0000000000
C       -0.1023940000    0.0188180000   -0.0000000000
H        0.1340930000    0.0061300000   -0.0000000000
13   
From optimize.out: Frame 13 / 20, Energy=    -286.8749476888
C        0.0488880000   -0.2327950000   -0.0000000000
C       -0.1218340000    0.6976740000   -0.0000000000
C       -0.1893700000   -0.0521180000   -0.0000000000
C       -0.0769120000    0.0342600000   -0.0000000000
C       -0.0619230000   -0.0294590000   -0.0000000000
N       -0.3498400000    0.5191790000   -0.0000000000
H        0.1403940000    0.0075950000   -0.0000000000
H        0.1438550000   -0.0323790000   -0.0000000000
H        0.1490920000    0.0235280000   -0.0000000000
H        0.1374810000    0.0035020000   -0.0000000000
H        0.1511770000    0.0253500000   -0.0000000000
C       -0.1044590000    0.0292350000   -0.0000000000
H        0.1334520000    0.0064290000   -0.0000000000
13   
From optimize.out: Frame 15 / 20, Energy=    -286.8754236956
C        0.0482160000   -0.2315330000   -0.0000000000
C       -0.1145020000    0.6919860000   -0.0000000000
C       -0.1946120000   -0.0532880000   -0.0000000000
C       -0.0757380000    0.0329810000   -0.0000000000
C       -0.0616460000   -0.0282250000   -0.0000000000
N       -0.3517860000    0.5207360000   -0.0000000000
H        0.1405440000    0.0074610000   -0.0000000000
H        0.1437020000   -0.0320990000   -0.0000000000
H        0.1480110000    0.0253790000   -0.0000000000
H        0.1371020000    0.0035780000   -0.0000000000
H        0.1517330000    0.0246760000   -0.0000000000
C       -0.1043680000    0.0316690000   -0.0000000000
H        0.1333450000    0.0066790000   -0.0000000000
13   
From optimize.out: Frame 16 / 20, Energy=    -286.8754577478
C        0.0481140000   -0.2304100000   -0.0000000000
C       -0.1159970000    0.6938820000   -0.0000000000
C       -0.1929860000   -0.0538880000   -0.0000000000
C       -0.0750540000    0.0326100000   -0.0000000000
C       -0.0616440000   -0.0278450000   -0.0000000000
N       -0.3504410000    0.5157750000   -0.0000000000
H        0.1402920000    0.0074300000   -0.0000000000
H        0.1434040000   -0.0321840000   -0.0000000000
H        0.1484110000    0.0248650000   -0.0000000000
H        0.1375640000    0.0035650000   -0.0000000000
H        0.1510930000    0.0256250000   -0.0000000000
C       -0.1060640000    0.0336050000   -0.0000000000
H        0.1333100000    0.0069700000   -0.0000000000
13   
From optimize.out: Frame 17 / 20, Energy=    -286.8754884654
C        0.0484760000   -0.2309140000   -0.0000000000
C       -0.1151700000    0.6940430000   -0.0000000000
C       -0.1935160000   -0.0537470000   -0.0000000000
C       -0.0760630000    0.0326060000   -0.0000000000
C       -0.0618810000   -0.0279340000   -0.0000000000
N       -0.3516160000    0.5170250000   -0.0000000000
H        0.1406130000    0.0074450000   -0.0000000000
H        0.1433700000   -0.0321870000   -0.0000000000
H        0.1483540000    0.0251060000   -0.0000000000
H        0.1371700000    0.0036060000   -0.0000000000
H        0.1513700000    0.0252360000   -0.0000000000
C       -0.1045030000    0.0329610000   -0.0000000000
H        0.1333960000    0.0067550000   -0.0000000000
13   
From optimize.out: Frame 18 / 20, Energy=    -286.8754945903
C        0.0483040000   -0.2307260000   -0.0000000000
C       -0.1147660000    0.6934560000   -0.0000000000
C       -0.1936510000   -0.0539940000   -0.0000000000
C       -0.0756480000    0.0322830000   -0.0000000000
C       -0.0619380000   -0.0276980000   -0.0000000000
N       -0.3515110000    0.5168940000   -0.0000000000
H        0.1405720000    0.0074280000   -0.0000000000
H        0.1433560000   -0.0321570000   -0.0000000000
H        0.1481010000    0.0253400000   -0.0000000000
H        0.1373570000    0.0035720000   -0.0000000000
H        0.1515700000    0.0251680000   -0.0000000000
C       -0.1050290000    0.0335510000   -0.0000000000
H        0.1332820000    0.0068820000   -0.0000000000
13   
From optimize.out: Frame 19 / 20, Energy=    -286.8754973989
C        0.0481510000   -0.2308270000   -0.0000000000
C       -0.1147780000    0.6935720000   -0.0000000000
C       -0.1938820000   -0.0539690000   -0.0000000000
C       -0.0758590000    0.0323690000   -0.0000000000
C       -0.0616850000   -0.0277600000   -0.0000000000
N       -0.3513440000    0.5167650000   -0.0000000000
H        0.1405750000    0.0074380000   -0.0000000000
H        0.1434290000   -0.0321620000   -0.0000000000
H        0.1481660000    0.0252330000   -0.0000000000
H        0.1373540000    0.0036070000   -0.0000000000
H        0.1514720000    0.0252930000   -0.0000000000
C       -0.1049770000    0.0335780000   -0.0000000000
H        0.1333780000    0.0068640000   -0.0000000000
