13   
From optimize.out: Frame 1 / 20, Energy=    -286.6016109429
C        1.6724666002    0.2714977792   -2.2875031831
C        1.2259645833   -1.0686676246   -2.2454874339
C       -0.1041993824   -1.2614514482   -2.3964946520
C       -1.4259825743    0.4375325262   -0.7782271405
C       -0.8716363330    0.9961133296   -2.0347408725
N        0.8894013276    1.4096363791   -2.7601400372
H        2.7250213295    0.1963304939   -2.0257696814
H        1.8170177249   -1.7269903515   -1.6393003330
H       -0.6258770018   -1.7043079812   -3.3188764320
H       -1.4744974551    0.9328548670    0.2341907790
H       -1.5734813856    1.5042300734   -2.6584302618
C       -1.4768361376   -0.8649699484   -1.0867823532
H       -1.8523492621   -1.6609509111   -0.3408858609
13   
From optimize.out: Frame 2 / 20, Energy=    -286.6560897366
C        1.6452360467    0.2858225344   -2.2586415584
C        1.1769890429   -1.0379667816   -2.2239665311
C       -0.1788142476   -1.2488014633   -2.3812146150
C       -1.3712605750    0.4058703454   -0.8094802305
C       -0.8214955547    0.9724778347   -2.0662177153
N        0.8812596362    1.3981112542   -2.7219644641
H        2.7041712548    0.2604891047   -2.0031486916
H        1.7749407534   -1.7157788074   -1.6340810333
H       -0.7012772741   -1.6730806616   -3.2880227702
H       -1.4201262357    0.9144397350    0.1822911166
H       -1.5099340443    1.4922068941   -2.7066002859
C       -1.4440602971   -0.9039030112   -1.0816878362
H       -1.8106164718   -1.6890297939   -0.3457128476
13   
From optimize.out: Frame 3 / 20, Energy=    -286.7057221343
C        1.6155285378    0.2975297887   -2.2271502569
C        1.1336534368   -1.0092226673   -2.2028117660
C       -0.2456374686   -1.2178626802   -2.3635787082
C       -1.3166361717    0.3780210229   -0.8350374311
C       -0.7729459407    0.9377768338   -2.0992659860
N        0.8610014931    1.3759643529   -2.6833542258
H        2.6779066851    0.3136729002   -1.9799305866
H        1.7289263020   -1.7120314830   -1.6310493275
H       -0.7624208573   -1.6214395289   -3.2650065369
H       -1.3653228282    0.9039893635    0.1373795664
H       -1.4564806946    1.4556306412   -2.7537851676
C       -1.4061310654   -0.9316036276   -1.0790745552
H       -1.7664293947   -1.7095677328   -0.3557824811
13   
From optimize.out: Frame 4 / 20, Energy=    -286.7500521831
C        1.5922010490    0.3070878046   -2.1940978314
C        1.0967646605   -0.9857521365   -2.1829571812
C       -0.3065537940   -1.1750904524   -2.3467205173
C       -1.2660311628    0.3556795274   -0.8530695171
C       -0.7277071080    0.8932832758   -2.1328647744
N        0.8345742818    1.3500158072   -2.6443432474
H        2.6564574350    0.3644954100   -1.9557558439
H        1.6850177264   -1.7191447973   -1.6353265551
H       -0.8198765719   -1.5525018987   -3.2481511109
H       -1.3188416363    0.9047031808    0.0983140386
H       -1.4110367675    1.3991865072   -2.8033415055
C       -1.3669335747   -0.9520644565   -1.0738639308
H       -1.7230225040   -1.7290405882   -0.3662694862
13   
From optimize.out: Frame 5 / 20, Energy=    -286.7877147372
C        1.5739527256    0.3117958166   -2.1587966970
C        1.0674951178   -0.9714063900   -2.1663552700
C       -0.3600963905   -1.1244295945   -2.3357609743
C       -1.2210654308    0.3422491138   -0.8642994858
C       -0.6894299405    0.8424412288   -2.1658894026
N        0.8018214944    1.3217175073   -2.5996896439
H        2.6376139788    0.4136049171   -1.9287138161
H        1.6454458983   -1.7396043050   -1.6497789319
H       -0.8706479737   -1.4727844623   -3.2398685638
H       -1.2823620648    0.9188019929    0.0632015237
H       -1.3754684902    1.3286394066   -2.8541902567
C       -1.3259112187   -0.9650654527   -1.0644601799
H       -1.6763356721   -1.7451025952   -0.3738457643
13   
From optimize.out: Frame 6 / 20, Energy=    -286.8177909968
C        1.5600859543    0.3107751490   -2.1238785149
C        1.0461281070   -0.9665515371   -2.1548596271
C       -0.4051892598   -1.0680010661   -2.3332526373
C       -1.1838069444    0.3377958884   -0.8706198215
C       -0.6580940236    0.7866145948   -2.1973377814
N        0.7656042587    1.2933861468   -2.5482262557
H        2.6194750568    0.4601211439   -1.8985518887
H        1.6106337893   -1.7712680004   -1.6752458490
H       -0.9119343348   -1.3899464431   -3.2411918472
H       -1.2579639259    0.9451882897    0.0299634350
H       -1.3485417494    1.2510840183   -2.9019179065
C       -1.2849264096   -0.9717063232   -1.0493743788
H       -1.6264584849   -1.7566346776   -0.3739543895
13   
From optimize.out: Frame 7 / 20, Energy=    -286.8395303419
C        1.5548727443    0.3054409885   -2.0965696756
C        1.0310327902   -0.9679413385   -2.1497513583
C       -0.4416733452   -1.0071296645   -2.3353442449
C       -1.1621044903    0.3406128047   -0.8744555110
C       -0.6340487661    0.7274991590   -2.2237327993
N        0.7386946871    1.2739558009   -2.4885744524
H        2.6078009119    0.4969484345   -1.8739152405
H        1.5799910886   -1.8081437222   -1.7116442490
H       -0.9435998666   -1.3158819928   -3.2448861906
H       -1.2580576794    0.9796023707   -0.0030372636
H       -1.3278266444    1.1751279435   -2.9411769565
C       -1.2464638558   -0.9738883243   -1.0295064868
H       -1.5736055406   -1.7653452760   -0.3658530341
13   
From optimize.out: Frame 8 / 20, Energy=    -286.8535901546
C        1.5571411183    0.2962775906   -2.0883745739
C        1.0231765063   -0.9779039871   -2.1497937063
C       -0.4662181387   -0.9620864730   -2.3370301214
C       -1.1627146124    0.3515173600   -0.8780954390
C       -0.6178130515    0.6867891224   -2.2381509826
N        0.7246419338    1.2716930271   -2.4163276833
H        2.6053342205    0.5177687882   -1.8740953693
H        1.5623027497   -1.8442300495   -1.7515874954
H       -0.9563892450   -1.2931811467   -3.2430871466
H       -1.2933655777    1.0131359986   -0.0314242441
H       -1.3091269862    1.1391692944   -2.9594108118
C       -1.2161540780   -0.9705114459   -1.0145002361
H       -1.5258028054   -1.7675808957   -0.3565696527
13   
From optimize.out: Frame 9 / 20, Energy=    -286.8627706007
C        1.5615032860    0.2836269296   -2.0966710224
C        1.0263977635   -0.9978183108   -2.1522514150
C       -0.4752287210   -0.9438828119   -2.3363672558
C       -1.1791803461    0.3704740625   -0.8775112112
C       -0.6072872859    0.6818916187   -2.2379979127
N        0.7134910287    1.2717149090   -2.3378245093
H        2.6080660519    0.5287124467   -1.9055179503
H        1.5660620622   -1.8799811715   -1.7951069458
H       -0.9411029677   -1.3291510663   -3.2356820050
H       -1.3580175859    1.0412392209   -0.0479063929
H       -1.2917034902    1.1529665979   -2.9571858916
C       -1.1987220633   -0.9590574973   -1.0068885547
H       -1.4992656986   -1.7598777442   -0.3515363958
13   
From optimize.out: Frame 10 / 20, Energy=    -286.8680344355
C        1.5811108449    0.2768616618   -2.0919701303
C        1.0302806441   -1.0029442415   -2.1689379651
C       -0.4822794152   -0.9064931708   -2.3181090956
C       -1.2205295044    0.3844511165   -0.8784181923
C       -0.5972275870    0.6550518687   -2.2336088780
N        0.7306430019    1.2744497396   -2.2515612666
H        2.6330080133    0.5229640339   -1.9382011837
H        1.5715570113   -1.9088113332   -1.8885444576
H       -0.9457078981   -1.3206945273   -3.2069978940
H       -1.4658636902    1.0712006049   -0.0806597458
H       -1.2590963636    1.1203355047   -2.9795256987
C       -1.1837490499   -0.9477710350   -0.9778895693
H       -1.4671339733   -1.7577430390   -0.3240233856
13   
From optimize.out: Frame 11 / 20, Energy=    -286.8721884081
C        1.5870936689    0.2648792815   -2.1110968018
C        1.0471260176   -1.0270885155   -2.1677034109
C       -0.4684954562   -0.9060658148   -2.3105893612
C       -1.2405255289    0.4059990949   -0.8695365040
C       -0.5977375979    0.6748223327   -2.2253494830
N        0.7192297716    1.2617186106   -2.1931261171
H        2.6376145140    0.5289758359   -1.9880049556
H        1.5914327220   -1.9415198611   -1.9386655531
H       -0.8994493215   -1.3923135127   -3.1850485042
H       -1.5402444292    1.0899805527   -0.0860498520
H       -1.2494439300    1.1747511117   -2.9581513878
C       -1.1843426395   -0.9292710675   -0.9764141806
H       -1.4772457573   -1.7440108649   -0.3287113513
13   
From optimize.out: Frame 12 / 20, Energy=    -286.8733571575
C        1.5991814114    0.2711741676   -2.1189925295
C        1.0551170525   -1.0223812879   -2.2020045361
C       -0.4605597274   -0.9157179989   -2.2871963375
C       -1.2853503074    0.4194926907   -0.8664513759
C       -0.5702880966    0.6786183623   -2.1929373546
N        0.7410899844    1.2848098825   -2.1032384468
H        2.6587140043    0.5101356839   -2.0282191274
H        1.6178313117   -1.9415815828   -2.0637476297
H       -0.9134821843   -1.4314944031   -3.1372947770
H       -1.6615084740    1.1085127565   -0.1196901076
H       -1.1766480668    1.1480859022   -2.9800980780
C       -1.1896101843   -0.9173541261   -0.9442347523
H       -1.4894746897   -1.7314428636   -0.2943424099
13   
From optimize.out: Frame 13 / 20, Energy=    -286.8749476888
C        1.6115196865    0.2604800291   -2.1084046240
C        1.0719299386   -1.0319153068   -2.2055677154
C       -0.4342832385   -0.8973809699   -2.2637447091
C       -1.3142060538    0.4287187157   -0.8685520428
C       -0.5851939072    0.6602386914   -2.1986528374
N        0.7394992625    1.2634483037   -2.0768547762
H        2.6741056480    0.4914110198   -2.0387763633
H        1.6338922129   -1.9584028065   -2.1601014889
H       -0.8975949477   -1.4386163327   -3.0970252216
H       -1.7477827317    1.1232412298   -0.1567341967
H       -1.1678134568    1.1822835434   -2.9683260761
C       -1.1824069335   -0.9028959440   -0.9239108486
H       -1.4766534456   -1.7197529894   -0.2717965626
13   
From optimize.out: Frame 15 / 20, Energy=    -286.8754236956
C        1.6074584827    0.2667927369   -2.1053606347
C        1.0662552217   -1.0231971758   -2.2014940120
C       -0.4239817293   -0.9009190839   -2.2662604744
C       -1.2999318601    0.4280956974   -0.8658767317
C       -0.5899456105    0.6749904765   -2.1970801555
N        0.7376566309    1.2732830246   -2.1003752008
H        2.6709143611    0.4802771624   -2.0056305240
H        1.6282634092   -1.9502499350   -2.1708653574
H       -0.9003281400   -1.4509288283   -3.0884421030
H       -1.7218182014    1.1194768329   -0.1424929280
H       -1.1803316579    1.1645113566   -2.9811904735
C       -1.1844269806   -0.9027812029   -0.9335790578
H       -1.4847718922   -1.7184938782   -0.2797998096
13   
From optimize.out: Frame 16 / 20, Energy=    -286.8754577478
C        1.6051145208    0.2641775178   -2.0961887776
C        1.0652078589   -1.0260663453   -2.2067049534
C       -0.4245316629   -0.9005966066   -2.2679507959
C       -1.3065295210    0.4321400815   -0.8691398974
C       -0.5868695531    0.6654107566   -2.1979293853
N        0.7345318029    1.2670017996   -2.0881032033
H        2.6678744154    0.4825084182   -1.9993812569
H        1.6299521814   -1.9518830230   -2.1926541748
H       -0.9012337235   -1.4441763264   -3.0939997322
H       -1.7292088041    1.1265793767   -0.1497029399
H       -1.1748386922    1.1561093538   -2.9832971423
C       -1.1810114677   -0.8984409984   -0.9255684428
H       -1.4734453213   -1.7119068209   -0.2678267608
13   
From optimize.out: Frame 17 / 20, Energy=    -286.8754884654
C        1.6073466579    0.2646660809   -2.0971033665
C        1.0626429748   -1.0251000311   -2.2017309801
C       -0.4247460739   -0.8990402307   -2.2667126136
C       -1.3098564103    0.4304407369   -0.8726147472
C       -0.5890217181    0.6703886759   -2.1993500367
N        0.7384078917    1.2703680017   -2.0885899850
H        2.6713454393    0.4781952600   -2.0031981472
H        1.6260880866   -1.9516647113   -2.1883032020
H       -0.9011782340   -1.4482305656   -3.0892193973
H       -1.7304779060    1.1225969506   -0.1495601159
H       -1.1774793703    1.1627077009   -2.9833369771
C       -1.1795994740   -0.8995678347   -0.9282921937
H       -1.4684598302   -1.7149028500   -0.2704357002
13   
From optimize.out: Frame 18 / 20, Energy=    -286.8754945903
C        1.6061119602    0.2663705745   -2.0987337106
C        1.0628394557   -1.0238050828   -2.2008840048
C       -0.4238220835   -0.9001415868   -2.2679637480
C       -1.3041989835    0.4308482979   -0.8696905400
C       -0.5896694241    0.6697582571   -2.1995646273
N        0.7358433798    1.2706382710   -2.0926475741
H        2.6692570581    0.4807226874   -1.9981944460
H        1.6267276656   -1.9501126586   -2.1869029428
H       -0.8989987108   -1.4515140880   -3.0897091714
H       -1.7190774657    1.1242858814   -0.1443702647
H       -1.1801900633    1.1584741755   -2.9842427893
C       -1.1827664416   -0.8995952430   -0.9306788262
H       -1.4770443134   -1.7150723024   -0.2748648171
13   
From optimize.out: Frame 19 / 20, Energy=    -286.8754973989
C        1.6060818748    0.2654688266   -2.0966664538
C        1.0631578079   -1.0248847171   -2.2013841498
C       -0.4235227525   -0.9005648825   -2.2670066351
C       -1.3067798986    0.4311015165   -0.8706826190
C       -0.5892843752    0.6698630652   -2.1995492851
N        0.7359261421    1.2700952156   -2.0912911873
H        2.6694049307    0.4800663948   -1.9987998581
H        1.6275699946   -1.9509148397   -2.1906798870
H       -0.8997297027   -1.4484567055   -3.0906704262
H       -1.7229667990    1.1248166219   -0.1463851390
H       -1.1790083012    1.1582473564   -2.9849879559
C       -1.1814292130   -0.8993197482   -0.9284301089
H       -1.4744076742   -1.7146609205   -0.2719137573
