13   
From optimize.out: Frame 29 / 30, Energy=    -286.8549308504
C        1.6774688141    0.3774503491   -0.2344494559
C        1.1088240356   -0.8462505356   -0.3004518600
C       -0.3292781738   -1.0590548081   -0.0694932338
C       -1.1502135752    0.3399325069    0.0839446471
C       -0.3165333041    1.5350772917   -0.1445994920
N        0.9694900417    1.5798387480   -0.2042314064
H        2.7527781877    0.4947146914   -0.3403912610
H        1.7151986111   -1.7167416076   -0.5388188414
H       -0.7972305314   -1.8957382884   -0.5914925113
H       -2.1699032729    0.4131518336   -0.2992776960
H       -0.8541783408    2.4674113564   -0.3341600216
C       -0.9261070981   -0.6008677321    1.1838200781
H       -1.6803153939   -1.0889238048    1.7896010540
13   
From optimize.out: Frame 28 / 30, Energy=    -286.8549273759
C        1.6774289247    0.3773532643   -0.2356348894
C        1.1087218336   -0.8459260701   -0.3004652667
C       -0.3303309985   -1.0581404020   -0.0707751777
C       -1.1498696371    0.3383160688    0.0816285603
C       -0.3163474686    1.5350730941   -0.1440062826
N        0.9693027473    1.5801833714   -0.2044327916
H        2.7527021590    0.4947432617   -0.3416270621
H        1.7150432645   -1.7174432612   -0.5352075963
H       -0.7984822711   -1.8949895061   -0.5923027199
H       -2.1692122863    0.4114813652   -0.3024599919
H       -0.8544801545    2.4678823070   -0.3300269936
C       -0.9257377629   -0.6008424685    1.1835795453
H       -1.6787383500   -1.0876910246    1.7917306663
13   
From optimize.out: Frame 27 / 30, Energy=    -286.8549172159
C        1.6771780763    0.3766852163   -0.2373882848
C        1.1089479636   -0.8464791125   -0.3005017471
C       -0.3318996732   -1.0559120785   -0.0730496486
C       -1.1492806526    0.3359695566    0.0792057701
C       -0.3166050216    1.5350897053   -0.1434810193
N        0.9685493404    1.5803449453   -0.2057179604
H        2.7524180462    0.4946730031   -0.3428433367
H        1.7154008440   -1.7193021820   -0.5296104336
H       -0.7983275604   -1.8925631479   -0.5966185825
H       -2.1681750073    0.4089630385   -0.3061491484
H       -0.8553682176    2.4685598218   -0.3242140822
C       -0.9259966233   -0.6014711521    1.1833839425
H       -1.6768415146   -1.0845576140    1.7969845310
13   
From optimize.out: Frame 26 / 30, Energy=    -286.8548972723
C        1.6767456339    0.3764385149   -0.2395598391
C        1.1087026629   -0.8473383059   -0.3013658216
C       -0.3342328173   -1.0539509167   -0.0750017033
C       -1.1481916611    0.3349824355    0.0790905341
C       -0.3166131263    1.5361884421   -0.1426078830
N        0.9680193548    1.5808645244   -0.2084112633
H        2.7519669584    0.4952426112   -0.3442319722
H        1.7159699298   -1.7213695654   -0.5229409202
H       -0.7966142183   -1.8921154704   -0.6000722075
H       -2.1666411485    0.4087763898   -0.3076424319
H       -0.8558766207    2.4698788378   -0.3205156099
C       -0.9265922866   -0.6037918092    1.1831875720
H       -1.6766426609   -1.0838056880    1.8000715460
13   
From optimize.out: Frame 25 / 30, Energy=    -286.8548658305
C        1.6765177409    0.3761444758   -0.2419691596
C        1.1086906415   -0.8484889468   -0.3028788622
C       -0.3348180453   -1.0523911827   -0.0759500543
C       -1.1474051493    0.3360201056    0.0840268186
C       -0.3166257341    1.5372828909   -0.1418924574
N        0.9674472109    1.5808829089   -0.2133604972
H        2.7517014236    0.4954806786   -0.3460045309
H        1.7179015983   -1.7231575347   -0.5157438861
H       -0.7926457592   -1.8918432520   -0.6034065826
H       -2.1657069928    0.4118020912   -0.3031574108
H       -0.8567246043    2.4702579472   -0.3206799904
C       -0.9276712854   -0.6062096154    1.1836246498
H       -1.6806610449   -1.0857805666    1.7973919631
13   
From optimize.out: Frame 24 / 30, Energy=    -286.8547816427
C        1.6806134482    0.3767575358   -0.2420707592
C        1.1116900890   -0.8449833707   -0.2993331222
C       -0.3345170955   -1.0478808680   -0.0717722127
C       -1.1453300684    0.3277160974    0.0779400091
C       -0.3159312489    1.5321467003   -0.1426283184
N        0.9690584493    1.5801931459   -0.2105236464
H        2.7553918145    0.4970667999   -0.3493059230
H        1.7136122812   -1.7210544070   -0.5264375633
H       -0.7959213532   -1.8850216246   -0.5995443126
H       -2.1657786346    0.3992092397   -0.3034101287
H       -0.8564789412    2.4658025615   -0.3161141021
C       -0.9224665460   -0.6023118966    1.1946923835
H       -1.6939421944   -1.0776399135    1.7885076961
13   
From optimize.out: Frame 23 / 30, Energy=    -286.8547425591
C        1.6758383530    0.3754214935   -0.2391005619
C        1.1090523105   -0.8486079344   -0.2946566050
C       -0.3394982479   -1.0485726462   -0.0795000701
C       -1.1425447846    0.3300629191    0.0700975488
C       -0.3178020168    1.5370972832   -0.1479275455
N        0.9675161297    1.5824993342   -0.2123794575
H        2.7520261799    0.4937088199   -0.3356137483
H        1.7144592421   -1.7232640835   -0.5192951916
H       -0.8053543928   -1.8755812695   -0.6183140151
H       -2.1647574389    0.3973039569   -0.3069712199
H       -0.8573608478    2.4713302751   -0.3215411425
C       -0.9258336446   -0.6080876798    1.1866161247
H       -1.6657408418   -1.0833104685    1.8185858839
13   
From optimize.out: Frame 22 / 30, Energy=    -286.8543882159
C        1.6750978682    0.3720465562   -0.2280562610
C        1.1108864426   -0.8492091985   -0.2905131057
C       -0.3382772324   -1.0520851302   -0.0809643145
C       -1.1490605412    0.3216988593    0.0443098603
C       -0.3214804359    1.5307768556   -0.1473917924
N        0.9655841137    1.5786441006   -0.1883114441
H        2.7510808615    0.4914608722   -0.3255344193
H        1.7105379334   -1.7191923451   -0.5475715579
H       -0.8180813298   -1.8716115765   -0.6187254230
H       -2.1681976045    0.3804641941   -0.3409484804
H       -0.8570066822    2.4693567114   -0.3098177966
C       -0.9267107278   -0.5958648947    1.1783474418
H       -1.6343726656   -1.0564850045    1.8551772929
13   
From optimize.out: Frame 21 / 30, Energy=    -286.8538710719
C        1.6722033803    0.3681100562   -0.2170233835
C        1.1105382422   -0.8518290162   -0.2908780933
C       -0.3377072256   -1.0582409362   -0.0844528951
C       -1.1580228530    0.3171949891    0.0229156141
C       -0.3256167828    1.5263174738   -0.1437009311
N        0.9621288158    1.5736875500   -0.1639512177
H        2.7477235078    0.4897950730   -0.3157506343
H        1.7082579130   -1.7160519320   -0.5711167630
H       -0.8247608505   -1.8767396945   -0.6176675381
H       -2.1711550196    0.3718868326   -0.3780654623
H       -0.8564543951    2.4691073425   -0.2970829609
C       -0.9308875791   -0.5859267721    1.1637549950
H       -1.5962471534   -1.0273109662    1.8930192702
13   
From optimize.out: Frame 20 / 30, Energy=    -286.8533073539
C        1.6694270780    0.3634019751   -0.2066308564
C        1.1098243606   -0.8556806213   -0.2949632233
C       -0.3367273982   -1.0640753701   -0.0884999564
C       -1.1689113957    0.3145507875    0.0076143476
C       -0.3303181181    1.5220105296   -0.1370865981
N        0.9576571048    1.5669242711   -0.1411192679
H        2.7441171785    0.4889371169   -0.3075906220
H        1.7076694261   -1.7139431345   -0.5920792592
H       -0.8242845646   -1.8865408382   -0.6165516361
H       -2.1743554500    0.3685948538   -0.4130375031
H       -0.8563776905    2.4683949501   -0.2849992708
C       -0.9379685255   -0.5777779324    1.1479387380
H       -1.5597520053   -0.9947965876    1.9270051076
13   
From optimize.out: Frame 19 / 30, Energy=    -286.8528185216
C        1.6656047886    0.3597684021   -0.1984389422
C        1.1069721197   -0.8598128006   -0.2996847324
C       -0.3387249554   -1.0685435410   -0.0962751161
C       -1.1774315827    0.3157594293    0.0013949942
C       -0.3344211778    1.5214725365   -0.1324587750
N        0.9533942497    1.5624724584   -0.1288765262
H        2.7402490474    0.4874531427   -0.2962238861
H        1.7081803051   -1.7149718714   -0.5984873075
H       -0.8214455451   -1.8942071715   -0.6249994296
H       -2.1768871825    0.3724260501   -0.4343671388
H       -0.8570502713    2.4695997245   -0.2820041158
C       -0.9478023739   -0.5791448155    1.1319835080
H       -1.5206374218   -0.9722715436    1.9584374675
13   
From optimize.out: Frame 18 / 30, Energy=    -286.8524128618
C        1.6617589916    0.3574388543   -0.1920696647
C        1.1028976376   -0.8629277843   -0.3038507430
C       -0.3430293925   -1.0709936609   -0.1069288086
C       -1.1835957688    0.3186375389    0.0025467681
C       -0.3376093664    1.5228491711   -0.1309020679
N        0.9498867414    1.5602407625   -0.1260876451
H        2.7370594239    0.4852241904   -0.2820448551
H        1.7084867775   -1.7182477316   -0.5930400631
H       -0.8182909997   -1.8972409989   -0.6422755155
H       -2.1794272521    0.3799931291   -0.4424644676
H       -0.8583889696    2.4710771753   -0.2867200328
C       -0.9584028013   -0.5875390363    1.1179998808
H       -1.4813450215   -0.9585116095    1.9858372146
13   
From optimize.out: Frame 17 / 30, Energy=    -286.8520701191
C        1.6583993114    0.3568611881   -0.1870816417
C        1.0975185949   -0.8641505264   -0.3077163640
C       -0.3501442235   -1.0718633397   -0.1195697870
C       -1.1877490965    0.3220923441    0.0088778852
C       -0.3394558619    1.5255746364   -0.1308405379
N        0.9476780456    1.5600583725   -0.1300272282
H        2.7347935892    0.4832079733   -0.2662243564
H        1.7069255877   -1.7226818805   -0.5789034971
H       -0.8158966027   -1.8977109716   -0.6641612506
H       -2.1815857029    0.3899906982   -0.4415949780
H       -0.8595823433    2.4724112513   -0.2977231415
C       -0.9684367853   -0.6013018422    1.1061058767
H       -1.4424645128   -0.9524879035    2.0088590207
13   
From optimize.out: Frame 16 / 30, Energy=    -286.8518656536
C        1.6569176695    0.3569192289   -0.1850740290
C        1.0940835366   -0.8643877600   -0.3098169467
C       -0.3554491177   -1.0697447469   -0.1296719573
C       -1.1893600291    0.3249512499    0.0195958201
C       -0.3401566477    1.5275192358   -0.1331788255
N        0.9467532728    1.5605806087   -0.1396567608
H        2.7342912119    0.4812285152   -0.2543511294
H        1.7060259158   -1.7268457339   -0.5622766783
H       -0.8132170695   -1.8924641083   -0.6859822053
H       -2.1833497263    0.3981906133   -0.4312362338
H       -0.8611401716    2.4720304709   -0.3103940803
C       -0.9756962705   -0.6135483970    1.1003654864
H       -1.4197025742   -0.9544291766    2.0216775399
13   
From optimize.out: Frame 15 / 30, Energy=    -286.8516161431
C        1.6554988609    0.3597667552   -0.1861517866
C        1.0887080230   -0.8624210996   -0.3101002829
C       -0.3652137233   -1.0655077237   -0.1418300459
C       -1.1863180382    0.3299490385    0.0361543872
C       -0.3382991585    1.5327894439   -0.1378293016
N        0.9483912651    1.5647782969   -0.1595086707
H        2.7344473500    0.4796645333   -0.2407570645
H        1.7033475444   -1.7313783898   -0.5325796371
H       -0.8145799037   -1.8826835131   -0.7126455896
H       -2.1831821796    0.4098516714   -0.4092174087
H       -0.8617675896    2.4724806718   -0.3327672387
C       -0.9824644328   -0.6334977212    1.0965955416
H       -1.3985680178   -0.9737919636    2.0306370974
13   
From optimize.out: Frame 14 / 30, Energy=    -286.8510516062
C        1.6530950346    0.3632899356   -0.1900665164
C        1.0822395020   -0.8595322391   -0.3052653805
C       -0.3766512454   -1.0577021965   -0.1581774154
C       -1.1771772137    0.3365405137    0.0595585493
C       -0.3352882111    1.5392142484   -0.1499770065
N        0.9511717928    1.5709222142   -0.1943407071
H        2.7342233047    0.4748214705   -0.2207804794
H        1.7015807976   -1.7356268053   -0.4843557140
H       -0.8236237975   -1.8554543725   -0.7568237810
H       -2.1824307325    0.4216684589   -0.3668469187
H       -0.8643480071    2.4710851208   -0.3658096648
C       -0.9878504597   -0.6598315735    1.0951950626
H       -1.3749407646   -1.0093947754    2.0376899721
13   
From optimize.out: Frame 13 / 30, Energy=    -286.8501563296
C        1.6481190936    0.3667834814   -0.1934621723
C        1.0732177727   -0.8560338790   -0.2959329280
C       -0.3896416016   -1.0527571799   -0.1759000046
C       -1.1645050642    0.3417220598    0.0745199681
C       -0.3323237305    1.5449784611   -0.1675310876
N        0.9538728903    1.5769247408   -0.2295378575
H        2.7310000481    0.4688076062   -0.1964998956
H        1.6980349222   -1.7372374809   -0.4285593899
H       -0.8454649204   -1.8202763170   -0.8046311522
H       -2.1815477914    0.4276034278   -0.3226315148
H       -0.8667066598    2.4708600091   -0.3955624270
C       -0.9844846704   -0.6836743292    1.0932566342
H       -1.3395702886   -1.0477006001    2.0424718272
13   
From optimize.out: Frame 12 / 30, Energy=    -286.8495625433
C        1.6437390835    0.3673456667   -0.1939059063
C        1.0673710384   -0.8555523576   -0.2877768380
C       -0.3967749809   -1.0532690076   -0.1866277786
C       -1.1584143744    0.3428029056    0.0766260292
C       -0.3323665558    1.5468207101   -0.1789169136
N        0.9539222893    1.5786760576   -0.2462095078
H        2.7271605592    0.4644416659   -0.1806805122
H        1.6958225842   -1.7382294039   -0.3945049375
H       -0.8634446928   -1.7947229413   -0.8367288231
H       -2.1834134820    0.4256020540   -0.2993392121
H       -0.8685316505    2.4713949204   -0.4081656215
C       -0.9753916759   -0.6915003466    1.0913615458
H       -1.3096781423   -1.0638099233    2.0448684757
13   
From optimize.out: Frame 11 / 30, Energy=    -286.8481871088
C        1.6340496489    0.3652800197   -0.1877891757
C        1.0561113120   -0.8590049611   -0.2681678001
C       -0.4081823423   -1.0644000422   -0.2025320912
C       -1.1567794378    0.3388348599    0.0652083273
C       -0.3377214946    1.5456490409   -0.1960364384
N        0.9498400433    1.5772512909   -0.2568265894
H        2.7177722483    0.4562581776   -0.1560570610
H        1.6882111384   -1.7431896573   -0.3446678578
H       -0.8957427322   -1.7479891817   -0.8967653927
H       -2.1926896263    0.4100773641   -0.2795463849
H       -0.8726935318    2.4736583779   -0.4142561311
C       -0.9435561300   -0.6857428292    1.0870703392
H       -1.2386190959   -1.0666824594    2.0503662560
13   
From optimize.out: Frame 10 / 30, Energy=    -286.8453139741
C        1.6236919040    0.3616510151   -0.1782324112
C        1.0437807856   -0.8647194290   -0.2479707702
C       -0.4198882654   -1.0793074836   -0.2161997308
C       -1.1611267759    0.3323457015    0.0488435335
C       -0.3455585890    1.5427722645   -0.2085878031
N        0.9437060880    1.5736072738   -0.2571117347
H        2.7075060075    0.4480379107   -0.1361160884
H        1.6764639664   -1.7508990747   -0.3037726884
H       -0.9179099684   -1.7067518250   -0.9530371576
H       -2.2039958556    0.3917618449   -0.2736245568
H       -0.8775930957    2.4762134423   -0.4106209603
C       -0.9063501952   -0.6705152232    1.0813795983
H       -1.1627260063   -1.0541964173    2.0550507698
13   
From optimize.out: Frame 9 / 30, Energy=    -286.8406774762
C        1.6129295974    0.3570627860   -0.1673731414
C        1.0304797181   -0.8718899437   -0.2285291992
C       -0.4326927706   -1.0958989192   -0.2283369812
C       -1.1694232504    0.3245907342    0.0305920074
C       -0.3545451448    1.5394625341   -0.2162574730
N        0.9363659598    1.5689985030   -0.2514391178
H        2.6967823206    0.4401440912   -0.1204044130
H        1.6611824878   -1.7610315059   -0.2682758832
H       -0.9288398765   -1.6737017668   -1.0049747248
H       -2.2164244330    0.3741724344   -0.2766874354
H       -0.8832704089    2.4787454392   -0.3995785347
C       -0.8668997641   -0.6498620411    1.0734241091
H       -1.0856444356   -1.0307923454    2.0578407873
13   
From optimize.out: Frame 8 / 30, Energy=    -286.8343030878
C        1.6020843455    0.3514507315   -0.1566052056
C        1.0170222307   -0.8800910903   -0.2105707373
C       -0.4465501275   -1.1130849900   -0.2388614927
C       -1.1805871197    0.3160361253    0.0118472264
C       -0.3639530246    1.5359148361   -0.2189727081
N        0.9281196621    1.5638927243   -0.2419870129
H        2.6858554352    0.4329287174   -0.1087448151
H        1.6435659532   -1.7730823517   -0.2366878638
H       -0.9288202556   -1.6496155701   -1.0525727827
H       -2.2297532402    0.3589469962   -0.2857724832
H       -0.8897160853    2.4806645881   -0.3822343881
C       -0.8271376912   -0.6254535353    1.0629351565
H       -1.0101300827   -0.9985071817    2.0582271065
13   
From optimize.out: Frame 7 / 30, Energy=    -286.8263266283
C        1.5915171424    0.3443809532   -0.1467526349
C        1.0045472998   -0.8889402294   -0.1946333475
C       -0.4610714366   -1.1299139544   -0.2476266594
C       -1.1940217659    0.3069691878   -0.0065259076
C       -0.3734091636    1.5319047659   -0.2170061981
N        0.9189513312    1.5583711615   -0.2299958460
H        2.6749360581    0.4264949960   -0.1009192874
H        1.6250673355   -1.7864365279   -0.2088026761
H       -0.9185445867   -1.6343526410   -1.0956118576
H       -2.2439832270    0.3468793011   -0.2988450172
H       -0.8968296497    2.4813929528   -0.3594006492
C       -0.7886357059   -0.5980660585    1.0500391778
H       -0.9385236315   -0.9586839072    2.0560809032
13   
From optimize.out: Frame 6 / 30, Energy=    -286.8168501503
C        1.5816196141    0.3353228883   -0.1381517312
C        0.9941452341   -0.8981133151   -0.1811796900
C       -0.4758322813   -1.1454570596   -0.2548982856
C       -1.2094521219    0.2977301397   -0.0241130435
C       -0.3828619937    1.5272029717   -0.2107902893
N        0.9086573545    1.5524257080   -0.2161105003
H        2.6642209876    0.4207862620   -0.0963337985
H        1.6069709130   -1.8005938130   -0.1848606256
H       -0.8993376468   -1.6279337106   -1.1334598486
H       -2.2592514706    0.3383077137   -0.3145536435
H       -0.9045434770    2.4805996793   -0.3316492986
C       -0.7523313628   -0.5679985278    1.0348000870
H       -0.8720037491   -0.9122789366    2.0513006677
13   
From optimize.out: Frame 5 / 30, Energy=    -286.8058005639
C        1.5728420975    0.3237863101   -0.1307806100
C        0.9866924261   -0.9074279878   -0.1706612988
C       -0.4903862004   -1.1588353188   -0.2614876622
C       -1.2268374577    0.2887205961   -0.0408899842
C       -0.3925708011    1.5216336163   -0.2006403732
N        0.8969130129    1.5461595008   -0.2005181651
H        2.6539255966    0.4156898211   -0.0938748817
H        1.5902103738   -1.8152845861   -0.1650095712
H       -0.8734753326   -1.6309490241   -1.1652088726
H       -2.2758193740    0.3332328731   -0.3320632393
H       -0.9129816329    2.4780846417   -0.2992706496
C       -0.7182972521   -0.5351264330    1.0168921650
H       -0.8102154561   -0.8596840094    2.0435131430
13   
From optimize.out: Frame 4 / 30, Energy=    -286.7928164945
C        1.5655851194    0.3092952907   -0.1244065466
C        0.9828598988   -0.9168967286   -0.1634213658
C       -0.5040351192   -1.1692096464   -0.2687325676
C       -1.2461506415    0.2803572925   -0.0569980915
C       -0.4031091446    1.5149391115   -0.1866545821
N        0.8832213952    1.5398574166   -0.1832116687
H        2.6441835145    0.4108099259   -0.0919365682
H        1.5755392674   -1.8303625327   -0.1489170088
H       -0.8442368800   -1.6440988453   -1.1902982670
H       -2.2940199091    0.3311701611   -0.3505416049
H       -0.9225974372    2.4734685913   -0.2623344687
C       -0.6857581474   -0.4988455637    0.9955132217
H       -0.7514819164   -0.8004844730    2.0319395181
13   
From optimize.out: Frame 3 / 30, Energy=    -286.7771639615
C        1.5600716469    0.2914538296   -0.1187287648
C        0.9831527448   -0.9265476458   -0.1594874166
C       -0.5154609323   -1.1756072099   -0.2783553018
C       -1.2668269084    0.2730432780   -0.0725214002
C       -0.4154990877    1.5066062371   -0.1688652902
N        0.8668015075    1.5334957938   -0.1642073999
H        2.6350721162    0.4046289675   -0.0886663921
H        1.5638373971   -1.8453838176   -0.1355995717
H       -0.8156035225   -1.6669373379   -1.2094198198
H       -2.3139365118    0.3307845262   -0.3685767610
H       -0.9346890260    2.4657871351   -0.2208257282
C       -0.6533544611   -0.4580337540    0.9696710624
H       -0.6935649628   -0.7332900022    2.0155827838
13   
From optimize.out: Frame 2 / 30, Energy=    -286.7576749622
C        1.5552634183    0.2710215961   -0.1131890507
C        0.9873105277   -0.9351703459   -0.1584583613
C       -0.5226994475   -1.1768725930   -0.2915995884
C       -1.2865948544    0.2667864725   -0.0875817573
C       -0.4301493231    1.4944281293   -0.1474305839
N        0.8469716228    1.5254530602   -0.1438316395
H        2.6252756114    0.3953205226   -0.0824088448
H        1.5557938748   -1.8581768996   -0.1239812086
H       -0.7923222151   -1.6974848022   -1.2253202355
H       -2.3346743740    0.3291948957   -0.3842976912
H       -0.9495059116    2.4518813753   -0.1744593301
C       -0.6197379141   -0.4110420113    0.9387823703
H       -0.6349310151   -0.6553393996    1.9937759211
13   
From optimize.out: Frame 1 / 30, Energy=    -286.7320745857
C        1.5476537081    0.2471281398   -0.1091774742
C        0.9932188636   -0.9383178156   -0.1628108912
C       -0.5216893264   -1.1701005882   -0.3076429800
C       -1.2969731687    0.2634326914   -0.1049331215
C       -0.4507279502    1.4754452951   -0.1190171468
N        0.8186085767    1.5044360963   -0.1149512638
H        2.6112126885    0.3764705404   -0.0720829342
H        1.5514751730   -1.8617795427   -0.1141995002
H       -0.7788572881   -1.7282423960   -1.2366628200
H       -2.3475670628    0.3253987879   -0.3994590133
H       -0.9715898753    2.4260877422   -0.1273708715
C       -0.5815297600   -0.3557137702    0.9027649262
H       -0.5732345783   -0.5642451804    1.9655430905
13   
C5H5N+CH->C6H6N atoms 1-13 frame 89 charge -0.000 sz -1.000 sz^2 0.708
C        1.5476537081    0.2471281398   -0.1091774742
C        0.9932188636   -0.9383178156   -0.1628108912
C       -0.5216893264   -1.1701005882   -0.3076429800
C       -1.2969731687    0.2634326914   -0.1049331215
C       -0.4507279502    1.4754452951   -0.1190171468
N        0.8186085767    1.5044360963   -0.1149512638
H        2.6112126885    0.3764705404   -0.0720829342
H        1.5514751730   -1.8617795427   -0.1141995002
H       -0.7788572881   -1.7282423960   -1.2366628200
H       -2.3475670628    0.3253987879   -0.3994590133
H       -0.9715898753    2.4260877422   -0.1273708715
C       -0.5815297600   -0.3557137702    0.9027649262
H       -0.5732345783   -0.5642451804    1.9655430905
13   
C5H5N+CH->C6H6N atoms 1-13 frame 90 charge +0.000 sz -1.000 sz^2 0.691
C        1.5464025319    0.2442544839   -0.1090067144
C        0.9942118770   -0.9456122230   -0.1644487889
C       -0.5242195883   -1.1885532730   -0.3154009083
C       -1.3058881918    0.2627978168   -0.0929438653
C       -0.4538729139    1.4767964071   -0.1182252274
N        0.8141094324    1.5024212859   -0.1147823246
H        2.6067158961    0.3731296646   -0.0690235071
H        1.5554371713   -1.8651962426   -0.1096844523
H       -0.7772612750   -1.7124534880   -1.2332002983
H       -2.3507694571    0.3220893387   -0.4024775966
H       -0.9721243951    2.4260203199   -0.1253618816
C       -0.5571806281   -0.3169039322    0.8981927746
H       -0.5755604594   -0.5787901581    1.9563627903
13   
C5H5N+CH->C6H6N atoms 1-13 frame 91 charge -0.000 sz -1.000 sz^2 0.676
C        1.5454445664    0.2422512138   -0.1089859527
C        0.9949305119   -0.9531903512   -0.1667674285
C       -0.5261738401   -1.2064264614   -0.3237153744
C       -1.3145116344    0.2628477489   -0.0815946324
C       -0.4573203995    1.4786275858   -0.1179205241
N        0.8101783678    1.5005066621   -0.1145121894
H        2.6035788439    0.3702997138   -0.0654095033
H        1.5603855814   -1.8689470874   -0.1055103187
H       -0.7779987053   -1.6984462278   -1.2280783480
H       -2.3537162146    0.3178411794   -0.4042928454
H       -0.9728841893    2.4272099974   -0.1233170357
C       -0.5335827608   -0.2795528037    0.8940316101
H       -0.5783301272   -0.5930211696    1.9460725425
13   
C5H5N+CH->C6H6N atoms 1-13 frame 92 charge +0.000 sz -1.000 sz^2 0.659
C        1.5447667740    0.2411200209   -0.1090613662
C        0.9953875566   -0.9609787128   -0.1695220801
C       -0.5274597133   -1.2235618243   -0.3319931573
C       -1.3228299011    0.2636109748   -0.0707691555
C       -0.4610798079    1.4809553175   -0.1181123241
N        0.8068372978    1.4987358800   -0.1142183106
H        2.6020154377    0.3681173161   -0.0612493622
H        1.5664036132   -1.8730570035   -0.1014002287
H       -0.7816160747   -1.6873578757   -1.2229875012
H       -2.3565613653    0.3125611050   -0.4044800009
H       -0.9739572327    2.4298283753   -0.1213424811
C       -0.5106397302   -0.2436759185    0.8906243356
H       -0.5812668541   -0.6062976548    1.9345116323
13   
C5H5N+CH->C6H6N atoms 1-13 frame 93 charge +0.000 sz -1.000 sz^2 0.642
C        1.5443674197    0.2408477511   -0.1091657790
C        0.9956151622   -0.9689060391   -0.1724389094
C       -0.5279693231   -1.2398412409   -0.3396181624
C       -1.3308119769    0.2650971737   -0.0603203417
C       -0.4651483797    1.4837929142   -0.1188137523
N        0.8041042025    1.4971533108   -0.1139834248
H        2.6021276105    0.3667023448   -0.0565448317
H        1.5735400248   -1.8774829523   -0.0970528192
H       -0.7886732200   -1.6802700976   -1.2197403825
H       -2.3594661776    0.3061585338   -0.4026406034
H       -0.9753903474    2.4339710507   -0.1195661874
C       -0.4882636878   -0.2092415662    0.8883031787
H       -0.5840313073   -0.6179811830    1.9215820152
13   
From optimize.out: Frame 1 / 54, Energy=    -286.6504257311
C        1.5442550606    0.2414013773   -0.1092262366
C        0.9956578629   -0.9769144759   -0.1752591973
C       -0.5275922167   -1.2551984108   -0.3460544837
C       -1.3384078657    0.2672949999   -0.0501131918
C       -0.4695126918    1.4871450153   -0.1200421244
N        0.8019943435    1.4957948554   -0.1138783936
H        2.6038902604    0.3661412122   -0.0512835485
H        1.5817987365   -1.8821224777   -0.0922031986
H       -0.7996447347   -1.6780150495   -1.2199552221
H       -2.3625925632    0.2985540488   -0.3984550110
H       -0.9771804202    2.4396455282   -0.1181209214
C       -0.4663930036   -0.1762019854    0.8873352155
H       -0.5862727681   -0.6275246377    1.9072563134
13   
From optimize.out: Frame 2 / 54, Energy=    -286.6805898458
C        1.5473781224    0.2579169366   -0.1144086564
C        0.9835550785   -0.9742713190   -0.1675973244
C       -0.5270438742   -1.2490789034   -0.3197379426
C       -1.3304680290    0.2699255573   -0.0461192638
C       -0.4573299052    1.4954916616   -0.1346673733
N        0.8248341641    1.5093264372   -0.1326510041
H        2.6150710254    0.3810248989   -0.0639584520
H        1.5758866167   -1.8815194357   -0.0952473206
H       -0.7966260489   -1.6727568323   -1.2309378950
H       -2.3586609956    0.2991006237   -0.3864657526
H       -0.9608889941    2.4593962392   -0.1453806352
C       -0.4915342892   -0.2185896640    0.9180351822
H       -0.6241728709   -0.6759662001    1.9191364379
13   
From optimize.out: Frame 3 / 54, Energy=    -286.7051864830
C        1.5457271650    0.2735341561   -0.1182399449
C        0.9692556672   -0.9670245067   -0.1605247794
C       -0.5277848062   -1.2365831681   -0.2964236915
C       -1.3144788748    0.2739847041   -0.0425160725
C       -0.4464514914    1.4997655523   -0.1512751933
N        0.8410199013    1.5158127349   -0.1494600572
H        2.6189723977    0.3877187034   -0.0747863985
H        1.5665434719   -1.8747242664   -0.0970831254
H       -0.7914970813   -1.6498629967   -1.2321828825
H       -2.3457834823    0.3017839096   -0.3766664553
H       -0.9453794645    2.4700698737   -0.1763275749
C       -0.5125483174   -0.2641293222    0.9455651351
H       -0.6575950853   -0.7303453741    1.9299210402
13   
From optimize.out: Frame 4 / 54, Energy=    -286.7258966791
C        1.5451109423    0.2891484943   -0.1226576829
C        0.9560358372   -0.9567122415   -0.1530967576
C       -0.5310674351   -1.2229516335   -0.2772075114
C       -1.2949523632    0.2787207677   -0.0380930791
C       -0.4362644122    1.5023137071   -0.1680624572
N        0.8551462011    1.5198173002   -0.1670721520
H        2.6225739330    0.3911713784   -0.0844435635
H        1.5578867159   -1.8636828556   -0.0958367704
H       -0.7900377470   -1.6230940083   -1.2329032417
H       -2.3297991801    0.3040845071   -0.3643680098
H       -0.9313610494    2.4762068528   -0.2080030779
C       -0.5326051637   -0.3097778608    0.9702027986
H       -0.6906662787   -0.7852444079    1.9415415049
13   
From optimize.out: Frame 5 / 54, Energy=    -286.7431174098
C        1.5456616594    0.3040322928   -0.1280816574
C        0.9445731658   -0.9450217074   -0.1454113981
C       -0.5354538905   -1.2105137743   -0.2632550448
C       -1.2738097822    0.2836277743   -0.0324913984
C       -0.4263971277    1.5044433628   -0.1849587551
N        0.8684551905    1.5239391011   -0.1863375122
H        2.6263339008    0.3925913222   -0.0921535453
H        1.5509361706   -1.8503224201   -0.0906279460
H       -0.7926537934   -1.5951721243   -1.2349784116
H       -2.3131394841    0.3052026576   -0.3472515520
H       -0.9192204089    2.4797584419   -0.2391550143
C       -0.5519934483   -0.3546430136    0.9919079074