13   
From optimize.out: Frame 29 / 30, Energy=    -286.8549308504
C        1.6774688141    0.3774503491   -0.2344494559
C        1.1088240356   -0.8462505356   -0.3004518600
C       -0.3292781738   -1.0590548081   -0.0694932338
C       -1.1502135752    0.3399325069    0.0839446471
C       -0.3165333041    1.5350772917   -0.1445994920
N        0.9694900417    1.5798387480   -0.2042314064
H        2.7527781877    0.4947146914   -0.3403912610
H        1.7151986111   -1.7167416076   -0.5388188414
H       -0.7972305314   -1.8957382884   -0.5914925113
H       -2.1699032729    0.4131518336   -0.2992776960
H       -0.8541783408    2.4674113564   -0.3341600216
C       -0.9261070981   -0.6008677321    1.1838200781
H       -1.6803153939   -1.0889238048    1.7896010540
13   
From optimize.out: Frame 26 / 30, Energy=    -286.8548972723
C        1.6754211669    0.3735200676   -0.2328782481
C        1.1100856530   -0.8489466841   -0.2923221745
C       -0.3388103328   -1.0505515653   -0.0803250194
C       -1.1462157351    0.3253506421    0.0555688708
C       -0.3198744230    1.5335363802   -0.1476257044
N        0.9664276398    1.5803273114   -0.1988196374
H        2.7514935914    0.4924423354   -0.3299350957
H        1.7122499929   -1.7209700827   -0.5352259804
H       -0.8125246969   -1.8733447608   -0.6185458006
H       -2.1666956141    0.3878165036   -0.3261138692
H       -0.8571613124    2.4702183774   -0.3149362575
C       -0.9263277897   -0.6012014128    1.1819575826
H       -1.6480681399   -1.0681971121    1.8392013337
13   
From optimize.out: Frame 23 / 30, Energy=    -286.8547425591
C        1.6702403556    0.3647811395   -0.2096751972
C        1.1100334819   -0.8545523492   -0.2937665435
C       -0.3370144245   -1.0623662569   -0.0873144282
C       -1.1657217543    0.3153253682    0.0120966327
C       -0.3289409298    1.5232721868   -0.1390241715
N        0.9589670280    1.5689054760   -0.1478075580
H        2.7451736006    0.4891884428   -0.3099809798
H        1.7078418148   -1.7145608763   -0.5859385985
H       -0.8244240857   -1.8836697346   -0.6168785235
H       -2.1734179301    0.3695591915   -0.4027929486
H       -0.8564001600    2.4686036352   -0.2885390134
C       -0.9358942644   -0.5801650174    1.1525718822
H       -1.5704427321   -1.0043212054    1.9170494471
13   
From optimize.out: Frame 20 / 30, Energy=    -286.8533073539
C        1.6601717653    0.3571659453   -0.1897131542
C        1.1003563962   -0.8635054490   -0.3056769929
C       -0.3463906789   -1.0714045265   -0.1129008336
C       -1.1855579410    0.3202697055    0.0055378016
C       -0.3384817132    1.5241367729   -0.1308729991
N        0.9488432789    1.5601545953   -0.1279488372
H        2.7359889671    0.4842716614   -0.2745707173
H        1.7077492188   -1.7203425733   -0.5863614720
H       -0.8171598057   -1.8974630299   -0.6526150757
H       -2.1804469771    0.3847163183   -0.4420536914
H       -0.8589527596    2.4717074379   -0.2919182729
C       -0.9631431942   -0.5940410505    1.1123807517
H       -1.4629765564   -0.9556658074    1.9967134931
13   
From optimize.out: Frame 17 / 30, Energy=    -286.8520701191
C        1.6549276417    0.3606039656   -0.1870820405
C        1.0871709138   -0.8617346221   -0.3089513692
C       -0.3679316120   -1.0636529028   -0.1457146574
C       -1.1841459118    0.3315153652    0.0417158984
C       -0.3375836696    1.5343161648   -0.1407159505
N        0.9490519995    1.5662382708   -0.1677857780
H        2.7343941103    0.4785136803   -0.2360100455
H        1.7029277139   -1.7323879372   -0.5211202271
H       -0.8167289966   -1.8762130754   -0.7231436158
H       -2.1830036138    0.4126596846   -0.3991489451
H       -0.8623807720    2.4721490482   -0.3406190824
C       -0.9837443098   -0.6397554122    1.0962627470
H       -1.3929534937   -0.9822522296    2.0323130661
13   
From optimize.out: Frame 14 / 30, Energy=    -286.8510516062
C        1.6493688218    0.3659060629   -0.1926093392
C        1.0754836175   -0.8569125067   -0.2982768122
C       -0.3863790197   -1.0539991413   -0.1714489028
C       -1.1676877271    0.3404206930    0.0707623457
C       -0.3330682721    1.5435307552   -0.1631223074
N        0.9531944984    1.5754171813   -0.2206979472
H        2.7318095823    0.4703180131   -0.2025980649
H        1.6989254835   -1.7368329531   -0.4425728681
H       -0.8399794318   -1.8291114315   -0.7926241326
H       -2.1817695457    0.4261128358   -0.3337363969
H       -0.8661142744    2.4709165468   -0.3880898974
C       -0.9853300023   -0.6776861222    1.0937434785
H       -1.3484537304   -1.0380799333    2.0412708445
13   
From optimize.out: Frame 11 / 30, Energy=    -286.8481871088
C        1.6384222544    0.3662121958   -0.1905495070
C        1.0611925519   -0.8574468854   -0.2770168806
C       -0.4030344784   -1.0593768778   -0.1953548629
C       -1.1575172448    0.3406255421    0.0703608577
C       -0.3353049413    1.5461777866   -0.1883108144
N        0.9516822614    1.5778942534   -0.2520353594
H        2.7220089640    0.4599511863   -0.1671690239
H        1.6916459982   -1.7409512159   -0.3671581162
H       -0.8811674148   -1.7690789875   -0.8696723533
H       -2.1885035286    0.4170832780   -0.2884784050
H       -0.8708153763    2.4726369348   -0.4115076327
C       -0.9579227353   -0.6883410564    1.0890068560
H       -1.2706863103   -1.0653861539    2.0478852418
13   
From optimize.out: Frame 8 / 30, Energy=    -286.8343030878
C        1.6243893531    0.3618953777   -0.1788759255
C        1.0446110739   -0.8643346396   -0.2493307573
C       -0.4191000354   -1.0783036761   -0.2152794067
C       -1.1608340436    0.3327826555    0.0499454732
C       -0.3450308704    1.5429659751   -0.2077426444
N        0.9441191240    1.5738526473   -0.2570925342
H        2.7081972951    0.4485914306   -0.1374588337
H        1.6772549739   -1.7503799534   -0.3065264054
H       -0.9164173154   -1.7095285836   -0.9492480422
H       -2.2032345394    0.3929951386   -0.2740233090
H       -0.8772631787    2.4760413945   -0.4108657381
C       -0.9088554939   -0.6715405892    1.0817627900
H       -1.1678363431   -1.0550371774    2.0547353334
13   
From optimize.out: Frame 6 / 30, Energy=    -286.8168501503
C        1.6090528530    0.3550567007   -0.1635240344
C        1.0256692038   -0.8748215261   -0.2221097664
C       -0.4376462222   -1.1020422531   -0.2320990737
C       -1.1734138878    0.3215328032    0.0238914969
C       -0.3579080861    1.5381943738   -0.2172280611
N        0.9334182378    1.5671733911   -0.2480603678
H        2.6928763955    0.4375648833   -0.1162365724
H        1.6548852803   -1.7653392019   -0.2569844279
H       -0.9288328628   -1.6650919135   -1.0219891294
H       -2.2211889492    0.3687299484   -0.2799349771
H       -0.8855744808    2.4794314583   -0.3933786950
C       -0.8526864111   -0.6411369752    1.0696747275
H       -1.0586510705   -1.0192516889    2.0579788810
13   
From optimize.out: Frame 3 / 30, Energy=    -286.7771639615
C        1.5934872461    0.3456990121   -0.1485895056
C        1.0068730720   -0.8872904342   -0.1976046456
C       -0.4583641465   -1.1267764350   -0.2459925196
C       -1.1915170685    0.3086595884   -0.0031004999
C       -0.3716462019    1.5326523861   -0.2173728257
N        0.9206606352    1.5594005778   -0.2322314274
H        2.6769718196    0.4276944713   -0.1023782450
H        1.6285161379   -1.7839468330   -0.2140014700
H       -0.9204603380   -1.6371981956   -1.0875878384
H       -2.2413302497    0.3491291501   -0.2964078304
H       -0.8955034275    2.4812571597   -0.3636576728
C       -0.7958138497   -0.6031720614    1.0524434484
H       -0.9518736289   -0.9661083864    2.0564810321
13   
C5H5N+CH->C6H6N atoms 1-13 frame 89 charge -0.000 sz -1.000 sz^2 0.708
C        1.5790223344    0.3319091983   -0.1359706059
C        0.9919399376   -0.9008695400   -0.1780672830
C       -0.4801388068   -1.1494157056   -0.2568480915
C       -1.2145964676    0.2950642029   -0.0290773642
C       -0.3857348437    1.5255549915   -0.2077869147
N        0.9051821870    1.5505715283   -0.2114967060
H        2.6611745667    0.4192782179   -0.0956062015
H        1.6020114455   -1.8049408337   -0.1789866703
H       -0.8916849511   -1.6288259462   -1.1428544301
H       -2.2641539369    0.3368060611   -0.3197347579
H       -0.9070403394    2.4798554761   -0.3220684101
C       -0.7422606208   -0.5582716280    1.0295011073
H       -0.8537205050   -0.8967160225    2.0489963280
13   
C5H5N+CH->C6H6N atoms 1-13 frame 92 charge +0.000 sz -1.000 sz^2 0.659
C        1.5673745436    0.3128684833   -0.1259782618
C        0.9838049226   -0.9145619284   -0.1652065870
C       -0.5006695716   -1.1666515468   -0.2669461203
C       -1.2413884006    0.2824195142   -0.0530261577
C       -0.4005106020    1.5165898411   -0.1901031956
N        0.8865974714    1.5414113832   -0.1874791010
H        2.6465857151    0.4120132095   -0.0924145172
H        1.5791568658   -1.8266446157   -0.1528851096
H       -0.8514464916   -1.6408563651   -1.1841117293
H       -2.2895320249    0.3316787842   -0.3459852133
H       -0.9202263741    2.4746068161   -0.2714421846
C       -0.6937816331   -0.5077916930    1.0007848371
H       -0.7659644205   -0.8150818825    2.0347933401
13   
From optimize.out: Frame 2 / 54, Energy=    -286.6805898458
C        1.5595552459    0.2892594195   -0.1181338027
C        0.9835992883   -0.9274737188   -0.1593768966
C       -0.5162383447   -1.1757431113   -0.2797777305
C       -1.2689499744    0.2723713007   -0.0741388739
C       -0.4170725145    1.5052983153   -0.1665632151
N        0.8646717893    1.5326320089   -0.1620190550
H        2.6340199772    0.4036292459   -0.0879943351
H        1.5629735274   -1.8467577872   -0.1343517662
H       -0.8131031235   -1.6702181180   -1.2111275153
H       -2.3161637462    0.3306138008   -0.3702651798
H       -0.9362803510    2.4642936645   -0.2158460038
C       -0.6497440633   -0.4529868679    0.9663536346
H       -0.6872677105   -0.7249181523    2.0132407393
13   
From optimize.out: Frame 5 / 54, Energy=    -286.7431174098
C        1.5529653151    0.2638058642   -0.1119775700
C        0.9890948224   -0.9361208696   -0.1597728086
C       -0.5223943948   -1.1748274736   -0.2964446309
C       -1.2897290654    0.2657736435   -0.0928218026
C       -0.4363639894    1.4886953863   -0.1388498352
N        0.8384060920    1.5191060180   -0.1351098772
H        2.6210286628    0.3896279005   -0.0792904595
H        1.5544896435   -1.8592648840   -0.1210271703
H       -0.7882558589   -1.7067734772   -1.2287456524
H       -2.3385679164    0.3280484857   -0.3888763522
H       -0.9561751837    2.4440917973   -0.1602387968
C       -0.6081991986   -0.3943330953    0.9279052407
H       -0.6162989285   -0.6278292958    1.9852497149
13   
From optimize.out: Frame 8 / 54, Energy=    -286.7784539284
C        1.5462771902    0.2439923729   -0.1090039979
C        0.9943059044   -0.9466037572   -0.1647521634
C       -0.5244752857   -1.1908918291   -0.3164887862
C       -1.3070164966    0.2628043500   -0.0914589138
C       -0.4543239884    1.4770360014   -0.1181853595
N        0.8135950857    1.5021707735   -0.1147469797
H        2.6063054392    0.3727593893   -0.0685506451
H        1.5560846291   -1.8656870091   -0.1091383021
H       -0.7773577616   -1.7106207560   -1.2325301342
H       -2.3511550155    0.3215335028   -0.4027151066
H       -0.9722238078    2.4261759792   -0.1250943307
C       -0.5540930459   -0.3120168516    0.8976483213
H       -0.5759228471   -0.5806521661    1.9550163980
13   
From optimize.out: Frame 11 / 54, Energy=    -286.8012251501
C        1.5443097300    0.2411320051   -0.1091968204
C        0.9956370865   -0.9730178932   -0.1738869589
C       -0.5277757015   -1.2477262307   -0.3429228291
C       -1.3347120122    0.2662256262   -0.0550795797
C       -0.4673891934    1.4855140180   -0.1194444480
N        0.8030209159    1.4964558251   -0.1139294976
H        2.6030326260    0.3664142367   -0.0538434769
H        1.5777803802   -1.8798650715   -0.0945628285
H       -0.7943064377   -1.6791122651   -1.2198506898
H       -2.3610713899    0.3022540848   -0.4004915516
H       -0.9763094429    2.4368845560   -0.1188241296
C       -0.4770343973   -0.1922777142    0.8878061874
H       -0.5851821636   -0.6228811772    1.9142266227
13   
From optimize.out: Frame 14 / 54, Energy=    -286.8186200219
C        1.5466341586    0.2649544570   -0.1161351334
C        0.9771113964   -0.9710057192   -0.1644102539
C       -0.5273777572   -1.2434480040   -0.3092319421
C       -1.3232629053    0.2717547132   -0.0444955733
C       -0.4524278125    1.4974175866   -0.1421512837
N        0.8321278732    1.5122493296   -0.1402255953
H        2.6168290840    0.3840412992   -0.0688378029
H        1.5716763556   -1.8784573578   -0.0960745814
H       -0.7943148043   -1.6624402818   -1.2314989183
H       -2.3528580572    0.3003097813   -0.3820499375
H       -0.9539000016    2.4642060532   -0.1593261213
C       -0.5010037502   -0.2391110040    0.9304408863
H       -0.6392337794   -0.7004708530    1.9239962568
13   
From optimize.out: Frame 17 / 54, Energy=    -286.8338346841
C        1.5451835874    0.2911118178   -0.1233731600
C        0.9545237949   -0.9551701419   -0.1520829809
C       -0.5316460529   -1.2213109541   -0.2753670400
C       -1.2921634430    0.2793680515   -0.0373541608
C       -0.4349628176    1.5025946302   -0.1702912497
N        0.8569017913    1.5203610074   -0.1696134478
H        2.6230699107    0.3913586834   -0.0854605880
H        1.5569698687   -1.8619204791   -0.0951496738
H       -0.7903828300   -1.6194108295   -1.2331769776
H       -2.3276015977    0.3042320024   -0.3621101759
H       -0.9297595762    2.4766753434   -0.2121123333
C       -0.5351626745   -0.3156960281    0.9730659219
H       -0.6949699613   -0.7921931035    1.9430258660
13   
From optimize.out: Frame 21 / 54, Energy=    -286.8486034406
C        1.5470057169    0.3156539165   -0.1334962375
C        0.9364467043   -0.9349460492   -0.1385231216
C       -0.5386366971   -1.2012788197   -0.2565017084
C       -1.2550533869    0.2877613667   -0.0263637376
C       -0.4182650195    1.5066108311   -0.1997947018
N        0.8792787221    1.5283779277   -0.2048552762
H        2.6296869731    0.3926808027   -0.0962317389
H        1.5466119205   -1.8382054480   -0.0820214467
H       -0.7991607873   -1.5707214699   -1.2389410853
H       -2.2991859237    0.3054534540   -0.3272231215
H       -0.9110655854    2.4814342311   -0.2653931960
C       -0.5676050357   -0.3922464642    1.0078533303
H       -0.7500576014   -0.8805742789    1.9614920411
13   
From optimize.out: Frame 24 / 54, Energy=    -286.8553788441
C        1.5516677684    0.3362945700   -0.1455442426
C        0.9247381059   -0.9163778048   -0.1234781808
C       -0.5395015012   -1.1852677102   -0.2569413449
C       -1.2163679752    0.2949543620   -0.0103004811
C       -0.4027748084    1.5122144076   -0.2312593114
N        0.8996540307    1.5391846061   -0.2481878054
H        2.6365851568    0.3936235909   -0.0961059216
H        1.5422457716   -1.8142172209   -0.0524132319
H       -0.8308392082   -1.5204284555   -1.2509509412
H       -2.2722464678    0.3063872727   -0.2721438951
H       -0.9009522702    2.4821946828   -0.3180570219
C       -0.5945494037   -0.4668428017    1.0315038110
H       -0.7976591987   -0.9617194991    1.9738785668
13   
From optimize.out: Frame 27 / 54, Energy=    -286.8571776941
C        1.5587975642    0.3547284936   -0.1573140987
C        0.9199622760   -0.9010651753   -0.1084420234
C       -0.5291840288   -1.1703874421   -0.2746956322
C       -1.1788980697    0.2998797028    0.0073736396
C       -0.3894574576    1.5185683249   -0.2613122396
N        0.9171997033    1.5503906703   -0.2937034824
H        2.6436004117    0.4005995947   -0.0854282937
H        1.5431933691   -1.7922936983   -0.0099977464
H       -0.8993617678   -1.4797412615   -1.2549313706
H       -2.2465407433    0.3106313080   -0.2077078767
H       -0.8981825604    2.4802631990   -0.3658706476
C       -0.6114712347   -0.5363033509    1.0386618403
H       -0.8296574620   -1.0352703650    1.9733679313
13   
From optimize.out: Frame 30 / 54, Energy=    -286.8581027191
C        1.5676335702    0.3733977972   -0.1685962289
C        0.9184936317   -0.8871480608   -0.0950504659
C       -0.5116020495   -1.1501773096   -0.3076132485
C       -1.1449224315    0.3050676444    0.0218475558
C       -0.3781683335    1.5264126755   -0.2849175396
N        0.9325158517    1.5616211488   -0.3336113742
H        2.6506394038    0.4137580025   -0.0697844640
H        1.5433534608   -1.7720351623    0.0388064651
H       -0.9960525697   -1.4696735382   -1.2344800317
H       -2.2218735878    0.3212978634   -0.1478302207
H       -0.8983092118    2.4791716870   -0.4030872148
C       -0.6177372733   -0.5987947470    1.0277692850
H       -0.8439704611   -1.1028980010    1.9565474824
13   
From optimize.out: Frame 32 / 54, Energy=    -286.8582706833
C        1.5733163793    0.3903641202   -0.1800300725
C        0.9078618053   -0.8742979591   -0.0749318958
C       -0.5024142250   -1.1209822377   -0.3550451049
C       -1.1152943014    0.3122100117    0.0337547054
C       -0.3691994556    1.5362303926   -0.3035582741
N        0.9457873465    1.5714038138   -0.3713202916
H        2.6535701744    0.4252542653   -0.0540393908
H        1.5266023831   -1.7543975899    0.1038109539
H       -1.0759228993   -1.4855848320   -1.2107312266
H       -2.1994491800    0.3431848272   -0.0882605744
H       -0.9001965622    2.4802115697   -0.4319366179
C       -0.6096404766   -0.6577444897    1.0030944675
H       -0.8350209885   -1.1658518922    1.9291933217
13   
From optimize.out: Frame 35 / 54, Energy=    -286.8583549362
C        1.5700860637    0.4016498703   -0.1880800696
C        0.8781478647   -0.8646689993   -0.0382116788
C       -0.5133047804   -1.0932323028   -0.4051103386
C       -1.0919375511    0.3203923764    0.0441456383
C       -0.3649113501    1.5457422731   -0.3209070198
N        0.9549923189    1.5755533450   -0.4090757600
H        2.6477766233    0.4278864512   -0.0420881161
H        1.4845561963   -1.7406098681    0.1888415982
H       -1.1003358953   -1.5047953458   -1.2254088254
H       -2.1806472005    0.3740514303   -0.0251801446
H       -0.9047552074    2.4818229386   -0.4558586071
C       -0.5826684620   -0.7097943127    0.9728557279
H       -0.7969986201   -1.2139978562    1.9040775956
13   
From optimize.out: Frame 38 / 54, Energy=    -286.8583879245
C        1.5647504838    0.4094067128   -0.1858793738
C        0.8379859894   -0.8528238026    0.0112299450
C       -0.5383024286   -1.0659428458   -0.4505833933
C       -1.0838226193    0.3269748740    0.0477455419
C       -0.3630929805    1.5539619248   -0.3317928166
N        0.9627469016    1.5765766269   -0.4302694504
H        2.6431278660    0.4225974634   -0.0417575614
H        1.4292655355   -1.7311846061    0.2644226806
H       -1.0877080396   -1.5370272997   -1.2589366624
H       -2.1737320085    0.3923593751    0.0264753282
H       -0.9051469689    2.4865155416   -0.4723164785
C       -0.5443423439   -0.7426289919    0.9407323382
H       -0.7417293870   -1.2387849726    1.8809299026
13   
From optimize.out: Frame 41 / 54, Energy=    -286.8584039489
C        1.5743495824    0.4232719007   -0.1781862985
C        0.8083555423   -0.8305111943    0.0612661171
C       -0.5504977908   -1.0209921091   -0.5149412804
C       -1.0802670867    0.3237961722    0.0389409300
C       -0.3547547051    1.5599471767   -0.3349052684
N        0.9771236479    1.5860271735   -0.4315014588
H        2.6564610989    0.4238261679   -0.0517832457
H        1.3733557014   -1.7184466845    0.3231147543
H       -1.1393988990   -1.5677869324   -1.2278228048
H       -2.1684032077    0.3609049804    0.0666365946
H       -0.8986498003    2.4909446472   -0.4801713740
C       -0.5013477728   -0.7688401925    0.8953476352
H       -0.6963263105   -1.2621411058    1.8340056995
13   
From optimize.out: Frame 44 / 54, Energy=    -286.8584204821
C        1.5653075112    0.4121931350   -0.1618061797
C        0.8050016652   -0.8388469429    0.0779572757
C       -0.5761133284   -1.0053602051   -0.5062481249
C       -1.1111801816    0.3298955940    0.0328904669
C       -0.3602563660    1.5611548597   -0.3221378666
N        0.9677240908    1.5792154480   -0.4025210372
H        2.6520379676    0.4125696580   -0.0679270729
H        1.3700556594   -1.7360601161    0.2932538186
H       -1.0599590372   -1.6249360170   -1.2708518242
H       -2.1943765505    0.3691248657    0.0427676175
H       -0.8946346609    2.4991201212   -0.4715435284
C       -0.4884915691   -0.7371126534    0.9069917607
H       -0.6751152005   -1.2209577469    1.8491746945
13   
From optimize.out: Frame 47 / 54, Energy=    -286.8584339412
C        1.5788709212    0.4138251108   -0.1482862343
C        0.8091735882   -0.8317600221    0.0847633035
C       -0.5717195135   -0.9726245324   -0.5363144483
C       -1.1317252359    0.3241231120    0.0039457997
C       -0.3664504651    1.5647029654   -0.2926678988
N        0.9679407538    1.5798520060   -0.3481102367
H        2.6664134921    0.4158960692   -0.0994072278
H        1.3787234777   -1.7561393144    0.2332792311
H       -1.0463747852   -1.6915992169   -1.1928270103
H       -2.2254111492    0.3524186619    0.0088607608
H       -0.8799219504    2.5099216425   -0.4590564348
C       -0.4700576372   -0.7114833240    0.9018379385
H       -0.7094614966   -1.1971331580    1.8439824575
13   
From optimize.out: Frame 50 / 54, Energy=    -286.8584538012
C        1.5723984919    0.4191515362   -0.1571820657
C        0.8149285505   -0.8301661248    0.0886491778
C       -0.5601415787   -0.9808295976   -0.5307195275
C       -1.1162688921    0.3284828332    0.0058217066
C       -0.3654101348    1.5730085853   -0.2818216132
N        0.9626828189    1.5880001662   -0.3400260574
H        2.6608755459    0.4201491583   -0.1291688574
H        1.3855248698   -1.7476701963    0.2037956718
H       -1.0101876911   -1.7594444022   -1.1313034617
H       -2.2013056176    0.4218020773    0.0341800109
H       -0.8815761896    2.5135895588   -0.4730424025
C       -0.4687291070   -0.7266812789    0.9014907385
H       -0.7927910660   -1.2193923153    1.8093266799
13   
From optimize.out: Frame 53 / 54, Energy=    -286.8584609575
C        1.5769931546    0.4217774915   -0.1549896571
C        0.8158058667   -0.8235355347    0.1103114408
C       -0.5519786044   -0.9766209081   -0.5325502196
C       -1.1156922764    0.3314744816    0.0000518424
C       -0.3591195862    1.5762163585   -0.2744746369
N        0.9707818556    1.5927105278   -0.3425084205
H        2.6642519178    0.4004767624   -0.2058092217
H        1.3911211162   -1.7381615689    0.2460841395
H       -0.9905227441   -1.7639841934   -1.1300198649
H       -2.2008368453    0.4107357891    0.0431382743
H       -0.8872456497    2.5136200593   -0.4391304404
C       -0.4776849850   -0.7129891716    0.9008822705
H       -0.8358732199   -1.2317200934    1.7790144936
