
Running Job 1 of 1 optimize.in
qchem optimize.in_38695.0 ./optimize.d/ 1
/home/leeping/opt/qchem/5.0.2-openmp/exe/qcprog.exe_s optimize.in_38695.0 ./optimize.d/
Check license passed

                  Welcome to Q-Chem
     A Quantum Leap Into The Future Of Chemistry


 Q-Chem 5.0, Q-Chem, Inc., Pleasanton, CA (2017)

 Yihan Shao,  Zhengting Gan,  E. Epifanovsky,  A. T. B. Gilbert,  M. Wormit,  
 J. Kussmann,  A. W. Lange,  A. Behn,  Jia Deng,  Xintian Feng,  D. Ghosh,  
 M. Goldey,  P. R. Horn,  L. D. Jacobson,  I. Kaliman,  T. Kus,  A. Landau,  
 Jie Liu,  E. I. Proynov,  R. M. Richard,  R. P. Steele,  E. J. Sundstrom,  
 H. L. Woodcock III,  P. M. Zimmerman,  D. Zuev,  B. Albrecht,  E. Alguire,  
 S. A. Baeppler,  D. Barton,  Z. Benda,  Y. A. Bernard,  E. J. Berquist,  
 K. B. Bravaya,  H. Burton,  D. Casanova,  Chun-Min Chang,  Yunqing Chen,  
 A. Chien,  K. D. Closser,  M. P. Coons,  S. Dasgupta,  A. L. Dempwolff,  
 M. Diedenhofen,  Hainam Do,  R. G. Edgar,  Po-Tung Fang,  S. Fatehi,  
 Qingguo Feng,  J. Fosso-Tande,  Qinghui Ge,  A. Ghysels,  G. Gidofalvi,  
 J. Gomes,  J. Gonthier,  A. Gunina,  M. W. D. Hanson-Heine,  
 P. H. P. Harbach,  A. W. Hauser,  J. E. Herr,  E. G. Hohenstein,  
 Z. C. Holden,  Kerwin Hui,  T.-C. Jagau,  Hyunjun Ji,  B. Kaduk,  
 K. Khistyaev,  Jaehoon Kim,  P. Klunzinger,  K. Koh,  D. Kosenkov,  
 L. Koulias,  T. Kowalczyk,  C. M. Krauter,  A. Kunitsa,  Ka Un Lao,  
 A. Laurent,  K. V. Lawler,  Joonho Lee,  D. Lefrancois,  S. Lehtola,  
 D. S. Levine,  Yi-Pei Li,  You-Sheng Lin,  Fenglai Liu,  E. Livshits,  
 A. Luenser,  P. Manohar,  E. Mansoor,  S. F. Manzer,  Shan-Ping Mao,  
 Yuezhi Mao,  N. Mardirossian,  A. V. Marenich,  T. Markovich,  
 L. A. Martinez-Martinez,  S. A. Maurer,  N. J. Mayhall,  S. C. McKenzie,  
 J.-M. Mewes,  A. F. Morrison,  J. W. Mullinax,  K. Nanda,  
 T. S. Nguyen-Beck,  R. Olivares-Amaya,  J. A. Parkhill,  T. M. Perrine,  
 F. Plasser,  S. Prager,  A. Prociuk,  E. Ramos,  D. R. Rehn,  F. Rob,  
 M. Schneider,  N. Sergueev,  S. M. Sharada,  S. Sharma,  D. W. Small,  
 T. Stauch,  T. Stein,  Yu-Chuan Su,  A. J. W. Thom,  A. Tkatchenko,  
 T. Tsuchimochi,  L. Vogt,  O. Vydrov,  M. A. Watson,  J. Wenzel,  
 M. de Wergifosse,  T. A. Wesolowski,  A. White,  J. Witte,  A. Yamada,  
 Jun Yang,  K. Yao,  S. Yeganeh,  S. R. Yost,  Zhi-Qiang You,  A. Zech,  
 Igor Ying Zhang,  Xing Zhang,  Yan Zhao,  Ying Zhu,  B. R. Brooks,  
 G. K. L. Chan,  C. J. Cramer,  M. S. Gordon,  W. J. Hehre,  A. Klamt,  
 M. W. Schmidt,  C. D. Sherrill,  D. G. Truhlar,  A. Aspuru-Guzik,  R. Baer,  
 A. T. Bell,  N. A. Besley,  Jeng-Da Chai,  R. A. DiStasio Jr.,  A. Dreuw,  
 B. D. Dunietz,  T. R. Furlani,  Chao-Ping Hsu,  Yousung Jung,  Jing Kong,  
 D. S. Lambrecht,  WanZhen Liang,  C. Ochsenfeld,  V. A. Rassolov,  
 L. V. Slipchenko,  J. E. Subotnik,  T. Van Voorhis,  J. M. Herbert,  
 A. I. Krylov,  P. M. W. Gill,  M. Head-Gordon

 Contributors to earlier versions of Q-Chem not listed above: 
 R. D. Adamson,  B. Austin,  J. Baker,  G. J. O. Beran,  K. Brandhorst,  
 S. T. Brown,  E. F. C. Byrd,  A. K. Chakraborty,  C.-L. Cheng,  
 Siu Hung Chien,  D. M. Chipman,  D. L. Crittenden,  H. Dachsel,  
 R. J. Doerksen,  A. D. Dutoi,  L. Fusti-Molnar,  W. A. Goddard III,  
 A. Golubeva-Zadorozhnaya,  S. R. Gwaltney,  G. Hawkins,  A. Heyden,  
 S. Hirata,  G. Kedziora,  F. J. Keil,  C. Kelley,  Jihan Kim,  R. A. King,  
 R. Z. Khaliullin,  P. P. Korambath,  W. Kurlancheek,  A. M. Lee,  M. S. Lee,  
 S. V. Levchenko,  Ching Yeh Lin,  D. Liotard,  R. C. Lochan,  I. Lotan,  
 P. E. Maslen,  N. Nair,  D. P. O'Neill,  D. Neuhauser,  E. Neuscamman,  
 C. M. Oana,  R. Olson,  B. Peters,  R. Peverati,  P. A. Pieniazek,  
 Y. M. Rhee,  J. Ritchie,  M. A. Rohrdanz,  E. Rosta,  N. J. Russ,  
 H. F. Schaefer III,  N. E. Schultz,  N. Shenvi,  A. C. Simmonett,  A. Sodt,  
 D. Stuck,  K. S. Thanthiriwatte,  V. Vanovschi,  Tao Wang,  A. Warshel,  
 C. F. Williams,  Q. Wu,  X. Xu,  W. Zhang

 Please cite Q-Chem as follows:
 Y. Shao et al., Mol. Phys. 113, 184-215 (2015)
 DOI: 10.1080/00268976.2014.952696

 Q-Chem 5.0.2 for Intel X86 EM64T Linux

 Parts of Q-Chem use Armadillo 5.200.1 (Boston Tea Smuggler).
 http://arma.sourceforge.net/

 Q-Chem begins on Tue Mar  1 13:15:51 2022  

Host: 
0

     Scratch files written to ./optimize.d//
 Dec517 15110_ 26548  26544 5633   
Processing $rem in /home/leeping/opt/qchem/5.0.2-openmp/config/preferences.
 MEM_STATIC 2000
 MEM_TOTAL  8000
 SYMMETRY   OFF
 SYM_IGNORE TRUE 

Checking the input file for inconsistencies... 	...done.

--------------------------------------------------------------
User input:
--------------------------------------------------------------
$molecule
0 2
C        1.2630391715    0.1705669203   -1.3535427353
C        0.5281763691   -1.0886969910   -1.1397329043
C       -0.6725311603   -0.6156500229   -2.1805806593
C       -1.0545281188    0.1136079550   -0.4836490199
C       -0.6408205895    0.9073519054   -2.0354474545
N        0.7897343840    1.3597918679   -1.6423679725
H        2.3599876428    0.2886642651   -1.2152300212
H        1.2042542673   -1.8760319775   -1.4806412157
H       -1.2985550845   -1.5510821207   -2.1139987367
H       -1.9894069796    0.5787999553   -0.1406914211
H       -1.1642524705    1.5708654409   -2.6855387645
C       -0.2868492221   -0.9737765998    0.1044948445
H       -0.1010291423   -0.8173633865    1.1771886182
$end

$rem
method                b3lyp
basis                 6-31g(d)
unrestricted          true
symmetry              off
sym_ignore            true
incdft                false
incfock               0
scf_convergence       8
thresh                14
jobtype               opt
scf_guess             read
scf_algorithm         diis
max_scf_cycles        100
geom_opt_tol_gradient 600
geom_opt_tol_displacement 2400
geom_opt_tol_energy   200
geom_opt_max_cycles   100
$end

--------------------------------------------------------------
 ----------------------------------------------------------------
             Standard Nuclear Orientation (Angstroms)
    I     Atom           X                Y                Z
 ----------------------------------------------------------------
    1      C       1.2630391715     0.1705669203    -1.3535427353
    2      C       0.5281763691    -1.0886969910    -1.1397329043
    3      C      -0.6725311603    -0.6156500229    -2.1805806593
    4      C      -1.0545281188     0.1136079550    -0.4836490199
    5      C      -0.6408205895     0.9073519054    -2.0354474545
    6      N       0.7897343840     1.3597918679    -1.6423679725
    7      H       2.3599876428     0.2886642651    -1.2152300212
    8      H       1.2042542673    -1.8760319775    -1.4806412157
    9      H      -1.2985550845    -1.5510821207    -2.1139987367
   10      H      -1.9894069796     0.5787999553    -0.1406914211
   11      H      -1.1642524705     1.5708654409    -2.6855387645
   12      C      -0.2868492221    -0.9737765998     0.1044948445
   13      H      -0.1010291423    -0.8173633865     1.1771886182
 ----------------------------------------------------------------
 Nuclear Repulsion Energy =   274.9677616290 hartrees
 There are       25 alpha and       24 beta electrons
 Requested basis set is 6-31G(d)
 There are 40 shells and 117 basis functions

 Total QAlloc Memory Limit   8000 MB
 Mega-Array Size      1956 MB
 MEM_STATIC part      2000 MB
 A cutoff of  1.0D-14 yielded    812 shell pairs
 There are      7084 function pairs
 
 -------------------------------------------------------
 OpenMP Integral Computing Module                       
 Release: version 1.0, May 2013, Q-Chem Inc. Pittsburgh 
 -------------------------------------------------------
 Integral Job Info:
 Integral job number is                      11
 Integral operator is                         1
 short-range coefficients                     0
 long-range coefficients              100000000
 Omega coefficients                           0
 if combine SR and LR in K                    0
 Integral screening is                        0
 Integral computing path is                   2
 max size of driver memory is            800000
 size of driver memory is                593474
 size of scratch memory is              2361544
 max col of scratch BK array               1296
 max len of scratch array in speh3          155
 max len of scratch index in speh4           18
 max int batch size is                      520
 min int batch size is                       52
 fixed nKL is                                52
 max L of basis functions is                  2
 order of int derivative is                   0
 number of shells is                         40
 number of basis is                         117
 number of cartesian basis is               117
 number of contracted shell pairs           812
 number of primitive shell pairs           3598
 maxK2 (contraction) of shell pair           36
 max number of K2 of shell pair               1
 max number of CS2 of shell pair             84
 max number of PS2 of shell pair            414
 mem total for path MDJ                  535308
 -------------------------------------------------------
 Smallest overlap matrix eigenvalue = 2.50E-03

 Scale SEOQF with 1.000000e-01/1.000000e-01/1.000000e-01

 Standard Electronic Orientation quadrupole field applied
 Nucleus-field energy     =    -0.0000000072 hartrees
 Guess MOs from SCF MO coefficient file
 Reading MOs from coefficient file
 Reading MOs from coefficient file
 An unrestricted hybrid HF-DFT SCF calculation will be
 performed using Pulay DIIS extrapolation
 Exchange:     0.2000 Hartree-Fock + 0.0800 Slater + 0.7200 B88
 Correlation:  0.1900 VWN1RPA + 0.8100 LYP
 Using SG-1 standard quadrature grid
 SCF converges when DIIS error is below 1.0E-08
Using Q-Chem read-in guess as SCF_GUESS READ specified.

 using 4 threads for integral computing
 -------------------------------------------------------
 OpenMP Integral computing Module                
 Release: version 1.0, May 2013, Q-Chem Inc. Pittsburgh 
 -------------------------------------------------------
 -------------------------------------------------------
 OpenMP BLAS3 based DFT computing Module                
 Release: version 1.0, May 2013, Q-Chem Inc. Pittsburgh 
 -------------------------------------------------------
 ---------------------------------------
  Cycle       Energy         DIIS Error
 ---------------------------------------
    1    -286.7003303042      1.59E-09
    2    -286.7003303042      2.32E-09 Convergence criterion met
 ---------------------------------------
 <S^2> = 0.7869
 SCF time:  CPU 5.38 s  wall 4.75 s
 SCF   energy in the final basis set = -286.70033030
 Total energy in the final basis set = -286.70033030
 
 --------------------------------------------------------------
 
                    Orbital Energies (a.u.)
 --------------------------------------------------------------
 
 Alpha MOs
 -- Occupied --
-14.331 -10.264 -10.237 -10.236 -10.221 -10.219 -10.212  -0.943
 -0.831  -0.741  -0.687  -0.596  -0.574  -0.528  -0.514  -0.474
 -0.429  -0.405  -0.379  -0.348  -0.327  -0.299  -0.279  -0.250
 -0.167
 -- Virtual --
 -0.015  -0.001   0.048   0.092   0.112   0.115   0.141   0.154
  0.158   0.179   0.208   0.241   0.278   0.285   0.299   0.374
  0.491   0.499   0.516   0.555   0.566   0.568   0.575   0.605
  0.628   0.639   0.665   0.683   0.711   0.736   0.759   0.777
  0.809   0.811   0.827   0.840   0.854   0.856   0.889   0.911
  0.925   0.953   1.009   1.110   1.129   1.180   1.252   1.284
  1.410   1.453   1.478   1.510   1.583   1.615   1.662   1.686
  1.729   1.761   1.792   1.836   1.852   1.910   1.932   1.991
  2.058   2.075   2.165   2.194   2.233   2.268   2.288   2.293
  2.372   2.411   2.462   2.491   2.532   2.567   2.605   2.607
  2.659   2.677   2.801   2.875   2.930   3.887   4.185   4.241
  4.256   4.378   4.477   4.602
 
 Beta MOs
 -- Occupied --
-14.333 -10.261 -10.239 -10.231 -10.222 -10.216 -10.204  -0.939
 -0.826  -0.733  -0.680  -0.588  -0.568  -0.522  -0.512  -0.466
 -0.423  -0.399  -0.376  -0.342  -0.316  -0.294  -0.270  -0.236
 -- Virtual --
 -0.077   0.001   0.014   0.057   0.097   0.114   0.123   0.147
  0.157   0.160   0.182   0.212   0.246   0.285   0.291   0.309
  0.377   0.501   0.510   0.521   0.560   0.567   0.576   0.592
  0.616   0.635   0.642   0.668   0.689   0.718   0.740   0.766
  0.780   0.811   0.815   0.830   0.845   0.858   0.860   0.891
  0.916   0.928   0.957   1.013   1.116   1.133   1.188   1.256
  1.294   1.415   1.459   1.486   1.517   1.587   1.621   1.668
  1.695   1.733   1.767   1.797   1.850   1.866   1.916   1.941
  2.001   2.069   2.081   2.173   2.203   2.241   2.278   2.297
  2.302   2.375   2.419   2.469   2.500   2.541   2.572   2.606
  2.615   2.663   2.687   2.807   2.878   2.933   3.887   4.198
  4.244   4.266   4.384   4.484   4.605
 --------------------------------------------------------------
 
          Ground-State Mulliken Net Atomic Charges

     Atom                 Charge (a.u.)    Spin (a.u.)
  --------------------------------------------------------
      1 C                     0.072678       0.196785
      2 C                    -0.229900      -0.058323
      3 C                    -0.141460       0.402012
      4 C                    -0.165324      -0.194084
      5 C                    -0.078359       0.182357
      6 N                    -0.320049      -0.069057
      7 H                     0.128906      -0.003880
      8 H                     0.150832       0.013209
      9 H                     0.194826      -0.020294
     10 H                     0.153530       0.017983
     11 H                     0.173113      -0.004956
     12 C                    -0.090679       0.515030
     13 H                     0.151887       0.023218
  --------------------------------------------------------
  Sum of atomic charges =     0.000000
  Sum of spin   charges =     1.000000

 -----------------------------------------------------------------
                    Cartesian Multipole Moments
 -----------------------------------------------------------------
    Charge (ESU x 10^10)
                 0.0000
    Dipole Moment (Debye)
         X      -1.1461      Y      -1.4690      Z       0.0629
       Tot       1.8643
    Quadrupole Moments (Debye-Ang)
        XX     -39.2527     XY      -4.3494     YY     -43.6733
        XZ       2.7755     YZ       2.2196     ZZ     -40.6647
    Octopole Moments (Debye-Ang^2)
       XXX       4.4106    XXY       1.5178    XYY      -4.3416
       YYY      -2.0545    XXZ      48.0156    XYZ       6.6133
       YYZ      49.6436    XZZ      -6.0728    YZZ       1.0791
       ZZZ     155.4117
    Hexadecapole Moments (Debye-Ang^3)
      XXXX    -234.7571   XXXY     -13.4627   XXYY     -81.6908
      XYYY     -20.4881   YYYY    -260.2651   XXXZ       1.1873
      XXYZ      13.6666   XYYZ      15.1459   YYYZ      44.0542
      XXZZ    -135.7844   XYZZ     -18.6818   YYZZ    -133.6972
      XZZZ      19.9363   YZZZ      18.1829   ZZZZ    -598.6342
 -----------------------------------------------------------------
 Calculating analytic gradient of the SCF energy
 Gradient of SCF Energy
            1           2           3           4           5           6
    1  -0.0933512  -0.0147467  -0.0058220   0.0500021  -0.0473653   0.0488406
    2  -0.0700009  -0.0225073   0.0299783   0.0021599   0.0519684   0.0699288
    3  -0.0092478   0.0549024  -0.0619395   0.0189791  -0.0628799   0.0335157
            7           8           9          10          11          12
    1   0.0073581   0.0097258   0.0103191  -0.0033746   0.0207253   0.0271985
    2   0.0169743   0.0134743  -0.0368893   0.0102975  -0.0089379  -0.0749163
    3  -0.0096596  -0.0096484   0.0274796  -0.0021574  -0.0046163   0.0215763
           13
    1  -0.0095097
    2   0.0184702
    3   0.0036959
 Max gradient component =       9.335E-02
 RMS gradient           =       3.697E-02
 Gradient time:  CPU 8.05 s  wall 4.58 s
 Geometry Optimization Parameters
   NAtoms,    NIC,     NZ,  NCons,   NDum,   NFix, NCnnct, MaxDiis
       13     128       0       0       0       0       0       0


** GEOMETRY OPTIMIZATION IN DELOCALIZED INTERNAL COORDINATES **
   Searching for a Minimum

   Optimization Cycle:   1

                       Coordinates (Angstroms)
     ATOM                X               Y               Z
      1  C         1.2630391715    0.1705669203   -1.3535427353
      2  C         0.5281763691   -1.0886969910   -1.1397329043
      3  C        -0.6725311603   -0.6156500229   -2.1805806593
      4  C        -1.0545281188    0.1136079550   -0.4836490199
      5  C        -0.6408205895    0.9073519054   -2.0354474545
      6  N         0.7897343840    1.3597918679   -1.6423679725
      7  H         2.3599876428    0.2886642651   -1.2152300212
      8  H         1.2042542673   -1.8760319775   -1.4806412157
      9  H        -1.2985550845   -1.5510821207   -2.1139987367
     10  H        -1.9894069796    0.5787999553   -0.1406914211
     11  H        -1.1642524705    1.5708654409   -2.6855387645
     12  C        -0.2868492221   -0.9737765998    0.1044948445
     13  H        -0.1010291423   -0.8173633865    1.1771886182
   Point Group: c1    Number of degrees of freedom:    33


   Energy is   -286.700330304


 Attempting to Generate Delocalized Internal Coordinates

 33 Hessian modes will be used to form the next step
  Hessian Eigenvalues:
     0.012230    0.014024    0.015465    0.016652    0.019625    0.024151
     0.026409    0.030965    0.040772    0.048872    0.054934    0.066850
     0.069392    0.085501    0.093520    0.120891    0.134908    0.148008
     0.159736    0.162203    0.187335    0.230293    0.265238    0.291463
     0.308102    0.316632    0.323972    0.333360    0.336989    0.337818
     0.345442    0.377105    0.566302

 Minimum Search - Taking Simple RFO Step
 Searching for Lamda that Minimizes Along All modes
 Value Taken    Lamda =  -0.08635331
 Calculated Step too Large.  Step scaled by  0.463811
 Step Taken.  Stepsize is  0.300000

                             Maximum     Tolerance    Cnvgd?
         Gradient           0.095986      0.000600      NO
         Displacement       0.159553      0.002400      NO
         Energy change     *********      0.000002      NO


 New Cartesian Coordinates Obtained by Inverse Iteration

 Displacement from previous Coordinates is:  0.266638
 ----------------------------------------------------------------
             Standard Nuclear Orientation (Angstroms)
    I     Atom           X                Y                Z
 ----------------------------------------------------------------
    1      C       1.3233376620     0.1797566280    -1.3566947654
    2      C       0.5450672055    -1.0697291648    -1.1554215605
    3      C      -0.6762386860    -0.6175979030    -2.1662479151
    4      C      -1.0858791808     0.1162105718    -0.4887632960
    5      C      -0.6451183574     0.8808755762    -2.0061583133
    6      N       0.7851416248     1.3273170050    -1.6560575603
    7      H       2.4151343317     0.2773093688    -1.2005005123
    8      H       1.2066193888    -1.8772535403    -1.4783842490
    9      H      -1.3204360349    -1.5213872110    -2.1149061615
   10      H      -2.0245006784     0.5696568345    -0.1525124301
   11      H      -1.1876230134     1.5475540730    -2.6485905312
   12      C      -0.2982291969    -0.9396702626     0.0818469543
   13      H      -0.1000559978    -0.8059947640     1.1526528980
 ----------------------------------------------------------------
 Nuclear Repulsion Energy =   275.8170485640 hartrees
 There are       25 alpha and       24 beta electrons
 Applying Cartesian multipole field
    Component          Value
    ---------          -----
     (2,0,0)        1.00000E-11
     (0,2,0)        2.00000E-11
     (0,0,2)       -3.00000E-11
 Nucleus-field energy     =    -0.0000000071 hartrees
 Requested basis set is 6-31G(d)
 There are 40 shells and 117 basis functions
 A cutoff of  1.0D-14 yielded    812 shell pairs
 There are      7084 function pairs
 Smallest overlap matrix eigenvalue = 2.27E-03
 Guess MOs from SCF MO coefficient file
 Reading MOs from coefficient file
 Reading MOs from coefficient file
 An unrestricted hybrid HF-DFT SCF calculation will be
 performed using Pulay DIIS extrapolation
 Exchange:     0.2000 Hartree-Fock + 0.0800 Slater + 0.7200 B88
 Correlation:  0.1900 VWN1RPA + 0.8100 LYP
 Using SG-1 standard quadrature grid
 SCF converges when DIIS error is below 1.0E-08
 Geometry optimization detected.  Setting ReadMinima to 0
 Setting SaveMinima to 0
Using Q-Chem read-in guess as SCF_GUESS READ specified.

 using 4 threads for integral computing
 -------------------------------------------------------
 OpenMP Integral computing Module                
 Release: version 1.0, May 2013, Q-Chem Inc. Pittsburgh 
 -------------------------------------------------------
 -------------------------------------------------------
 OpenMP BLAS3 based DFT computing Module                
 Release: version 1.0, May 2013, Q-Chem Inc. Pittsburgh 
 -------------------------------------------------------
 ---------------------------------------
  Cycle       Energy         DIIS Error
 ---------------------------------------
    1    -286.7874184206      2.38E-03
    2    -286.7332856097      1.08E-03
    3    -286.7328854938      1.23E-03
    4    -286.7355086589      2.70E-04
    5    -286.7356414237      8.72E-05
    6    -286.7356562272      4.45E-05
    7    -286.7356623033      8.06E-06
    8    -286.7356647760      5.49E-06
    9    -286.7356657646      2.62E-06
   10    -286.7356663249      1.69E-06
   11    -286.7356664590      5.16E-07
   12    -286.7356665318      3.43E-07
   13    -286.7356665522      1.74E-07
   14    -286.7356665588      6.73E-08
   15    -286.7356665600      2.55E-08
   16    -286.7356665601      1.64E-08
   17    -286.7356665601      1.13E-08
   18    -286.7356665601      5.17E-09 Convergence criterion met
 ---------------------------------------
 <S^2> = 0.7831
 SCF time:  CPU 47.68 s  wall 27.94 s
 SCF   energy in the final basis set = -286.73566656
 Total energy in the final basis set = -286.73566656
 
 --------------------------------------------------------------
 
                    Orbital Energies (a.u.)
 --------------------------------------------------------------
 
 Alpha MOs
 -- Occupied --
-14.329 -10.260 -10.233 -10.232 -10.218 -10.218 -10.208  -0.944
 -0.831  -0.743  -0.686  -0.594  -0.577  -0.529  -0.514  -0.470
 -0.427  -0.408  -0.390  -0.351  -0.327  -0.298  -0.279  -0.255
 -0.164
 -- Virtual --
 -0.009   0.001   0.065   0.103   0.113   0.122   0.142   0.154
  0.157   0.182   0.208   0.250   0.286   0.293   0.303   0.371
  0.493   0.499   0.517   0.557   0.570   0.574   0.576   0.607
  0.622   0.641   0.663   0.683   0.710   0.735   0.758   0.777
  0.805   0.813   0.832   0.847   0.848   0.856   0.895   0.911
  0.935   0.951   1.017   1.115   1.143   1.190   1.260   1.288
  1.419   1.456   1.479   1.493   1.581   1.629   1.653   1.676
  1.731   1.770   1.806   1.843   1.875   1.922   1.944   2.003
  2.053   2.082   2.171   2.200   2.242   2.264   2.297   2.315
  2.371   2.427   2.461   2.488   2.548   2.581   2.597   2.621
  2.664   2.704   2.807   2.886   2.919   3.893   4.180   4.236
  4.266   4.376   4.492   4.609
 
 Beta MOs
 -- Occupied --
-14.329 -10.257 -10.235 -10.226 -10.219 -10.215 -10.200  -0.940
 -0.825  -0.736  -0.679  -0.587  -0.571  -0.522  -0.512  -0.462
 -0.420  -0.401  -0.388  -0.346  -0.319  -0.286  -0.273  -0.240
 -- Virtual --
 -0.072   0.007   0.015   0.072   0.107   0.116   0.130   0.148
  0.157   0.159   0.184   0.212   0.255   0.293   0.299   0.311
  0.374   0.501   0.512   0.521   0.563   0.575   0.579   0.591
  0.615   0.630   0.646   0.666   0.688   0.717   0.739   0.767
  0.781   0.807   0.816   0.836   0.849   0.852   0.860   0.898
  0.916   0.937   0.954   1.021   1.122   1.147   1.198   1.263
  1.297   1.424   1.461   1.487   1.503   1.585   1.635   1.661
  1.681   1.735   1.778   1.811   1.853   1.890   1.928   1.952
  2.015   2.063   2.088   2.180   2.210   2.251   2.270   2.304
  2.325   2.376   2.437   2.466   2.497   2.555   2.590   2.604
  2.623   2.669   2.712   2.813   2.889   2.921   3.893   4.192
  4.238   4.277   4.382   4.498   4.612
 --------------------------------------------------------------
 
          Ground-State Mulliken Net Atomic Charges

     Atom                 Charge (a.u.)    Spin (a.u.)
  --------------------------------------------------------
      1 C                     0.071204       0.158703
      2 C                    -0.237932      -0.060226
      3 C                    -0.136087       0.425670
      4 C                    -0.160492      -0.191407
      5 C                    -0.070904       0.139718
      6 N                    -0.321050      -0.041409
      7 H                     0.135054      -0.002425
      8 H                     0.147799       0.015400
      9 H                     0.192919      -0.021054
     10 H                     0.154408       0.017539
     11 H                     0.171208      -0.001223
     12 C                    -0.092188       0.538428
     13 H                     0.146060       0.022286
  --------------------------------------------------------
  Sum of atomic charges =     0.000000
  Sum of spin   charges =     1.000000

 -----------------------------------------------------------------
                    Cartesian Multipole Moments
 -----------------------------------------------------------------
    Charge (ESU x 10^10)
                 0.0000
    Dipole Moment (Debye)
         X      -1.1134      Y      -1.4556      Z       0.0856
       Tot       1.8346
    Quadrupole Moments (Debye-Ang)
        XX     -38.4335     XY      -4.2505     YY     -43.8088
        XZ       2.7792     YZ       2.3918     ZZ     -40.8937
    Octopole Moments (Debye-Ang^2)
       XXX       4.6684    XXY       1.4860    XYY      -4.4259
       YYY      -1.9524    XXZ      47.2202    XYZ       6.4571
       YYZ      50.2149    XZZ      -6.2481    YZZ       0.4698
       ZZZ     155.9365
    Hexadecapole Moments (Debye-Ang^3)
      XXXX    -238.8359   XXXY     -12.8925   XXYY     -81.6270
      XYYY     -19.8463   YYYY    -252.6227   XXXZ       2.1501
      XXYZ      13.0971   XYYZ      15.4018   YYYZ      42.3673
      XXZZ    -135.4426   XYZZ     -18.0301   YYZZ    -133.0768
      XZZZ      21.5598   YZZZ      18.4985   ZZZZ    -595.7697
 -----------------------------------------------------------------
 Calculating analytic gradient of the SCF energy
 Gradient of SCF Energy
            1           2           3           4           5           6
    1  -0.0566463  -0.0103104  -0.0158061   0.0384199  -0.0449988   0.0372917
    2  -0.0523740  -0.0197841   0.0305693  -0.0074179   0.0420535   0.0505657
    3  -0.0059116   0.0472761  -0.0541522   0.0279608  -0.0592106   0.0306719
            7           8           9          10          11          12
    1   0.0080853   0.0110472   0.0110767  -0.0017691   0.0161779   0.0151308
    2   0.0113653   0.0137482  -0.0283006   0.0098982  -0.0067750  -0.0612692
    3  -0.0078797  -0.0101596   0.0258858  -0.0033635  -0.0079456   0.0152848
           13
    1  -0.0076987
    2   0.0177207
    3   0.0015435
 Max gradient component =       6.127E-02
 RMS gradient           =       2.982E-02
 Gradient time:  CPU 7.55 s  wall 2.70 s
 Geometry Optimization Parameters
   NAtoms,    NIC,     NZ,  NCons,   NDum,   NFix, NCnnct, MaxDiis
       13     128       0       0       0       0       0       0

 Cartesian Hessian Update
 Hessian Updated using BFGS Update


** GEOMETRY OPTIMIZATION IN DELOCALIZED INTERNAL COORDINATES **
   Searching for a Minimum

   Optimization Cycle:   2

                       Coordinates (Angstroms)
     ATOM                X               Y               Z
      1  C         1.3233376620    0.1797566280   -1.3566947654
      2  C         0.5450672055   -1.0697291648   -1.1554215605
      3  C        -0.6762386860   -0.6175979030   -2.1662479151
      4  C        -1.0858791808    0.1162105718   -0.4887632960
      5  C        -0.6451183574    0.8808755762   -2.0061583133
      6  N         0.7851416248    1.3273170050   -1.6560575603
      7  H         2.4151343317    0.2773093688   -1.2005005123
      8  H         1.2066193888   -1.8772535403   -1.4783842490
      9  H        -1.3204360349   -1.5213872110   -2.1149061615
     10  H        -2.0245006784    0.5696568345   -0.1525124301
     11  H        -1.1876230134    1.5475540730   -2.6485905312
     12  C        -0.2982291969   -0.9396702626    0.0818469543
     13  H        -0.1000559978   -0.8059947640    1.1526528980
   Point Group: c1    Number of degrees of freedom:    33


   Energy is   -286.735666560

 Hessian Updated using BFGS Update

 33 Hessian modes will be used to form the next step
  Hessian Eigenvalues:
     0.012422    0.013939    0.015468    0.016538    0.019483    0.024099
     0.026608    0.030615    0.041506    0.048575    0.053238    0.061574
     0.069096    0.088176    0.092031    0.109050    0.120978    0.147197
     0.155603    0.160692    0.210959    0.242735    0.263085    0.294203
     0.308558    0.322012    0.332091    0.335383    0.337669    0.344376
     0.345460    0.379601    0.556357

 Minimum Search - Taking Simple RFO Step
 Searching for Lamda that Minimizes Along All modes
 Value Taken    Lamda =  -0.07149455
 Calculated Step too Large.  Step scaled by  0.420863
 Step Taken.  Stepsize is  0.300000

                             Maximum     Tolerance    Cnvgd?
         Gradient           0.069947      0.000600      NO
         Displacement       0.148133      0.002400      NO
         Energy change     -0.035336      0.000002      NO


 New Cartesian Coordinates Obtained by Inverse Iteration

 Displacement from previous Coordinates is:  0.227616
 ----------------------------------------------------------------
             Standard Nuclear Orientation (Angstroms)
    I     Atom           X                Y                Z
 ----------------------------------------------------------------
    1      C       1.3571881441     0.1921939533    -1.3599971186
    2      C       0.5537551261    -1.0566133081    -1.1719468926
    3      C      -0.6647439179    -0.6267042914    -2.1532374110
    4      C      -1.1029272393     0.1266474934    -0.5014416734
    5      C      -0.6380935526     0.8493504941    -1.9709210800
    6      N       0.7705137051     1.3002147489    -1.6677215144
    7      H       2.4391021420     0.2800205615    -1.1862369096
    8      H       1.1948050169    -1.8890185037    -1.4735858587
    9      H      -1.3310746643    -1.4976869577    -2.1209592782
   10      H      -2.0423794319     0.5745761015    -0.1716386242
   11      H      -1.2007771426     1.5205632682    -2.5987609906
   12      C      -0.3078867186    -0.9064836298     0.0588720339
   13      H      -0.0902623999    -0.8000127187     1.1278378752
 ----------------------------------------------------------------
 Nuclear Repulsion Energy =   277.9212117807 hartrees
 There are       25 alpha and       24 beta electrons
 Applying Cartesian multipole field
    Component          Value
    ---------          -----
     (2,0,0)        1.00000E-11
     (0,2,0)        2.00000E-11
     (0,0,2)       -3.00000E-11
 Nucleus-field energy     =    -0.0000000071 hartrees
 Requested basis set is 6-31G(d)
 There are 40 shells and 117 basis functions
 A cutoff of  1.0D-14 yielded    812 shell pairs
 There are      7084 function pairs
 Smallest overlap matrix eigenvalue = 2.01E-03
 Guess MOs from SCF MO coefficient file
 Reading MOs from coefficient file
 Reading MOs from coefficient file
 An unrestricted hybrid HF-DFT SCF calculation will be
 performed using Pulay DIIS extrapolation
 Exchange:     0.2000 Hartree-Fock + 0.0800 Slater + 0.7200 B88
 Correlation:  0.1900 VWN1RPA + 0.8100 LYP
 Using SG-1 standard quadrature grid
 SCF converges when DIIS error is below 1.0E-08
 Geometry optimization detected.  Setting ReadMinima to 0
 Setting SaveMinima to 0
Using Q-Chem read-in guess as SCF_GUESS READ specified.

 using 4 threads for integral computing
 -------------------------------------------------------
 OpenMP Integral computing Module                
 Release: version 1.0, May 2013, Q-Chem Inc. Pittsburgh 
 -------------------------------------------------------
 -------------------------------------------------------
 OpenMP BLAS3 based DFT computing Module                
 Release: version 1.0, May 2013, Q-Chem Inc. Pittsburgh 
 -------------------------------------------------------
 ---------------------------------------
  Cycle       Energy         DIIS Error
 ---------------------------------------
    1    -286.8222828942      2.25E-03
    2    -286.7606517582      9.50E-04
    3    -286.7598197505      1.20E-03
    4    -286.7623720291      2.54E-04
    5    -286.7624828967      8.02E-05
    6    -286.7624953383      3.39E-05
    7    -286.7624994773      7.01E-06
    8    -286.7625013892      4.33E-06
    9    -286.7625019680      2.25E-06
   10    -286.7625023028      1.47E-06
   11    -286.7625023999      3.93E-07
   12    -286.7625024392      2.49E-07
   13    -286.7625024487      1.31E-07
   14    -286.7625024509      3.66E-08
   15    -286.7625024513      1.93E-08
   16    -286.7625024514      1.29E-08
   17    -286.7625024514      7.98E-09 Convergence criterion met
 ---------------------------------------
 <S^2> = 0.7823
 SCF time:  CPU 45.01 s  wall 31.06 s
 SCF   energy in the final basis set = -286.76250245
 Total energy in the final basis set = -286.76250245
 
 --------------------------------------------------------------
 
                    Orbital Energies (a.u.)
 --------------------------------------------------------------
 
 Alpha MOs
 -- Occupied --
-14.325 -10.253 -10.229 -10.227 -10.216 -10.214 -10.205  -0.952
 -0.835  -0.744  -0.687  -0.594  -0.580  -0.530  -0.516  -0.469
 -0.426  -0.412  -0.398  -0.356  -0.330  -0.299  -0.275  -0.258
 -0.163
 -- Virtual --
 -0.006   0.004   0.087   0.113   0.118   0.132   0.144   0.155
  0.157   0.187   0.213   0.256   0.292   0.298   0.310   0.373
  0.495   0.498   0.518   0.559   0.571   0.576   0.583   0.609
  0.622   0.642   0.667   0.681   0.708   0.735   0.762   0.775
  0.804   0.814   0.836   0.847   0.854   0.856   0.898   0.912
  0.949   0.957   1.025   1.121   1.155   1.197   1.267   1.294
  1.427   1.453   1.484   1.489   1.583   1.629   1.643   1.699
  1.742   1.779   1.825   1.858   1.909   1.935   1.971   2.016
  2.050   2.096   2.177   2.206   2.253   2.278   2.312   2.338
  2.387   2.437   2.486   2.493   2.555   2.584   2.614   2.637
  2.668   2.740   2.816   2.888   2.935   3.912   4.182   4.239
  4.281   4.384   4.511   4.621
 
 Beta MOs
 -- Occupied --
-14.325 -10.251 -10.231 -10.221 -10.215 -10.214 -10.196  -0.948
 -0.829  -0.738  -0.679  -0.587  -0.573  -0.523  -0.514  -0.459
 -0.420  -0.406  -0.396  -0.350  -0.323  -0.284  -0.272  -0.244
 -- Virtual --
 -0.068   0.011   0.018   0.092   0.116   0.123   0.138   0.150
  0.158   0.160   0.189   0.216   0.262   0.298   0.304   0.319
  0.376   0.501   0.515   0.522   0.565   0.579   0.583   0.593
  0.615   0.629   0.648   0.669   0.685   0.716   0.740   0.771
  0.781   0.806   0.818   0.839   0.851   0.858   0.858   0.901
  0.918   0.952   0.958   1.029   1.128   1.159   1.205   1.270
  1.302   1.431   1.457   1.492   1.500   1.587   1.638   1.647
  1.704   1.745   1.788   1.830   1.868   1.922   1.942   1.978
  2.029   2.060   2.103   2.186   2.216   2.263   2.283   2.318
  2.348   2.393   2.446   2.491   2.503   2.561   2.596   2.619
  2.640   2.673   2.747   2.822   2.891   2.937   3.912   4.193
  4.242   4.294   4.389   4.517   4.624
 --------------------------------------------------------------
 
          Ground-State Mulliken Net Atomic Charges

     Atom                 Charge (a.u.)    Spin (a.u.)
  --------------------------------------------------------
      1 C                     0.072314       0.128807
      2 C                    -0.244936      -0.061054
      3 C                    -0.129819       0.455773
      4 C                    -0.155214      -0.193945
      5 C                    -0.061410       0.098788
      6 N                    -0.321764      -0.020993
      7 H                     0.137846      -0.001084
      8 H                     0.145514       0.016672
      9 H                     0.189556      -0.021620
     10 H                     0.154114       0.018376
     11 H                     0.166885       0.001611
     12 C                    -0.094335       0.557468
     13 H                     0.141250       0.021202
  --------------------------------------------------------
  Sum of atomic charges =     0.000000
  Sum of spin   charges =     1.000000

 -----------------------------------------------------------------
                    Cartesian Multipole Moments
 -----------------------------------------------------------------
    Charge (ESU x 10^10)
                 0.0000
    Dipole Moment (Debye)
         X      -1.0688      Y      -1.4457      Z       0.1409
       Tot       1.8034
    Quadrupole Moments (Debye-Ang)
        XX     -37.8845     XY      -4.0944     YY     -43.7927
        XZ       2.7381     YZ       2.5723     ZZ     -41.2079
    Octopole Moments (Debye-Ang^2)
       XXX       4.6646    XXY       1.5650    XYY      -4.3607
       YYY      -1.9553    XXZ      46.7482    XYZ       6.1110
       YYZ      50.6941    XZZ      -6.0964    YZZ      -0.2344
       ZZZ     156.8430
    Hexadecapole Moments (Debye-Ang^3)
      XXXX    -238.8004   XXXY     -12.1020   XXYY     -80.7563
      XYYY     -19.1400   YYYY    -245.6334   XXXZ       3.3758
      XXYZ      12.3043   XYYZ      15.2472   YYYZ      40.4333
      XXZZ    -134.5756   XYZZ     -16.8585   YYZZ    -132.5292
      XZZZ      22.0351   YZZZ      18.6511   ZZZZ    -593.5298
 -----------------------------------------------------------------
 Calculating analytic gradient of the SCF energy
 Gradient of SCF Energy
            1           2           3           4           5           6
    1  -0.0366918  -0.0099796  -0.0200616   0.0325074  -0.0330111   0.0262787
    2  -0.0328387  -0.0154869   0.0326507  -0.0163851   0.0276322   0.0312086
    3  -0.0044700   0.0388469  -0.0412610   0.0313234  -0.0518697   0.0271938
            7           8           9          10          11          12
    1   0.0049379   0.0108074   0.0124459   0.0001572   0.0135778   0.0039635
    2   0.0078243   0.0121709  -0.0204997   0.0094560  -0.0046050  -0.0477843
    3  -0.0067410  -0.0105073   0.0243402  -0.0050562  -0.0092490   0.0068114
           13
    1  -0.0049317
    2   0.0166571
    3   0.0006386
 Max gradient component =       5.187E-02
 RMS gradient           =       2.345E-02
 Gradient time:  CPU 7.88 s  wall 3.82 s
 Geometry Optimization Parameters
   NAtoms,    NIC,     NZ,  NCons,   NDum,   NFix, NCnnct, MaxDiis
       13     128       0       0       0       0       0       0

 Cartesian Hessian Update
 Hessian Updated using BFGS Update


** GEOMETRY OPTIMIZATION IN DELOCALIZED INTERNAL COORDINATES **
   Searching for a Minimum

   Optimization Cycle:   3

                       Coordinates (Angstroms)
     ATOM                X               Y               Z
      1  C         1.3571881441    0.1921939533   -1.3599971186
      2  C         0.5537551261   -1.0566133081   -1.1719468926
      3  C        -0.6647439179   -0.6267042914   -2.1532374110
      4  C        -1.1029272393    0.1266474934   -0.5014416734
      5  C        -0.6380935526    0.8493504941   -1.9709210800
      6  N         0.7705137051    1.3002147489   -1.6677215144
      7  H         2.4391021420    0.2800205615   -1.1862369096
      8  H         1.1948050169   -1.8890185037   -1.4735858587
      9  H        -1.3310746643   -1.4976869577   -2.1209592782
     10  H        -2.0423794319    0.5745761015   -0.1716386242
     11  H        -1.2007771426    1.5205632682   -2.5987609906
     12  C        -0.3078867186   -0.9064836298    0.0588720339
     13  H        -0.0902623999   -0.8000127187    1.1278378752
   Point Group: c1    Number of degrees of freedom:    33


   Energy is   -286.762502451

 Hessian Updated using BFGS Update

 33 Hessian modes will be used to form the next step
  Hessian Eigenvalues:
     0.012298    0.013981    0.015454    0.016634    0.019256    0.023882
     0.026549    0.030594    0.042208    0.047233    0.050942    0.061835
     0.069443    0.088285    0.090987    0.106436    0.121321    0.147299
     0.157675    0.161142    0.210356    0.251709    0.264157    0.293975
     0.309950    0.324032    0.333867    0.337204    0.337686    0.345419
     0.365378    0.386055    0.569668

 Minimum Search - Taking Simple RFO Step
 Searching for Lamda that Minimizes Along All modes
 Value Taken    Lamda =  -0.05333292
 Calculated Step too Large.  Step scaled by  0.412638
 Step Taken.  Stepsize is  0.300000

                             Maximum     Tolerance    Cnvgd?
         Gradient           0.047994      0.000600      NO
         Displacement       0.123981      0.002400      NO
         Energy change     -0.026836      0.000002      NO


 New Cartesian Coordinates Obtained by Inverse Iteration

 Displacement from previous Coordinates is:  0.216085
 ----------------------------------------------------------------
             Standard Nuclear Orientation (Angstroms)
    I     Atom           X                Y                Z
 ----------------------------------------------------------------
    1      C       1.3849827996     0.2007886665    -1.3654619995
    2      C       0.5626739154    -1.0474817919    -1.1846603284
    3      C      -0.6478025445    -0.6389353482    -2.1476942898
    4      C      -1.1184295155     0.1419317272    -0.5168864855
    5      C      -0.6342220205     0.8256437427    -1.9359900922
    6      N       0.7585841979     1.2788536002    -1.6795980930
    7      H       2.4602169861     0.2813396422    -1.1759512672
    8      H       1.1810413694    -1.9053905703    -1.4605581541
    9      H      -1.3391873336    -1.4818106452    -2.1401198326
   10      H      -2.0610684545     0.5818077023    -0.1902457604
   11      H      -1.2198231718     1.4994141277    -2.5452132971
   12      C      -0.3116801966    -0.8732351803     0.0425841846
   13      H      -0.0780669643    -0.7958784613     1.1100579729
 ----------------------------------------------------------------
 Nuclear Repulsion Energy =   279.4421763971 hartrees
 There are       25 alpha and       24 beta electrons
 Applying Cartesian multipole field
    Component          Value
    ---------          -----
     (2,0,0)        1.00000E-11
     (0,2,0)        2.00000E-11
     (0,0,2)       -3.00000E-11
 Nucleus-field energy     =    -0.0000000071 hartrees
 Requested basis set is 6-31G(d)
 There are 40 shells and 117 basis functions
 A cutoff of  1.0D-14 yielded    813 shell pairs
 There are      7085 function pairs
 Smallest overlap matrix eigenvalue = 1.80E-03
 Guess MOs from SCF MO coefficient file
 Reading MOs from coefficient file
 Reading MOs from coefficient file
 An unrestricted hybrid HF-DFT SCF calculation will be
 performed using Pulay DIIS extrapolation
 Exchange:     0.2000 Hartree-Fock + 0.0800 Slater + 0.7200 B88
 Correlation:  0.1900 VWN1RPA + 0.8100 LYP
 Using SG-1 standard quadrature grid
 SCF converges when DIIS error is below 1.0E-08
 Geometry optimization detected.  Setting ReadMinima to 0
 Setting SaveMinima to 0
Using Q-Chem read-in guess as SCF_GUESS READ specified.

 using 4 threads for integral computing
 -------------------------------------------------------
 OpenMP Integral computing Module                
 Release: version 1.0, May 2013, Q-Chem Inc. Pittsburgh 
 -------------------------------------------------------
 -------------------------------------------------------
 OpenMP BLAS3 based DFT computing Module                
 Release: version 1.0, May 2013, Q-Chem Inc. Pittsburgh 
 -------------------------------------------------------
 ---------------------------------------
  Cycle       Energy         DIIS Error
 ---------------------------------------
    1    -286.8245414796      2.05E-03
    2    -286.7809321565      7.72E-04
    3    -286.7801426269      1.05E-03
    4    -286.7820946523      2.02E-04
    5    -286.7821613654      6.85E-05
    6    -286.7821714602      2.57E-05
    7    -286.7821746574      6.74E-06
    8    -286.7821764720      2.75E-06
    9    -286.7821770044      1.63E-06
   10    -286.7821772223      5.24E-07
   11    -286.7821772743      3.32E-07
   12    -286.7821772814      1.90E-07
   13    -286.7821772861      8.66E-08
   14    -286.7821772864      2.59E-08
   15    -286.7821772867      1.41E-08
   16    -286.7821772868      7.59E-09 Convergence criterion met
 ---------------------------------------
 <S^2> = 0.7844
 SCF time:  CPU 42.67 s  wall 36.93 s
 SCF   energy in the final basis set = -286.78217729
 Total energy in the final basis set = -286.78217729
 
 --------------------------------------------------------------
 
                    Orbital Energies (a.u.)
 --------------------------------------------------------------
 
 Alpha MOs
 -- Occupied --
-14.322 -10.247 -10.225 -10.223 -10.217 -10.212 -10.203  -0.958
 -0.837  -0.745  -0.687  -0.593  -0.582  -0.531  -0.517  -0.467
 -0.426  -0.414  -0.403  -0.360  -0.334  -0.299  -0.272  -0.260
 -0.163
 -- Virtual --
 -0.005   0.006   0.101   0.121   0.126   0.140   0.146   0.155
  0.157   0.191   0.214   0.260   0.295   0.300   0.320   0.374
  0.496   0.499   0.519   0.561   0.570   0.578   0.586   0.610
  0.624   0.642   0.669   0.677   0.705   0.733   0.764   0.774
  0.804   0.815   0.838   0.845   0.852   0.862   0.898   0.912
  0.949   0.977   1.035   1.125   1.164   1.201   1.271   1.302
  1.424   1.444   1.486   1.497   1.582   1.614   1.651   1.721
  1.754   1.782   1.836   1.881   1.930   1.945   1.994   2.022
  2.048   2.108   2.177   2.204   2.258   2.288   2.321   2.347
  2.407   2.443   2.494   2.509   2.554   2.578   2.631   2.648
  2.671   2.767   2.823   2.890   2.946   3.926   4.183   4.242
  4.290   4.392   4.526   4.631
 
 Beta MOs
 -- Occupied --
-14.322 -10.245 -10.228 -10.216 -10.215 -10.212 -10.194  -0.954
 -0.831  -0.739  -0.678  -0.588  -0.576  -0.523  -0.515  -0.458
 -0.420  -0.409  -0.401  -0.354  -0.328  -0.283  -0.269  -0.246
 -- Virtual --
 -0.064   0.012   0.019   0.104   0.124   0.132   0.144   0.151
  0.159   0.161   0.194   0.218   0.266   0.300   0.305   0.328
  0.377   0.501   0.518   0.523   0.567   0.580   0.585   0.594
  0.615   0.630   0.648   0.672   0.681   0.713   0.740   0.771
  0.782   0.805   0.819   0.840   0.849   0.856   0.865   0.903
  0.918   0.952   0.978   1.039   1.132   1.167   1.210   1.274
  1.309   1.427   1.450   1.495   1.506   1.586   1.623   1.655
  1.727   1.756   1.792   1.841   1.889   1.937   1.956   2.000
  2.038   2.056   2.115   2.185   2.216   2.268   2.294   2.326
  2.357   2.415   2.453   2.503   2.514   2.561   2.589   2.636
  2.652   2.675   2.773   2.829   2.893   2.948   3.926   4.193
  4.244   4.304   4.396   4.531   4.633
 --------------------------------------------------------------
 
          Ground-State Mulliken Net Atomic Charges

     Atom                 Charge (a.u.)    Spin (a.u.)
  --------------------------------------------------------
      1 C                     0.074363       0.099623
      2 C                    -0.250315      -0.061774
      3 C                    -0.126497       0.492571
      4 C                    -0.149991      -0.204929
      5 C                    -0.051921       0.066055
      6 N                    -0.323460      -0.004509
      7 H                     0.140419       0.000159
      8 H                     0.143838       0.017142
      9 H                     0.184952      -0.022310
     10 H                     0.153356       0.019271
     11 H                     0.162765       0.003835
     12 C                    -0.095914       0.576041
     13 H                     0.138405       0.018826
  --------------------------------------------------------
  Sum of atomic charges =    -0.000000
  Sum of spin   charges =     1.000000

 -----------------------------------------------------------------
                    Cartesian Multipole Moments
 -----------------------------------------------------------------
    Charge (ESU x 10^10)
                 0.0000
    Dipole Moment (Debye)
         X      -1.0203      Y      -1.4502      Z       0.2392
       Tot       1.7892
    Quadrupole Moments (Debye-Ang)
        XX     -37.4317     XY      -3.9820     YY     -43.7351
        XZ       2.7026     YZ       2.7224     ZZ     -41.6367
    Octopole Moments (Debye-Ang^2)
       XXX       4.5229    XXY       1.6361    XYY      -4.3606
       YYY      -2.1365    XXZ      46.4048    XYZ       5.8190
       YYZ      51.1543    XZZ      -6.0069    YZZ      -0.9624
       ZZZ     158.3302
    Hexadecapole Moments (Debye-Ang^3)
      XXXX    -238.7818   XXXY     -11.1434   XXYY     -80.1542
      XYYY     -18.3091   YYYY    -240.1253   XXXZ       4.5527
      XXYZ      11.5551   XYYZ      15.1957   YYYZ      38.7608
      XXZZ    -134.0659   XYZZ     -15.6554   YYZZ    -132.4071
      XZZZ      22.5109   YZZZ      18.9624   ZZZZ    -594.4650
 -----------------------------------------------------------------
 Calculating analytic gradient of the SCF energy
 Gradient of SCF Energy
            1           2           3           4           5           6
    1  -0.0206005  -0.0091975  -0.0201326   0.0251704  -0.0217381   0.0143293
    2  -0.0207592  -0.0115152   0.0328300  -0.0198483   0.0183630   0.0176610
    3  -0.0024884   0.0302731  -0.0289299   0.0285809  -0.0432162   0.0221048
            7           8           9          10          11          12
    1   0.0032040   0.0099347   0.0117257   0.0009045   0.0108784  -0.0023220
    2   0.0049321   0.0104007  -0.0156840   0.0092352  -0.0027776  -0.0380886
    3  -0.0051947  -0.0105983   0.0219904  -0.0063107  -0.0088244   0.0021607
           13
    1  -0.0021564
    2   0.0152509
    3   0.0004525
 Max gradient component =       4.322E-02
 RMS gradient           =       1.834E-02
 Gradient time:  CPU 8.11 s  wall 3.39 s
 Geometry Optimization Parameters
   NAtoms,    NIC,     NZ,  NCons,   NDum,   NFix, NCnnct, MaxDiis
       13     128       0       0       0       0       0       0

 Cartesian Hessian Update
 Hessian Updated using BFGS Update


** GEOMETRY OPTIMIZATION IN DELOCALIZED INTERNAL COORDINATES **
   Searching for a Minimum

   Optimization Cycle:   4

                       Coordinates (Angstroms)
     ATOM                X               Y               Z
      1  C         1.3849827996    0.2007886665   -1.3654619995
      2  C         0.5626739154   -1.0474817919   -1.1846603284
      3  C        -0.6478025445   -0.6389353482   -2.1476942898
      4  C        -1.1184295155    0.1419317272   -0.5168864855
      5  C        -0.6342220205    0.8256437427   -1.9359900922
      6  N         0.7585841979    1.2788536002   -1.6795980930
      7  H         2.4602169861    0.2813396422   -1.1759512672
      8  H         1.1810413694   -1.9053905703   -1.4605581541
      9  H        -1.3391873336   -1.4818106452   -2.1401198326
     10  H        -2.0610684545    0.5818077023   -0.1902457604
     11  H        -1.2198231718    1.4994141277   -2.5452132971
     12  C        -0.3116801966   -0.8732351803    0.0425841846
     13  H        -0.0780669643   -0.7958784613    1.1100579729
   Point Group: c1    Number of degrees of freedom:    33


   Energy is   -286.782177287

 Hessian Updated using BFGS Update

 33 Hessian modes will be used to form the next step
  Hessian Eigenvalues:
     0.012474    0.013950    0.015451    0.017038    0.018895    0.024258
     0.026431    0.030507    0.042350    0.045006    0.049806    0.061341
     0.069869    0.087017    0.091274    0.107619    0.123010    0.147892
     0.159283    0.162975    0.209680    0.260712    0.270998    0.293900
     0.310289    0.324143    0.333651    0.337467    0.337687    0.345420
     0.372287    0.401925    0.573634

 Minimum Search - Taking Simple RFO Step
 Searching for Lamda that Minimizes Along All modes
 Value Taken    Lamda =  -0.03900683
 Calculated Step too Large.  Step scaled by  0.417715
 Step Taken.  Stepsize is  0.300000

                             Maximum     Tolerance    Cnvgd?
         Gradient           0.031048      0.000600      NO
         Displacement       0.140822      0.002400      NO
         Energy change     -0.019675      0.000002      NO


 New Cartesian Coordinates Obtained by Inverse Iteration

 Displacement from previous Coordinates is:  0.204533
 ----------------------------------------------------------------
             Standard Nuclear Orientation (Angstroms)
    I     Atom           X                Y                Z
 ----------------------------------------------------------------
    1      C       1.4065551860     0.2082985751    -1.3734652220
    2      C       0.5712031910    -1.0403091988    -1.1933445411
    3      C      -0.6279805407    -0.6531725888    -2.1483270340
    4      C      -1.1303247649     0.1590883259    -0.5308449720
    5      C      -0.6320943829     0.8068457953    -1.9036926394
    6      N       0.7525888215     1.2640442836    -1.6932628563
    7      H       2.4765400589     0.2841088961    -1.1706195425
    8      H       1.1648504746    -1.9244464039    -1.4377123168
    9      H      -1.3457150859    -1.4682194093    -2.1697437322
   10      H      -2.0767170067     0.5875358651    -0.2023532654
   11      H      -1.2409490779     1.4805601463    -2.4940326917
   12      C      -0.3126883997    -0.8409197984     0.0309374984
   13      H      -0.0680494061    -0.7963672766     1.0967238727
 ----------------------------------------------------------------
 Nuclear Repulsion Energy =   280.4936473451 hartrees
 There are       25 alpha and       24 beta electrons
 Applying Cartesian multipole field
    Component          Value
    ---------          -----
     (2,0,0)        1.00000E-11
     (0,2,0)        2.00000E-11
     (0,0,2)       -3.00000E-11
 Nucleus-field energy     =    -0.0000000071 hartrees
 Requested basis set is 6-31G(d)
 There are 40 shells and 117 basis functions
 A cutoff of  1.0D-14 yielded    813 shell pairs
 There are      7085 function pairs
 Smallest overlap matrix eigenvalue = 1.65E-03
 Guess MOs from SCF MO coefficient file
 Reading MOs from coefficient file
 Reading MOs from coefficient file
 An unrestricted hybrid HF-DFT SCF calculation will be
 performed using Pulay DIIS extrapolation
 Exchange:     0.2000 Hartree-Fock + 0.0800 Slater + 0.7200 B88
 Correlation:  0.1900 VWN1RPA + 0.8100 LYP
 Using SG-1 standard quadrature grid
 SCF converges when DIIS error is below 1.0E-08
 Geometry optimization detected.  Setting ReadMinima to 0
 Setting SaveMinima to 0
Using Q-Chem read-in guess as SCF_GUESS READ specified.

 using 4 threads for integral computing
 -------------------------------------------------------
 OpenMP Integral computing Module                
 Release: version 1.0, May 2013, Q-Chem Inc. Pittsburgh 
 -------------------------------------------------------
 -------------------------------------------------------
 OpenMP BLAS3 based DFT computing Module                
 Release: version 1.0, May 2013, Q-Chem Inc. Pittsburgh 
 -------------------------------------------------------
 ---------------------------------------
  Cycle       Energy         DIIS Error
 ---------------------------------------
    1    -286.8276658661      1.89E-03
    2    -286.7957761671      6.30E-04
    3    -286.7952127693      8.81E-04
    4    -286.7965698337      1.65E-04
    5    -286.7966142708      6.13E-05
    6    -286.7966231721      2.08E-05
    7    -286.7966261020      7.18E-06
    8    -286.7966278699      2.90E-06
    9    -286.7966282873      2.94E-06
   10    -286.7966285134      7.72E-07
   11    -286.7966285574      4.02E-07
   12    -286.7966285686      8.98E-08
   13    -286.7966285715      3.61E-08
   14    -286.7966285720      2.01E-08
   15    -286.7966285722      1.45E-08
   16    -286.7966285723      6.44E-09 Convergence criterion met
 ---------------------------------------
 <S^2> = 0.7881
 SCF time:  CPU 42.54 s  wall 34.41 s
 SCF   energy in the final basis set = -286.79662857
 Total energy in the final basis set = -286.79662857
 
 --------------------------------------------------------------
 
                    Orbital Energies (a.u.)
 --------------------------------------------------------------
 
 Alpha MOs
 -- Occupied --
-14.321 -10.241 -10.223 -10.220 -10.218 -10.210 -10.202  -0.962
 -0.839  -0.744  -0.687  -0.593  -0.584  -0.530  -0.517  -0.466
 -0.427  -0.416  -0.404  -0.363  -0.338  -0.298  -0.270  -0.262
 -0.163
 -- Virtual --
 -0.007   0.007   0.105   0.128   0.137   0.146   0.150   0.154
  0.158   0.197   0.214   0.262   0.296   0.301   0.328   0.374
  0.497   0.500   0.521   0.564   0.567   0.580   0.589   0.612
  0.627   0.642   0.671   0.674   0.703   0.732   0.766   0.774
  0.803   0.815   0.840   0.844   0.851   0.867   0.899   0.912
  0.949   0.991   1.046   1.126   1.169   1.204   1.271   1.313
  1.412   1.444   1.487   1.503   1.579   1.605   1.658   1.739
  1.766   1.782   1.840   1.904   1.940   1.952   2.014   2.026
  2.050   2.117   2.175   2.202   2.258   2.296   2.325   2.349
  2.419   2.453   2.495   2.521   2.555   2.577   2.641   2.651
  2.677   2.786   2.830   2.894   2.952   3.936   4.184   4.244
  4.295   4.397   4.537   4.637
 
 Beta MOs
 -- Occupied --
-14.320 -10.240 -10.226 -10.216 -10.212 -10.211 -10.193  -0.958
 -0.832  -0.739  -0.678  -0.588  -0.577  -0.523  -0.515  -0.456
 -0.422  -0.410  -0.402  -0.358  -0.332  -0.282  -0.267  -0.247
 -- Virtual --
 -0.060   0.010   0.020   0.108   0.134   0.141   0.148   0.154
  0.159   0.162   0.200   0.218   0.269   0.300   0.306   0.337
  0.377   0.501   0.520   0.524   0.569   0.578   0.585   0.596
  0.616   0.631   0.649   0.674   0.678   0.711   0.739   0.772
  0.784   0.805   0.819   0.842   0.848   0.855   0.870   0.903
  0.918   0.951   0.992   1.051   1.134   1.173   1.213   1.275
  1.320   1.414   1.450   1.497   1.512   1.584   1.614   1.663
  1.745   1.768   1.792   1.845   1.912   1.945   1.966   2.018
  2.043   2.059   2.125   2.183   2.215   2.267   2.303   2.330
  2.359   2.429   2.462   2.502   2.526   2.561   2.587   2.646
  2.655   2.681   2.793   2.836   2.896   2.953   3.937   4.194
  4.247   4.310   4.402   4.542   4.640
 --------------------------------------------------------------
 
          Ground-State Mulliken Net Atomic Charges

     Atom                 Charge (a.u.)    Spin (a.u.)
  --------------------------------------------------------
      1 C                     0.077807       0.072001
      2 C                    -0.253876      -0.062019
      3 C                    -0.125055       0.538818
      4 C                    -0.143184      -0.219305
      5 C                    -0.045149       0.041445
      6 N                    -0.325372       0.008535
      7 H                     0.142461       0.001161
      8 H                     0.142443       0.016787
      9 H                     0.179635      -0.023161
     10 H                     0.152229       0.020017
     11 H                     0.158674       0.005444
     12 C                    -0.097785       0.584794
     13 H                     0.137174       0.015485
  --------------------------------------------------------
  Sum of atomic charges =    -0.000000
  Sum of spin   charges =     1.000000

 -----------------------------------------------------------------
                    Cartesian Multipole Moments
 -----------------------------------------------------------------
    Charge (ESU x 10^10)
                -0.0000
    Dipole Moment (Debye)
         X      -0.9760      Y      -1.4671      Z       0.3720
       Tot       1.8009
    Quadrupole Moments (Debye-Ang)
        XX     -37.0786     XY      -3.8835     YY     -43.6630
        XZ       2.6717     YZ       2.8452     ZZ     -42.1270
    Octopole Moments (Debye-Ang^2)
       XXX       4.1789    XXY       1.6661    XYY      -4.3955
       YYY      -2.5124    XXZ      46.2041    XYZ       5.5416
       YYZ      51.6649    XZZ      -6.0083    YZZ      -1.7095
       ZZZ     160.1568
    Hexadecapole Moments (Debye-Ang^3)
      XXXX    -238.7451   XXXY     -10.2350   XXYY     -79.8028
      XYYY     -17.6462   YYYY    -235.8718   XXXZ       5.8705
      XXYZ      10.9486   XYYZ      15.2677   YYYZ      37.5216
      XXZZ    -133.8559   XYZZ     -14.4740   YYZZ    -132.7975
      XZZZ      23.2697   YZZZ      19.5403   ZZZZ    -597.8317
 -----------------------------------------------------------------
 Calculating analytic gradient of the SCF energy
 Gradient of SCF Energy
            1           2           3           4           5           6
    1  -0.0096295  -0.0079451  -0.0188815   0.0184577  -0.0118710   0.0059571
    2  -0.0118884  -0.0077000   0.0297114  -0.0193483   0.0120472   0.0080353
    3  -0.0012082   0.0225038  -0.0174506   0.0205721  -0.0320708   0.0167917
            7           8           9          10          11          12
    1   0.0017307   0.0084323   0.0100554   0.0009838   0.0080430  -0.0057512
    2   0.0029301   0.0082480  -0.0120530   0.0084766  -0.0013981  -0.0307796
    3  -0.0035894  -0.0102810   0.0188284  -0.0071816  -0.0072825   0.0001161
           13
    1   0.0004183
    2   0.0137190
    3   0.0002520
 Max gradient component =       3.207E-02
 RMS gradient           =       1.389E-02
 Gradient time:  CPU 7.78 s  wall 6.04 s
 Geometry Optimization Parameters
   NAtoms,    NIC,     NZ,  NCons,   NDum,   NFix, NCnnct, MaxDiis
       13     128       0       0       0       0       0       0

 Cartesian Hessian Update
 Hessian Updated using BFGS Update


** GEOMETRY OPTIMIZATION IN DELOCALIZED INTERNAL COORDINATES **
   Searching for a Minimum

   Optimization Cycle:   5

                       Coordinates (Angstroms)
     ATOM                X               Y               Z
      1  C         1.4065551860    0.2082985751   -1.3734652220
      2  C         0.5712031910   -1.0403091988   -1.1933445411
      3  C        -0.6279805407   -0.6531725888   -2.1483270340
      4  C        -1.1303247649    0.1590883259   -0.5308449720
      5  C        -0.6320943829    0.8068457953   -1.9036926394
      6  N         0.7525888215    1.2640442836   -1.6932628563
      7  H         2.4765400589    0.2841088961   -1.1706195425
      8  H         1.1648504746   -1.9244464039   -1.4377123168
      9  H        -1.3457150859   -1.4682194093   -2.1697437322
     10  H        -2.0767170067    0.5875358651   -0.2023532654
     11  H        -1.2409490779    1.4805601463   -2.4940326917
     12  C        -0.3126883997   -0.8409197984    0.0309374984
     13  H        -0.0680494061   -0.7963672766    1.0967238727
   Point Group: c1    Number of degrees of freedom:    33


   Energy is   -286.796628572

 Hessian Updated using BFGS Update

 33 Hessian modes will be used to form the next step
  Hessian Eigenvalues:
     0.012726    0.013908    0.015438    0.017370    0.018257    0.024574
     0.026295    0.030497    0.042077    0.043717    0.049337    0.060852
     0.070163    0.086935    0.091911    0.109827    0.128403    0.149650
     0.159963    0.166285    0.209271    0.262196    0.281361    0.293805
     0.310809    0.324412    0.333676    0.337482    0.337690    0.345418
     0.373642    0.414633    0.577020

 Minimum Search - Taking Simple RFO Step
 Searching for Lamda that Minimizes Along All modes
 Value Taken    Lamda =  -0.02761402
 Calculated Step too Large.  Step scaled by  0.431100
 Step Taken.  Stepsize is  0.300000

                             Maximum     Tolerance    Cnvgd?
         Gradient           0.019365      0.000600      NO
         Displacement       0.151516      0.002400      NO
         Energy change     -0.014451      0.000002      NO


 New Cartesian Coordinates Obtained by Inverse Iteration

 Displacement from previous Coordinates is:  0.196067
 ----------------------------------------------------------------
             Standard Nuclear Orientation (Angstroms)
    I     Atom           X                Y                Z
 ----------------------------------------------------------------
    1      C       1.4230084799     0.2149337379    -1.3836722613
    2      C       0.5790949632    -1.0340612634    -1.1978314744
    3      C      -0.6055232546    -0.6666790996    -2.1550512544
    4      C      -1.1392242688     0.1768927684    -0.5384352172
    5      C      -0.6322394452     0.7920205046    -1.8774613927
    6      N       0.7506502815     1.2542982694    -1.7107907208
    7      H       2.4893420991     0.2875902438    -1.1706279598
    8      H       1.1469984503    -1.9438674120    -1.4045301462
    9      H      -1.3489103684    -1.4537471681    -2.2100322132
   10      H      -2.0888233106     0.5908042604    -0.2014725747
   11      H      -1.2623557292     1.4628707502    -2.4518333000
   12      C      -0.3123207655    -0.8096203280     0.0239386990
   13      H      -0.0624780646    -0.8043880521     1.0880623733
 ----------------------------------------------------------------
 Nuclear Repulsion Energy =   281.0484912049 hartrees
 There are       25 alpha and       24 beta electrons
 Applying Cartesian multipole field
    Component          Value
    ---------          -----
     (2,0,0)        1.00000E-11
     (0,2,0)        2.00000E-11
     (0,0,2)       -3.00000E-11
 Nucleus-field energy     =    -0.0000000071 hartrees
 Requested basis set is 6-31G(d)
 There are 40 shells and 117 basis functions
 A cutoff of  1.0D-14 yielded    813 shell pairs
 There are      7085 function pairs
 Smallest overlap matrix eigenvalue = 1.54E-03
 Guess MOs from SCF MO coefficient file
 Reading MOs from coefficient file
 Reading MOs from coefficient file
 An unrestricted hybrid HF-DFT SCF calculation will be
 performed using Pulay DIIS extrapolation
 Exchange:     0.2000 Hartree-Fock + 0.0800 Slater + 0.7200 B88
 Correlation:  0.1900 VWN1RPA + 0.8100 LYP
 Using SG-1 standard quadrature grid
 SCF converges when DIIS error is below 1.0E-08
 Geometry optimization detected.  Setting ReadMinima to 0
 Setting SaveMinima to 0
Using Q-Chem read-in guess as SCF_GUESS READ specified.

 using 4 threads for integral computing
 -------------------------------------------------------
 OpenMP Integral computing Module                
 Release: version 1.0, May 2013, Q-Chem Inc. Pittsburgh 
 -------------------------------------------------------
 -------------------------------------------------------
 OpenMP BLAS3 based DFT computing Module                
 Release: version 1.0, May 2013, Q-Chem Inc. Pittsburgh 
 -------------------------------------------------------
 ---------------------------------------
  Cycle       Energy         DIIS Error
 ---------------------------------------
    1    -286.8275171313      1.69E-03
    2    -286.8065432766      4.96E-04
    3    -286.8062400129      6.88E-04
    4    -286.8070725152      1.28E-04
    5    -286.8071031558      5.20E-05
    6    -286.8071116449      1.95E-05
    7    -286.8071154909      9.52E-06
    8    -286.8071176293      4.05E-06
    9    -286.8071179858      3.33E-06
   10    -286.8071181815      8.08E-07
   11    -286.8071181994      2.96E-07
   12    -286.8071182035      7.96E-08
   13    -286.8071182051      3.26E-08
   14    -286.8071182057      2.35E-08
   15    -286.8071182059      1.43E-08
   16    -286.8071182060      4.72E-09 Convergence criterion met
 ---------------------------------------
 <S^2> = 0.7924
 SCF time:  CPU 42.68 s  wall 37.23 s
 SCF   energy in the final basis set = -286.80711821
 Total energy in the final basis set = -286.80711821
 
 --------------------------------------------------------------
 
                    Orbital Energies (a.u.)
 --------------------------------------------------------------
 
 Alpha MOs
 -- Occupied --
-14.320 -10.235 -10.220 -10.219 -10.217 -10.209 -10.202  -0.964
 -0.839  -0.743  -0.688  -0.593  -0.584  -0.530  -0.517  -0.466
 -0.428  -0.417  -0.404  -0.365  -0.341  -0.296  -0.269  -0.263
 -0.164
 -- Virtual --
 -0.010   0.008   0.106   0.132   0.143   0.152   0.154   0.156
  0.159   0.201   0.213   0.263   0.296   0.303   0.336   0.373
  0.497   0.501   0.522   0.562   0.568   0.580   0.590   0.614
  0.630   0.643   0.670   0.673   0.702   0.731   0.768   0.776
  0.802   0.815   0.842   0.843   0.851   0.869   0.899   0.913
  0.949   0.998   1.058   1.126   1.170   1.206   1.269   1.325
  1.400   1.445   1.490   1.506   1.575   1.599   1.661   1.749
  1.771   1.785   1.838   1.925   1.948   1.953   2.028   2.032
  2.060   2.122   2.175   2.202   2.253   2.301   2.323   2.349
  2.419   2.462   2.496   2.524   2.559   2.581   2.646   2.650
  2.684   2.799   2.838   2.897   2.954   3.942   4.185   4.248
  4.296   4.399   4.543   4.640
 
 Beta MOs
 -- Occupied --
-14.319 -10.235 -10.223 -10.218 -10.210 -10.208 -10.193  -0.960
 -0.832  -0.739  -0.678  -0.589  -0.576  -0.523  -0.515  -0.456
 -0.424  -0.411  -0.402  -0.360  -0.335  -0.282  -0.265  -0.248
 -- Virtual --
 -0.056   0.007   0.020   0.109   0.139   0.146   0.153   0.159
  0.160   0.164   0.205   0.217   0.270   0.299   0.308   0.344
  0.376   0.501   0.522   0.526   0.571   0.575   0.585   0.597
  0.619   0.634   0.651   0.675   0.676   0.710   0.738   0.773
  0.785   0.804   0.818   0.843   0.848   0.854   0.873   0.904
  0.919   0.951   0.999   1.062   1.135   1.174   1.216   1.272
  1.331   1.402   1.450   1.499   1.514   1.580   1.609   1.666
  1.755   1.773   1.792   1.844   1.932   1.954   1.967   2.032
  2.049   2.069   2.130   2.181   2.217   2.262   2.308   2.330
  2.358   2.430   2.473   2.501   2.529   2.564   2.591   2.651
  2.654   2.688   2.805   2.843   2.899   2.955   3.942   4.194
  4.250   4.313   4.404   4.548   4.642
 --------------------------------------------------------------
 
          Ground-State Mulliken Net Atomic Charges

     Atom                 Charge (a.u.)    Spin (a.u.)
  --------------------------------------------------------
      1 C                     0.081931       0.047996
      2 C                    -0.255928      -0.061736
      3 C                    -0.124343       0.599446
      4 C                    -0.134946      -0.233541
      5 C                    -0.041731       0.023524
      6 N                    -0.327358       0.018013
      7 H                     0.144129       0.001775
      8 H                     0.141320       0.015685
      9 H                     0.173395      -0.024351
     10 H                     0.150997       0.020454
     11 H                     0.154826       0.006503
     12 C                    -0.099948       0.574888
     13 H                     0.137657       0.011344
  --------------------------------------------------------
  Sum of atomic charges =     0.000000
  Sum of spin   charges =     1.000000

 -----------------------------------------------------------------
                    Cartesian Multipole Moments
 -----------------------------------------------------------------
    Charge (ESU x 10^10)
                -0.0000
    Dipole Moment (Debye)
         X      -0.9378      Y      -1.4970      Z       0.5337
       Tot       1.8453
    Quadrupole Moments (Debye-Ang)
        XX     -36.8145     XY      -3.8043     YY     -43.5972
        XZ       2.6542     YZ       2.9213     ZZ     -42.6278
    Octopole Moments (Debye-Ang^2)
       XXX       3.7207    XXY       1.6576    XYY      -4.4284
       YYY      -3.0682    XXZ      46.1406    XYZ       5.3043
       YYZ      52.2730    XZZ      -6.1535    YZZ      -2.4278
       ZZZ     162.1170
    Hexadecapole Moments (Debye-Ang^3)
      XXXX    -238.6440   XXXY      -9.3760   XXYY     -79.6745
      XYYY     -17.1083   YYYY    -232.5294   XXXZ       7.3110
      XXYZ      10.5167   XYYZ      15.4722   YYYZ      36.7652
      XXZZ    -133.9832   XYZZ     -13.3935   YYZZ    -133.7622
      XZZZ      24.6509   YZZZ      20.3565   ZZZZ    -603.3833
 -----------------------------------------------------------------
 Calculating analytic gradient of the SCF energy
 Gradient of SCF Energy
            1           2           3           4           5           6
    1  -0.0026507  -0.0058616  -0.0176038   0.0129358  -0.0045194   0.0011339
    2  -0.0056986  -0.0045106   0.0252124  -0.0165394   0.0083896   0.0017005
    3  -0.0005663   0.0158767  -0.0067856   0.0088644  -0.0199967   0.0113653
            7           8           9          10          11          12
    1   0.0006906   0.0064948   0.0079973   0.0003563   0.0053111  -0.0071125
    2   0.0015162   0.0059192  -0.0090364   0.0069014  -0.0005382  -0.0255644
    3  -0.0019451  -0.0094366   0.0149293  -0.0075799  -0.0052089   0.0002925
           13
    1   0.0028282
    2   0.0122482
    3   0.0001909
 Max gradient component =       2.556E-02
 RMS gradient           =       1.019E-02
 Gradient time:  CPU 8.02 s  wall 2.58 s
 Geometry Optimization Parameters
   NAtoms,    NIC,     NZ,  NCons,   NDum,   NFix, NCnnct, MaxDiis
       13     128       0       0       0       0       0       0

 Cartesian Hessian Update
 Hessian Updated using BFGS Update


** GEOMETRY OPTIMIZATION IN DELOCALIZED INTERNAL COORDINATES **
   Searching for a Minimum

   Optimization Cycle:   6

                       Coordinates (Angstroms)
     ATOM                X               Y               Z
      1  C         1.4230084799    0.2149337379   -1.3836722613
      2  C         0.5790949632   -1.0340612634   -1.1978314744
      3  C        -0.6055232546   -0.6666790996   -2.1550512544
      4  C        -1.1392242688    0.1768927684   -0.5384352172
      5  C        -0.6322394452    0.7920205046   -1.8774613927
      6  N         0.7506502815    1.2542982694   -1.7107907208
      7  H         2.4893420991    0.2875902438   -1.1706279598
      8  H         1.1469984503   -1.9438674120   -1.4045301462
      9  H        -1.3489103684   -1.4537471681   -2.2100322132
     10  H        -2.0888233106    0.5908042604   -0.2014725747
     11  H        -1.2623557292    1.4628707502   -2.4518333000
     12  C        -0.3123207655   -0.8096203280    0.0239386990
     13  H        -0.0624780646   -0.8043880521    1.0880623733
   Point Group: c1    Number of degrees of freedom:    33


   Energy is   -286.807118206

 Hessian Updated using BFGS Update

 33 Hessian modes will be used to form the next step
  Hessian Eigenvalues:
     0.012691    0.013931    0.015403    0.016590    0.018042    0.024903
     0.026255    0.030252    0.040031    0.043122    0.049547    0.060264
     0.070296    0.086329    0.093015    0.109675    0.135461    0.154033
     0.160373    0.177154    0.209003    0.262381    0.291871    0.293739
     0.312663    0.325027    0.334856    0.337485    0.337718    0.345415
     0.374003    0.422801    0.579330

 Minimum Search - Taking Simple RFO Step
 Searching for Lamda that Minimizes Along All modes
 Value Taken    Lamda =  -0.02028463
 Calculated Step too Large.  Step scaled by  0.434809
 Step Taken.  Stepsize is  0.300000

                             Maximum     Tolerance    Cnvgd?
         Gradient           0.016545      0.000600      NO
         Displacement       0.157275      0.002400      NO
         Energy change     -0.010490      0.000002      NO


 New Cartesian Coordinates Obtained by Inverse Iteration

 Displacement from previous Coordinates is:  0.197244
 ----------------------------------------------------------------
             Standard Nuclear Orientation (Angstroms)
    I     Atom           X                Y                Z
 ----------------------------------------------------------------
    1      C       1.4350425488     0.2217711845    -1.3946204916
    2      C       0.5857199870    -1.0279458196    -1.1999591531
    3      C      -0.5803650270    -0.6800591188    -2.1674259189
    4      C      -1.1449727436     0.1961753852    -0.5366407516
    5      C      -0.6339179602     0.7779677949    -1.8590964195
    6      N       0.7488805549     1.2475714214    -1.7308309135
    7      H       2.4988255157     0.2931671045    -1.1747187297
    8      H       1.1287712132    -1.9607746560    -1.3642249554
    9      H      -1.3470967017    -1.4392470952    -2.2569497840
   10      H      -2.0940730621     0.5973919146    -0.1837139686
   11      H      -1.2820807730     1.4439358308    -2.4218676966
   12      C      -0.3132003853    -0.7798566627     0.0193085628
   13      H      -0.0643140997    -0.8230500721     1.0810027773
 ----------------------------------------------------------------
 Nuclear Repulsion Energy =   281.2590094800 hartrees
 There are       25 alpha and       24 beta electrons
 Applying Cartesian multipole field
    Component          Value
    ---------          -----
     (2,0,0)        1.00000E-11
     (0,2,0)        2.00000E-11
     (0,0,2)       -3.00000E-11
 Nucleus-field energy     =    -0.0000000072 hartrees
 Requested basis set is 6-31G(d)
 There are 40 shells and 117 basis functions
 A cutoff of  1.0D-14 yielded    813 shell pairs
 There are      7085 function pairs
 Smallest overlap matrix eigenvalue = 1.45E-03
 Guess MOs from SCF MO coefficient file
 Reading MOs from coefficient file
 Reading MOs from coefficient file
 An unrestricted hybrid HF-DFT SCF calculation will be
 performed using Pulay DIIS extrapolation
 Exchange:     0.2000 Hartree-Fock + 0.0800 Slater + 0.7200 B88
 Correlation:  0.1900 VWN1RPA + 0.8100 LYP
 Using SG-1 standard quadrature grid
 SCF converges when DIIS error is below 1.0E-08
 Geometry optimization detected.  Setting ReadMinima to 0
 Setting SaveMinima to 0
Using Q-Chem read-in guess as SCF_GUESS READ specified.

 using 4 threads for integral computing
 -------------------------------------------------------
 OpenMP Integral computing Module                
 Release: version 1.0, May 2013, Q-Chem Inc. Pittsburgh 
 -------------------------------------------------------
 -------------------------------------------------------
 OpenMP BLAS3 based DFT computing Module                
 Release: version 1.0, May 2013, Q-Chem Inc. Pittsburgh 
 -------------------------------------------------------
 ---------------------------------------
  Cycle       Energy         DIIS Error
 ---------------------------------------
    1    -286.8278192677      1.56E-03
    2    -286.8145791849      3.99E-04
    3    -286.8144976559      5.28E-04
    4    -286.8150095772      1.03E-04
    5    -286.8150398301      4.05E-05
    6    -286.8150505355      2.42E-05
    7    -286.8150574431      1.35E-05
    8    -286.8150601524      4.27E-06
    9    -286.8150604515      3.16E-06
   10    -286.8150605626      9.90E-07
   11    -286.8150605751      2.84E-07
   12    -286.8150605796      1.34E-07
   13    -286.8150605818      4.08E-08
   14    -286.8150605825      2.89E-08
   15    -286.8150605827      1.17E-08
   16    -286.8150605827      3.78E-09 Convergence criterion met
 ---------------------------------------
 <S^2> = 0.7948
 SCF time:  CPU 42.61 s  wall 46.02 s
 SCF   energy in the final basis set = -286.81506058
 Total energy in the final basis set = -286.81506058
 
 --------------------------------------------------------------
 
                    Orbital Energies (a.u.)
 --------------------------------------------------------------
 
 Alpha MOs
 -- Occupied --
[...]
     0.076225    0.081849    0.113027    0.128177    0.140996    0.160971
     0.165850    0.206642    0.246055    0.270111    0.280929    0.307790
     0.319951    0.324905    0.336259    0.338211    0.345821    0.347213
     0.379361    0.422476    0.596422

 Minimum Search - Taking Simple RFO Step
 Searching for Lamda that Minimizes Along All modes
 Value Taken    Lamda =  -0.00000146
 Step Taken.  Stepsize is  0.007685

                             Maximum     Tolerance    Cnvgd?
         Gradient           0.000252      0.000600     YES
         Displacement       0.003217      0.002400      NO
         Energy change     -0.000003      0.000002      NO


 New Cartesian Coordinates Obtained by Inverse Iteration

 Displacement from previous Coordinates is:  0.005973
 ----------------------------------------------------------------
             Standard Nuclear Orientation (Angstroms)
    I     Atom           X                Y                Z
 ----------------------------------------------------------------
    1      C       1.4202060578     0.2688674741    -1.4272908039
    2      C       0.5922446310    -1.0066640173    -1.1721133364
    3      C      -0.4233784507    -0.7554249078    -2.2912082502
    4      C      -1.1277325273     0.3447236783    -0.4069669251
    5      C      -0.7065014673     0.6744506366    -1.8483956753
    6      N       0.7007062741     1.2511758428    -1.8088312844
    7      H       2.4957033708     0.3534945097    -1.2806398145
    8      H       1.1280768358    -1.9545776546    -1.1205459261
    9      H      -1.2048909396    -1.4710184757    -2.5415182981
   10      H      -1.8928529658     0.8698096741     0.1542243872
   11      H      -1.3813173492     1.3022355192    -2.4283831472
   12      C      -0.3436417719    -0.6649460846     0.0048761638
   13      H      -0.3194026306    -1.1450789833     0.9770554680
 ----------------------------------------------------------------
 Nuclear Repulsion Energy =   279.1054217566 hartrees
 There are       25 alpha and       24 beta electrons
 Applying Cartesian multipole field
    Component          Value
    ---------          -----
     (2,0,0)        1.00000E-11
     (0,2,0)        2.00000E-11
     (0,0,2)       -3.00000E-11
 Nucleus-field energy     =    -0.0000000078 hartrees
 Requested basis set is 6-31G(d)
 There are 40 shells and 117 basis functions
 A cutoff of  1.0D-14 yielded    814 shell pairs
 There are      7086 function pairs
 Smallest overlap matrix eigenvalue = 1.11E-03
 Guess MOs from SCF MO coefficient file
 Reading MOs from coefficient file
 Reading MOs from coefficient file
 An unrestricted hybrid HF-DFT SCF calculation will be
 performed using Pulay DIIS extrapolation
 Exchange:     0.2000 Hartree-Fock + 0.0800 Slater + 0.7200 B88
 Correlation:  0.1900 VWN1RPA + 0.8100 LYP
 Using SG-1 standard quadrature grid
 SCF converges when DIIS error is below 1.0E-08
 Geometry optimization detected.  Setting ReadMinima to 0
 Setting SaveMinima to 0
Using Q-Chem read-in guess as SCF_GUESS READ specified.

 using 4 threads for integral computing
 -------------------------------------------------------
 OpenMP Integral computing Module                
 Release: version 1.0, May 2013, Q-Chem Inc. Pittsburgh 
 -------------------------------------------------------
 -------------------------------------------------------
 OpenMP BLAS3 based DFT computing Module                
 Release: version 1.0, May 2013, Q-Chem Inc. Pittsburgh 
 -------------------------------------------------------
 ---------------------------------------
  Cycle       Energy         DIIS Error
 ---------------------------------------
    1    -286.8511291629      2.61E-05
    2    -286.8516367155      7.90E-06
    3    -286.8516366493      1.11E-05
    4    -286.8516368672      2.33E-06
    5    -286.8516368763      8.24E-07
    6    -286.8516368780      3.87E-07
    7    -286.8516368784      1.64E-07
    8    -286.8516368785      4.26E-08
    9    -286.8516368785      1.29E-08
   10    -286.8516368785      2.72E-09 Convergence criterion met
 ---------------------------------------
 <S^2> = 0.7537
 SCF time:  CPU 26.50 s  wall 23.40 s
 SCF   energy in the final basis set = -286.85163688
 Total energy in the final basis set = -286.85163688
 
 --------------------------------------------------------------
 
                    Orbital Energies (a.u.)
 --------------------------------------------------------------
 
 Alpha MOs
 -- Occupied --
-14.322 -10.223 -10.220 -10.210 -10.204 -10.201 -10.197  -0.952
 -0.821  -0.726  -0.705  -0.579  -0.573  -0.531  -0.512  -0.472
 -0.418  -0.410  -0.381  -0.373  -0.348  -0.294  -0.271  -0.258
 -0.196
 -- Virtual --
 -0.022   0.029   0.103   0.140   0.150   0.154   0.159   0.163
  0.172   0.210   0.215   0.255   0.288   0.321   0.346   0.366
  0.495   0.510   0.532   0.540   0.570   0.599   0.606   0.622
  0.635   0.640   0.655   0.689   0.700   0.729   0.778   0.791
  0.799   0.817   0.825   0.846   0.858   0.876   0.891   0.940
  0.965   1.005   1.059   1.092   1.201   1.264   1.334   1.339
  1.396   1.407   1.487   1.510   1.563   1.610   1.659   1.725
  1.784   1.796   1.827   1.892   1.954   1.986   2.000   2.048
  2.097   2.138   2.172   2.208   2.234   2.276   2.314   2.335
  2.425   2.476   2.515   2.532   2.548   2.618   2.629   2.645
  2.722   2.835   2.856   2.904   2.939   3.922   4.187   4.267
  4.279   4.396   4.543   4.678
 
 Beta MOs
 -- Occupied --
-14.321 -10.224 -10.221 -10.210 -10.200 -10.196 -10.190  -0.949
 -0.815  -0.725  -0.690  -0.577  -0.561  -0.527  -0.509  -0.463
 -0.414  -0.406  -0.379  -0.369  -0.342  -0.287  -0.261  -0.255
 -- Virtual --
 -0.045  -0.016   0.031   0.105   0.143   0.153   0.158   0.160
  0.166   0.176   0.216   0.223   0.267   0.290   0.324   0.349
  0.369   0.497   0.529   0.540   0.544   0.577   0.604   0.611
  0.624   0.641   0.658   0.662   0.693   0.708   0.742   0.782
  0.793   0.810   0.819   0.827   0.848   0.860   0.879   0.894
  0.942   0.973   1.013   1.060   1.099   1.204   1.265   1.338
  1.345   1.400   1.411   1.489   1.513   1.577   1.619   1.665
  1.728   1.793   1.799   1.837   1.910   1.966   1.998   2.003
  2.054   2.119   2.144   2.179   2.224   2.249   2.281   2.317
  2.338   2.428   2.493   2.517   2.542   2.553   2.630   2.636
  2.648   2.729   2.837   2.859   2.906   2.942   3.923   4.190
  4.269   4.307   4.399   4.549   4.679
 --------------------------------------------------------------
 
          Ground-State Mulliken Net Atomic Charges

     Atom                 Charge (a.u.)    Spin (a.u.)
  --------------------------------------------------------
      1 C                     0.092106      -0.008858
      2 C                    -0.245908      -0.043910
      3 C                    -0.096286       0.975812
      4 C                    -0.088160       0.040336
      5 C                    -0.094740      -0.045125
      6 N                    -0.324991       0.022009
      7 H                     0.149681      -0.000174
      8 H                     0.133844       0.002865
      9 H                     0.138863      -0.026540
     10 H                     0.146046       0.000897
     11 H                     0.139848       0.003024
     12 C                    -0.095942       0.079338
     13 H                     0.145640       0.000326
  --------------------------------------------------------
  Sum of atomic charges =    -0.000000
  Sum of spin   charges =     1.000000

 -----------------------------------------------------------------
                    Cartesian Multipole Moments
 -----------------------------------------------------------------
    Charge (ESU x 10^10)
                -0.0000
    Dipole Moment (Debye)
         X      -0.6095      Y      -1.9109      Z       1.2692
       Tot       2.3735
    Quadrupole Moments (Debye-Ang)
        XX     -37.0438     XY      -3.3239     YY     -42.8211
        XZ       1.9211     YZ       2.7975     ZZ     -43.9127
    Octopole Moments (Debye-Ang^2)
       XXX       5.6110    XXY       1.9135    XYY      -4.5472
       YYY      -7.7709    XXZ      47.2928    XYZ       4.1870
       YYZ      56.8054    XZZ      -7.7004    YZZ      -5.3516
       ZZZ     166.7643
    Hexadecapole Moments (Debye-Ang^3)
      XXXX    -232.4934   XXXY      -4.2504   XXYY     -77.2209
      XYYY     -11.8342   YYYY    -227.7988   XXXZ      10.7083
      XXYZ       7.9899   XYYZ      16.3942   YYYZ      31.9939
      XXZZ    -135.5113   XYZZ      -8.1114   YYZZ    -145.3462
      XZZZ      38.0116   YZZZ      21.9511   ZZZZ    -640.5911
 -----------------------------------------------------------------
 Calculating analytic gradient of the SCF energy
 Gradient of SCF Energy
            1           2           3           4           5           6
    1  -0.0000427   0.0000094   0.0000349  -0.0000335  -0.0001071   0.0000853
    2  -0.0000021  -0.0000188  -0.0000056   0.0000830  -0.0000266   0.0000414
    3  -0.0000173  -0.0000122  -0.0000133   0.0000540  -0.0001136   0.0000552
            7           8           9          10          11          12
    1   0.0000096  -0.0000204  -0.0000112   0.0000260   0.0000167   0.0000495
    2  -0.0000113  -0.0000122   0.0000011   0.0000195   0.0000269  -0.0001557
    3  -0.0000143   0.0000336  -0.0000547   0.0000256   0.0000157   0.0000043
           13
    1  -0.0000166
    2   0.0000604
    3   0.0000371
 Max gradient component =       1.557E-04
 RMS gradient           =       4.867E-05
 Gradient time:  CPU 8.09 s  wall 2.49 s
 Geometry Optimization Parameters
   NAtoms,    NIC,     NZ,  NCons,   NDum,   NFix, NCnnct, MaxDiis
       13     128       0       0       0       0       0       0

 Cartesian Hessian Update
 Hessian Updated using BFGS Update


** GEOMETRY OPTIMIZATION IN DELOCALIZED INTERNAL COORDINATES **
   Searching for a Minimum

   Optimization Cycle:  23

                       Coordinates (Angstroms)
     ATOM                X               Y               Z
      1  C         1.4202060578    0.2688674741   -1.4272908039
      2  C         0.5922446310   -1.0066640173   -1.1721133364
      3  C        -0.4233784507   -0.7554249078   -2.2912082502
      4  C        -1.1277325273    0.3447236783   -0.4069669251
      5  C        -0.7065014673    0.6744506366   -1.8483956753
      6  N         0.7007062741    1.2511758428   -1.8088312844
      7  H         2.4957033708    0.3534945097   -1.2806398145
      8  H         1.1280768358   -1.9545776546   -1.1205459261
      9  H        -1.2048909396   -1.4710184757   -2.5415182981
     10  H        -1.8928529658    0.8698096741    0.1542243872
     11  H        -1.3813173492    1.3022355192   -2.4283831472
     12  C        -0.3436417719   -0.6649460846    0.0048761638
     13  H        -0.3194026306   -1.1450789833    0.9770554680
   Point Group: c1    Number of degrees of freedom:    33


   Energy is   -286.851636879

 Hessian Updated using BFGS Update

 33 Hessian modes will be used to form the next step
  Hessian Eigenvalues:
     0.006890    0.008521    0.011511    0.015614    0.020390    0.026141
     0.032094    0.035188    0.043877    0.049151    0.053307    0.054148
     0.072824    0.085843    0.113140    0.135383    0.150754    0.162635
     0.165965    0.206572    0.244141    0.269188    0.279066    0.308736
     0.320336    0.324778    0.336330    0.338381    0.346013    0.351809
     0.380785    0.451617    0.603399

 Minimum Search - Taking Simple RFO Step
 Searching for Lamda that Minimizes Along All modes
 Value Taken    Lamda =   0.00000000
 Step Taken.  Stepsize is  0.006477

                             Maximum     Tolerance    Cnvgd?
         Gradient           0.000077      0.000600     YES
         Displacement       0.002881      0.002400      NO
         Energy change     -0.000001      0.000002     YES


                       Distance Matrix (Angstroms)
             C (  1)   C (  2)   C (  3)   C (  4)   C (  5)   N (  6)
   C (  2)  1.541952
   C (  3)  2.279108  1.531987
   C (  4)  2.745689  2.317330  2.292773
   C (  5)  2.205609  2.229405  1.523413  1.537489
   N (  6)  1.276003  2.348407  2.350043  2.475897  1.521319
   H (  7)  1.088744  2.342000  3.282071  3.727287  3.267947  2.075291
   H (  8)  2.263435  1.090099  2.283732  3.299190  3.287436  3.306545
   H (  9)  3.340635  2.306641  1.088803  2.803423  2.309080  3.402716
   H ( 10)  3.720038  3.384677  3.283426  1.084463  2.335826  3.274993
   H ( 11)  3.149376  3.286971  2.273858  2.251057  1.088979  2.172849
   C ( 12)  2.456475  1.542063  2.299249  1.343073  2.315225  2.837555
   H ( 13)  3.287303  2.338629  3.293052  2.188248  3.382855  3.813637
             H (  7)   H (  8)   H (  9)   H ( 10)   H ( 11)   C ( 12)
   H (  8)  2.687607
   H (  9)  4.314286  2.774118
   H ( 10)  4.645949  4.327611  3.635904
   H ( 11)  4.153157  4.314433  2.781162  2.668056
   C ( 12)  3.278971  2.257361  2.806355  2.185826  3.296563
   H ( 13)  3.907395  2.674026  3.642895  2.685623  4.325971  1.084550

 
 Final energy is   -286.851636878514     


 ******************************
 **  OPTIMIZATION CONVERGED  **
 ******************************

                       Coordinates (Angstroms)
     ATOM                X               Y               Z
      1  C         1.4202060578    0.2688674741   -1.4272908039
      2  C         0.5922446310   -1.0066640173   -1.1721133364
      3  C        -0.4233784507   -0.7554249078   -2.2912082502
      4  C        -1.1277325273    0.3447236783   -0.4069669251
      5  C        -0.7065014673    0.6744506366   -1.8483956753
      6  N         0.7007062741    1.2511758428   -1.8088312844
      7  H         2.4957033708    0.3534945097   -1.2806398145
      8  H         1.1280768358   -1.9545776546   -1.1205459261
      9  H        -1.2048909396   -1.4710184757   -2.5415182981
     10  H        -1.8928529658    0.8698096741    0.1542243872
     11  H        -1.3813173492    1.3022355192   -2.4283831472
     12  C        -0.3436417719   -0.6649460846    0.0048761638
     13  H        -0.3194026306   -1.1450789833    0.9770554680

Z-matrix Print:
$molecule
0 2
N 
C  1 1.276003
H  2 1.088744 1 122.510051
C  1 1.521319 2 103.739717 3 -179.068578 0
H  4 1.088979 1 111.623337 2 -163.302119 0
C  4 1.523413 1 101.038631 2 -34.479922 0
H  6 1.088803 4 123.387840 1 -173.168717 0
C  6 1.531987 4 93.715474 1 53.509940 0
H  8 1.090099 6 120.200525 4 -176.886645 0
C  4 1.537489 1 108.079814 2 66.740810 0
H  10 1.084463 4 125.072272 1 110.878163 0
C  10 1.343073 4 106.783630 1 -67.205258 0
H  12 1.084550 10 128.369110 4 177.584345 0
$end

 
 --------------------------------------------------------------
 
                    Orbital Energies (a.u.)
 --------------------------------------------------------------
 
 Alpha MOs
 -- Occupied --
-14.322 -10.223 -10.220 -10.210 -10.204 -10.201 -10.197  -0.952
 -0.821  -0.726  -0.705  -0.579  -0.573  -0.531  -0.512  -0.472
 -0.418  -0.410  -0.381  -0.373  -0.348  -0.294  -0.271  -0.258
 -0.196
 -- Virtual --
 -0.022   0.029   0.103   0.140   0.150   0.154   0.159   0.163
  0.172   0.210   0.215   0.255   0.288   0.321   0.346   0.366
  0.495   0.510   0.532   0.540   0.570   0.599   0.606   0.622
  0.635   0.640   0.655   0.689   0.700   0.729   0.778   0.791
  0.799   0.817   0.825   0.846   0.858   0.876   0.891   0.940
  0.965   1.005   1.059   1.092   1.201   1.264   1.334   1.339
  1.396   1.407   1.487   1.510   1.563   1.610   1.659   1.725
  1.784   1.796   1.827   1.892   1.954   1.986   2.000   2.048
  2.097   2.138   2.172   2.208   2.234   2.276   2.314   2.335
  2.425   2.476   2.515   2.532   2.548   2.618   2.629   2.645
  2.722   2.835   2.856   2.904   2.939   3.922   4.187   4.267
  4.279   4.396   4.543   4.678
 
 Beta MOs
 -- Occupied --
-14.321 -10.224 -10.221 -10.210 -10.200 -10.196 -10.190  -0.949
 -0.815  -0.725  -0.690  -0.577  -0.561  -0.527  -0.509  -0.463
 -0.414  -0.406  -0.379  -0.369  -0.342  -0.287  -0.261  -0.255
 -- Virtual --
 -0.045  -0.016   0.031   0.105   0.143   0.153   0.158   0.160
  0.166   0.176   0.216   0.223   0.267   0.290   0.324   0.349
  0.369   0.497   0.529   0.540   0.544   0.577   0.604   0.611
  0.624   0.641   0.658   0.662   0.693   0.708   0.742   0.782
  0.793   0.810   0.819   0.827   0.848   0.860   0.879   0.894
  0.942   0.973   1.013   1.060   1.099   1.204   1.265   1.338
  1.345   1.400   1.411   1.489   1.513   1.577   1.619   1.665
  1.728   1.793   1.799   1.837   1.910   1.966   1.998   2.003
  2.054   2.119   2.144   2.179   2.224   2.249   2.281   2.317
  2.338   2.428   2.493   2.517   2.542   2.553   2.630   2.636
  2.648   2.729   2.837   2.859   2.906   2.942   3.923   4.190
  4.269   4.307   4.399   4.549   4.679
 --------------------------------------------------------------
 
          Ground-State Mulliken Net Atomic Charges

     Atom                 Charge (a.u.)    Spin (a.u.)
  --------------------------------------------------------
      1 C                     0.092106      -0.008858
      2 C                    -0.245908      -0.043910
      3 C                    -0.096286       0.975812
      4 C                    -0.088160       0.040336
      5 C                    -0.094740      -0.045125
      6 N                    -0.324991       0.022009
      7 H                     0.149681      -0.000174
      8 H                     0.133844       0.002865
      9 H                     0.138863      -0.026540
     10 H                     0.146046       0.000897
     11 H                     0.139848       0.003024
     12 C                    -0.095942       0.079338
     13 H                     0.145640       0.000326
  --------------------------------------------------------
  Sum of atomic charges =    -0.000000
  Sum of spin   charges =     1.000000

 -----------------------------------------------------------------
                    Cartesian Multipole Moments
 -----------------------------------------------------------------
    Charge (ESU x 10^10)
                -0.0000
    Dipole Moment (Debye)
         X      -0.6095      Y      -1.9109      Z       1.2692
       Tot       2.3735
    Quadrupole Moments (Debye-Ang)
        XX     -37.0438     XY      -3.3239     YY     -42.8211
        XZ       1.9211     YZ       2.7975     ZZ     -43.9127
    Octopole Moments (Debye-Ang^2)
       XXX       5.6110    XXY       1.9135    XYY      -4.5472
       YYY      -7.7709    XXZ      47.2928    XYZ       4.1870
       YYZ      56.8054    XZZ      -7.7004    YZZ      -5.3516
       ZZZ     166.7643
    Hexadecapole Moments (Debye-Ang^3)
      XXXX    -232.4934   XXXY      -4.2504   XXYY     -77.2209
      XYYY     -11.8342   YYYY    -227.7988   XXXZ      10.7083
      XXYZ       7.9899   XYYZ      16.3942   YYYZ      31.9939
      XXZZ    -135.5113   XYZZ      -8.1114   YYZZ    -145.3462
      XZZZ      38.0116   YZZZ      21.9511   ZZZZ    -640.5911
 -----------------------------------------------------------------
Archival summary:
1\1\c8-66\OPT\ProcedureUnspecified\6-31G*\166(2)\hpark21\TueMar113:30:172022TueMar113:30:172022\0\\#,OPT,ProcedureUnspecified,6-31G*,\\0,2\N\C,1,1.276\H,2,1.08874,1,122.51\C,1,1.52132,2,103.74,3,-179.069,0\H,4,1.08898,1,111.623,2,-163.302,0\C,4,1.52341,1,101.039,2,-34.4799,0\H,6,1.0888,4,123.388,1,-173.169,0\C,6,1.53199,4,93.7155,1,53.5099,0\H,8,1.0901,6,120.201,4,-176.887,0\C,4,1.53749,1,108.08,2,66.7408,0\H,10,1.08446,4,125.072,1,110.878,0\C,10,1.34307,4,106.784,1,-67.2053,0\H,12,1.08455,10,128.369,4,177.584,0\\\@

 Total job time:  865.56s(wall), 1051.69s(cpu) 
 Tue Mar  1 13:30:17 2022

        *************************************************************
        *                                                           *
        *  Thank you very much for using Q-Chem.  Have a nice day.  *
        *                                                           *
        *************************************************************


