13   
From optimize.out: Frame 1 / 23, Energy=    -286.7003303042
C        0.0726780000    0.1967850000   -0.0000000000
C       -0.2299000000   -0.0583230000   -0.0000000000
C       -0.1414600000    0.4020120000   -0.0000000000
C       -0.1653240000   -0.1940840000   -0.0000000000
C       -0.0783590000    0.1823570000   -0.0000000000
N       -0.3200490000   -0.0690570000   -0.0000000000
H        0.1289060000   -0.0038800000   -0.0000000000
H        0.1508320000    0.0132090000   -0.0000000000
H        0.1948260000   -0.0202940000   -0.0000000000
H        0.1535300000    0.0179830000   -0.0000000000
H        0.1731130000   -0.0049560000   -0.0000000000
C       -0.0906790000    0.5150300000    0.0000000000
H        0.1518870000    0.0232180000    0.0000000000
13   
From optimize.out: Frame 2 / 23, Energy=    -286.7356665601
C        0.0712040000    0.1587030000   -0.0000000000
C       -0.2379320000   -0.0602260000   -0.0000000000
C       -0.1360870000    0.4256700000   -0.0000000000
C       -0.1604920000   -0.1914070000   -0.0000000000
C       -0.0709040000    0.1397180000   -0.0000000000
N       -0.3210500000   -0.0414090000   -0.0000000000
H        0.1350540000   -0.0024250000   -0.0000000000
H        0.1477990000    0.0154000000   -0.0000000000
H        0.1929190000   -0.0210540000   -0.0000000000
H        0.1544080000    0.0175390000   -0.0000000000
H        0.1712080000   -0.0012230000   -0.0000000000
C       -0.0921880000    0.5384280000    0.0000000000
H        0.1460600000    0.0222860000    0.0000000000
13   
From optimize.out: Frame 3 / 23, Energy=    -286.7625024514
C        0.0723140000    0.1288070000   -0.0000000000
C       -0.2449360000   -0.0610540000   -0.0000000000
C       -0.1298190000    0.4557730000   -0.0000000000
C       -0.1552140000   -0.1939450000   -0.0000000000
C       -0.0614100000    0.0987880000   -0.0000000000
N       -0.3217640000   -0.0209930000   -0.0000000000
H        0.1378460000   -0.0010840000   -0.0000000000
H        0.1455140000    0.0166720000   -0.0000000000
H        0.1895560000   -0.0216200000   -0.0000000000
H        0.1541140000    0.0183760000   -0.0000000000
H        0.1668850000    0.0016110000   -0.0000000000
C       -0.0943350000    0.5574680000    0.0000000000
H        0.1412500000    0.0212020000    0.0000000000
13   
From optimize.out: Frame 4 / 23, Energy=    -286.7821772868
C        0.0743630000    0.0996230000   -0.0000000000
C       -0.2503150000   -0.0617740000   -0.0000000000
C       -0.1264970000    0.4925710000   -0.0000000000
C       -0.1499910000   -0.2049290000   -0.0000000000
C       -0.0519210000    0.0660550000   -0.0000000000
N       -0.3234600000   -0.0045090000   -0.0000000000
H        0.1404190000    0.0001590000   -0.0000000000
H        0.1438380000    0.0171420000   -0.0000000000
H        0.1849520000   -0.0223100000   -0.0000000000
H        0.1533560000    0.0192710000   -0.0000000000
H        0.1627650000    0.0038350000   -0.0000000000
C       -0.0959140000    0.5760410000    0.0000000000
H        0.1384050000    0.0188260000    0.0000000000
13   
From optimize.out: Frame 5 / 23, Energy=    -286.7966285723
C        0.0778070000    0.0720010000   -0.0000000000
C       -0.2538760000   -0.0620190000   -0.0000000000
C       -0.1250550000    0.5388180000   -0.0000000000
C       -0.1431840000   -0.2193050000   -0.0000000000
C       -0.0451490000    0.0414450000   -0.0000000000
N       -0.3253720000    0.0085350000   -0.0000000000
H        0.1424610000    0.0011610000   -0.0000000000
H        0.1424430000    0.0167870000   -0.0000000000
H        0.1796350000   -0.0231610000   -0.0000000000
H        0.1522290000    0.0200170000   -0.0000000000
H        0.1586740000    0.0054440000   -0.0000000000
C       -0.0977850000    0.5847940000    0.0000000000
H        0.1371740000    0.0154850000    0.0000000000
13   
From optimize.out: Frame 6 / 23, Energy=    -286.8071182060
C        0.0819310000    0.0479960000   -0.0000000000
C       -0.2559280000   -0.0617360000   -0.0000000000
C       -0.1243430000    0.5994460000   -0.0000000000
C       -0.1349460000   -0.2335410000   -0.0000000000
C       -0.0417310000    0.0235240000   -0.0000000000
N       -0.3273580000    0.0180130000   -0.0000000000
H        0.1441290000    0.0017750000   -0.0000000000
H        0.1413200000    0.0156850000   -0.0000000000
H        0.1733950000   -0.0243510000   -0.0000000000
H        0.1509970000    0.0204540000   -0.0000000000
H        0.1548260000    0.0065030000   -0.0000000000
C       -0.0999480000    0.5748880000    0.0000000000
H        0.1376570000    0.0113440000    0.0000000000
13   
From optimize.out: Frame 7 / 23, Energy=    -286.8150605827
C        0.0860910000    0.0277000000   -0.0000000000
C       -0.2568050000   -0.0605470000   -0.0000000000
C       -0.1231300000    0.6803300000   -0.0000000000
C       -0.1254010000   -0.2391400000   -0.0000000000
C       -0.0422060000    0.0090890000   -0.0000000000
N       -0.3286680000    0.0238110000   -0.0000000000
H        0.1456550000    0.0019370000   -0.0000000000
H        0.1403330000    0.0138330000   -0.0000000000
H        0.1660560000   -0.0259670000   -0.0000000000
H        0.1498290000    0.0202310000   -0.0000000000
H        0.1510220000    0.0069960000   -0.0000000000
C       -0.1026540000    0.5347480000    0.0000000000
H        0.1398770000    0.0069790000    0.0000000000
13   
From optimize.out: Frame 8 / 23, Energy=    -286.8219741254
C        0.0899650000    0.0098000000   -0.0000000000
C       -0.2565360000   -0.0577530000   -0.0000000000
C       -0.1206710000    0.7743190000   -0.0000000000
C       -0.1148590000   -0.2187260000   -0.0000000000
C       -0.0468120000   -0.0045390000   -0.0000000000
N       -0.3289250000    0.0261770000   -0.0000000000
H        0.1474030000    0.0017060000   -0.0000000000
H        0.1392700000    0.0113120000   -0.0000000000
H        0.1578870000   -0.0274870000   -0.0000000000
H        0.1488000000    0.0184240000   -0.0000000000
H        0.1471030000    0.0069430000   -0.0000000000
C       -0.1059800000    0.4565250000    0.0000000000
H        0.1433550000    0.0032990000    0.0000000000
13   
From optimize.out: Frame 9 / 23, Energy=    -286.8286043874
C        0.0932700000   -0.0037520000   -0.0000000000
C       -0.2548960000   -0.0536520000   -0.0000000000
C       -0.1168600000    0.8563710000   -0.0000000000
C       -0.1050920000   -0.1641830000   -0.0000000000
C       -0.0545850000   -0.0172690000   -0.0000000000
N       -0.3285040000    0.0256820000   -0.0000000000
H        0.1491750000    0.0012200000   -0.0000000000
H        0.1380730000    0.0086290000   -0.0000000000
H        0.1504020000   -0.0282620000   -0.0000000000
H        0.1480880000    0.0144330000   -0.0000000000
H        0.1432360000    0.0064690000   -0.0000000000
C       -0.1089170000    0.3532100000    0.0000000000
H        0.1466100000    0.0011030000    0.0000000000
13   
From optimize.out: Frame 10 / 23, Energy=    -286.8346633548
C        0.0955440000   -0.0104150000   -0.0000000000
C       -0.2522620000   -0.0498570000   -0.0000000000
C       -0.1122030000    0.9119380000   -0.0000000000
C       -0.0977140000   -0.0964620000   -0.0000000000
C       -0.0637580000   -0.0279510000   -0.0000000000
N       -0.3280100000    0.0235910000   -0.0000000000
H        0.1505050000    0.0007040000   -0.0000000000
H        0.1368670000    0.0063680000   -0.0000000000
H        0.1450680000   -0.0284280000   -0.0000000000
H        0.1478270000    0.0095730000   -0.0000000000
H        0.1400410000    0.0057740000   -0.0000000000
C       -0.1101550000    0.2548730000    0.0000000000
H        0.1482490000    0.0002910000    0.0000000000
13   
From optimize.out: Frame 11 / 23, Energy=    -286.8396830088
C        0.0967000000   -0.0116830000   -0.0000000000
C       -0.2495980000   -0.0476250000   -0.0000000000
C       -0.1076340000    0.9431010000   -0.0000000000
C       -0.0927860000   -0.0428430000   -0.0000000000
C       -0.0726640000   -0.0356080000   -0.0000000000
N       -0.3276080000    0.0217050000   -0.0000000000
H        0.1512370000    0.0003300000   -0.0000000000
H        0.1358700000    0.0048040000   -0.0000000000
H        0.1420980000   -0.0285400000   -0.0000000000
H        0.1478090000    0.0057130000   -0.0000000000
H        0.1380380000    0.0050780000   -0.0000000000
C       -0.1096180000    0.1854960000    0.0000000000
H        0.1481550000    0.0000720000    0.0000000000
13   
From optimize.out: Frame 12 / 23, Energy=    -286.8436649570
C        0.0970810000   -0.0107610000   -0.0000000000
C       -0.2475220000   -0.0467450000   -0.0000000000
C       -0.1037940000    0.9599520000   -0.0000000000
C       -0.0889560000   -0.0079780000   -0.0000000000
C       -0.0805850000   -0.0406040000   -0.0000000000
N       -0.3271000000    0.0209950000   -0.0000000000
H        0.1514690000    0.0000910000   -0.0000000000
H        0.1351430000    0.0038010000   -0.0000000000
H        0.1408110000   -0.0288890000   -0.0000000000
H        0.1475510000    0.0032160000    0.0000000000
H        0.1370870000    0.0044640000   -0.0000000000
C       -0.1082500000    0.1424610000    0.0000000000
H        0.1470650000   -0.0000020000    0.0000000000
13   
From optimize.out: Frame 13 / 23, Energy=    -286.8467809406
C        0.0968560000   -0.0094500000   -0.0000000000
C       -0.2460970000   -0.0465690000   -0.0000000000
C       -0.1007850000    0.9698920000   -0.0000000000
C       -0.0857230000    0.0136930000   -0.0000000000
C       -0.0875180000   -0.0437350000   -0.0000000000
N       -0.3263520000    0.0213010000   -0.0000000000
H        0.1512860000   -0.0000600000   -0.0000000000
H        0.1346660000    0.0031690000   -0.0000000000
H        0.1403750000   -0.0294480000   -0.0000000000
H        0.1469700000    0.0016920000    0.0000000000
H        0.1369910000    0.0039160000   -0.0000000000
C       -0.1064970000    0.1156910000    0.0000000000
H        0.1458290000   -0.0000920000    0.0000000000
13   
From optimize.out: Frame 14 / 23, Energy=    -286.8490835424
C        0.0960520000   -0.0084420000   -0.0000000000
C       -0.2452810000   -0.0466100000   -0.0000000000
C       -0.0987170000    0.9763830000   -0.0000000000
C       -0.0835050000    0.0272250000   -0.0000000000
C       -0.0931250000   -0.0456010000   -0.0000000000
N       -0.3254560000    0.0222570000   -0.0000000000
H        0.1508470000   -0.0001480000   -0.0000000000
H        0.1342870000    0.0027750000   -0.0000000000
H        0.1402060000   -0.0300240000   -0.0000000000
H        0.1462430000    0.0007810000    0.0000000000
H        0.1375420000    0.0034210000   -0.0000000000
C       -0.1040790000    0.0982110000    0.0000000000
H        0.1449860000   -0.0002260000    0.0000000000
13   
From optimize.out: Frame 15 / 23, Energy=    -286.8505286547
C        0.0948210000   -0.0079550000   -0.0000000000
C       -0.2453520000   -0.0466090000   -0.0000000000
C       -0.0974780000    0.9807180000   -0.0000000000
C       -0.0831350000    0.0357310000   -0.0000000000
C       -0.0967330000   -0.0466730000   -0.0000000000
N       -0.3245940000    0.0235510000   -0.0000000000
H        0.1503600000   -0.0001890000   -0.0000000000
H        0.1339400000    0.0025640000   -0.0000000000
H        0.1401070000   -0.0304440000   -0.0000000000
H        0.1455480000    0.0003200000    0.0000000000
H        0.1385200000    0.0030070000   -0.0000000000
C       -0.1007860000    0.0863490000    0.0000000000
H        0.1447830000   -0.0003710000    0.0000000000
13   
From optimize.out: Frame 16 / 23, Energy=    -286.8510376140
C        0.0933970000   -0.0082280000   -0.0000000000
C       -0.2452690000   -0.0463310000   -0.0000000000
C       -0.0972160000    0.9821700000   -0.0000000000
C       -0.0847410000    0.0381350000   -0.0000000000
C       -0.0979330000   -0.0467460000   -0.0000000000
N       -0.3241060000    0.0243480000   -0.0000000000
H        0.1498060000   -0.0001770000   -0.0000000000
H        0.1336050000    0.0025300000   -0.0000000000
H        0.1398640000   -0.0303040000   -0.0000000000
H        0.1454070000    0.0002970000    0.0000000000
H        0.1393780000    0.0027900000   -0.0000000000
C       -0.0973790000    0.0820070000    0.0000000000
H        0.1451870000   -0.0004900000    0.0000000000
13   
From optimize.out: Frame 18 / 23, Energy=    -286.8514524929
C        0.0922880000   -0.0087850000   -0.0000000000
C       -0.2465870000   -0.0454810000   -0.0000000000
C       -0.0970250000    0.9806420000   -0.0000000000
C       -0.0877900000    0.0395500000   -0.0000000000
C       -0.0958250000   -0.0464260000   -0.0000000000
N       -0.3243000000    0.0240260000   -0.0000000000
H        0.1497630000   -0.0001630000   -0.0000000000
H        0.1336370000    0.0027360000   -0.0000000000
H        0.1396330000   -0.0290690000   -0.0000000000
H        0.1454200000    0.0007350000    0.0000000000
H        0.1399380000    0.0028400000   -0.0000000000
C       -0.0947340000    0.0794980000    0.0000000000
H        0.1455800000   -0.0001040000    0.0000000000
13   
From optimize.out: Frame 19 / 23, Energy=    -286.8515559341
C        0.0920770000   -0.0092930000   -0.0000000000
C       -0.2460570000   -0.0449500000   -0.0000000000
C       -0.0969840000    0.9788890000   -0.0000000000
C       -0.0872410000    0.0380450000   -0.0000000000
C       -0.0957030000   -0.0457790000   -0.0000000000
N       -0.3245590000    0.0238700000   -0.0000000000
H        0.1496190000   -0.0001430000   -0.0000000000
H        0.1335230000    0.0027500000   -0.0000000000
H        0.1394510000   -0.0279960000   -0.0000000000
H        0.1457170000    0.0008310000    0.0000000000
H        0.1397020000    0.0028970000   -0.0000000000
C       -0.0948760000    0.0808570000    0.0000000000
H        0.1453310000    0.0000220000    0.0000000000
13   
From optimize.out: Frame 20 / 23, Energy=    -286.8516200562
C        0.0920110000   -0.0087520000   -0.0000000000
C       -0.2456860000   -0.0442050000   -0.0000000000
C       -0.0964170000    0.9765590000   -0.0000000000
C       -0.0882910000    0.0394870000   -0.0000000000
C       -0.0946810000   -0.0453020000   -0.0000000000
N       -0.3249060000    0.0221640000   -0.0000000000
H        0.1497100000   -0.0001740000   -0.0000000000
H        0.1338590000    0.0028730000   -0.0000000000
H        0.1389480000   -0.0268890000   -0.0000000000
H        0.1461240000    0.0009510000    0.0000000000
H        0.1397350000    0.0030450000   -0.0000000000
C       -0.0960420000    0.0799230000    0.0000000000
H        0.1456340000    0.0003200000    0.0000000000
13   
From optimize.out: Frame 21 / 23, Energy=    -286.8516328976
C        0.0920230000   -0.0089280000   -0.0000000000
C       -0.2459240000   -0.0441180000   -0.0000000000
C       -0.0964380000    0.9763640000   -0.0000000000
C       -0.0883790000    0.0398160000   -0.0000000000
C       -0.0946170000   -0.0452980000   -0.0000000000
N       -0.3249490000    0.0223040000   -0.0000000000
H        0.1497080000   -0.0001680000   -0.0000000000
H        0.1338290000    0.0028700000   -0.0000000000
H        0.1389800000   -0.0268170000   -0.0000000000
H        0.1460420000    0.0009410000    0.0000000000
H        0.1398070000    0.0030290000   -0.0000000000
C       -0.0956830000    0.0796730000    0.0000000000
H        0.1456000000    0.0003320000    0.0000000000
13   
From optimize.out: Frame 22 / 23, Energy=    -286.8516360554
C        0.0920540000   -0.0088480000   -0.0000000000
C       -0.2458890000   -0.0439870000   -0.0000000000
C       -0.0963410000    0.9760830000   -0.0000000000
C       -0.0880000000    0.0401850000   -0.0000000000
C       -0.0947790000   -0.0451730000   -0.0000000000
N       -0.3249740000    0.0221380000   -0.0000000000
H        0.1497020000   -0.0001740000   -0.0000000000
H        0.1337900000    0.0028600000   -0.0000000000
H        0.1389000000   -0.0266040000   -0.0000000000
H        0.1460290000    0.0008990000    0.0000000000
H        0.1398130000    0.0030220000   -0.0000000000
C       -0.0958870000    0.0792580000    0.0000000000
H        0.1455820000    0.0003420000    0.0000000000
