13   
From optimize.out: Frame 1 / 2, Energy=    -286.8549117567
C       -0.0091120000   -0.0150160000   -0.0000000000
C       -0.0841080000    0.0418330000   -0.0000000000
C       -0.1758340000   -0.0163550000   -0.0000000000
C       -0.1944840000   -0.0165710000    0.0000000000
C        0.0883470000    0.0188010000   -0.0000000000
N       -0.3914290000    0.0030190000   -0.0000000000
H        0.1366860000    0.0007800000   -0.0000000000
H        0.1396700000    0.0035990000   -0.0000000000
H        0.1552530000    0.0168790000   -0.0000000000
H        0.1554780000    0.0227000000   -0.0000000000
H        0.1427740000    0.0058340000   -0.0000000000
C       -0.1209450000    0.9576100000    0.0000000000
H        0.1577030000   -0.0231150000    0.0000000000
