13   
From optimize.out: Frame 1 / 2, Energy=    -286.8505634645
C       -0.0688610000    0.0429040000    0.0000000000
C       -0.1032690000   -0.1674490000   -0.0000000000
C       -0.1986690000    1.0402840000   -0.0000000000
C       -0.1428140000    0.0001770000    0.0000000000
C        0.0557330000    0.0048710000   -0.0000000000
N       -0.3778570000   -0.0035980000   -0.0000000000
H        0.1811920000   -0.0043760000    0.0000000000
H        0.1640100000    0.0787460000   -0.0000000000
H        0.1639640000    0.0049380000   -0.0000000000
H        0.1401490000    0.0001420000    0.0000000000
H        0.1436190000   -0.0001390000   -0.0000000000
C       -0.1104460000    0.0030330000    0.0000000000
H        0.1532490000    0.0004670000    0.0000000000
