13   
Frame   0 IRC: Energy =  -286.8750665627 ; +0.0000 kcal/mol
C       -0.1736460000    0.0763190000    0.0000000000
C        0.0843960000   -0.2840920000   -0.0000000000
C       -0.3219200000    1.1546200000   -0.0000000000
C       -0.0127280000   -0.0005850000    0.0000000000
C       -0.0625130000   -0.0069850000   -0.0000000000
N       -0.1854470000   -0.0035910000   -0.0000000000
H        0.1746180000   -0.0009230000    0.0000000000
H        0.1491000000    0.0760720000   -0.0000000000
H        0.1541160000    0.0075070000   -0.0000000000
H        0.1359640000    0.0001430000    0.0000000000
H        0.1317130000    0.0002700000   -0.0000000000
C       -0.2185250000   -0.0187880000    0.0000000000
H        0.1448710000    0.0000330000    0.0000000000
13   
Frame   1 IRC: Energy =  -286.8750662348 ; +0.0002 kcal/mol
C       -0.1739010000    0.0764500000    0.0000000000
C        0.0851120000   -0.2841500000   -0.0000000000
C       -0.3223830000    1.1545820000   -0.0000000000
C       -0.0124890000   -0.0005370000    0.0000000000
C       -0.0625110000   -0.0070370000   -0.0000000000
N       -0.1854870000   -0.0035830000   -0.0000000000
H        0.1746810000   -0.0009300000    0.0000000000
H        0.1491600000    0.0761060000   -0.0000000000
H        0.1540940000    0.0075100000   -0.0000000000
H        0.1359770000    0.0001410000    0.0000000000
H        0.1317240000    0.0002710000   -0.0000000000
C       -0.2188690000   -0.0188560000    0.0000000000
H        0.1448920000    0.0000340000    0.0000000000
13   
Frame   2 IRC: Energy =  -286.8750617857 ; +0.0030 kcal/mol
C       -0.1730920000    0.0761550000    0.0000000000
C        0.0841860000   -0.2841540000   -0.0000000000
C       -0.3219140000    1.1547920000   -0.0000000000
C       -0.0127280000   -0.0007630000    0.0000000000
C       -0.0627720000   -0.0068770000   -0.0000000000
N       -0.1853170000   -0.0035730000   -0.0000000000
H        0.1743370000   -0.0009450000    0.0000000000
H        0.1491190000    0.0759670000   -0.0000000000
H        0.1541560000    0.0075000000   -0.0000000000
H        0.1359340000    0.0001460000    0.0000000000
H        0.1316050000    0.0002710000   -0.0000000000
C       -0.2183880000   -0.0185500000    0.0000000000
H        0.1448740000    0.0000300000    0.0000000000
13   
Frame   3 IRC: Energy =  -286.8750515927 ; +0.0094 kcal/mol
C       -0.1692520000    0.0763600000    0.0000000000
C        0.0814370000   -0.2850250000   -0.0000000000
C       -0.3206310000    1.1554960000   -0.0000000000
C       -0.0122850000   -0.0008500000    0.0000000000
C       -0.0625640000   -0.0068570000   -0.0000000000
N       -0.1851730000   -0.0038880000   -0.0000000000
H        0.1742780000   -0.0008380000    0.0000000000
H        0.1486150000    0.0760540000   -0.0000000000
H        0.1540850000    0.0075930000   -0.0000000000
H        0.1359660000    0.0001540000    0.0000000000
H        0.1318340000    0.0002550000   -0.0000000000
C       -0.2211310000   -0.0184790000    0.0000000000
H        0.1448220000    0.0000240000    0.0000000000
13   
Frame   4 IRC: Energy =  -286.8749927666 ; +0.0463 kcal/mol
C       -0.1801840000    0.0765250000    0.0000000000
C        0.0948170000   -0.2837230000   -0.0000000000
C       -0.3293190000    1.1533840000   -0.0000000000
C       -0.0124620000   -0.0006110000    0.0000000000
C       -0.0626200000   -0.0072250000   -0.0000000000
N       -0.1867730000   -0.0029840000   -0.0000000000
H        0.1762980000   -0.0011730000    0.0000000000
H        0.1507750000    0.0766880000   -0.0000000000
H        0.1539540000    0.0073890000   -0.0000000000
H        0.1360070000    0.0000880000    0.0000000000
H        0.1319690000    0.0003080000   -0.0000000000
C       -0.2176200000   -0.0187230000    0.0000000000
H        0.1451580000    0.0000580000    0.0000000000
13   
Frame   5 IRC: Energy =  -286.8747136026 ; +0.2215 kcal/mol
C       -0.1859770000    0.0759040000    0.0000000000
C        0.0982350000   -0.2836280000   -0.0000000000
C       -0.3369760000    1.1527210000   -0.0000000000
C       -0.0188340000    0.0001060000    0.0000000000
C       -0.0626130000   -0.0073060000   -0.0000000000
N       -0.1901420000   -0.0021220000   -0.0000000000
H        0.1794210000   -0.0015890000    0.0000000000
H        0.1536780000    0.0777410000   -0.0000000000
H        0.1538510000    0.0071130000   -0.0000000000
H        0.1360480000    0.0000110000    0.0000000000
H        0.1324320000    0.0003520000   -0.0000000000
C       -0.2044090000   -0.0193910000    0.0000000000
H        0.1452850000    0.0000870000    0.0000000000
13   
Frame   6 IRC: Energy =  -286.8743012298 ; +0.4803 kcal/mol
C       -0.1861120000    0.0751480000    0.0000000000
C        0.0951470000   -0.2849840000   -0.0000000000
C       -0.3445880000    1.1537830000   -0.0000000000
C       -0.0273550000    0.0014900000    0.0000000000
C       -0.0634010000   -0.0074070000   -0.0000000000
N       -0.1942280000   -0.0013880000   -0.0000000000
H        0.1826670000   -0.0020930000    0.0000000000
H        0.1570120000    0.0786570000   -0.0000000000
H        0.1538040000    0.0068900000   -0.0000000000
H        0.1360030000   -0.0000560000    0.0000000000
H        0.1325070000    0.0003960000   -0.0000000000
C       -0.1870670000   -0.0205380000    0.0000000000
H        0.1456120000    0.0001010000    0.0000000000
13   
Frame   7 IRC: Energy =  -286.8740235684 ; +0.6545 kcal/mol
C       -0.1809860000    0.0740240000    0.0000000000
C        0.0890570000   -0.2892070000   -0.0000000000
C       -0.3505750000    1.1571280000   -0.0000000000
C       -0.0410480000    0.0005120000    0.0000000000
C       -0.0650950000   -0.0062460000   -0.0000000000
N       -0.1964210000   -0.0010260000   -0.0000000000
H        0.1847420000   -0.0026690000    0.0000000000
H        0.1592810000    0.0792950000   -0.0000000000
H        0.1540450000    0.0064590000   -0.0000000000
H        0.1359310000   -0.0001090000    0.0000000000
H        0.1321060000    0.0004520000   -0.0000000000
C       -0.1669890000   -0.0186930000    0.0000000000
H        0.1459510000    0.0000790000    0.0000000000
13   
Frame   8 IRC: Energy =  -286.8735949197 ; +0.9235 kcal/mol
C       -0.1669970000    0.0755220000    0.0000000000
C        0.0767010000   -0.2954450000   -0.0000000000
C       -0.3558120000    1.1613470000   -0.0000000000
C       -0.0493750000    0.0015910000    0.0000000000
C       -0.0682870000   -0.0059820000   -0.0000000000
N       -0.2006530000   -0.0011630000   -0.0000000000
H        0.1875920000   -0.0032350000    0.0000000000
H        0.1626060000    0.0802530000   -0.0000000000
H        0.1541720000    0.0062110000   -0.0000000000
H        0.1358030000   -0.0001570000    0.0000000000
H        0.1323110000    0.0004770000   -0.0000000000
C       -0.1542090000   -0.0194620000    0.0000000000
H        0.1461490000    0.0000420000    0.0000000000
13   
Frame   9 IRC: Energy =  -286.8732715477 ; +1.1264 kcal/mol
C       -0.1444960000    0.0795040000    0.0000000000
C        0.0535540000   -0.3048450000   -0.0000000000
C       -0.3531380000    1.1674300000   -0.0000000000
C       -0.0554150000    0.0015480000    0.0000000000
C       -0.0741900000   -0.0052600000   -0.0000000000
N       -0.2032050000   -0.0019020000   -0.0000000000
H        0.1892120000   -0.0037820000    0.0000000000
H        0.1653630000    0.0807300000   -0.0000000000
H        0.1543710000    0.0059760000   -0.0000000000
H        0.1356280000   -0.0001850000    0.0000000000
H        0.1322910000    0.0004890000   -0.0000000000
C       -0.1463410000   -0.0196730000    0.0000000000
H        0.1463670000   -0.0000300000    0.0000000000
13   
Frame  10 IRC: Energy =  -286.8731101519 ; +1.2277 kcal/mol
C       -0.1262650000    0.0806720000    0.0000000000
C        0.0304790000   -0.3078380000   -0.0000000000
C       -0.3467240000    1.1693480000   -0.0000000000
C       -0.0567620000    0.0011670000    0.0000000000
C       -0.0798930000   -0.0043850000   -0.0000000000
N       -0.2036770000   -0.0024810000   -0.0000000000
H        0.1904890000   -0.0041930000    0.0000000000
H        0.1674380000    0.0806460000   -0.0000000000
H        0.1545610000    0.0059280000   -0.0000000000
H        0.1354070000   -0.0001840000    0.0000000000
H        0.1321210000    0.0004900000   -0.0000000000
C       -0.1437670000   -0.0190830000    0.0000000000
H        0.1465930000   -0.0000870000    0.0000000000
13   
Frame  11 IRC: Energy =  -286.8730720000 ; +1.2516 kcal/mol
C       -0.1179350000    0.0820600000    0.0000000000
C        0.0207880000   -0.3100010000   -0.0000000000
C       -0.3422400000    1.1703290000   -0.0000000000
C       -0.0553830000    0.0008660000    0.0000000000
C       -0.0830340000   -0.0040520000   -0.0000000000
N       -0.2042110000   -0.0026970000   -0.0000000000
H        0.1906860000   -0.0043080000    0.0000000000
H        0.1679220000    0.0807990000   -0.0000000000
H        0.1545910000    0.0058820000   -0.0000000000
H        0.1353600000   -0.0001870000    0.0000000000
H        0.1321660000    0.0004920000   -0.0000000000
C       -0.1453560000   -0.0190750000    0.0000000000
H        0.1466470000   -0.0001080000    0.0000000000
13   
Frame  12 IRC: Energy =  -286.8730670000 ; +1.2547 kcal/mol
C       -0.1171250000    0.0821210000    0.0000000000
C        0.0192390000   -0.3098970000   -0.0000000000
C       -0.3413410000    1.1702060000   -0.0000000000
C       -0.0553320000    0.0008130000    0.0000000000
C       -0.0833980000   -0.0039660000   -0.0000000000
N       -0.2041860000   -0.0027230000   -0.0000000000
H        0.1907400000   -0.0043350000    0.0000000000
H        0.1680060000    0.0806690000   -0.0000000000
H        0.1546030000    0.0059360000   -0.0000000000
H        0.1353410000   -0.0001860000    0.0000000000
H        0.1321520000    0.0004920000   -0.0000000000
C       -0.1453590000   -0.0190180000    0.0000000000
H        0.1466590000   -0.0001120000    0.0000000000
13   
Frame  13 IRC: Energy =  -286.8730630000 ; +1.2573 kcal/mol
C       -0.1163350000    0.0821840000    0.0000000000
C        0.0182240000   -0.3100460000   -0.0000000000
C       -0.3409320000    1.1702800000   -0.0000000000
C       -0.0551370000    0.0007610000    0.0000000000
C       -0.0837490000   -0.0039120000   -0.0000000000
N       -0.2041950000   -0.0027550000   -0.0000000000
H        0.1907960000   -0.0043510000    0.0000000000
H        0.1680750000    0.0807060000   -0.0000000000
H        0.1546090000    0.0059220000   -0.0000000000
H        0.1353340000   -0.0001850000    0.0000000000
H        0.1321480000    0.0004910000   -0.0000000000
C       -0.1455100000   -0.0189810000    0.0000000000
H        0.1466710000   -0.0001150000    0.0000000000
13   
Frame  14 IRC: Energy =  -286.8730620000 ; +1.2579 kcal/mol
C       -0.1160650000    0.0822060000    0.0000000000
C        0.0179860000   -0.3101600000   -0.0000000000
C       -0.3409020000    1.1703560000   -0.0000000000
C       -0.0550310000    0.0007410000    0.0000000000
C       -0.0838600000   -0.0038990000   -0.0000000000
N       -0.2042040000   -0.0027680000   -0.0000000000
H        0.1908150000   -0.0043530000    0.0000000000
H        0.1680960000    0.0807570000   -0.0000000000
H        0.1546100000    0.0059010000   -0.0000000000
H        0.1353350000   -0.0001850000    0.0000000000
H        0.1321480000    0.0004910000   -0.0000000000
C       -0.1456010000   -0.0189710000    0.0000000000
H        0.1466730000   -0.0001160000    0.0000000000
13   
Frame  15 IRC: Energy =  -286.8730610000 ; +1.2585 kcal/mol
C       -0.1160010000    0.0822050000    0.0000000000
C        0.0178350000   -0.3101140000   -0.0000000000
C       -0.3407860000    1.1703150000   -0.0000000000
C       -0.0550510000    0.0007400000    0.0000000000
C       -0.0839060000   -0.0038900000   -0.0000000000
N       -0.2042030000   -0.0027670000   -0.0000000000
H        0.1908200000   -0.0043560000    0.0000000000
H        0.1681020000    0.0807280000   -0.0000000000
H        0.1546110000    0.0059140000   -0.0000000000
H        0.1353310000   -0.0001850000    0.0000000000
H        0.1321520000    0.0004910000   -0.0000000000
C       -0.1455800000   -0.0189650000    0.0000000000
H        0.1466740000   -0.0001160000    0.0000000000
13   
Frame  16 IRC: Energy =  -286.8730600000 ; +1.2591 kcal/mol
C       -0.1156600000    0.0822370000    0.0000000000
C        0.0174060000   -0.3102050000   -0.0000000000
C       -0.3406310000    1.1703670000   -0.0000000000
C       -0.0549440000    0.0007140000    0.0000000000
C       -0.0840460000   -0.0038670000   -0.0000000000
N       -0.2042050000   -0.0027840000   -0.0000000000
H        0.1908440000   -0.0043620000    0.0000000000
H        0.1681320000    0.0807570000   -0.0000000000
H        0.1546140000    0.0059020000   -0.0000000000
H        0.1353310000   -0.0001840000    0.0000000000
H        0.1321460000    0.0004910000   -0.0000000000
C       -0.1456660000   -0.0189490000    0.0000000000
H        0.1466790000   -0.0001180000    0.0000000000
13   
Frame  17 IRC: Energy =  -286.8730590000 ; +1.2598 kcal/mol
C       -0.1154840000    0.0822500000    0.0000000000
C        0.0171570000   -0.3102230000   -0.0000000000
C       -0.3405150000    1.1703730000   -0.0000000000
C       -0.0549050000    0.0007020000    0.0000000000
C       -0.0841270000   -0.0038540000   -0.0000000000
N       -0.2042060000   -0.0027900000   -0.0000000000
H        0.1908560000   -0.0043660000    0.0000000000
H        0.1681470000    0.0807570000   -0.0000000000
H        0.1546150000    0.0059020000   -0.0000000000
H        0.1353290000   -0.0001840000    0.0000000000
H        0.1321450000    0.0004910000   -0.0000000000
C       -0.1456960000   -0.0189400000    0.0000000000
H        0.1466820000   -0.0001180000    0.0000000000
13   
Frame  18 IRC: Energy =  -286.8730580000 ; +1.2604 kcal/mol
C       -0.1153130000    0.0822610000    0.0000000000
C        0.0169160000   -0.3102400000   -0.0000000000
C       -0.3404020000    1.1703820000   -0.0000000000
C       -0.0548680000    0.0006910000    0.0000000000
C       -0.0842040000   -0.0038410000   -0.0000000000
N       -0.2042070000   -0.0027960000   -0.0000000000
H        0.1908680000   -0.0043700000    0.0000000000
H        0.1681620000    0.0807550000   -0.0000000000
H        0.1546160000    0.0059020000   -0.0000000000
H        0.1353270000   -0.0001840000    0.0000000000
H        0.1321450000    0.0004910000   -0.0000000000
C       -0.1457250000   -0.0189310000    0.0000000000
H        0.1466850000   -0.0001190000    0.0000000000
13   
Frame  19 IRC: Energy =  -286.8730570000 ; +1.2610 kcal/mol
C       -0.1150610000    0.0822830000    0.0000000000
C        0.0165810000   -0.3102670000   -0.0000000000
C       -0.3402410000    1.1703610000   -0.0000000000
C       -0.0548190000    0.0006750000    0.0000000000
C       -0.0843450000   -0.0038190000   -0.0000000000
N       -0.2042080000   -0.0028040000   -0.0000000000
H        0.1908860000   -0.0043750000    0.0000000000
H        0.1681840000    0.0807660000   -0.0000000000
H        0.1546210000    0.0059090000   -0.0000000000
H        0.1353210000   -0.0001840000    0.0000000000
H        0.1321510000    0.0004900000   -0.0000000000
C       -0.1457560000   -0.0189150000    0.0000000000
H        0.1466860000   -0.0001200000    0.0000000000
13   
Frame  20 IRC: Energy =  -286.8730560000 ; +1.2616 kcal/mol
C       -0.1148200000    0.0822890000    0.0000000000
C        0.0162340000   -0.3102850000   -0.0000000000
C       -0.3400820000    1.1704040000   -0.0000000000
C       -0.0547610000    0.0006580000    0.0000000000
C       -0.0844350000   -0.0038040000   -0.0000000000
N       -0.2042130000   -0.0028130000   -0.0000000000
H        0.1909030000   -0.0043800000    0.0000000000
H        0.1682050000    0.0807510000   -0.0000000000
H        0.1546200000    0.0059000000   -0.0000000000
H        0.1353220000   -0.0001830000    0.0000000000
H        0.1321470000    0.0004900000   -0.0000000000
C       -0.1458110000   -0.0189060000    0.0000000000
H        0.1466910000   -0.0001210000    0.0000000000
13   
Frame  21 IRC: Energy =  -286.8730550000 ; +1.2623 kcal/mol
C       -0.1147350000    0.0823400000    0.0000000000
C        0.0160060000   -0.3103410000   -0.0000000000
C       -0.3399940000    1.1704060000   -0.0000000000
C       -0.0547750000    0.0006410000    0.0000000000
C       -0.0845040000   -0.0037850000   -0.0000000000
N       -0.2042030000   -0.0028200000   -0.0000000000
H        0.1909210000   -0.0043840000    0.0000000000
H        0.1682130000    0.0807730000   -0.0000000000
H        0.1546310000    0.0058880000   -0.0000000000
H        0.1353120000   -0.0001830000    0.0000000000
H        0.1321480000    0.0004900000   -0.0000000000
C       -0.1457090000   -0.0189030000    0.0000000000
H        0.1466900000   -0.0001220000    0.0000000000
13   
Frame  22 IRC: Energy =  -286.8730540000 ; +1.2629 kcal/mol
C       -0.1139400000    0.0822420000    0.0000000000
C        0.0156200000   -0.3102890000   -0.0000000000
C       -0.3398270000    1.1703310000   -0.0000000000
C       -0.0545600000    0.0006520000    0.0000000000
C       -0.0846840000   -0.0037910000   -0.0000000000
N       -0.2042950000   -0.0028320000   -0.0000000000
H        0.1909220000   -0.0043890000    0.0000000000
H        0.1682650000    0.0807810000   -0.0000000000
H        0.1546090000    0.0059430000   -0.0000000000
H        0.1353180000   -0.0001830000    0.0000000000
H        0.1321510000    0.0004900000   -0.0000000000
C       -0.1462770000   -0.0188330000    0.0000000000
H        0.1466980000   -0.0001230000    0.0000000000
13   
Frame  23 IRC: Energy =  -286.8730530000 ; +1.2635 kcal/mol
C       -0.1135280000    0.0821570000    0.0000000000
C        0.0152980000   -0.3101610000   -0.0000000000
C       -0.3396020000    1.1701430000   -0.0000000000
C       -0.0544750000    0.0006610000    0.0000000000
C       -0.0847540000   -0.0037870000   -0.0000000000
N       -0.2042740000   -0.0028380000   -0.0000000000
H        0.1908980000   -0.0043930000    0.0000000000
H        0.1682950000    0.0807540000   -0.0000000000
H        0.1546010000    0.0060420000   -0.0000000000
H        0.1353090000   -0.0001820000    0.0000000000
H        0.1321450000    0.0004910000   -0.0000000000
C       -0.1466100000   -0.0187620000    0.0000000000
H        0.1466960000   -0.0001250000    0.0000000000
13   
Frame  24 IRC: Energy =  -286.8730470000 ; +1.2673 kcal/mol
C       -0.1127850000    0.0824590000    0.0000000000
C        0.0134220000   -0.3106060000   -0.0000000000
C       -0.3388080000    1.1705460000   -0.0000000000
C       -0.0542330000    0.0004990000    0.0000000000
C       -0.0854430000   -0.0036400000   -0.0000000000
N       -0.2042130000   -0.0028920000   -0.0000000000
H        0.1910510000   -0.0044240000    0.0000000000
H        0.1683770000    0.0808130000   -0.0000000000
H        0.1546420000    0.0058670000   -0.0000000000
H        0.1353020000   -0.0001810000    0.0000000000
H        0.1321510000    0.0004880000   -0.0000000000
C       -0.1461830000   -0.0188000000    0.0000000000
H        0.1467210000   -0.0001290000    0.0000000000
13   
Frame  25 IRC: Energy =  -286.8730400000 ; +1.2717 kcal/mol
C       -0.1108800000    0.0825800000    0.0000000000
C        0.0108110000   -0.3107790000   -0.0000000000
C       -0.3375260000    1.1705450000   -0.0000000000
C       -0.0537430000    0.0003630000    0.0000000000
C       -0.0863280000   -0.0034950000   -0.0000000000
N       -0.2042210000   -0.0029610000   -0.0000000000
H        0.1911700000   -0.0044620000    0.0000000000
H        0.1685320000    0.0808320000   -0.0000000000
H        0.1546580000    0.0058860000   -0.0000000000
H        0.1352810000   -0.0001780000    0.0000000000
H        0.1321480000    0.0004870000   -0.0000000000
C       -0.1466510000   -0.0186800000    0.0000000000
H        0.1467480000   -0.0001370000    0.0000000000
13   
Frame  26 IRC: Energy =  -286.8730360000 ; +1.2742 kcal/mol
C       -0.1097420000    0.0826920000    0.0000000000
C        0.0089360000   -0.3107400000   -0.0000000000
C       -0.3364640000    1.1704000000   -0.0000000000
C       -0.0534700000    0.0002760000    0.0000000000
C       -0.0868900000   -0.0033870000   -0.0000000000
N       -0.2042060000   -0.0030000000   -0.0000000000
H        0.1912320000   -0.0044870000    0.0000000000
H        0.1686210000    0.0807480000   -0.0000000000
H        0.1546680000    0.0059270000   -0.0000000000
H        0.1352590000   -0.0001760000    0.0000000000
H        0.1321400000    0.0004860000   -0.0000000000
C       -0.1468420000   -0.0185980000    0.0000000000
H        0.1467580000   -0.0001420000    0.0000000000
13   
Frame  27 IRC: Energy =  -286.8730340000 ; +1.2755 kcal/mol
C       -0.1090090000    0.0827600000    0.0000000000
C        0.0080540000   -0.3109790000   -0.0000000000
C       -0.3361060000    1.1705320000   -0.0000000000
C       -0.0532110000    0.0002000000    0.0000000000
C       -0.0872710000   -0.0033280000   -0.0000000000
N       -0.2041940000   -0.0030330000   -0.0000000000
H        0.1912870000   -0.0045030000    0.0000000000
H        0.1686810000    0.0808550000   -0.0000000000
H        0.1546800000    0.0058830000   -0.0000000000
H        0.1352560000   -0.0001750000    0.0000000000
H        0.1321440000    0.0004850000   -0.0000000000
C       -0.1470840000   -0.0185530000    0.0000000000
H        0.1467730000   -0.0001450000    0.0000000000
13   
Frame  28 IRC: Energy =  -286.8730330000 ; +1.2761 kcal/mol
C       -0.1086710000    0.0827970000    0.0000000000
C        0.0074410000   -0.3109310000   -0.0000000000
C       -0.3357260000    1.1704760000   -0.0000000000
C       -0.0531310000    0.0001740000    0.0000000000
C       -0.0874380000   -0.0032950000   -0.0000000000
N       -0.2041960000   -0.0030420000   -0.0000000000
H        0.1913040000   -0.0045110000    0.0000000000
H        0.1687070000    0.0808010000   -0.0000000000
H        0.1546840000    0.0058950000   -0.0000000000
H        0.1352490000   -0.0001740000    0.0000000000
H        0.1321410000    0.0004850000   -0.0000000000
C       -0.1471400000   -0.0185290000    0.0000000000
H        0.1467750000   -0.0001460000    0.0000000000
13   
Frame  29 IRC: Energy =  -286.8730320000 ; +1.2767 kcal/mol
C       -0.1083500000    0.0828590000    0.0000000000
C        0.0069710000   -0.3110270000   -0.0000000000
C       -0.3354820000    1.1704860000   -0.0000000000
C       -0.0530100000    0.0001370000    0.0000000000
C       -0.0876240000   -0.0032630000   -0.0000000000
N       -0.2041850000   -0.0030550000   -0.0000000000
H        0.1913250000   -0.0045180000    0.0000000000
H        0.1687340000    0.0808420000   -0.0000000000
H        0.1546980000    0.0058790000   -0.0000000000
H        0.1352460000   -0.0001740000    0.0000000000
H        0.1321400000    0.0004850000   -0.0000000000
C       -0.1472410000   -0.0185040000    0.0000000000
H        0.1467790000   -0.0001470000    0.0000000000
13   
Frame  30 IRC: Energy =  -286.8730310000 ; +1.2773 kcal/mol
C       -0.1081940000    0.0828670000    0.0000000000
C        0.0068240000   -0.3111150000   -0.0000000000
C       -0.3353160000    1.1703380000   -0.0000000000
C       -0.0529100000    0.0001250000    0.0000000000
C       -0.0877610000   -0.0032470000   -0.0000000000
N       -0.2041780000   -0.0030660000   -0.0000000000
H        0.1913200000   -0.0045200000    0.0000000000
H        0.1687930000    0.0809380000   -0.0000000000
H        0.1546920000    0.0059870000   -0.0000000000
H        0.1352470000   -0.0001730000    0.0000000000
H        0.1321440000    0.0004860000   -0.0000000000
C       -0.1474430000   -0.0184720000    0.0000000000
H        0.1467820000   -0.0001480000    0.0000000000
13   
Frame  31 IRC: Energy =  -286.8730190000 ; +1.2849 kcal/mol (Transition State)
C       -0.0984400000    0.0835780000    0.0000000000
C       -0.0072020000   -0.3117900000   -0.0000000000
C       -0.3278540000    1.1704400000   -0.0000000000
C       -0.0497460000   -0.0008260000    0.0000000000
C       -0.0926230000   -0.0024080000   -0.0000000000
N       -0.2040570000   -0.0034290000   -0.0000000000
H        0.1918120000   -0.0047060000    0.0000000000
H        0.1694060000    0.0809120000   -0.0000000000
H        0.1547540000    0.0059240000   -0.0000000000
H        0.1351440000   -0.0001550000    0.0000000000
H        0.1321330000    0.0004730000   -0.0000000000
C       -0.1502390000   -0.0178270000    0.0000000000
H        0.1469140000   -0.0001860000    0.0000000000
13   
Frame  32 IRC: Energy =  -286.8730310000 ; +1.2773 kcal/mol
C       -0.0887390000    0.0845420000    0.0000000000
C       -0.0219350000   -0.3124620000   -0.0000000000
C       -0.3187570000    1.1698790000   -0.0000000000
C       -0.0457050000   -0.0020530000    0.0000000000
C       -0.0980150000   -0.0014400000   -0.0000000000
N       -0.2037870000   -0.0037980000   -0.0000000000
H        0.1921540000   -0.0048820000    0.0000000000
H        0.1699760000    0.0810750000   -0.0000000000
H        0.1548320000    0.0060410000   -0.0000000000
H        0.1350460000   -0.0001310000    0.0000000000
H        0.1321230000    0.0004610000   -0.0000000000
C       -0.1542450000   -0.0170080000    0.0000000000
H        0.1470530000   -0.0002250000    0.0000000000
13   
Frame  33 IRC: Energy =  -286.8730320000 ; +1.2767 kcal/mol
C       -0.0886780000    0.0845340000    0.0000000000
C       -0.0220760000   -0.3123660000   -0.0000000000
C       -0.3186650000    1.1699250000   -0.0000000000
C       -0.0457180000   -0.0020530000    0.0000000000
C       -0.0980130000   -0.0014380000   -0.0000000000
N       -0.2038020000   -0.0037930000   -0.0000000000
H        0.1921560000   -0.0048840000    0.0000000000
H        0.1699620000    0.0809830000   -0.0000000000
H        0.1548260000    0.0060010000   -0.0000000000
H        0.1350470000   -0.0001320000    0.0000000000
H        0.1321220000    0.0004600000   -0.0000000000
C       -0.1542110000   -0.0170150000    0.0000000000
H        0.1470500000   -0.0002250000    0.0000000000
13   
Frame  34 IRC: Energy =  -286.8730330000 ; +1.2761 kcal/mol
C       -0.0884230000    0.0845470000    0.0000000000
C       -0.0224670000   -0.3123560000   -0.0000000000
C       -0.3185200000    1.1700160000   -0.0000000000
C       -0.0456500000   -0.0020910000    0.0000000000
C       -0.0981020000   -0.0014130000   -0.0000000000
N       -0.2037960000   -0.0038010000   -0.0000000000
H        0.1921730000   -0.0048880000    0.0000000000
H        0.1699400000    0.0809480000   -0.0000000000
H        0.1548310000    0.0059400000   -0.0000000000
H        0.1350410000   -0.0001310000    0.0000000000
H        0.1321190000    0.0004590000   -0.0000000000
C       -0.1542030000   -0.0170040000    0.0000000000
H        0.1470570000   -0.0002250000    0.0000000000
13   
Frame  35 IRC: Energy =  -286.8730340000 ; +1.2755 kcal/mol
C       -0.0880980000    0.0845580000    0.0000000000
C       -0.0228600000   -0.3124180000   -0.0000000000
C       -0.3183150000    1.1700450000   -0.0000000000
C       -0.0455060000   -0.0021340000    0.0000000000
C       -0.0982700000   -0.0013850000   -0.0000000000
N       -0.2037860000   -0.0038160000   -0.0000000000
H        0.1921850000   -0.0048930000    0.0000000000
H        0.1699540000    0.0809840000   -0.0000000000
H        0.1548310000    0.0059380000   -0.0000000000
H        0.1350400000   -0.0001300000    0.0000000000
H        0.1321210000    0.0004580000   -0.0000000000
C       -0.1543600000   -0.0169810000    0.0000000000
H        0.1470640000   -0.0002260000    0.0000000000
13   
Frame  36 IRC: Energy =  -286.8730350000 ; +1.2748 kcal/mol
C       -0.0876730000    0.0845850000    0.0000000000
C       -0.0235640000   -0.3123440000   -0.0000000000
C       -0.3178440000    1.1699580000   -0.0000000000
C       -0.0453530000   -0.0021820000    0.0000000000
C       -0.0984880000   -0.0013430000   -0.0000000000
N       -0.2037790000   -0.0038280000   -0.0000000000
H        0.1921910000   -0.0049000000    0.0000000000
H        0.1699710000    0.0809320000   -0.0000000000
H        0.1548290000    0.0059660000   -0.0000000000
H        0.1350340000   -0.0001290000    0.0000000000
H        0.1321180000    0.0004580000   -0.0000000000
C       -0.1545090000   -0.0169440000    0.0000000000
H        0.1470670000   -0.0002280000    0.0000000000
13   
Frame  37 IRC: Energy =  -286.8730360000 ; +1.2742 kcal/mol
C       -0.0872150000    0.0846360000    0.0000000000
C       -0.0242370000   -0.3123790000   -0.0000000000
C       -0.3174230000    1.1699170000   -0.0000000000
C       -0.0451500000   -0.0022470000    0.0000000000
C       -0.0987460000   -0.0012950000   -0.0000000000
N       -0.2037630000   -0.0038470000   -0.0000000000
H        0.1922010000   -0.0049070000    0.0000000000
H        0.1699910000    0.0809510000   -0.0000000000
H        0.1548320000    0.0059760000   -0.0000000000
H        0.1350290000   -0.0001270000    0.0000000000
H        0.1321170000    0.0004570000   -0.0000000000
C       -0.1547100000   -0.0169040000    0.0000000000
H        0.1470730000   -0.0002300000    0.0000000000
13   
Frame  38 IRC: Energy =  -286.8730380000 ; +1.2729 kcal/mol
C       -0.0864460000    0.0846670000    0.0000000000
C       -0.0254750000   -0.3122830000   -0.0000000000
C       -0.3166070000    1.1698590000   -0.0000000000
C       -0.0448680000   -0.0023380000    0.0000000000
C       -0.0991280000   -0.0012230000   -0.0000000000
N       -0.2037570000   -0.0038690000   -0.0000000000
H        0.1922160000   -0.0049190000    0.0000000000
H        0.1700240000    0.0808600000   -0.0000000000
H        0.1548290000    0.0059920000   -0.0000000000
H        0.1350220000   -0.0001260000    0.0000000000
H        0.1321150000    0.0004550000   -0.0000000000
C       -0.1550070000   -0.0168440000    0.0000000000
H        0.1470820000   -0.0002320000    0.0000000000
13   