13   
Frame   0 IRC: Energy =  -286.8750665627 ; +0.0000 kcal/mol
C        0.5011281854   -0.1105052994    0.3053428782
C        0.6357935931   -1.3132604470   -0.6125259769
C        1.3181439088   -2.4009546905   -0.3373579249
C       -1.2843917211    1.3457335805    0.4468306444
C       -0.1460561540    1.9225961501   -0.2865181105
N        0.8708261247    1.1330843501   -0.3928803647
H        1.1943414283   -0.2366556792    1.1486905241
H        0.0987777551   -1.2266609897   -1.5645736578
H        1.5463995269   -3.3472253420   -0.8089590218
H       -2.2277706653    1.8411909320    0.6445620454
H       -0.1245653893    2.9228426215   -0.7149326223
C       -0.9071142878    0.1041759415    0.8099795185
H       -1.4755123051   -0.6343611284    1.3623420679
13   
Frame   1 IRC: Energy =  -286.8750662348 ; +0.0002 kcal/mol
C        0.5019509072   -0.1099177441    0.3049870260
C        0.6368413824   -1.3126840392   -0.6128529634
C        1.3160526206   -2.4018852995   -0.3360562790
C       -1.2845098312    1.3453098111    0.4471464503
C       -0.1469390538    1.9226611333   -0.2870396858
N        0.8705792199    1.1338589961   -0.3932977641
H        1.1953754579   -0.2357438987    1.1481504295
H        0.1021479347   -1.2250241415   -1.5661882613
H        1.5431834702   -3.3486412418   -0.8071698505
H       -2.2279206282    1.8404109543    0.6455966801
H       -0.1257608077    2.9233942700   -0.7143347699
C       -0.9065778445    0.1037056802    0.8094921465
H       -1.4744228276   -0.6354444802    1.3615668415
13   
Frame   2 IRC: Energy =  -286.8750617857 ; +0.0030 kcal/mol
C        0.5009742271   -0.1101666366    0.3067223628
C        0.6347076775   -1.3127352756   -0.6123013398
C        1.3175303863   -2.4007266134   -0.3388262543
C       -1.2849422014    1.3446647131    0.4454414566
C       -0.1459850974    1.9209179624   -0.2877675500
N        0.8725928439    1.1335749562   -0.3895323277
H        1.1948128682   -0.2373310207    1.1497095012
H        0.0991134274   -1.2245631451   -1.5646722130
H        1.5460319942   -3.3462207238   -0.8121285311
H       -2.2289573729    1.8399694679    0.6407345517
H       -0.1240130312    2.9207746885   -0.7169893417
C       -0.9068054626    0.1048864337    0.8130905975
H       -1.4750602591   -0.6330448066    1.3665190877
13   
Frame   3 IRC: Energy =  -286.8750515927 ; +0.0094 kcal/mol
C        0.5022192681   -0.1112032983    0.3085237021
C        0.6323783000   -1.3139716292   -0.6088799998
C        1.3298874592   -2.3944638054   -0.3436792046
C       -1.2839351678    1.3462413454    0.4427859882
C       -0.1419964175    1.9237119035   -0.2842915139
N        0.8730385954    1.1314805871   -0.3903125112
H        1.1943555544   -0.2404363782    1.1519375476
H        0.0721537439   -1.2371241569   -1.5485329052
H        1.5554615415   -3.3408149523   -0.8163068292
H       -2.2278723500    1.8421794722    0.6366784422
H       -0.1193585843    2.9234258155   -0.7140291158
C       -0.9077654663    0.1048792784    0.8083835583
H       -1.4785664767   -0.6339041818    1.3577228415
13   
Frame   4 IRC: Energy =  -286.8749927666 ; +0.0463 kcal/mol
C        0.5157820639   -0.0999694935    0.2942055578
C        0.6584969228   -1.3014638612   -0.6220850407
C        1.2658433021   -2.4227857935   -0.3096323217
C       -1.2864870555    1.3357225396    0.4539203904
C       -0.1616464651    1.9278135537   -0.2873513250
N        0.8641365547    1.1502563368   -0.4013778782
H        1.2137546163   -0.2165616596    1.1345911560
H        0.1856322562   -1.1869105472   -1.6051504552
H        1.4742583775   -3.3786712875   -0.7702010248
H       -2.2330959433    1.8204943727    0.6621227059
H       -0.1539585088    2.9311824901   -0.7091138262
C       -0.8933327530    0.0956459946    0.8058645743
H       -1.4493833678   -0.6547526450    1.3542074875
13   
Frame   5 IRC: Energy =  -286.8747136026 ; +0.2215 kcal/mol
C        0.5277347848   -0.0906850524    0.2796415081
C        0.6852413651   -1.2944707151   -0.6325626088
C        1.1991772800   -2.4494382982   -0.2793635190
C       -1.2886856638    1.3282015333    0.4667373273
C       -0.1805351803    1.9352717315   -0.2861380628
N        0.8491240088    1.1644522691   -0.4201592812
H        1.2307047895   -0.1914552850    1.1173067926
H        0.3104184208   -1.1476487892   -1.6537458585
H        1.3949900844   -3.4125490396   -0.7294046605
H       -2.2370581486    1.8023458549    0.6902136452
H       -0.1892106773    2.9409790984   -0.7026441933
C       -0.8798519274    0.0877606110    0.8012252808
H       -1.4220491361   -0.6727639188    1.3488936301
13   
Frame   6 IRC: Energy =  -286.8743012298 ; +0.4803 kcal/mol
C        0.5336722915   -0.0824868912    0.2666814161
C        0.7078162119   -1.2897528232   -0.6404571767
C        1.1319692320   -2.4708578882   -0.2564735610
C       -1.2897379508    1.3226277945    0.4825178180
C       -0.1986056876    1.9374175699   -0.2889114908
N        0.8341467689    1.1738761612   -0.4396999070
H        1.2428708950   -0.1677585694    1.1010318105
H        0.4442440890   -1.1136905185   -1.6913334495
H        1.3252299237   -3.4375842461   -0.6995667260
H       -2.2375711123    1.7900966419    0.7216490496
H       -0.2203474472    2.9441293689   -0.7024068221
C       -0.8714602890    0.0806797034    0.7988562662
H       -1.4022269251   -0.6866963032    1.3481127727
13   
Frame   7 IRC: Energy =  -286.8740235684 ; +0.6545 kcal/mol
C        0.5451638878   -0.0705017099    0.2530235751
C        0.7350043937   -1.2790969381   -0.6499531204
C        1.0645760779   -2.4826780047   -0.2429753795
C       -1.2947621911    1.3064496723    0.4822480884
C       -0.2098750716    1.9400803329   -0.2839576845
N        0.8325026900    1.1918785839   -0.4472366494
H        1.2568570663   -0.1375441233    1.0866262373
H        0.5541504475   -1.0888769265   -1.7159860830
H        1.2369619227   -3.4587273371   -0.6741812417
H       -2.2498092595    1.7580188016    0.7223984985
H       -0.2457410396    2.9472533391   -0.6938353934
C       -0.8545197998    0.0748952511    0.8058267036
H       -1.3705091245   -0.7011509412    1.3580024491
13   
Frame   8 IRC: Energy =  -286.8735949197 ; +0.9235 kcal/mol
C        0.5542227524   -0.0621185407    0.2463583656
C        0.7602680264   -1.2733591052   -0.6522127154
C        0.9897727799   -2.4958241196   -0.2340512388
C       -1.2970854211    1.2977431505    0.4913548429
C       -0.2271481143    1.9404046591   -0.2880688560
N        0.8201945989    1.2008215079   -0.4610443959
H        1.2705664731   -0.1149397733    1.0766535535
H        0.6964538383   -1.0618436954   -1.7279244897
H        1.1548684568   -3.4743055815   -0.6620289529
H       -2.2541010988    1.7401427407    0.7402306873
H       -0.2778774134    2.9464545401   -0.6992271647
C       -0.8431063369    0.0690435771    0.8071678360
H       -1.3470285413   -0.7122193595    1.3627925280
13   
Frame   9 IRC: Energy =  -286.8732715477 ; +1.1264 kcal/mol
C        0.5690797577   -0.0505571090    0.2483059951
C        0.7930112420   -1.2609357214   -0.6496714353
C        0.9083426265   -2.5012758374   -0.2362925599
C       -1.3014494416    1.2813587116    0.4907598484
C       -0.2432360826    1.9357789749   -0.2949115213
N        0.8155289394    1.2132210416   -0.4639921347
H        1.2894076517   -0.0915301184    1.0773765398
H        0.8384799235   -1.0321088383   -1.7220471369
H        1.0512486069   -3.4823798808   -0.6666951773
H       -2.2644243705    1.7109509839    0.7395054055
H       -0.3106138630    2.9378850844   -0.7134383478
C       -0.8279204871    0.0622026994    0.8138280154
H       -1.3174545027   -0.7226099905    1.3772725091
13   
Frame  10 IRC: Energy =  -286.8731101519 ; +1.2277 kcal/mol
C        0.5707743685   -0.0452787329    0.2469603117
C        0.8092414384   -1.2577650870   -0.6481707281
C        0.8511802698   -2.5060798236   -0.2436460552
C       -1.3048193249    1.2746151729    0.4942250176
C       -0.2542342782    1.9323339438   -0.2990391024
N        0.8052066713    1.2151224060   -0.4737486839
H        1.2995220633   -0.0750710735    1.0720325814
H        0.9531371794   -1.0191768177   -1.7079890840
H        0.9959942054   -3.4867096680   -0.6754716162
H       -2.2691777972    1.7006276675    0.7448587446
H       -0.3282934939    2.9324781188   -0.7216686488
C       -0.8232463866    0.0598065697    0.8208382830
H       -1.3052849151   -0.7249026760    1.3908189801
13   
Frame  11 IRC: Energy =  -286.8730720000 ; +1.2516 kcal/mol
C        0.5763401131   -0.0419723571    0.2483803337
C        0.8185906747   -1.2542428038   -0.6458454043
C        0.8288317029   -2.5047556104   -0.2462476024
C       -1.3056939580    1.2696387033    0.4930759944
C       -0.2581956078    1.9308606959   -0.3013153785
N        0.8054468786    1.2188832357   -0.4734599451
H        1.3041566326   -0.0687567546    1.0740490044
H        0.9897468170   -1.0138945273   -1.7014625116
H        0.9649723739   -3.4860813165   -0.6791276948
H       -2.2720813462    1.6912411840    0.7431152292
H       -0.3374969688    2.9296106239   -0.7261766265
C       -0.8182800862    0.0577401287    0.8217387166
H       -1.2963372258   -0.7282712020    1.3932758849
13   
Frame  12 IRC: Energy =  -286.8730670000 ; +1.2547 kcal/mol
C        0.5762193889   -0.0415862399    0.2480099304
C        0.8197179939   -1.2541307706   -0.6459694298
C        0.8255984058   -2.5048032559   -0.2466159103
C       -1.3058045174    1.2692498763    0.4933194312
C       -0.2587525985    1.9307674489   -0.3015674086
N        0.8049570165    1.2190321955   -0.4740170953
H        1.3046773119   -0.0677655049    1.0738631899
H        0.9958869690   -1.0136306746   -1.7001982219
H        0.9618464188   -3.4862901277   -0.6795411878
H       -2.2722850039    1.6906553828    0.7435698630
H       -0.3385225387    2.9294432949   -0.7264355948
C       -0.8179039902    0.0575414155    0.8219419307
H       -1.2956348560   -0.7284830402    1.3936405034
13   
Frame  13 IRC: Energy =  -286.8730630000 ; +1.2573 kcal/mol
C        0.5764170429   -0.0414209104    0.2478510724
C        0.8205382198   -1.2540345190   -0.6457723178
C        0.8230140384   -2.5049078224   -0.2469990092
C       -1.3058996750    1.2689877399    0.4935024489
C       -0.2592381367    1.9306436894   -0.3017396620
N        0.8045162242    1.2191864384   -0.4744934990
H        1.3049513595   -0.0669607308    1.0735373826
H        1.0008672024   -1.0133934611   -1.6993728978
H        0.9593183495   -3.4863727700   -0.6798320214
H       -2.2724237417    1.6901734093    0.7439431864
H       -0.3393527864    2.9293346936   -0.7266624961
C       -0.8176392880    0.0574465080    0.8220720293
H       -1.2950688090   -0.7286822650    1.3939657838
13   
Frame  14 IRC: Energy =  -286.8730620000 ; +1.2579 kcal/mol
C        0.5765694923   -0.0414117542    0.2478395613
C        0.8207651852   -1.2540020751   -0.6456287639
C        0.8222285242   -2.5049638718   -0.2471374254
C       -1.3059171433    1.2689117619    0.4935537706
C       -0.2593853874    1.9305929254   -0.3017896586
N        0.8043540283    1.2192509234   -0.4746437545
H        1.3049934511   -0.0667122091    1.0733869764
H        1.0024004779   -1.0133113653   -1.6991807000
H        0.9585416904   -3.4863736595   -0.6799073125
H       -2.2724664650    1.6900255503    0.7440622931
H       -0.3396089961    2.9293061625   -0.7267357536
C       -0.8175858639    0.0574315082    0.8221122576
H       -1.2948889938   -0.7287438966    1.3940685095
13   
Frame  15 IRC: Energy =  -286.8730610000 ; +1.2585 kcal/mol
C        0.5765139375   -0.0413625922    0.2477938083
C        0.8208545150   -1.2539983508   -0.6456797507
C        0.8220043279   -2.5049487609   -0.2471542287
C       -1.3059426598    1.2688951874    0.4935722156
C       -0.2594497847    1.9306262169   -0.3018115336
N        0.8043628362    1.2192311929   -0.4746830874
H        1.3050505599   -0.0666456567    1.0734012216
H        1.0028159147   -1.0133003731   -1.6990571991
H        0.9583295288   -3.4864011568   -0.6799449540
H       -2.2724745640    1.6899839238    0.7440883756
H       -0.3396761643    2.9292819748   -0.7267473552
C       -0.8175463961    0.0573901553    0.8221350773
H       -1.2948420511   -0.7287517604    1.3940874102
13   
Frame  16 IRC: Energy =  -286.8730600000 ; +1.2591 kcal/mol
C        0.5766306241   -0.0413030256    0.2477354959
C        0.8212155106   -1.2539533006   -0.6455638074
C        0.8208454707   -2.5050037560   -0.2473363448
C       -1.3059663992    1.2687675584    0.4936505953
C       -0.2596437950    1.9305389832   -0.3018869299
N        0.8041297050    1.2193244012   -0.4748948143
H        1.3051598007   -0.0662836005    1.0732390443
H        1.0050565247   -1.0131932433   -1.6986991402
H        0.9571930640   -3.4864283361   -0.6800738003
H       -2.2725451554    1.6897705934    0.7442591514
H       -0.3400500311    2.9292415442   -0.7268536758
C       -0.8174368923    0.0573676120    0.8221866654
H       -1.2945884268   -0.7288454303    1.3942375604
13   
Frame  17 IRC: Energy =  -286.8730590000 ; +1.2598 kcal/mol
C        0.5766584953   -0.0412576352    0.2476918903
C        0.8214070183   -1.2539307346   -0.6455349295
C        0.8202564719   -2.5050228568   -0.2474220068
C       -1.3059877951    1.2687068732    0.4936916058
C       -0.2597552613    1.9305176363   -0.3019286694
N        0.8040350207    1.2193547472   -0.4750021326
H        1.3052297375   -0.0661008572    1.0731750481
H        1.0061885681   -1.0131433512   -1.6984932862
H        0.9566182752   -3.4864503040   -0.6801449351
H       -2.2725784807    1.6896618859    0.7443428415
H       -0.3402377815    2.9292133926   -0.7269037693
C       -0.8173740829    0.0573394610    0.8222189312
H       -1.2944601854   -0.7288882573    1.3943094120
13   
Frame  18 IRC: Energy =  -286.8730580000 ; +1.2604 kcal/mol
C        0.5766856556   -0.0412152096    0.2476509551
C        0.8215883394   -1.2539059298   -0.6455080092
C        0.8196989736   -2.5050449292   -0.2475032660
C       -1.3060084400    1.2686499908    0.4937302955
C       -0.2598620851    1.9304987873   -0.3019683870
N        0.8039462180    1.2193825923   -0.4751041018
H        1.3052955525   -0.0659276596    1.0731139296
H        1.0072609646   -1.0130964176   -1.6982974761
H        0.9560736688   -3.4864696770   -0.6802121230
H       -2.2726099703    1.6895588166    0.7444220088
H       -0.3404155562    2.9291862224   -0.7269510612
C       -0.8173147162    0.0573120446    0.8222498318
H       -1.2943386047   -0.7289286312    1.3943774036
13   
Frame  19 IRC: Energy =  -286.8730570000 ; +1.2610 kcal/mol
C        0.5767136639   -0.0411395625    0.2475789529
C        0.8218638412   -1.2539050616   -0.6454700314
C        0.8188602434   -2.5050308721   -0.2476266054
C       -1.3060572795    1.2685755127    0.4937911587
C       -0.2600505034    1.9305124551   -0.3020329418
N        0.8038517980    1.2193963219   -0.4752595883
H        1.3054017139   -0.0656690124    1.0730326069
H        1.0088676262   -1.0130272785   -1.6979933854
H        0.9552577931   -3.4865138581   -0.6803213704
H       -2.2726479108    1.6894018971    0.7445362174
H       -0.3406785822    2.9291338090   -0.7270166489
C       -0.8172301583    0.0572432634    0.8223113433
H       -1.2941522455   -0.7289776140    1.3944702923
13   
Frame  20 IRC: Energy =  -286.8730560000 ; +1.2616 kcal/mol
C        0.5767642182   -0.0410965399    0.2475355271
C        0.8221020909   -1.2538367262   -0.6454276342
C        0.8181226809   -2.5051041835   -0.2477354013
C       -1.3060711379    1.2684969853    0.4938385352
C       -0.2601774980    1.9304625574   -0.3020827695
N        0.8037070060    1.2194510522   -0.4753950488
H        1.3054797427   -0.0654378996    1.0729383748
H        1.0102971586   -1.0129641797   -1.6977388081
H        0.9545307516   -3.4865242509   -0.6804048348
H       -2.2726976506    1.6892661549    0.7446444617
H       -0.3409168685    2.9291034664   -0.7270826370
C       -0.8171468205    0.0572246730    0.8223417703
H       -1.2939936735   -0.7290411095    1.3945684647
13   
Frame  21 IRC: Energy =  -286.8730550000 ; +1.2623 kcal/mol
C        0.5767286845   -0.0410224481    0.2474783566
C        0.8224150982   -1.2538026080   -0.6453302740
C        0.8173603206   -2.5050296410   -0.2479425588
C       -1.3061017358    1.2684236258    0.4938692091
C       -0.2603034695    1.9304416007   -0.3021423085
N        0.8036136470    1.2194373587   -0.4755037907
H        1.3055357251   -0.0652109897    1.0727973626
H        1.0117400103   -1.0129452343   -1.6974072533
H        0.9537814420   -3.4865680704   -0.6804848277
H       -2.2727082516    1.6890989778    0.7447425785
H       -0.3411648498    2.9290562581   -0.7271343034
C       -0.8170839674    0.0572045003    0.8224282955
H       -1.2938126535   -0.7290833301    1.3946295143
13   
Frame  22 IRC: Energy =  -286.8730540000 ; +1.2629 kcal/mol
C        0.5769333098   -0.0410372127    0.2474706738
C        0.8219300972   -1.2539599422   -0.6455373547
C        0.8170579836   -2.5051660362   -0.2477255101
C       -1.3061264148    1.2683365493    0.4939050222
C       -0.2604452382    1.9304337249   -0.3021751879
N        0.8035528034    1.2195631675   -0.4756359892
H        1.3056865295   -0.0649153750    1.0729602621
H        1.0129079277   -1.0127739677   -1.6974248174
H        0.9532658829   -3.4865754484   -0.6806149718
H       -2.2727504252    1.6890336160    0.7448613640
H       -0.3413449702    2.9290518313   -0.7271958821
C       -0.8169611641    0.0571317659    0.8223854018
H       -1.2937063216   -0.7291226728    1.3947269893
13   
Frame  23 IRC: Energy =  -286.8730530000 ; +1.2635 kcal/mol
C        0.5769043542   -0.0408351162    0.2474369359
C        0.8216028880   -1.2541126298   -0.6458092397
C        0.8169861127   -2.5052021360   -0.2474096475
C       -1.3061892101    1.2681629200    0.4940323733
C       -0.2604448597    1.9304090804   -0.3022093083
N        0.8035872806    1.2196378222   -0.4757412764
H        1.3058668750   -0.0647909662    1.0731921552
H        1.0133524379   -1.0126427487   -1.6975063995
H        0.9531150722   -3.4867011392   -0.6807600775
H       -2.2727686814    1.6890327353    0.7449077569
H       -0.3414056578    2.9290869944   -0.7272387782
C       -0.8169538359    0.0570277460    0.8223596129
H       -1.2936527758   -0.7290725623    1.3947458930
13   
Frame  24 IRC: Energy =  -286.8730470000 ; +1.2673 kcal/mol
C        0.5771616820   -0.0406252255    0.2470331889
C        0.8244172275   -1.2535610091   -0.6449150577
C        0.8111572705   -2.5052969425   -0.2488850998
C       -1.3063315967    1.2678217820    0.4943073661
C       -0.2615326705    1.9302337662   -0.3025713407
N        0.8026151498    1.2197695330   -0.4766521047
H        1.3062468113   -0.0633273224    1.0721227013
H        1.0235989876   -1.0124131852   -1.6952729767
H        0.9477940038   -3.4867186009   -0.6812443995
H       -2.2730718311    1.6879918460    0.7456115172
H       -0.3431138397    2.9287542698   -0.7276893537
C       -0.8164442194    0.0569070524    0.8227337416
H       -1.2924969750   -0.7295359637    1.3954218177
13   
Frame  25 IRC: Energy =  -286.8730400000 ; +1.2717 kcal/mol
C        0.5774544189   -0.0401598751    0.2465995020
C        0.8262624562   -1.2533939596   -0.6446048762
C        0.8051537911   -2.5054019837   -0.2497994946
C       -1.3065579884    1.2672048610    0.4947113879
C       -0.2626802952    1.9300420841   -0.3030131234
N        0.8016733622    1.2200712457   -0.4777708337
H        1.3069621164   -0.0614232029    1.0714927864
H        1.0352478418   -1.0119771455   -1.6930035620
H        0.9419007310   -3.4869292904   -0.6820664496
H       -2.2734094351    1.6868854726    0.7464551955
H       -0.3450185388    2.9284630917   -0.7281870409
C       -0.8157952381    0.0565781802    0.8230570828
H       -1.2911932220   -0.7299594782    1.3961294258
13   
Frame  26 IRC: Energy =  -286.8730360000 ; +1.2742 kcal/mol
C        0.5775810155   -0.0397711112    0.2463157956
C        0.8275980984   -1.2533128687   -0.6446037258
C        0.8012111721   -2.5053701884   -0.2504147912
C       -1.3067098542    1.2667687354    0.4949894594
C       -0.2633888073    1.9299266399   -0.3032992192
N        0.8010672967    1.2202526861   -0.4784863257
H        1.3074402563   -0.0602177517    1.0710772498
H        1.0427346926   -1.0117619631   -1.6913173565
H        0.9380760811   -3.4870872677   -0.6825684585
H       -2.2736197008    1.6861556795    0.7469858362
H       -0.3462419576    2.9282869158   -0.7284827245
C       -0.8154072528    0.0563643247    0.8232708336
H       -1.2903410399   -0.7302338307    1.3965334268
13   
Frame  27 IRC: Energy =  -286.8730340000 ; +1.2755 kcal/mol
C        0.5777617458   -0.0396520823    0.2460709418
C        0.8283506507   -1.2532052751   -0.6442810783
C        0.7987278295   -2.5054217645   -0.2508884583
C       -1.3067982135    1.2665331595    0.4951490416
C       -0.2638894399    1.9298401117   -0.3034616246
N        0.8006752405    1.2203891690   -0.4789415660
H        1.3077250941   -0.0594725496    1.0707581058
H        1.0475429979   -1.0115587913   -1.6905026257
H        0.9356176794   -3.4871261996   -0.6827816296
H       -2.2737492637    1.6856826116    0.7473461103
H       -0.3470352262    2.9281800184   -0.7286811256
C       -0.8151363445    0.0562468249    0.8233856688
H       -1.2897927501   -0.7304352328    1.3968282399
13   
Frame  28 IRC: Energy =  -286.8730330000 ; +1.2761 kcal/mol
C        0.5778002318   -0.0395410334    0.2460012799
C        0.8287410645   -1.2531529801   -0.6443556864
C        0.7976175692   -2.5054059406   -0.2510711520
C       -1.3068404086    1.2664056163    0.4952258661
C       -0.2640915948    1.9298071591   -0.3035406887
N        0.8005040366    1.2204444957   -0.4791420845
H        1.3078518094   -0.0591548118    1.0706279563
H        1.0496669702   -1.0114760150   -1.6900152471
H        0.9345182871   -3.4871882374   -0.6828651129
H       -2.2738091961    1.6854703800    0.7475036632
H       -0.3473871019    2.9281247682   -0.7287631451
C       -0.8150227143    0.0561768985    0.8234397490
H       -1.2895489531   -0.7305102994    1.3969546019
13   
Frame  29 IRC: Energy =  -286.8730320000 ; +1.2767 kcal/mol
C        0.5778655878   -0.0394588829    0.2459000334
C        0.8291359673   -1.2530994316   -0.6443109541
C        0.7964796713   -2.5053640451   -0.2513280283
C       -1.3068793604    1.2662778440    0.4953292295
C       -0.2643184260    1.9297639383   -0.3036021930
N        0.8003209968    1.2205061779   -0.4793422530
H        1.3079743077   -0.0588148802    1.0704838317
H        1.0519332532   -1.0113416842   -1.6896865953
H        0.9333326617   -3.4872921465   -0.6828788280
H       -2.2738780226    1.6852468817    0.7476709610
H       -0.3477676201    2.9280507399   -0.7288695924
C       -0.8148979294    0.0561034435    0.8235020843
H       -1.2893010874   -0.7305779548    1.3971323042
13   
Frame  30 IRC: Energy =  -286.8730310000 ; +1.2773 kcal/mol
C        0.5779181557   -0.0394179514    0.2459195192
C        0.8292693494   -1.2533243640   -0.6444226372
C        0.7960280450   -2.5054791390   -0.2509576579
C       -1.3069175505    1.2662630172    0.4954046360
C       -0.2644250603    1.9297794811   -0.3036366774
N        0.8002393184    1.2205639845   -0.4794102480
H        1.3080940331   -0.0586106462    1.0705112066
H        1.0527586635   -1.0110606654   -1.6900997438
H        0.9329659314   -3.4874444381   -0.6830029031
H       -2.2739419726    1.6851837319    0.7477762484
H       -0.3479480596    2.9280524493   -0.7289636868
C       -0.8148569775    0.0561221841    0.8236214802
H       -1.2891838758   -0.7306276439    1.3972604638
13   
Frame  31 IRC: Energy =  -286.8730190000 ; +1.2849 kcal/mol (Transition State)
C        0.5793838796   -0.0372669153    0.2442678581
C        0.8392466158   -1.2521068653   -0.6416558248
C        0.7650363419   -2.5054906031   -0.2579137197
C       -1.3081173659    1.2631128634    0.4970064296
C       -0.2701506447    1.9283825972   -0.3062366671
N        0.7956115285    1.2215996748   -0.4847572190
H        1.3113740841   -0.0492756784    1.0677454613
H        1.1123611359   -1.0096397321   -1.6747876973
H        0.9030829510   -3.4872946995   -0.6893261367
H       -2.2757019517    1.6796135165    0.7511637348
H       -0.3573751088    2.9259805432   -0.7323498790
C       -0.8118377037    0.0547030051    0.8254831942
H       -1.2829137619   -0.7323177065    1.4013604656
13   
Frame  32 IRC: Energy =  -286.8730310000 ; +1.2773 kcal/mol
C        0.5808678761   -0.0351518320    0.2426360853
C        0.8493241519   -1.2513746674   -0.6390972006
C        0.7341014560   -2.5047243204   -0.2653575878
C       -1.3093255565    1.2599788359    0.4985358537
C       -0.2758041513    1.9270033398   -0.3088493052
N        0.7910641922    1.2226399346   -0.4900448004
H        1.3146146644   -0.0399993230    1.0650770452
H        1.1717959520   -1.0085502244   -1.6584705493
H        0.8731917145   -3.4871092103   -0.6958108658
H       -2.2775019727    1.6740744801    0.7544284752
H       -0.3666721271    2.9239501011   -0.7357562859
C       -0.8088807352    0.0532799356    0.8273078635
H       -1.2767754642   -0.7340170498    1.4054012720
13   
Frame  33 IRC: Energy =  -286.8730320000 ; +1.2767 kcal/mol
C        0.5808750639   -0.0351878948    0.2426003678
C        0.8493733391   -1.2512771366   -0.6391451901
C        0.7340858267   -2.5047375425   -0.2655251259
C       -1.3093263730    1.2599744723    0.4985215816
C       -0.2758067734    1.9269968358   -0.3088480747
N        0.7910655614    1.2226285732   -0.4900338987
H        1.3145964618   -0.0400024333    1.0650721780
H        1.1718434582   -1.0086403921   -1.6581964635
H        0.8731223655   -3.4870224101   -0.6957741926
H       -2.2775027746    1.6740673211    0.7544086103
H       -0.3666671482    2.9239443846   -0.7357488829
C       -0.8088744121    0.0532693199    0.8272865259
H       -1.2767845953   -0.7340130975    1.4053825649
13   
Frame  34 IRC: Energy =  -286.8730330000 ; +1.2761 kcal/mol
C        0.5808838151   -0.0351113173    0.2425590827
C        0.8496141042   -1.2511110224   -0.6388543122
C        0.7332517108   -2.5046190206   -0.2660353610
C       -1.3093427945    1.2598646940    0.4984876145
C       -0.2759306500    1.9269257184   -0.3089476124
N        0.7909686469    1.2226230533   -0.4901902483
H        1.3146359292   -0.0398091766    1.0649728669
H        1.1734203749   -1.0088229455   -1.6572357630
H        0.8723164143   -3.4868706296   -0.6960662688
H       -2.2775070842    1.6739027355    0.7544412905
H       -0.3668728113    2.9238626923   -0.7358132994
C       -0.8088036092    0.0532110418    0.8272604392
H       -1.2766340461   -0.7340458232    1.4054215714
13   
Frame  35 IRC: Energy =  -286.8730340000 ; +1.2755 kcal/mol
C        0.5809359522   -0.0350609889    0.2425347666
C        0.8498843129   -1.2510862349   -0.6386290511
C        0.7322790070   -2.5046172485   -0.2663010240
C       -1.3093807955    1.2597761668    0.4985131569
C       -0.2761013592    1.9268692780   -0.3090459802
N        0.7908370985    1.2226392441   -0.4903492552
H        1.3147307912   -0.0395074520    1.0649162798
H        1.1752580557   -1.0088325891   -1.6566491680
H        0.8714331471   -3.4867987669   -0.6964199977
H       -2.2775675460    1.6737422503    0.7545089959
H       -0.3671456819    2.9237877193   -0.7359509655
C       -0.8087097941    0.0531804577    0.8273238595
H       -1.2764531878   -0.7340918359    1.4055483830
13   
Frame  36 IRC: Energy =  -286.8730350000 ; +1.2748 kcal/mol
C        0.5809683219   -0.0349474276    0.2425342736
C        0.8503157734   -1.2510669174   -0.6385683700
C        0.7310359637   -2.5045649762   -0.2666325495
C       -1.3094326386    1.2596428835    0.4985568310
C       -0.2763043442    1.9268037060   -0.3091737588
N        0.7906698258    1.2226548615   -0.4905452998
H        1.3148504653   -0.0391282444    1.0648619923
H        1.1775947426   -1.0088480504   -1.6557792771
H        0.8702808592   -3.4867562426   -0.6968497836
H       -2.2776460606    1.6735336106    0.7545875923
H       -0.3674943612    2.9236779124   -0.7361240684
C       -0.8086091181    0.0531301844    0.8274156940
H       -1.2762294294   -0.7341312999    1.4057167238
13   
Frame  37 IRC: Energy =  -286.8730360000 ; +1.2742 kcal/mol
C        0.5810300415   -0.0348530420    0.2424985326
C        0.8507837903   -1.2510553962   -0.6383780160
C        0.7295853273   -2.5044862197   -0.2670613845
C       -1.3094920551    1.2594973798    0.4986044533
C       -0.2765564970    1.9267179714   -0.3093188332
N        0.7904686206    1.2226808566   -0.4907735751
H        1.3149898784   -0.0386932193    1.0647861034
H        1.1803807113   -1.0088306432   -1.6548572895
H        0.8689046482   -3.4867029376   -0.6973110135
H       -2.2777367358    1.6732849765    0.7546906913
H       -0.3679129300    2.9235491879   -0.7363332312
C       -0.8084803040    0.0530714119    0.8275180295
H       -1.2759644957   -0.7341803263    1.4059355330
13   
Frame  38 IRC: Energy =  -286.8730380000 ; +1.2729 kcal/mol
C        0.5811003969   -0.0346945460    0.2424708169
C        0.8515182289   -1.2509259863   -0.6382484209
C        0.7274606978   -2.5044730326   -0.2676619090
C       -1.3095774161    1.2592701352    0.4986749700
C       -0.2769235023    1.9266042187   -0.3095350687
N        0.7901788584    1.2227140414   -0.4911099274
H        1.3151913375   -0.0380666008    1.0646730021
H        1.1844290477   -1.0088138211   -1.6534345294
H        0.8668902867   -3.4866146520   -0.6979563505
H       -2.2778748683    1.6729187167    0.7548432031
H       -0.3685272638    2.9233543394   -0.7366319689
C       -0.8082909167    0.0529773046    0.8276644494
H       -1.2755748867   -0.7342501170    1.4062517333
13   