
Running Job 1 of 1 irc_product.in
qchem irc_product.in_42891.0 ./irc_product.d/ 1
/home/leeping/opt/qchem/5.0.2-openmp/exe/qcprog.exe_s irc_product.in_42891.0 ./irc_product.d/
Check license passed

                  Welcome to Q-Chem
     A Quantum Leap Into The Future Of Chemistry


 Q-Chem 5.0, Q-Chem, Inc., Pleasanton, CA (2017)

 Yihan Shao,  Zhengting Gan,  E. Epifanovsky,  A. T. B. Gilbert,  M. Wormit,  
 J. Kussmann,  A. W. Lange,  A. Behn,  Jia Deng,  Xintian Feng,  D. Ghosh,  
 M. Goldey,  P. R. Horn,  L. D. Jacobson,  I. Kaliman,  T. Kus,  A. Landau,  
 Jie Liu,  E. I. Proynov,  R. M. Richard,  R. P. Steele,  E. J. Sundstrom,  
 H. L. Woodcock III,  P. M. Zimmerman,  D. Zuev,  B. Albrecht,  E. Alguire,  
 S. A. Baeppler,  D. Barton,  Z. Benda,  Y. A. Bernard,  E. J. Berquist,  
 K. B. Bravaya,  H. Burton,  D. Casanova,  Chun-Min Chang,  Yunqing Chen,  
 A. Chien,  K. D. Closser,  M. P. Coons,  S. Dasgupta,  A. L. Dempwolff,  
 M. Diedenhofen,  Hainam Do,  R. G. Edgar,  Po-Tung Fang,  S. Fatehi,  
 Qingguo Feng,  J. Fosso-Tande,  Qinghui Ge,  A. Ghysels,  G. Gidofalvi,  
 J. Gomes,  J. Gonthier,  A. Gunina,  M. W. D. Hanson-Heine,  
 P. H. P. Harbach,  A. W. Hauser,  J. E. Herr,  E. G. Hohenstein,  
 Z. C. Holden,  Kerwin Hui,  T.-C. Jagau,  Hyunjun Ji,  B. Kaduk,  
 K. Khistyaev,  Jaehoon Kim,  P. Klunzinger,  K. Koh,  D. Kosenkov,  
 L. Koulias,  T. Kowalczyk,  C. M. Krauter,  A. Kunitsa,  Ka Un Lao,  
 A. Laurent,  K. V. Lawler,  Joonho Lee,  D. Lefrancois,  S. Lehtola,  
 D. S. Levine,  Yi-Pei Li,  You-Sheng Lin,  Fenglai Liu,  E. Livshits,  
 A. Luenser,  P. Manohar,  E. Mansoor,  S. F. Manzer,  Shan-Ping Mao,  
 Yuezhi Mao,  N. Mardirossian,  A. V. Marenich,  T. Markovich,  
 L. A. Martinez-Martinez,  S. A. Maurer,  N. J. Mayhall,  S. C. McKenzie,  
 J.-M. Mewes,  A. F. Morrison,  J. W. Mullinax,  K. Nanda,  
 T. S. Nguyen-Beck,  R. Olivares-Amaya,  J. A. Parkhill,  T. M. Perrine,  
 F. Plasser,  S. Prager,  A. Prociuk,  E. Ramos,  D. R. Rehn,  F. Rob,  
 M. Schneider,  N. Sergueev,  S. M. Sharada,  S. Sharma,  D. W. Small,  
 T. Stauch,  T. Stein,  Yu-Chuan Su,  A. J. W. Thom,  A. Tkatchenko,  
 T. Tsuchimochi,  L. Vogt,  O. Vydrov,  M. A. Watson,  J. Wenzel,  
 M. de Wergifosse,  T. A. Wesolowski,  A. White,  J. Witte,  A. Yamada,  
 Jun Yang,  K. Yao,  S. Yeganeh,  S. R. Yost,  Zhi-Qiang You,  A. Zech,  
 Igor Ying Zhang,  Xing Zhang,  Yan Zhao,  Ying Zhu,  B. R. Brooks,  
 G. K. L. Chan,  C. J. Cramer,  M. S. Gordon,  W. J. Hehre,  A. Klamt,  
 M. W. Schmidt,  C. D. Sherrill,  D. G. Truhlar,  A. Aspuru-Guzik,  R. Baer,  
 A. T. Bell,  N. A. Besley,  Jeng-Da Chai,  R. A. DiStasio Jr.,  A. Dreuw,  
 B. D. Dunietz,  T. R. Furlani,  Chao-Ping Hsu,  Yousung Jung,  Jing Kong,  
 D. S. Lambrecht,  WanZhen Liang,  C. Ochsenfeld,  V. A. Rassolov,  
 L. V. Slipchenko,  J. E. Subotnik,  T. Van Voorhis,  J. M. Herbert,  
 A. I. Krylov,  P. M. W. Gill,  M. Head-Gordon

 Contributors to earlier versions of Q-Chem not listed above: 
 R. D. Adamson,  B. Austin,  J. Baker,  G. J. O. Beran,  K. Brandhorst,  
 S. T. Brown,  E. F. C. Byrd,  A. K. Chakraborty,  C.-L. Cheng,  
 Siu Hung Chien,  D. M. Chipman,  D. L. Crittenden,  H. Dachsel,  
 R. J. Doerksen,  A. D. Dutoi,  L. Fusti-Molnar,  W. A. Goddard III,  
 A. Golubeva-Zadorozhnaya,  S. R. Gwaltney,  G. Hawkins,  A. Heyden,  
 S. Hirata,  G. Kedziora,  F. J. Keil,  C. Kelley,  Jihan Kim,  R. A. King,  
 R. Z. Khaliullin,  P. P. Korambath,  W. Kurlancheek,  A. M. Lee,  M. S. Lee,  
 S. V. Levchenko,  Ching Yeh Lin,  D. Liotard,  R. C. Lochan,  I. Lotan,  
 P. E. Maslen,  N. Nair,  D. P. O'Neill,  D. Neuhauser,  E. Neuscamman,  
 C. M. Oana,  R. Olson,  B. Peters,  R. Peverati,  P. A. Pieniazek,  
 Y. M. Rhee,  J. Ritchie,  M. A. Rohrdanz,  E. Rosta,  N. J. Russ,  
 H. F. Schaefer III,  N. E. Schultz,  N. Shenvi,  A. C. Simmonett,  A. Sodt,  
 D. Stuck,  K. S. Thanthiriwatte,  V. Vanovschi,  Tao Wang,  A. Warshel,  
 C. F. Williams,  Q. Wu,  X. Xu,  W. Zhang

 Please cite Q-Chem as follows:
 Y. Shao et al., Mol. Phys. 113, 184-215 (2015)
 DOI: 10.1080/00268976.2014.952696

 Q-Chem 5.0.2 for Intel X86 EM64T Linux

 Parts of Q-Chem use Armadillo 5.200.1 (Boston Tea Smuggler).
 http://arma.sourceforge.net/

 Q-Chem begins on Wed Mar  2 23:54:46 2022  

Host: 
0

     Scratch files written to ./irc_product.d//
 Dec517 15110_ 26548  26544 5633   
Processing $rem in /home/leeping/opt/qchem/5.0.2-openmp/config/preferences.
 MEM_STATIC 2000
 MEM_TOTAL  8000
 SYMMETRY   OFF
 SYM_IGNORE TRUE 

Checking the input file for inconsistencies... 	...done.

--------------------------------------------------------------
User input:
--------------------------------------------------------------
$molecule
0 2
C        0.6306851241   -0.0078315587    0.3192927897
C        1.0085150912   -1.2392780196   -0.4826126645
C        0.2895449529   -2.3326656526   -0.5968148789
C       -1.3310823940    1.1876160335    0.4427329062
C       -0.3192377021    1.8586192971   -0.3871206540
N        0.7938978362    1.2119605552   -0.4921204525
H        1.3513300193    0.0824900885    1.1510730420
H        1.9752601365   -1.1585814376   -0.9929070835
H        0.3680396157   -3.2916794127   -1.0911916668
H       -2.3272046852    1.5604368448    0.6504284253
H       -0.4582329634    2.8158075126   -0.8861689394
C       -0.7707021251    0.0385101092    0.8682765853
H       -1.2108129061   -0.7254043597    1.4971325910
$end

$rem
method                b3lyp
basis                 6-31+g(d,p)
unrestricted          true
symmetry              off
sym_ignore            true
incdft                false
incfock               0
scf_convergence       6
thresh                14
jobtype               sp
scf_guess             read
scf_algorithm         diis
max_scf_cycles        100
stability_analysis    true
max_cis_cycles        100
cis_n_roots           4
$end

--------------------------------------------------------------
 ----------------------------------------------------------------
             Standard Nuclear Orientation (Angstroms)
    I     Atom           X                Y                Z
 ----------------------------------------------------------------
    1      C       0.6306851241    -0.0078315587     0.3192927897
    2      C       1.0085150912    -1.2392780196    -0.4826126645
    3      C       0.2895449529    -2.3326656526    -0.5968148789
    4      C      -1.3310823940     1.1876160335     0.4427329062
    5      C      -0.3192377021     1.8586192971    -0.3871206540
    6      N       0.7938978362     1.2119605552    -0.4921204525
    7      H       1.3513300193     0.0824900885     1.1510730420
    8      H       1.9752601365    -1.1585814376    -0.9929070835
    9      H       0.3680396157    -3.2916794127    -1.0911916668
   10      H      -2.3272046852     1.5604368448     0.6504284253
   11      H      -0.4582329634     2.8158075126    -0.8861689394
   12      C      -0.7707021251     0.0385101092     0.8682765853
   13      H      -1.2108129061    -0.7254043597     1.4971325910
 ----------------------------------------------------------------
 Nuclear Repulsion Energy =   259.4591485659 hartrees
 There are       25 alpha and       24 beta electrons
 Requested basis set is 6-31+G(d,p)
 There are 53 shells and 163 basis functions

 Total QAlloc Memory Limit   8000 MB
 Mega-Array Size      1956 MB
 MEM_STATIC part      2000 MB

                       Distance Matrix (Angstroms)
             C (  1)   C (  2)   C (  3)   C (  4)   C (  5)   N (  6)
   C (  2)  1.517323
   C (  3)  2.522000  1.313566
   C (  4)  2.300623  3.495682  4.012415
   C (  5)  2.210206  3.371797  4.240455  1.470623
   N (  6)  1.474084  2.460634  3.581858  2.321656  1.291613
   H (  7)  1.104240  2.129207  3.164724  2.986367  2.882962  2.070391
   H (  8)  2.203174  1.096133  2.092128  4.300884  3.838645  2.695528
   H (  9)  3.583588  2.234486  1.081794  5.030311  5.243438  4.563224
   H ( 10)  3.364258  4.499912  4.853786  1.083694  2.279770  3.341876
   H ( 11)  3.257579  4.331042  5.210535  2.275710  1.088383  2.072542
   C ( 12)  1.505794  2.573569  2.982129  1.347426  2.256688  2.382360
   H ( 13)  2.300724  3.018091  3.036277  2.187663  3.320014  3.424818
             H (  7)   H (  8)   H (  9)   H ( 10)   H ( 11)   C ( 12)
   H (  8)  2.554642
   H (  9)  4.168888  2.672625
   H ( 10)  3.995821  5.348347  5.817269
   H ( 11)  3.859520  4.661443  6.166535  2.725829
   C ( 12)  2.141245  3.526662  4.028202  2.187789  3.299863
   H ( 13)  2.708695  4.066817  3.972149  2.681102  4.334361  1.082923

 
 A cutoff of  1.0D-14 yielded   1365 shell pairs
 There are     13278 function pairs
 Smallest overlap matrix eigenvalue = 1.27E-05

 Scale SEOQF with 1.000000e-01/1.000000e-01/1.000000e-01

 Standard Electronic Orientation quadrupole field applied
 Nucleus-field energy     =     0.0000000069 hartrees
 Guess MOs from SCF MO coefficient file
 Reading MOs from coefficient file
 Reading MOs from coefficient file
 An unrestricted hybrid HF-DFT SCF calculation will be
 performed using Pulay DIIS extrapolation
 Exchange:     0.2000 Hartree-Fock + 0.0800 Slater + 0.7200 B88
 Correlation:  0.1900 VWN1RPA + 0.8100 LYP
 Using SG-1 standard quadrature grid
 SCF converges when DIIS error is below 1.0E-06
Using Q-Chem read-in guess as SCF_GUESS READ specified.

 -------------------------------------------------------
 OpenMP BLAS3 based DFT computing Module                
 -------------------------------------------------------
 ---------------------------------------
  Cycle       Energy         DIIS Error
 ---------------------------------------
    1    -286.8748335196      2.24E-09
    2    -286.8748335197      2.06E-09 Convergence criterion met
 ---------------------------------------
 <S^2> = 0.7601
 SCF time:  CPU 6.47 s  wall 6.99 s
 SCF   energy in the final basis set = -286.87483352
 Total energy in the final basis set = -286.87483352
 
 Direct TDDFT/TDA calculation will be performed
 Exchange:     0.2000 Hartree-Fock + 0.0800 Slater + 0.7200 B88
 Correlation:  0.1900 VWN1RPA + 0.8100 LYP
 Using SG-1 standard quadrature grid
 CIS energy converged when residual is below 10e- 6
 ---------------------------------------------------
 Iter    Rts Conv    Rts Left    Ttl Dev     Max Dev
 ---------------------------------------------------
   1         0           4      0.001722    0.000669
   2         0           4      0.000809    0.000410
   3         0           4      0.000857    0.000707
   4         0           4      0.000379    0.000294
   5         0           4      0.000512    0.000396
   6         0           4      0.000278    0.000238
   7         1           3      0.000086    0.000077
   8         2           2      0.000026    0.000023
   9         2           2      0.000009    0.000007
  10         3           1      0.000003    0.000002
  11         4           0      0.000001    0.000001    Roots Converged
 ---------------------------------------------------
 
 ---------------------------------------------------
         TDDFT/TDA Excitation Energies              
 ---------------------------------------------------

 Excited state   1: excitation energy (eV) =    3.0021
 Total energy for state  1:                  -286.76450790 au
    <S**2>     :  0.7648
    Trans. Mom.: -0.0502 X   0.0229 Y  -0.1166 Z
    Strength   :     0.0012245510
    D( 22) --> S(  1) amplitude =  0.4510 beta
    D( 23) --> S(  1) amplitude =  0.7864 beta
    D( 24) --> S(  1) amplitude =  0.3740 beta

 Excited state   2: excitation energy (eV) =    3.3887
 Total energy for state  2:                  -286.75030102 au
    <S**2>     :  2.7117
    Trans. Mom.: -0.0106 X   0.0195 Y   0.0001 Z
    Strength   :     0.0000408808
    D( 24) --> V(  1) amplitude =  0.6335 alpha
    S(  1) --> V(  1) amplitude = -0.2934 alpha
    D( 23) --> V(  1) amplitude =  0.1718 beta
    D( 24) --> V(  1) amplitude = -0.6581 beta

 Excited state   3: excitation energy (eV) =    3.8882
 Total energy for state  3:                  -286.73194542 au
    <S**2>     :  0.8032
    Trans. Mom.:  0.0424 X  -0.2264 Y  -0.0603 Z
    Strength   :     0.0054018295
    D( 23) --> S(  1) amplitude = -0.3591 beta
    D( 24) --> S(  1) amplitude =  0.9205 beta

 Excited state   4: excitation energy (eV) =    4.1357
 Total energy for state  4:                  -286.72285050 au
    <S**2>     :  2.6537
    Trans. Mom.: -0.0202 X   0.0282 Y  -0.0007 Z
    Strength   :     0.0001216771
    D( 22) --> V(  1) amplitude = -0.2162 alpha
    D( 23) --> V(  1) amplitude = -0.6348 alpha
    S(  1) --> V(  1) amplitude = -0.2339 alpha
    D( 22) --> V(  1) amplitude =  0.5372 beta
    D( 23) --> V(  1) amplitude = -0.3845 beta
 
 ---------------------------------------------------

 Stability analysis will be performed
 ---------------------------------------------------
 Iter    Rts Conv    Rts Left    Ttl Dev     Max Dev
 ---------------------------------------------------
   1         0           8      0.003563    0.000664
   2         0           8      0.001355    0.000379
   3         0           8      0.000481    0.000113
   4         1           7      0.000305    0.000119
   5         2           6      0.000469    0.000351
   6         2           6      0.000308    0.000242
   7         3           5      0.000987    0.000926
   8         6           2      0.000318    0.000303
   9         6           2      0.000079    0.000074
  10         7           1      0.000020    0.000018
  11         7           1      0.000006    0.000004
  12         7           1      0.000003    0.000001
  13         8           0      0.000002    0.000000    Roots Converged
 UKS-> UKS   stable,    smallest eigenvalue:      0.0745708
 UKS->CUKS   stable,    smallest eigenvalue:      0.1158004
 ---------------------------------------------------
  SETman timing summary (seconds)
  CPU time               203.76s
  System time              0.00s
  Wall time              213.17s
 
 --------------------------------------------------------------
 
                    Orbital Energies (a.u.)
 --------------------------------------------------------------
 
 Alpha MOs
 -- Occupied --
-14.336 -10.239 -10.235 -10.222 -10.215 -10.213 -10.208  -0.956
 -0.803  -0.776  -0.715  -0.606  -0.566  -0.547  -0.517  -0.478
 -0.458  -0.417  -0.408  -0.381  -0.337  -0.286  -0.278  -0.266
 -0.245
 -- Virtual --
 -0.053  -0.008   0.010   0.020   0.030   0.033   0.042   0.048
  0.051   0.063   0.068   0.076   0.096   0.101   0.105   0.115
  0.123   0.134   0.141   0.147   0.157   0.166   0.171   0.191
  0.192   0.192   0.204   0.212   0.219   0.227   0.236   0.247
  0.250   0.258   0.279   0.285   0.298   0.318   0.342   0.384
  0.402   0.409   0.454   0.504   0.620   0.641   0.662   0.679
  0.692   0.704   0.711   0.719   0.732   0.751   0.763   0.786
  0.794   0.846   0.870   0.882   0.904   0.919   0.936   0.960
  1.007   1.030   1.036   1.045   1.070   1.089   1.104   1.137
  1.172   1.203   1.232   1.318   1.363   1.368   1.391   1.458
  1.468   1.494   1.554   1.600   1.629   1.708   1.752   1.820
  1.831   1.865   1.900   1.914   1.976   1.993   2.007   2.026
  2.065   2.116   2.125   2.214   2.233   2.262   2.322   2.363
  2.411   2.426   2.429   2.454   2.460   2.503   2.530   2.533
  2.614   2.623   2.656   2.671   2.707   2.745   2.771   2.801
  2.841   2.869   2.942   3.024   3.198   3.242   3.298   3.389
  3.432   3.602   3.731   4.127   4.274   4.369   4.393   4.481
  4.645   4.742
 
 Beta MOs
 -- Occupied --
-14.336 -10.238 -10.235 -10.217 -10.213 -10.208 -10.207  -0.955
 -0.794  -0.775  -0.704  -0.597  -0.565  -0.539  -0.514  -0.467
 -0.453  -0.415  -0.407  -0.376  -0.335  -0.281  -0.274  -0.264
 -- Virtual --
 -0.091  -0.053  -0.000   0.012   0.022   0.031   0.034   0.042
  0.049   0.051   0.064   0.069   0.077   0.097   0.102   0.109
  0.117   0.125   0.135   0.141   0.148   0.159   0.168   0.171
  0.191   0.193   0.197   0.204   0.213   0.224   0.228   0.238
  0.248   0.252   0.260   0.280   0.285   0.299   0.319   0.348
  0.386   0.403   0.413   0.467   0.506   0.623   0.659   0.667
  0.685   0.697   0.707   0.713   0.720   0.745   0.756   0.765
  0.791   0.803   0.847   0.870   0.885   0.904   0.928   0.941
  0.961   1.013   1.034   1.042   1.047   1.081   1.091   1.106
  1.140   1.180   1.203   1.236   1.319   1.365   1.369   1.394
  1.462   1.468   1.502   1.559   1.628   1.652   1.734   1.763
  1.824   1.843   1.867   1.901   1.927   1.984   1.995   2.012
  2.027   2.076   2.120   2.131   2.216   2.234   2.269   2.328
  2.364   2.419   2.429   2.434   2.456   2.465   2.506   2.530
  2.533   2.619   2.633   2.661   2.678   2.710   2.749   2.780
  2.802   2.846   2.871   2.943   3.033   3.198   3.243   3.311
  3.390   3.432   3.619   3.731   4.127   4.285   4.370   4.398
  4.500   4.645   4.742
 --------------------------------------------------------------
 
          Ground-State Mulliken Net Atomic Charges

     Atom                 Charge (a.u.)    Spin (a.u.)
  --------------------------------------------------------
      1 C                    -0.038978       0.082324
      2 C                    -0.110472      -0.310593
      3 C                    -0.225339       1.162200
      4 C                     0.030779      -0.030204
      5 C                    -0.147944       0.014348
      6 N                    -0.207943      -0.003994
      7 H                     0.178403      -0.004875
      8 H                     0.158962       0.078749
      9 H                     0.154771       0.008728
     10 H                     0.134529       0.000244
     11 H                     0.131662      -0.000082
     12 C                    -0.204128       0.003165
     13 H                     0.145699      -0.000009
  --------------------------------------------------------
  Sum of atomic charges =     0.000000
  Sum of spin   charges =     1.000000

 -----------------------------------------------------------------
                    Cartesian Multipole Moments
 -----------------------------------------------------------------
    Charge (ESU x 10^10)
                 0.0000
    Dipole Moment (Debye)
         X      -1.1232      Y      -0.5702      Z       0.9575
       Tot       1.5823
    Quadrupole Moments (Debye-Ang)
        XX     -41.0963     XY      -4.9596     YY     -38.4212
        XZ       0.1057     YZ       1.4539     ZZ     -42.4580
    Octopole Moments (Debye-Ang^2)
       XXX      -8.9874    XXY      -3.5742    XYY      -8.5789
       YYY     -10.6884    XXZ       5.4082    XYZ       5.5474
       YYZ      -7.8553    XZZ      -1.8002    YZZ      -6.3809
       ZZZ       7.5616
    Hexadecapole Moments (Debye-Ang^3)
      XXXX    -241.3450   XXXY      48.0276   XXYY    -143.0376
      XYYY      46.0332   YYYY    -511.1039   XXXZ      34.7250
      XXYZ      -1.5607   XYYZ      11.3567   YYYZ      -7.3094
      XXZZ     -64.0506   XYZZ      19.8763   YYZZ    -114.9508
      XZZZ      42.9329   YZZZ     -27.3455   ZZZZ    -152.7601
 -----------------------------------------------------------------
Archival summary:
1\1\c8-73\SP\ProcedureUnspecified\6-31+G**\166(2)\hpark21\WedMar223:58:282022WedMar223:58:282022\0\\#,ProcedureUnspecified,6-31+G**,\\0,2\N\C,1,1.29161\H,2,1.08838,1,120.87\C,2,1.47062,1,114.23,3,179.959,0\H,4,1.08369,2,125.705,1,-179.665,0\C,4,1.34743,2,106.331,1,-0.0742552,0\H,6,1.08292,4,128.022,2,-179.627,0\C,1,1.47408,2,105.91,3,179.091,0\H,8,1.10424,1,105.944,2,-114.601,0\C,8,1.51732,1,110.677,2,129.072,0\H,10,1.09613,8,113.948,1,49.2486,0\C,10,1.31357,8,125.818,1,-130.718,0\H,12,1.08179,10,137.555,8,-179.508,0\\\@

 Total job time:  222.36s(wall), 210.44s(cpu) 
 Wed Mar  2 23:58:28 2022

        *************************************************************
        *                                                           *
        *  Thank you very much for using Q-Chem.  Have a nice day.  *
        *                                                           *
        *************************************************************


