13   
Frame  61 IRC: Energy =  -286.8748800300 ; +0.1171 kcal/mol
C        0.6306851241   -0.0078315587    0.3192927897
C        1.0085150912   -1.2392780196   -0.4826126645
C        0.2895449529   -2.3326656526   -0.5968148789
C       -1.3310823940    1.1876160335    0.4427329062
C       -0.3192377021    1.8586192971   -0.3871206540
N        0.7938978362    1.2119605552   -0.4921204525
H        1.3513300193    0.0824900885    1.1510730420
H        1.9752601365   -1.1585814376   -0.9929070835
H        0.3680396157   -3.2916794127   -1.0911916668
H       -2.3272046852    1.5604368448    0.6504284253
H       -0.4582329634    2.8158075126   -0.8861689394
C       -0.7707021251    0.0385101092    0.8682765853
H       -1.2108129061   -0.7254043597    1.4971325910
