13   
Frame   0 IRC: Energy =  -286.8750665627 ; +0.0000 kcal/mol
C        0.5011281854   -0.1105052994    0.3053428782
C        0.6357935931   -1.3132604470   -0.6125259769
C        1.3181439088   -2.4009546905   -0.3373579249
C       -1.2843917211    1.3457335805    0.4468306444
C       -0.1460561540    1.9225961501   -0.2865181105
N        0.8708261247    1.1330843501   -0.3928803647
H        1.1943414283   -0.2366556792    1.1486905241
H        0.0987777551   -1.2266609897   -1.5645736578
H        1.5463995269   -3.3472253420   -0.8089590218
H       -2.2277706653    1.8411909320    0.6445620454
H       -0.1245653893    2.9228426215   -0.7149326223
C       -0.9071142878    0.1041759415    0.8099795185
H       -1.4755123051   -0.6343611284    1.3623420679
13   
Frame   1 IRC: Energy =  -286.8750123770 ; +0.0340 kcal/mol
C        0.5112607358   -0.1037144232    0.2989786908
C        0.6497899523   -1.3056334826   -0.6176829747
C        1.2871932253   -2.4133443035   -0.3209822773
C       -1.2856363518    1.3392291155    0.4502085977
C       -0.1550958752    1.9264462171   -0.2863312986
N        0.8671041616    1.1439972051   -0.3976890993
H        1.2072876956   -0.2245205966    1.1403737932
H        0.1478027706   -1.2036498839   -1.5862762847
H        1.5013284709   -3.3660514033   -0.7855709731
H       -2.2313545929    1.8277233726    0.6536405414
H       -0.1424241899    2.9285967053   -0.7107523997
C       -0.8981440790    0.0987240256    0.8067043092
H       -1.4591119232   -0.6478025482    1.3553793749
13   
Frame   2 IRC: Energy =  -286.8748139592 ; +0.1585 kcal/mol
C        0.5234379055   -0.0940227128    0.2848771331
C        0.6756270152   -1.2969846787   -0.6287960316
C        1.2231430243   -2.4398569989   -0.2902448400
C       -1.2878952869    1.3309052571    0.4621297713
C       -0.1737448829    1.9325905939   -0.2865742180
N        0.8545208635    1.1593489785   -0.4134075614
H        1.2246113778   -0.2004807666    1.1235203422
H        0.2655590874   -1.1617629844   -1.6362763144
H        1.4234862146   -3.4003703387   -0.7440705308
H       -2.2356337769    1.8088700590    0.6801152436
H       -0.1765378879    2.9374573192   -0.7049699593
C       -0.8846981446    0.0905953247    0.8028930587
H       -1.4318755092   -0.6662890524    1.3508039068
13   
Frame   3 IRC: Energy =  -286.8744463475 ; +0.3892 kcal/mol
C        0.5315828300   -0.0853718972    0.2712421881
C        0.6998719219   -1.2914130914   -0.6376790078
C        1.1556203435   -2.4633201435   -0.2645287414
C       -1.2893676416    1.3245892429    0.4769645225
C       -0.1922465149    1.9366624303   -0.2879354968
N        0.8394173932    1.1705598095   -0.4328233865
H        1.2385895340   -0.1760976550    1.1067591219
H        0.3971496427   -1.1256407368   -1.6781060409
H        1.3497791465   -3.4287741336   -0.7100669613
H       -2.2373905958    1.7944072492    0.7105866504
H       -0.2093901401    2.9430207606   -0.7024903552
C       -0.8744133814    0.0831715380    0.7996899436
H       -1.4092025379   -0.6817933729    1.3483875634
13   
Frame   4 IRC: Energy =  -286.8741028434 ; +0.6047 kcal/mol
C        0.5418829277   -0.0739235932    0.2569230187
C        0.7272419091   -1.2821392947   -0.6472419381
C        1.0838174647   -2.4793032490   -0.2468292387
C       -1.2933277227    1.3110686801    0.4823250987
C       -0.2066575552    1.9393200888   -0.2853720433
N        0.8329720902    1.1867387209   -0.4450848378
H        1.2528638813   -0.1461706352    1.0907391656
H        0.5227711364   -1.0959614432   -1.7089475216
H        1.2621632769   -3.4526907834   -0.6814290390
H       -2.2463151520    1.7671773302    0.7221845237
H       -0.2384909273    2.9463614159   -0.6962826179
C       -0.8593564706    0.0765467673    0.8038365774
H       -1.3795648584   -0.6970240045    1.3551788524
13   
Frame   5 IRC: Energy =  -286.8737026831 ; +0.8558 kcal/mol
C        0.5519453310   -0.0642260906    0.2480340161
C        0.7539166853   -1.2748016109   -0.6516446475
C        1.0085785178   -2.4925191532   -0.2362947903
C       -1.2965013552    1.2999319921    0.4890653818
C       -0.2228056278    1.9403231227   -0.2870352971
N        0.8232888841    1.1985732342   -0.4575730936
H        1.2671198937   -0.1206225640    1.0791607114
H        0.6606784067   -1.0686399179   -1.7249231441
H        1.1755069613   -3.4703891715   -0.6650840690
H       -2.2530221196    1.7446368275    0.7357476300
H       -0.2697982479    2.9466553602   -0.6978716598
C       -0.8459757102    0.0705147027    0.8068306720
H       -1.3529316191   -0.7094367312    1.3615882901
13   
Frame   6 IRC: Energy =  -286.8733655533 ; +1.0674 kcal/mol
C        0.5647607651   -0.0539180648    0.2477398112
C        0.7834926544   -1.2645472502   -0.6504101959
C        0.9320147074   -2.4996910006   -0.2356409986
C       -1.3001808029    1.2861217355    0.4909328158
C       -0.2385592440    1.9371236803   -0.2929223303
N        0.8168852658    1.2096164461   -0.4631352149
H        1.2839304435   -0.0983354015    1.0771663647
H        0.7971923556   -1.0407528837   -1.7237557076
H        1.0813713240   -3.4800326488   -0.6653386867
H       -2.2614233529    1.7194371479    0.7397162479
H       -0.3010972423    2.9403762604   -0.7093070983
C       -0.8323350762    0.0641913707    0.8118918738
H       -1.3260517975   -0.7195893913    1.3730631189
13   
Frame   7 IRC: Energy =  -286.8731201003 ; +1.2214 kcal/mol
C        0.5706699132   -0.0456040906    0.2470432593
C        0.8082410135   -1.2579605241   -0.6482632313
C        0.8547037419   -2.5057837072   -0.2431927878
C       -1.3046116062    1.2750308428    0.4940114256
C       -0.2535563524    1.9325462946   -0.2987846794
N        0.8058429331    1.2150052064   -0.4731472929
H        1.2988986137   -0.0760856045    1.0723619815
H        0.9460697374   -1.0199739439   -1.7088556186
H        0.9994000716   -3.4864427811   -0.6749306389
H       -2.2688847973    1.7012639939    0.7445287663
H       -0.3272037263    2.9328114027   -0.7211613353
C       -0.8235344969    0.0599542665    0.8204061721
H       -1.3060350452   -0.7247613555    1.3899839793
13   
Frame   8 IRC: Energy =  -286.8730235623 ; +1.2820 kcal/mol (Transition State)
C        0.5788266191   -0.0380847279    0.2448958110
C        0.8354533116   -1.2525697519   -0.6427077523
C        0.7768192243   -2.5054862445   -0.2552690616
C       -1.3076612024    1.2643105353    0.4963974361
C       -0.2679738077    1.9289136851   -0.3052481647
N        0.7973709899    1.2212059108   -0.4827243287
H        1.3101270260   -0.0528247840    1.0687969831
H        1.0897005895   -1.0101799635   -1.6806092568
H        0.9144443029   -3.4873516293   -0.6869220766
H       -2.2750328169    1.6817312831    0.7498758303
H       -0.3537909943    2.9267682710   -0.7310624665
C       -0.8129856157    0.0552425695    0.8247753803
H       -1.2852976262   -0.7316751536    1.3998016665
13   
Frame   9 IRC: Energy =  -286.8730802868 ; +1.2464 kcal/mol
C        0.5826526211   -0.0325427473    0.2417555500
C        0.8610854673   -1.2495832200   -0.6345530896
C        0.6989141250   -2.5026405447   -0.2769367819
C       -1.3107942971    1.2559132165    0.4993109279
C       -0.2818167386    1.9247609314   -0.3123879034
N        0.7867900737    1.2234853190   -0.4951293608
H        1.3182209539   -0.0298330473    1.0636692417
H        1.2386292768   -1.0087336945   -1.6341664522
H        0.8384113989   -3.4849549419   -0.7066571999
H       -2.2797014458    1.6672754891    0.7562229961
H       -0.3769163482    2.9205906611   -0.7409214017
C       -0.8056092727    0.0516665970    0.8294573773
H       -1.2698658143   -0.7354040184    1.4103360964
13   
Frame  10 IRC: Energy =  -286.8732941191 ; +1.1122 kcal/mol
C        0.5896044642   -0.0265661282    0.2498288152
C        0.8838350580   -1.2427507522   -0.6211636968
C        0.6262146307   -2.4914320137   -0.3092912600
C       -1.3150761712    1.2441258121    0.4951608903
C       -0.2922776303    1.9154898101   -0.3224336362
N        0.7823185489    1.2233608721   -0.5001785086
H        1.3292985559   -0.0126579141    1.0693034334
H        1.3745609549   -1.0045494015   -1.5693282152
H        0.7601524711   -3.4723934006   -0.7449066388
H       -2.2875138394    1.6488986331    0.7478763445
H       -0.3967059938    2.9057428370   -0.7613660292
C       -0.7987958089    0.0484011019    0.8381207993
H       -1.2556152400   -0.7356694559    1.4283777022
13   
Frame  11 IRC: Energy =  -286.8736015345 ; +0.9193 kcal/mol
C        0.5998291899   -0.0202042029    0.2624092412
C        0.9096436328   -1.2359100235   -0.6026247083
C        0.5567802703   -2.4735193434   -0.3468009365
C       -1.3190350963    1.2303553714    0.4871196210
C       -0.3008937454    1.9042418397   -0.3343737213
N        0.7833386488    1.2246081462   -0.4981955140
H        1.3393918383    0.0039553573    1.0828898710
H        1.4967684283   -1.0063146120   -1.4960775072
H        0.6766458704   -3.4514262758   -0.7935786358
H       -2.2966750475    1.6269037916    0.7317910288
H       -0.4154592866    2.8874727974   -0.7862151288
C       -0.7903116060    0.0453725437    0.8470877636
H       -1.2400230970   -0.7355353895    1.4465686263
13   
Frame  12 IRC: Energy =  -286.8738696485 ; +0.7511 kcal/mol
C        0.5939433645   -0.0214988167    0.2569241430
C        0.9195903660   -1.2388295442   -0.5972157722
C        0.4973627520   -2.4650173532   -0.3898542958
C       -1.3211385218    1.2332322788    0.4925915076
C       -0.3121744423    1.9046352400   -0.3408389124
N        0.7666736465    1.2181140900   -0.5163247554
H        1.3416358333    0.0152150510    1.0703768759
H        1.6326814121   -1.0323335128   -1.4008508977
H        0.6414794372   -3.4463993415   -0.8218268104
H       -2.2960747138    1.6325818833    0.7444396976
H       -0.4283966384    2.8886006144   -0.7915598981
C       -0.7930923842    0.0444286352    0.8449334884
H       -1.2424901112   -0.7327292242    1.4492056293
13   
Frame  13 IRC: Energy =  -286.8742496391 ; +0.5126 kcal/mol
C        0.6033923563   -0.0171939691    0.2681337416
C        0.9441474125   -1.2369313118   -0.5747758805
C        0.4361743094   -2.4394370434   -0.4375469080
C       -1.3241221720    1.2224989959    0.4829025571
C       -0.3177513543    1.8962849584   -0.3512283016
N        0.7694038318    1.2187321741   -0.5136885814
H        1.3461099093    0.0312290785    1.0848347303
H        1.7399237156   -1.0556889408   -1.3045308787
H        0.5662656710   -3.4185033442   -0.8786532494
H       -2.3048015893    1.6139050987    0.7262601264
H       -0.4428151148    2.8741242145   -0.8129232016
C       -0.7853686990    0.0428280367    0.8500743124
H       -1.2305582766   -0.7318479474    1.4611415334
13   
Frame  14 IRC: Energy =  -286.8745801615 ; +0.3052 kcal/mol
C        0.6129897078   -0.0129025488    0.2837553284
C        0.9692152477   -1.2355152602   -0.5456402954
C        0.3802305563   -2.4067157854   -0.4901890849
C       -1.3266852584    1.2103783143    0.4708464585
C       -0.3208542904    1.8831050300   -0.3649184776
N        0.7766509741    1.2176722736   -0.5077439496
H        1.3483828052    0.0488252398    1.1058415566
H        1.8336925012   -1.0832738708   -1.1999895550
H        0.4921883877   -3.3807246123   -0.9470436714
H       -2.3126321638    1.5949218513    0.7040394737
H       -0.4522403173    2.8542479235   -0.8385950077
C       -0.7794565550    0.0405677337    0.8557377152
H       -1.2214815950   -0.7305862885    1.4738995092
13   
Frame  15 IRC: Energy =  -286.8747913790 ; +0.1727 kcal/mol
C        0.6218657001   -0.0101416531    0.3014623807
C        0.9910520930   -1.2368342511   -0.5132609006
C        0.3298300904   -2.3693898761   -0.5473793348
C       -1.3294580827    1.1983364035    0.4560490085
C       -0.3206864063    1.8709468419   -0.3761092109
N        0.7844870597    1.2143269513   -0.5009144423
H        1.3501471852    0.0658473114    1.1285929941
H        1.9152657231   -1.1198727050   -1.0882659283
H        0.4249770054   -3.3364808439   -1.0224716861
H       -2.3209307338    1.5763786339    0.6759953643
H       -0.4569518156    2.8343531961   -0.8638731262
C       -0.7745276230    0.0396393533    0.8626662823
H       -1.2150701955   -0.7271093622    1.4875085992
13   
Frame  16 IRC: Energy =  -286.8748800300 ; +0.1171 kcal/mol
C        0.6306851241   -0.0078315587    0.3192927897
C        1.0085150912   -1.2392780196   -0.4826126645
C        0.2895449529   -2.3326656526   -0.5968148789
C       -1.3310823940    1.1876160335    0.4427329062
C       -0.3192377021    1.8586192971   -0.3871206540
N        0.7938978362    1.2119605552   -0.4921204525
H        1.3513300193    0.0824900885    1.1510730420
H        1.9752601365   -1.1585814376   -0.9929070835
H        0.3680396157   -3.2916794127   -1.0911916668
H       -2.3272046852    1.5604368448    0.6504284253
H       -0.4582329634    2.8158075126   -0.8861689394
C       -0.7707021251    0.0385101092    0.8682765853
H       -1.2108129061   -0.7254043597    1.4971325910
