
Running Job 1 of 1 irc_reactant.in
qchem irc_reactant.in_42375.0 ./irc_reactant.d/ 1
/home/leeping/opt/qchem/5.0.2-openmp/exe/qcprog.exe_s irc_reactant.in_42375.0 ./irc_reactant.d/
Check license passed

                  Welcome to Q-Chem
     A Quantum Leap Into The Future Of Chemistry


 Q-Chem 5.0, Q-Chem, Inc., Pleasanton, CA (2017)

 Yihan Shao,  Zhengting Gan,  E. Epifanovsky,  A. T. B. Gilbert,  M. Wormit,  
 J. Kussmann,  A. W. Lange,  A. Behn,  Jia Deng,  Xintian Feng,  D. Ghosh,  
 M. Goldey,  P. R. Horn,  L. D. Jacobson,  I. Kaliman,  T. Kus,  A. Landau,  
 Jie Liu,  E. I. Proynov,  R. M. Richard,  R. P. Steele,  E. J. Sundstrom,  
 H. L. Woodcock III,  P. M. Zimmerman,  D. Zuev,  B. Albrecht,  E. Alguire,  
 S. A. Baeppler,  D. Barton,  Z. Benda,  Y. A. Bernard,  E. J. Berquist,  
 K. B. Bravaya,  H. Burton,  D. Casanova,  Chun-Min Chang,  Yunqing Chen,  
 A. Chien,  K. D. Closser,  M. P. Coons,  S. Dasgupta,  A. L. Dempwolff,  
 M. Diedenhofen,  Hainam Do,  R. G. Edgar,  Po-Tung Fang,  S. Fatehi,  
 Qingguo Feng,  J. Fosso-Tande,  Qinghui Ge,  A. Ghysels,  G. Gidofalvi,  
 J. Gomes,  J. Gonthier,  A. Gunina,  M. W. D. Hanson-Heine,  
 P. H. P. Harbach,  A. W. Hauser,  J. E. Herr,  E. G. Hohenstein,  
 Z. C. Holden,  Kerwin Hui,  T.-C. Jagau,  Hyunjun Ji,  B. Kaduk,  
 K. Khistyaev,  Jaehoon Kim,  P. Klunzinger,  K. Koh,  D. Kosenkov,  
 L. Koulias,  T. Kowalczyk,  C. M. Krauter,  A. Kunitsa,  Ka Un Lao,  
 A. Laurent,  K. V. Lawler,  Joonho Lee,  D. Lefrancois,  S. Lehtola,  
 D. S. Levine,  Yi-Pei Li,  You-Sheng Lin,  Fenglai Liu,  E. Livshits,  
 A. Luenser,  P. Manohar,  E. Mansoor,  S. F. Manzer,  Shan-Ping Mao,  
 Yuezhi Mao,  N. Mardirossian,  A. V. Marenich,  T. Markovich,  
 L. A. Martinez-Martinez,  S. A. Maurer,  N. J. Mayhall,  S. C. McKenzie,  
 J.-M. Mewes,  A. F. Morrison,  J. W. Mullinax,  K. Nanda,  
 T. S. Nguyen-Beck,  R. Olivares-Amaya,  J. A. Parkhill,  T. M. Perrine,  
 F. Plasser,  S. Prager,  A. Prociuk,  E. Ramos,  D. R. Rehn,  F. Rob,  
 M. Schneider,  N. Sergueev,  S. M. Sharada,  S. Sharma,  D. W. Small,  
 T. Stauch,  T. Stein,  Yu-Chuan Su,  A. J. W. Thom,  A. Tkatchenko,  
 T. Tsuchimochi,  L. Vogt,  O. Vydrov,  M. A. Watson,  J. Wenzel,  
 M. de Wergifosse,  T. A. Wesolowski,  A. White,  J. Witte,  A. Yamada,  
 Jun Yang,  K. Yao,  S. Yeganeh,  S. R. Yost,  Zhi-Qiang You,  A. Zech,  
 Igor Ying Zhang,  Xing Zhang,  Yan Zhao,  Ying Zhu,  B. R. Brooks,  
 G. K. L. Chan,  C. J. Cramer,  M. S. Gordon,  W. J. Hehre,  A. Klamt,  
 M. W. Schmidt,  C. D. Sherrill,  D. G. Truhlar,  A. Aspuru-Guzik,  R. Baer,  
 A. T. Bell,  N. A. Besley,  Jeng-Da Chai,  R. A. DiStasio Jr.,  A. Dreuw,  
 B. D. Dunietz,  T. R. Furlani,  Chao-Ping Hsu,  Yousung Jung,  Jing Kong,  
 D. S. Lambrecht,  WanZhen Liang,  C. Ochsenfeld,  V. A. Rassolov,  
 L. V. Slipchenko,  J. E. Subotnik,  T. Van Voorhis,  J. M. Herbert,  
 A. I. Krylov,  P. M. W. Gill,  M. Head-Gordon

 Contributors to earlier versions of Q-Chem not listed above: 
 R. D. Adamson,  B. Austin,  J. Baker,  G. J. O. Beran,  K. Brandhorst,  
 S. T. Brown,  E. F. C. Byrd,  A. K. Chakraborty,  C.-L. Cheng,  
 Siu Hung Chien,  D. M. Chipman,  D. L. Crittenden,  H. Dachsel,  
 R. J. Doerksen,  A. D. Dutoi,  L. Fusti-Molnar,  W. A. Goddard III,  
 A. Golubeva-Zadorozhnaya,  S. R. Gwaltney,  G. Hawkins,  A. Heyden,  
 S. Hirata,  G. Kedziora,  F. J. Keil,  C. Kelley,  Jihan Kim,  R. A. King,  
 R. Z. Khaliullin,  P. P. Korambath,  W. Kurlancheek,  A. M. Lee,  M. S. Lee,  
 S. V. Levchenko,  Ching Yeh Lin,  D. Liotard,  R. C. Lochan,  I. Lotan,  
 P. E. Maslen,  N. Nair,  D. P. O'Neill,  D. Neuhauser,  E. Neuscamman,  
 C. M. Oana,  R. Olson,  B. Peters,  R. Peverati,  P. A. Pieniazek,  
 Y. M. Rhee,  J. Ritchie,  M. A. Rohrdanz,  E. Rosta,  N. J. Russ,  
 H. F. Schaefer III,  N. E. Schultz,  N. Shenvi,  A. C. Simmonett,  A. Sodt,  
 D. Stuck,  K. S. Thanthiriwatte,  V. Vanovschi,  Tao Wang,  A. Warshel,  
 C. F. Williams,  Q. Wu,  X. Xu,  W. Zhang

 Please cite Q-Chem as follows:
 Y. Shao et al., Mol. Phys. 113, 184-215 (2015)
 DOI: 10.1080/00268976.2014.952696

 Q-Chem 5.0.2 for Intel X86 EM64T Linux

 Parts of Q-Chem use Armadillo 5.200.1 (Boston Tea Smuggler).
 http://arma.sourceforge.net/

 Q-Chem begins on Wed Mar  2 23:49:10 2022  

Host: 
0

     Scratch files written to ./irc_reactant.d//
 Dec517 15110_ 26548  26544 5633   
Processing $rem in /home/leeping/opt/qchem/5.0.2-openmp/config/preferences.
 MEM_STATIC 2000
 MEM_TOTAL  8000
 SYMMETRY   OFF
 SYM_IGNORE TRUE 

Checking the input file for inconsistencies... 	...done.

--------------------------------------------------------------
User input:
--------------------------------------------------------------
$molecule
0 2
C        0.5011281854   -0.1105052994    0.3053428782
C        0.6357935931   -1.3132604470   -0.6125259769
C        1.3181439088   -2.4009546905   -0.3373579249
C       -1.2843917211    1.3457335805    0.4468306444
C       -0.1460561540    1.9225961501   -0.2865181105
N        0.8708261247    1.1330843501   -0.3928803647
H        1.1943414283   -0.2366556792    1.1486905241
H        0.0987777551   -1.2266609897   -1.5645736578
H        1.5463995269   -3.3472253420   -0.8089590218
H       -2.2277706653    1.8411909320    0.6445620454
H       -0.1245653893    2.9228426215   -0.7149326223
C       -0.9071142878    0.1041759415    0.8099795185
H       -1.4755123051   -0.6343611284    1.3623420679
$end

$rem
method                b3lyp
basis                 6-31+g(d,p)
unrestricted          true
symmetry              off
sym_ignore            true
incdft                false
incfock               0
scf_convergence       8
thresh                14
jobtype               sp
scf_guess             core
scf_guess_mix         5
scf_algorithm         diis
max_scf_cycles        100
$end

--------------------------------------------------------------
 ----------------------------------------------------------------
             Standard Nuclear Orientation (Angstroms)
    I     Atom           X                Y                Z
 ----------------------------------------------------------------
    1      C       0.5011281854    -0.1105052994     0.3053428782
    2      C       0.6357935931    -1.3132604470    -0.6125259769
    3      C       1.3181439088    -2.4009546905    -0.3373579249
    4      C      -1.2843917211     1.3457335805     0.4468306444
    5      C      -0.1460561540     1.9225961501    -0.2865181105
    6      N       0.8708261247     1.1330843501    -0.3928803647
    7      H       1.1943414283    -0.2366556792     1.1486905241
    8      H       0.0987777551    -1.2266609897    -1.5645736578
    9      H       1.5463995269    -3.3472253420    -0.8089590218
   10      H      -2.2277706653     1.8411909320     0.6445620454
   11      H      -0.1245653893     2.9228426215    -0.7149326223
   12      C      -0.9071142878     0.1041759415     0.8099795185
   13      H      -1.4755123051    -0.6343611284     1.3623420679
 ----------------------------------------------------------------
 Nuclear Repulsion Energy =   257.7793712664 hartrees
 There are       25 alpha and       24 beta electrons
 Requested basis set is 6-31+G(d,p)
 There are 53 shells and 163 basis functions

 Total QAlloc Memory Limit   8000 MB
 Mega-Array Size      1956 MB
 MEM_STATIC part      2000 MB

                       Distance Matrix (Angstroms)
             C (  1)   C (  2)   C (  3)   C (  4)   C (  5)   N (  6)
   C (  2)  1.518959
   C (  3)  2.515301  1.313163
   C (  4)  2.308405  3.446679  4.628803
   C (  5)  2.214193  3.344897  4.565037  1.471862
   N (  6)  1.473332  2.467405  3.562669  2.322778  1.291778
   H (  7)  1.098951  2.138443  2.628280  3.023356  2.918708  2.087412
   H (  8)  2.214560  1.096485  2.090904  3.546282  3.407520  2.745418
   H (  9)  3.579192  2.237142  1.081636  5.622655  5.559530  4.550022
   H ( 10)  3.372103  4.441940  5.615468  1.083762  2.281901  3.343502
   H ( 11)  3.260928  4.305021  5.528724  2.276437  1.088345  2.073103
   C ( 12)  1.511255  2.532432  3.541728  1.347472  2.255697  2.380461
   H ( 13)  2.301908  2.969616  3.716766  2.189855  3.320275  3.421984
             H (  7)   H (  8)   H (  9)   H ( 10)   H ( 11)   C ( 12)
   H (  8)  3.089041
   H (  9)  3.692151  2.676445
   H ( 10)  4.035151  4.439012  6.578506
   H ( 11)  3.898081  4.241480  6.489585  2.727942
   C ( 12)  2.155692  2.901973  4.533527  2.188314  3.298882
   H ( 13)  2.707755  3.375803  4.605012  2.685044  4.335185  1.083336

 
 A cutoff of  1.0D-14 yielded   1358 shell pairs
 There are     13235 function pairs
 
 -------------------------------------------------------
 OpenMP Integral Computing Module                       
 Release: version 1.0, May 2013, Q-Chem Inc. Pittsburgh 
 -------------------------------------------------------
 Integral Job Info:
 Integral job number is                      11
 Integral operator is                         1
 short-range coefficients                     0
 long-range coefficients              100000000
 Omega coefficients                           0
 if combine SR and LR in K                    0
 Integral screening is                        0
 Integral computing path is                   2
 max size of driver memory is            800000
 size of driver memory is                593474
 size of scratch memory is              2361544
 max col of scratch BK array               1296
 max len of scratch array in speh3          155
 max len of scratch index in speh4           18
 max int batch size is                      520
 min int batch size is                       52
 fixed nKL is                                52
 max L of basis functions is                  2
 order of int derivative is                   0
 number of shells is                         53
 number of basis is                         163
 number of cartesian basis is               163
 number of contracted shell pairs          1358
 number of primitive shell pairs           4539
 maxK2 (contraction) of shell pair           36
 max number of K2 of shell pair               1
 max number of CS2 of shell pair            126
 max number of PS2 of shell pair            666
 mem total for path MDJ                  531564
 -------------------------------------------------------
 Smallest overlap matrix eigenvalue = 1.45E-05

 Scale SEOQF with 1.000000e-01/1.000000e-01/1.000000e-01

 Standard Electronic Orientation quadrupole field applied
 Nucleus-field energy     =     0.0000000078 hartrees
 Guess MOs from core Hamiltonian diagonalization
 Mixing HOMO and LUMO in initial guess
 Adding  50% of the LUMO to the HOMO
 An unrestricted hybrid HF-DFT SCF calculation will be
 performed using Pulay DIIS extrapolation
 Exchange:     0.2000 Hartree-Fock + 0.0800 Slater + 0.7200 B88
 Correlation:  0.1900 VWN1RPA + 0.8100 LYP
 Using SG-1 standard quadrature grid
 SCF converges when DIIS error is below 1.0E-08
 using 4 threads for integral computing
 -------------------------------------------------------
 OpenMP Integral computing Module                
 Release: version 1.0, May 2013, Q-Chem Inc. Pittsburgh 
 -------------------------------------------------------
 -------------------------------------------------------
 OpenMP BLAS3 based DFT computing Module                
 Release: version 1.0, May 2013, Q-Chem Inc. Pittsburgh 
 -------------------------------------------------------
 ---------------------------------------
  Cycle       Energy         DIIS Error
 ---------------------------------------
    1    -227.1151856807      9.99E-02
    2    -157.7358382002      1.15E-01
    3    -228.6776633330      8.50E-02
    4    -234.9383578168      8.45E-02
    5    -281.1716877779      2.63E-02
    6    -270.6346219318      5.11E-02
    7    -284.7640873845      1.92E-02
    8    -285.0732281956      1.84E-02
    9    -286.3885097462      7.78E-03
   10    -286.8454263234      2.46E-03
   11    -286.8692224361      1.08E-03
   12    -286.8732341029      5.18E-04
   13    -286.8746072061      2.00E-04
   14    -286.8748686011      1.25E-04
   15    -286.8749901943      6.11E-05
   16    -286.8750429055      2.42E-05
   17    -286.8750569427      6.85E-06
   18    -286.8750628347      2.02E-06
   19    -286.8750643951      1.14E-06
   20    -286.8750656133      2.14E-07
   21    -286.8750661726      1.47E-07
   22    -286.8750665197      6.19E-08
   23    -286.8750665539      1.46E-08
   24    -286.8750665585      6.09E-09 Convergence criterion met
 ---------------------------------------
 <S^2> = 0.7601
 SCF time:  CPU 115.36 s  wall 33.51 s
 SCF   energy in the final basis set = -286.87506656
 Total energy in the final basis set = -286.87506656
 
 --------------------------------------------------------------
 
                    Orbital Energies (a.u.)
 --------------------------------------------------------------
 
 Alpha MOs
 -- Occupied --
-14.337 -10.238 -10.237 -10.223 -10.216 -10.215 -10.211  -0.956
 -0.803  -0.778  -0.715  -0.599  -0.568  -0.556  -0.522  -0.485
 -0.440  -0.421  -0.413  -0.378  -0.338  -0.295  -0.276  -0.263
 -0.247
 -- Virtual --
 -0.055  -0.010   0.007   0.020   0.028   0.035   0.041   0.047
  0.051   0.066   0.070   0.075   0.079   0.101   0.105   0.107
  0.125   0.130   0.134   0.145   0.151   0.161   0.168   0.188
  0.196   0.202   0.210   0.213   0.220   0.237   0.240   0.245
  0.248   0.258   0.271   0.289   0.298   0.320   0.337   0.387
  0.399   0.415   0.436   0.504   0.608   0.646   0.653   0.667
  0.687   0.694   0.711   0.725   0.729   0.750   0.761   0.778
  0.810   0.854   0.873   0.891   0.907   0.930   0.961   0.976
  1.017   1.032   1.036   1.043   1.063   1.111   1.142   1.160
  1.178   1.213   1.252   1.303   1.325   1.359   1.376   1.421
  1.463   1.517   1.581   1.593   1.627   1.721   1.736   1.788
  1.812   1.869   1.881   1.923   1.948   1.986   2.006   2.032
  2.058   2.114   2.133   2.211   2.245   2.278   2.352   2.378
  2.388   2.420   2.444   2.449   2.457   2.508   2.512   2.557
  2.577   2.630   2.662   2.670   2.704   2.739   2.760   2.803
  2.829   2.877   2.938   2.993   3.191   3.235   3.302   3.406
  3.432   3.613   3.724   4.150   4.315   4.369   4.396   4.514
  4.635   4.726
 
 Beta MOs
 -- Occupied --
-14.337 -10.237 -10.237 -10.217 -10.215 -10.211 -10.208  -0.956
 -0.794  -0.777  -0.705  -0.591  -0.567  -0.547  -0.521  -0.476
 -0.429  -0.420  -0.412  -0.376  -0.337  -0.290  -0.276  -0.260
 -- Virtual --
 -0.092  -0.055  -0.002   0.008   0.022   0.029   0.036   0.042
  0.047   0.052   0.068   0.071   0.077   0.080   0.106   0.107
  0.110   0.126   0.130   0.135   0.146   0.156   0.162   0.168
  0.188   0.196   0.203   0.210   0.221   0.223   0.238   0.242
  0.245   0.249   0.260   0.273   0.290   0.298   0.323   0.338
  0.389   0.403   0.418   0.450   0.505   0.611   0.652   0.670
  0.673   0.694   0.701   0.711   0.726   0.749   0.753   0.770
  0.780   0.810   0.854   0.873   0.894   0.911   0.933   0.966
  0.980   1.018   1.035   1.041   1.048   1.074   1.113   1.146
  1.162   1.184   1.216   1.255   1.306   1.327   1.360   1.380
  1.422   1.464   1.519   1.583   1.624   1.651   1.730   1.779
  1.791   1.821   1.870   1.883   1.926   1.950   1.997   2.007
  2.037   2.065   2.122   2.135   2.214   2.247   2.284   2.354
  2.385   2.391   2.424   2.446   2.455   2.459   2.508   2.512
  2.562   2.579   2.635   2.671   2.682   2.705   2.743   2.763
  2.808   2.834   2.878   2.939   3.004   3.191   3.236   3.313
  3.407   3.432   3.630   3.724   4.150   4.326   4.374   4.399
  4.530   4.637   4.727
 --------------------------------------------------------------
 
          Ground-State Mulliken Net Atomic Charges

     Atom                 Charge (a.u.)    Spin (a.u.)
  --------------------------------------------------------
      1 C                    -0.173646       0.076323
      2 C                     0.084396      -0.284099
      3 C                    -0.321920       1.154633
      4 C                    -0.012728      -0.000365
      5 C                    -0.062513      -0.007151
      6 N                    -0.185447      -0.003421
      7 H                     0.174618      -0.000922
      8 H                     0.149100       0.076073
      9 H                     0.154116       0.007506
     10 H                     0.135964       0.000129
     11 H                     0.131713       0.000281
     12 C                    -0.218525      -0.019038
     13 H                     0.144871       0.000050
  --------------------------------------------------------
  Sum of atomic charges =     0.000000
  Sum of spin   charges =     1.000000

 -----------------------------------------------------------------
                    Cartesian Multipole Moments
 -----------------------------------------------------------------
    Charge (ESU x 10^10)
                -0.0000
    Dipole Moment (Debye)
         X      -2.2600      Y      -0.3988      Z       0.5052
       Tot       2.3499
    Quadrupole Moments (Debye-Ang)
        XX     -44.1650     XY      -4.2305     YY     -37.0748
        XZ       0.5906     YZ       1.7037     ZZ     -41.6450
    Octopole Moments (Debye-Ang^2)
       XXX     -27.3217    XXY      -3.8063    XYY      -6.9022
       YYY      -6.2467    XXZ       6.2390    XYZ       4.2726
       YYZ      -8.7459    XZZ      -6.6813    YZZ      -6.4696
       ZZZ       0.5623
    Hexadecapole Moments (Debye-Ang^3)
      XXXX    -292.4634   XXXY      92.5685   XXYY    -143.6461
      XYYY      66.0129   YYYY    -537.6178   XXXZ      42.9281
      XXYZ      -1.5657   XYYZ       3.9641   YYYZ     -10.0702
      XXZZ     -70.6147   XYZZ      35.1111   YYZZ    -123.0241
      XZZZ      48.6857   YZZZ     -24.8891   ZZZZ    -137.1637
 -----------------------------------------------------------------
Archival summary:
1\1\c8-73\SP\ProcedureUnspecified\6-31+G**\166(2)\hpark21\WedMar223:49:462022WedMar223:49:462022\0\\#,ProcedureUnspecified,6-31+G**,\\0,2\N\C,1,1.29178\H,2,1.08834,1,120.914\C,2,1.47186,1,114.224,3,-179.921,0\H,4,1.08376,2,125.799,1,-179.966,0\C,4,1.34747,2,106.192,1,0.138923,0\H,6,1.08334,4,128.218,2,-179.745,0\C,1,1.47333,2,106.22,3,179.371,0\H,8,1.09895,1,107.595,2,-117.251,0\C,8,1.51896,1,111.084,2,124.156,0\H,10,1.09649,8,114.754,1,-53.3423,0\C,10,1.31316,8,125.122,1,127.17,0\H,12,1.08164,10,137.982,8,179.693,0\\\@

 Total job time:  36.12s(wall), 117.27s(cpu) 
 Wed Mar  2 23:49:46 2022

        *************************************************************
        *                                                           *
        *  Thank you very much for using Q-Chem.  Have a nice day.  *
        *                                                           *
        *************************************************************


