
Running Job 1 of 1 qcts2.in
qchem qcts2.in_15799.0 ./qcts2.d/ 1
/home/leeping/opt/qchem/5.0.2-openmp/exe/qcprog.exe_s qcts2.in_15799.0 ./qcts2.d/
Check license passed

                  Welcome to Q-Chem
     A Quantum Leap Into The Future Of Chemistry


 Q-Chem 5.0, Q-Chem, Inc., Pleasanton, CA (2017)

 Yihan Shao,  Zhengting Gan,  E. Epifanovsky,  A. T. B. Gilbert,  M. Wormit,  
 J. Kussmann,  A. W. Lange,  A. Behn,  Jia Deng,  Xintian Feng,  D. Ghosh,  
 M. Goldey,  P. R. Horn,  L. D. Jacobson,  I. Kaliman,  T. Kus,  A. Landau,  
 Jie Liu,  E. I. Proynov,  R. M. Richard,  R. P. Steele,  E. J. Sundstrom,  
 H. L. Woodcock III,  P. M. Zimmerman,  D. Zuev,  B. Albrecht,  E. Alguire,  
 S. A. Baeppler,  D. Barton,  Z. Benda,  Y. A. Bernard,  E. J. Berquist,  
 K. B. Bravaya,  H. Burton,  D. Casanova,  Chun-Min Chang,  Yunqing Chen,  
 A. Chien,  K. D. Closser,  M. P. Coons,  S. Dasgupta,  A. L. Dempwolff,  
 M. Diedenhofen,  Hainam Do,  R. G. Edgar,  Po-Tung Fang,  S. Fatehi,  
 Qingguo Feng,  J. Fosso-Tande,  Qinghui Ge,  A. Ghysels,  G. Gidofalvi,  
 J. Gomes,  J. Gonthier,  A. Gunina,  M. W. D. Hanson-Heine,  
 P. H. P. Harbach,  A. W. Hauser,  J. E. Herr,  E. G. Hohenstein,  
 Z. C. Holden,  Kerwin Hui,  T.-C. Jagau,  Hyunjun Ji,  B. Kaduk,  
 K. Khistyaev,  Jaehoon Kim,  P. Klunzinger,  K. Koh,  D. Kosenkov,  
 L. Koulias,  T. Kowalczyk,  C. M. Krauter,  A. Kunitsa,  Ka Un Lao,  
 A. Laurent,  K. V. Lawler,  Joonho Lee,  D. Lefrancois,  S. Lehtola,  
 D. S. Levine,  Yi-Pei Li,  You-Sheng Lin,  Fenglai Liu,  E. Livshits,  
 A. Luenser,  P. Manohar,  E. Mansoor,  S. F. Manzer,  Shan-Ping Mao,  
 Yuezhi Mao,  N. Mardirossian,  A. V. Marenich,  T. Markovich,  
 L. A. Martinez-Martinez,  S. A. Maurer,  N. J. Mayhall,  S. C. McKenzie,  
 J.-M. Mewes,  A. F. Morrison,  J. W. Mullinax,  K. Nanda,  
 T. S. Nguyen-Beck,  R. Olivares-Amaya,  J. A. Parkhill,  T. M. Perrine,  
 F. Plasser,  S. Prager,  A. Prociuk,  E. Ramos,  D. R. Rehn,  F. Rob,  
 M. Schneider,  N. Sergueev,  S. M. Sharada,  S. Sharma,  D. W. Small,  
 T. Stauch,  T. Stein,  Yu-Chuan Su,  A. J. W. Thom,  A. Tkatchenko,  
 T. Tsuchimochi,  L. Vogt,  O. Vydrov,  M. A. Watson,  J. Wenzel,  
 M. de Wergifosse,  T. A. Wesolowski,  A. White,  J. Witte,  A. Yamada,  
 Jun Yang,  K. Yao,  S. Yeganeh,  S. R. Yost,  Zhi-Qiang You,  A. Zech,  
 Igor Ying Zhang,  Xing Zhang,  Yan Zhao,  Ying Zhu,  B. R. Brooks,  
 G. K. L. Chan,  C. J. Cramer,  M. S. Gordon,  W. J. Hehre,  A. Klamt,  
 M. W. Schmidt,  C. D. Sherrill,  D. G. Truhlar,  A. Aspuru-Guzik,  R. Baer,  
 A. T. Bell,  N. A. Besley,  Jeng-Da Chai,  R. A. DiStasio Jr.,  A. Dreuw,  
 B. D. Dunietz,  T. R. Furlani,  Chao-Ping Hsu,  Yousung Jung,  Jing Kong,  
 D. S. Lambrecht,  WanZhen Liang,  C. Ochsenfeld,  V. A. Rassolov,  
 L. V. Slipchenko,  J. E. Subotnik,  T. Van Voorhis,  J. M. Herbert,  
 A. I. Krylov,  P. M. W. Gill,  M. Head-Gordon

 Contributors to earlier versions of Q-Chem not listed above: 
 R. D. Adamson,  B. Austin,  J. Baker,  G. J. O. Beran,  K. Brandhorst,  
 S. T. Brown,  E. F. C. Byrd,  A. K. Chakraborty,  C.-L. Cheng,  
 Siu Hung Chien,  D. M. Chipman,  D. L. Crittenden,  H. Dachsel,  
 R. J. Doerksen,  A. D. Dutoi,  L. Fusti-Molnar,  W. A. Goddard III,  
 A. Golubeva-Zadorozhnaya,  S. R. Gwaltney,  G. Hawkins,  A. Heyden,  
 S. Hirata,  G. Kedziora,  F. J. Keil,  C. Kelley,  Jihan Kim,  R. A. King,  
 R. Z. Khaliullin,  P. P. Korambath,  W. Kurlancheek,  A. M. Lee,  M. S. Lee,  
 S. V. Levchenko,  Ching Yeh Lin,  D. Liotard,  R. C. Lochan,  I. Lotan,  
 P. E. Maslen,  N. Nair,  D. P. O'Neill,  D. Neuhauser,  E. Neuscamman,  
 C. M. Oana,  R. Olson,  B. Peters,  R. Peverati,  P. A. Pieniazek,  
 Y. M. Rhee,  J. Ritchie,  M. A. Rohrdanz,  E. Rosta,  N. J. Russ,  
 H. F. Schaefer III,  N. E. Schultz,  N. Shenvi,  A. C. Simmonett,  A. Sodt,  
 D. Stuck,  K. S. Thanthiriwatte,  V. Vanovschi,  Tao Wang,  A. Warshel,  
 C. F. Williams,  Q. Wu,  X. Xu,  W. Zhang

 Please cite Q-Chem as follows:
 Y. Shao et al., Mol. Phys. 113, 184-215 (2015)
 DOI: 10.1080/00268976.2014.952696

 Q-Chem 5.0.2 for Intel X86 EM64T Linux

 Parts of Q-Chem use Armadillo 5.200.1 (Boston Tea Smuggler).
 http://arma.sourceforge.net/

 Q-Chem begins on Wed Mar  2 18:03:03 2022  

Host: 
0

     Scratch files written to ./qcts2.d//
 Dec517 15110_ 26548  26544 5633   
Processing $rem in /home/leeping/opt/qchem/5.0.2-openmp/config/preferences.
 MEM_STATIC 2000
 MEM_TOTAL  8000
 SYMMETRY   OFF
 SYM_IGNORE TRUE 

Checking the input file for inconsistencies... 	...done.

--------------------------------------------------------------
User input:
--------------------------------------------------------------
$molecule
0 2
C        0.5858571679   -0.0330371068    0.2406904452
C        0.8271227805   -1.2496449176   -0.6504958050
C        0.7668773048   -2.4996108904   -0.2579918086
C       -1.3099222646    1.2517377402    0.5002193020
C       -0.2844451446    1.9163148678   -0.3185843456
N        0.7874998005    1.2225018772   -0.4991511003
H        1.3309318193   -0.0428711435    1.0521560137
H        1.0675515572   -1.0063435902   -1.6913914663
H        0.8974958539   -3.4791052438   -0.6991635327
H       -2.2788433693    1.6637830810    0.7586592878
H       -0.3876965091    2.9094170082   -0.7543724116
C       -0.7995991612    0.0543137503    0.8374678093
H       -1.2571769802   -0.7321647468    1.4256430232
$end

$rem
method                b3lyp
basis                 6-31+g(d,p)
unrestricted          true
symmetry              off
sym_ignore            true
incdft                false
incfock               0
scf_convergence       6
thresh                14
jobtype               sp
scf_guess             read
scf_algorithm         diis
max_scf_cycles        100
stability_analysis    true
max_cis_cycles        100
cis_n_roots           4
$end

--------------------------------------------------------------
 ----------------------------------------------------------------
             Standard Nuclear Orientation (Angstroms)
    I     Atom           X                Y                Z
 ----------------------------------------------------------------
    1      C       0.5858571679    -0.0330371068     0.2406904452
    2      C       0.8271227805    -1.2496449176    -0.6504958050
    3      C       0.7668773048    -2.4996108904    -0.2579918086
    4      C      -1.3099222646     1.2517377402     0.5002193020
    5      C      -0.2844451446     1.9163148678    -0.3185843456
    6      N       0.7874998005     1.2225018772    -0.4991511003
    7      H       1.3309318193    -0.0428711435     1.0521560137
    8      H       1.0675515572    -1.0063435902    -1.6913914663
    9      H       0.8974958539    -3.4791052438    -0.6991635327
   10      H      -2.2788433693     1.6637830810     0.7586592878
   11      H      -0.3876965091     2.9094170082    -0.7543724116
   12      C      -0.7995991612     0.0543137503     0.8374678093
   13      H      -1.2571769802    -0.7321647468     1.4256430232
 ----------------------------------------------------------------
 Nuclear Repulsion Energy =   258.2317288897 hartrees
 There are       25 alpha and       24 beta electrons
 Requested basis set is 6-31+G(d,p)
 There are 53 shells and 163 basis functions

 Total QAlloc Memory Limit   8000 MB
 Mega-Array Size      1956 MB
 MEM_STATIC part      2000 MB

                       Distance Matrix (Angstroms)
             C (  1)   C (  2)   C (  3)   C (  4)   C (  5)   N (  6)
   C (  2)  1.527271
   C (  3)  2.522982  1.311527
   C (  4)  2.304774  3.485401  4.354377
   C (  5)  2.206850  3.371802  4.539752  1.470954
   N (  6)  1.471191  2.477092  3.729974  2.323526  1.289592
   H (  7)  1.101685  2.146893  2.840812  2.992450  2.885616  2.074377
   H (  8)  2.216370  1.095657  2.091623  3.943916  3.500632  2.543151
   H (  9)  3.585503  2.231102  1.082175  5.356500  5.536459  4.707145
   H ( 10)  3.369570  4.485622  5.257741  1.084150  2.280757  3.343543
   H ( 11)  3.255149  4.334094  5.553109  2.274291  1.089414  2.071692
   C ( 12)  1.511047  2.561361  3.190049  1.344615  2.251419  2.381196
   H ( 13)  2.299928  2.987046  3.171007  2.189763  3.317074  3.421441
             H (  7)   H (  8)   H (  9)   H ( 10)   H ( 11)   C ( 12)
   H (  8)  2.919709
   H (  9)  3.881068  2.669829
   H ( 10)  4.003659  4.932614  6.218012
   H ( 11)  3.864354  4.281230  6.516746  2.723473
   C ( 12)  2.143525  3.317586  4.210275  2.187411  3.294728
   H ( 13)  2.704242  3.898133  4.086943  2.688724  4.332387  1.083456

 
 A cutoff of  1.0D-14 yielded   1359 shell pairs
 There are     13243 function pairs
 Smallest overlap matrix eigenvalue = 1.76E-05

 Scale SEOQF with 1.000000e-01/1.000000e-01/1.000000e-01

 Standard Electronic Orientation quadrupole field applied
 Nucleus-field energy     =     0.0000000075 hartrees
 Guess MOs from SCF MO coefficient file
 Reading MOs from coefficient file
 Reading MOs from coefficient file
 An unrestricted hybrid HF-DFT SCF calculation will be
 performed using Pulay DIIS extrapolation
 Exchange:     0.2000 Hartree-Fock + 0.0800 Slater + 0.7200 B88
 Correlation:  0.1900 VWN1RPA + 0.8100 LYP
 Using SG-1 standard quadrature grid
 SCF converges when DIIS error is below 1.0E-06
Using Q-Chem read-in guess as SCF_GUESS READ specified.

 -------------------------------------------------------
 OpenMP BLAS3 based DFT computing Module                
 -------------------------------------------------------
 ---------------------------------------
  Cycle       Energy         DIIS Error
 ---------------------------------------
    1    -286.8729768978      2.01E-09
    2    -286.8729768980      1.63E-09 Convergence criterion met
 ---------------------------------------
 <S^2> = 0.7605
 SCF time:  CPU 6.48 s  wall 8.64 s
 SCF   energy in the final basis set = -286.87297690
 Total energy in the final basis set = -286.87297690
 
 Direct TDDFT/TDA calculation will be performed
 Exchange:     0.2000 Hartree-Fock + 0.0800 Slater + 0.7200 B88
 Correlation:  0.1900 VWN1RPA + 0.8100 LYP
 Using SG-1 standard quadrature grid
 CIS energy converged when residual is below 10e- 6
 ---------------------------------------------------
 Iter    Rts Conv    Rts Left    Ttl Dev     Max Dev
 ---------------------------------------------------
   1         0           4      0.001584    0.000581
   2         0           4      0.001562    0.000582
   3         0           4      0.001099    0.000588
   4         0           4      0.000725    0.000347
   5         0           4      0.000306    0.000172
   6         0           4      0.000174    0.000114
   7         1           3      0.000056    0.000042
   8         1           3      0.000013    0.000010
   9         3           1      0.000003    0.000002
  10         4           0      0.000001    0.000000    Roots Converged
 ---------------------------------------------------
 
 ---------------------------------------------------
         TDDFT/TDA Excitation Energies              
 ---------------------------------------------------

 Excited state   1: excitation energy (eV) =    2.8414
 Total energy for state  1:                  -286.76855595 au
    <S**2>     :  0.7696
    Trans. Mom.: -0.1229 X  -0.0230 Y  -0.0292 Z
    Strength   :     0.0011477330
    D( 22) --> S(  1) amplitude =  0.4194 beta
    D( 23) --> S(  1) amplitude =  0.5396 beta
    D( 24) --> S(  1) amplitude =  0.7049 beta

 Excited state   2: excitation energy (eV) =    3.3832
 Total energy for state  2:                  -286.74864835 au
    <S**2>     :  2.6780
    Trans. Mom.:  0.0092 X   0.0000 Y   0.0040 Z
    Strength   :     0.0000082825
    D( 24) --> V(  1) amplitude = -0.6183 alpha
    S(  1) --> V(  1) amplitude =  0.1987 alpha
    D( 23) --> S(  1) amplitude = -0.1578 beta
    D( 23) --> V(  1) amplitude = -0.2768 beta
    D( 24) --> V(  1) amplitude =  0.5991 beta

 Excited state   3: excitation energy (eV) =    3.9478
 Total energy for state  3:                  -286.72789957 au
    <S**2>     :  0.8778
    Trans. Mom.:  0.0563 X  -0.0773 Y   0.0211 Z
    Strength   :     0.0009273023
    D( 22) --> S(  1) amplitude = -0.3324 beta
    D( 23) --> S(  1) amplitude = -0.5993 beta
    D( 24) --> S(  1) amplitude =  0.6835 beta
    D( 24) --> V(  1) amplitude = -0.1674 beta

 Excited state   4: excitation energy (eV) =    4.0817
 Total energy for state  4:                  -286.72297859 au
    <S**2>     :  2.2523
    Trans. Mom.: -0.0020 X   0.0061 Y  -0.0137 Z
    Strength   :     0.0000228922
    D( 23) --> V(  1) amplitude =  0.5255 alpha
    S(  1) --> V(  1) amplitude =  0.2000 alpha
    D( 22) --> S(  1) amplitude =  0.4449 beta
    D( 22) --> V(  1) amplitude =  0.4434 beta
    D( 23) --> S(  1) amplitude = -0.2332 beta
    D( 23) --> V(  1) amplitude = -0.3797 beta
 
 ---------------------------------------------------

 Stability analysis will be performed
 ---------------------------------------------------
 Iter    Rts Conv    Rts Left    Ttl Dev     Max Dev
 ---------------------------------------------------
   1         0           8      0.003444    0.000660
   2         0           8      0.001029    0.000197
   3         0           8      0.000567    0.000163
   4         1           7      0.000330    0.000101
   5         2           6      0.001554    0.001327
   6         2           6      0.000661    0.000568
   7         4           4      0.000201    0.000160
   8         6           2      0.000065    0.000050
   9         6           2      0.000019    0.000014
  10         7           1      0.000006    0.000003
  11         8           0      0.000003    0.000001    Roots Converged
 UKS-> UKS   stable,    smallest eigenvalue:      0.0751453
 UKS->CUKS   stable,    smallest eigenvalue:      0.1095713
 ---------------------------------------------------
  SETman timing summary (seconds)
  CPU time               190.30s
  System time              0.00s
  Wall time              201.13s
 
 --------------------------------------------------------------
 
                    Orbital Energies (a.u.)
 --------------------------------------------------------------
 
 Alpha MOs
 -- Occupied --
-14.336 -10.239 -10.236 -10.222 -10.215 -10.214 -10.208  -0.957
 -0.803  -0.778  -0.715  -0.601  -0.567  -0.553  -0.518  -0.480
 -0.453  -0.415  -0.408  -0.386  -0.340  -0.286  -0.279  -0.264
 -0.247
 -- Virtual --
 -0.054  -0.013   0.010   0.020   0.028   0.037   0.044   0.045
  0.049   0.063   0.069   0.077   0.090   0.098   0.106   0.112
  0.125   0.130   0.138   0.145   0.154   0.162   0.170   0.181
  0.191   0.200   0.211   0.214   0.216   0.227   0.241   0.251
  0.257   0.268   0.270   0.289   0.304   0.311   0.342   0.380
  0.394   0.421   0.424   0.504   0.624   0.647   0.660   0.667
  0.683   0.709   0.718   0.727   0.733   0.759   0.764   0.777
  0.795   0.823   0.863   0.879   0.904   0.917   0.943   0.959
  0.998   1.022   1.041   1.054   1.060   1.092   1.121   1.165
  1.183   1.209   1.212   1.322   1.356   1.369   1.387   1.444
  1.470   1.527   1.566   1.600   1.613   1.735   1.747   1.811
  1.816   1.863   1.880   1.956   1.979   1.990   2.003   2.018
  2.037   2.060   2.128   2.213   2.228   2.269   2.352   2.382
  2.397   2.400   2.436   2.454   2.468   2.503   2.515   2.557
  2.576   2.626   2.647   2.685   2.715   2.739   2.777   2.810
  2.839   2.869   2.940   3.018   3.191   3.239   3.294   3.395
  3.433   3.604   3.728   4.142   4.295   4.371   4.387   4.491
  4.640   4.731
 
 Beta MOs
 -- Occupied --
-14.336 -10.238 -10.236 -10.217 -10.214 -10.208 -10.207  -0.957
 -0.794  -0.776  -0.705  -0.593  -0.566  -0.543  -0.516  -0.471
 -0.444  -0.413  -0.405  -0.384  -0.337  -0.281  -0.277  -0.261
 -- Virtual --
 -0.094  -0.053  -0.005   0.011   0.022   0.029   0.038   0.044
  0.045   0.050   0.063   0.072   0.077   0.092   0.103   0.107
  0.114   0.126   0.130   0.140   0.147   0.157   0.163   0.170
  0.182   0.192   0.203   0.211   0.217   0.217   0.230   0.242
  0.253   0.258   0.269   0.272   0.289   0.306   0.313   0.347
  0.383   0.399   0.422   0.438   0.504   0.636   0.653   0.663
  0.676   0.687   0.712   0.719   0.732   0.748   0.761   0.773
  0.780   0.802   0.825   0.864   0.882   0.905   0.925   0.948
  0.963   1.002   1.028   1.043   1.058   1.072   1.092   1.122
  1.170   1.189   1.209   1.215   1.323   1.357   1.373   1.391
  1.446   1.473   1.538   1.570   1.613   1.643   1.748   1.777
  1.813   1.829   1.865   1.883   1.966   1.985   1.991   2.006
  2.022   2.051   2.065   2.130   2.216   2.229   2.275   2.352
  2.388   2.402   2.410   2.437   2.458   2.470   2.504   2.516
  2.560   2.579   2.635   2.655   2.695   2.716   2.745   2.778
  2.818   2.841   2.871   2.941   3.028   3.191   3.239   3.307
  3.395   3.434   3.621   3.729   4.143   4.304   4.372   4.395
  4.507   4.641   4.731
 --------------------------------------------------------------
 
          Ground-State Mulliken Net Atomic Charges

     Atom                 Charge (a.u.)    Spin (a.u.)
  --------------------------------------------------------
      1 C                    -0.092507       0.083761
      2 C                    -0.008655      -0.312551
      3 C                    -0.327538       1.169693
      4 C                    -0.048658      -0.000812
      5 C                    -0.093374      -0.002588
      6 N                    -0.205440      -0.003546
      7 H                     0.190687      -0.004643
      8 H                     0.169503       0.080902
      9 H                     0.154149       0.007204
     10 H                     0.135283      -0.000149
     11 H                     0.131656       0.000492
     12 C                    -0.151921      -0.017565
     13 H                     0.146814      -0.000197
  --------------------------------------------------------
  Sum of atomic charges =     0.000000
  Sum of spin   charges =     1.000000

 -----------------------------------------------------------------
                    Cartesian Multipole Moments
 -----------------------------------------------------------------
    Charge (ESU x 10^10)
                 0.0000
    Dipole Moment (Debye)
         X      -1.6167      Y      -0.4524      Z       0.6115
       Tot       1.7867
    Quadrupole Moments (Debye-Ang)
        XX     -43.1414     XY      -4.5389     YY     -38.0633
        XZ      -0.0948     YZ       1.7758     ZZ     -41.6173
    Octopole Moments (Debye-Ang^2)
       XXX     -18.6334    XXY      -1.5010    XYY      -8.5282
       YYY      -9.6637    XXZ       6.1744    XYZ       5.1237
       YYZ      -6.7373    XZZ      -2.6528    YZZ      -6.2030
       ZZZ       1.1190
    Hexadecapole Moments (Debye-Ang^3)
      XXXX    -250.2390   XXXY      76.9978   XXYY    -149.5994
      XYYY      55.0359   YYYY    -540.6392   XXXZ      43.9413
      XXYZ       0.0100   XYYZ       9.9335   YYYZ      -3.5216
      XXZZ     -62.8914   XYZZ      25.9685   YYZZ    -128.4564
      XZZZ      44.7591   YZZZ     -17.1096   ZZZZ    -143.6122
 -----------------------------------------------------------------
Archival summary:
1\1\c8-73\SP\ProcedureUnspecified\6-31+G**\166(2)\hpark21\WedMar218:06:342022WedMar218:06:342022\0\\#,ProcedureUnspecified,6-31+G**,\\0,2\N\C,1,1.28959\H,2,1.08941,1,120.878\C,2,1.47095,1,114.479,3,179.866,0\H,4,1.08415,2,125.735,1,-179.496,0\C,4,1.34462,2,106.103,1,0.0535032,0\H,6,1.08346,4,128.485,2,-179.111,0\C,1,1.47119,2,105.95,3,179.074,0\H,8,1.10168,1,106.579,2,-114.724,0\C,8,1.52727,1,111.391,2,127.206,0\H,10,1.09566,8,114.338,1,-2.34682,0\C,10,1.31153,8,125.262,1,177.568,0\H,12,1.08218,10,137.314,8,-179.889,0\\\@

 Total job time:  211.90s(wall), 196.99s(cpu) 
 Wed Mar  2 18:06:34 2022

        *************************************************************
        *                                                           *
        *  Thank you very much for using Q-Chem.  Have a nice day.  *
        *                                                           *
        *************************************************************


