
Running Job 1 of 1 qcts1.in
qchem qcts1.in_14738.0 ./qcts1.d/ 1
/home/leeping/opt/qchem/5.0.2-openmp/exe/qcprog.exe_s qcts1.in_14738.0 ./qcts1.d/
Check license passed

                  Welcome to Q-Chem
     A Quantum Leap Into The Future Of Chemistry


 Q-Chem 5.0, Q-Chem, Inc., Pleasanton, CA (2017)

 Yihan Shao,  Zhengting Gan,  E. Epifanovsky,  A. T. B. Gilbert,  M. Wormit,  
 J. Kussmann,  A. W. Lange,  A. Behn,  Jia Deng,  Xintian Feng,  D. Ghosh,  
 M. Goldey,  P. R. Horn,  L. D. Jacobson,  I. Kaliman,  T. Kus,  A. Landau,  
 Jie Liu,  E. I. Proynov,  R. M. Richard,  R. P. Steele,  E. J. Sundstrom,  
 H. L. Woodcock III,  P. M. Zimmerman,  D. Zuev,  B. Albrecht,  E. Alguire,  
 S. A. Baeppler,  D. Barton,  Z. Benda,  Y. A. Bernard,  E. J. Berquist,  
 K. B. Bravaya,  H. Burton,  D. Casanova,  Chun-Min Chang,  Yunqing Chen,  
 A. Chien,  K. D. Closser,  M. P. Coons,  S. Dasgupta,  A. L. Dempwolff,  
 M. Diedenhofen,  Hainam Do,  R. G. Edgar,  Po-Tung Fang,  S. Fatehi,  
 Qingguo Feng,  J. Fosso-Tande,  Qinghui Ge,  A. Ghysels,  G. Gidofalvi,  
 J. Gomes,  J. Gonthier,  A. Gunina,  M. W. D. Hanson-Heine,  
 P. H. P. Harbach,  A. W. Hauser,  J. E. Herr,  E. G. Hohenstein,  
 Z. C. Holden,  Kerwin Hui,  T.-C. Jagau,  Hyunjun Ji,  B. Kaduk,  
 K. Khistyaev,  Jaehoon Kim,  P. Klunzinger,  K. Koh,  D. Kosenkov,  
 L. Koulias,  T. Kowalczyk,  C. M. Krauter,  A. Kunitsa,  Ka Un Lao,  
 A. Laurent,  K. V. Lawler,  Joonho Lee,  D. Lefrancois,  S. Lehtola,  
 D. S. Levine,  Yi-Pei Li,  You-Sheng Lin,  Fenglai Liu,  E. Livshits,  
 A. Luenser,  P. Manohar,  E. Mansoor,  S. F. Manzer,  Shan-Ping Mao,  
 Yuezhi Mao,  N. Mardirossian,  A. V. Marenich,  T. Markovich,  
 L. A. Martinez-Martinez,  S. A. Maurer,  N. J. Mayhall,  S. C. McKenzie,  
 J.-M. Mewes,  A. F. Morrison,  J. W. Mullinax,  K. Nanda,  
 T. S. Nguyen-Beck,  R. Olivares-Amaya,  J. A. Parkhill,  T. M. Perrine,  
 F. Plasser,  S. Prager,  A. Prociuk,  E. Ramos,  D. R. Rehn,  F. Rob,  
 M. Schneider,  N. Sergueev,  S. M. Sharada,  S. Sharma,  D. W. Small,  
 T. Stauch,  T. Stein,  Yu-Chuan Su,  A. J. W. Thom,  A. Tkatchenko,  
 T. Tsuchimochi,  L. Vogt,  O. Vydrov,  M. A. Watson,  J. Wenzel,  
 M. de Wergifosse,  T. A. Wesolowski,  A. White,  J. Witte,  A. Yamada,  
 Jun Yang,  K. Yao,  S. Yeganeh,  S. R. Yost,  Zhi-Qiang You,  A. Zech,  
 Igor Ying Zhang,  Xing Zhang,  Yan Zhao,  Ying Zhu,  B. R. Brooks,  
 G. K. L. Chan,  C. J. Cramer,  M. S. Gordon,  W. J. Hehre,  A. Klamt,  
 M. W. Schmidt,  C. D. Sherrill,  D. G. Truhlar,  A. Aspuru-Guzik,  R. Baer,  
 A. T. Bell,  N. A. Besley,  Jeng-Da Chai,  R. A. DiStasio Jr.,  A. Dreuw,  
 B. D. Dunietz,  T. R. Furlani,  Chao-Ping Hsu,  Yousung Jung,  Jing Kong,  
 D. S. Lambrecht,  WanZhen Liang,  C. Ochsenfeld,  V. A. Rassolov,  
 L. V. Slipchenko,  J. E. Subotnik,  T. Van Voorhis,  J. M. Herbert,  
 A. I. Krylov,  P. M. W. Gill,  M. Head-Gordon

 Contributors to earlier versions of Q-Chem not listed above: 
 R. D. Adamson,  B. Austin,  J. Baker,  G. J. O. Beran,  K. Brandhorst,  
 S. T. Brown,  E. F. C. Byrd,  A. K. Chakraborty,  C.-L. Cheng,  
 Siu Hung Chien,  D. M. Chipman,  D. L. Crittenden,  H. Dachsel,  
 R. J. Doerksen,  A. D. Dutoi,  L. Fusti-Molnar,  W. A. Goddard III,  
 A. Golubeva-Zadorozhnaya,  S. R. Gwaltney,  G. Hawkins,  A. Heyden,  
 S. Hirata,  G. Kedziora,  F. J. Keil,  C. Kelley,  Jihan Kim,  R. A. King,  
 R. Z. Khaliullin,  P. P. Korambath,  W. Kurlancheek,  A. M. Lee,  M. S. Lee,  
 S. V. Levchenko,  Ching Yeh Lin,  D. Liotard,  R. C. Lochan,  I. Lotan,  
 P. E. Maslen,  N. Nair,  D. P. O'Neill,  D. Neuhauser,  E. Neuscamman,  
 C. M. Oana,  R. Olson,  B. Peters,  R. Peverati,  P. A. Pieniazek,  
 Y. M. Rhee,  J. Ritchie,  M. A. Rohrdanz,  E. Rosta,  N. J. Russ,  
 H. F. Schaefer III,  N. E. Schultz,  N. Shenvi,  A. C. Simmonett,  A. Sodt,  
 D. Stuck,  K. S. Thanthiriwatte,  V. Vanovschi,  Tao Wang,  A. Warshel,  
 C. F. Williams,  Q. Wu,  X. Xu,  W. Zhang

 Please cite Q-Chem as follows:
 Y. Shao et al., Mol. Phys. 113, 184-215 (2015)
 DOI: 10.1080/00268976.2014.952696

 Q-Chem 5.0.2 for Intel X86 EM64T Linux

 Parts of Q-Chem use Armadillo 5.200.1 (Boston Tea Smuggler).
 http://arma.sourceforge.net/

 Q-Chem begins on Wed Mar  2 17:40:10 2022  

Host: 
0

     Scratch files written to ./qcts1.d//
 Dec517 15110_ 26548  26544 5633   
Processing $rem in /home/leeping/opt/qchem/5.0.2-openmp/config/preferences.
 MEM_STATIC 2000
 MEM_TOTAL  8000
 SYMMETRY   OFF
 SYM_IGNORE TRUE 

Checking the input file for inconsistencies... 	...done.

--------------------------------------------------------------
User input:
--------------------------------------------------------------
$molecule
0 2
C        0.9327496154    0.1509550163    0.3465291766
C        1.0644469533   -1.1312007005   -0.4808630164
C       -0.0170161168   -1.8760574933   -0.5483727795
C       -1.3089864745    0.8903444688    0.3793148352
C       -0.4340963717    1.7272872441   -0.4210101310
N        0.8000649916    1.3722995682   -0.4503065900
H        1.8626320430    0.2877496458    0.9326189468
H        2.0159680678   -1.3982731507   -0.9467818467
H       -0.3249545460   -2.8041374809   -1.0187684640
H       -2.3946049199    0.9555296561    0.3880385520
H       -0.7750245053    2.6431793825   -0.9081502615
C       -0.5397235176   -0.0597518050    0.9828695796
H       -0.9358023642   -0.7826336659    1.6885674101
$end

$rem
method                b3lyp
basis                 6-31g(d)
unrestricted          true
symmetry              off
sym_ignore            true
incdft                false
incfock               0
scf_convergence       8
thresh                14
jobtype               sp
scf_guess             core
scf_guess_mix         5
scf_algorithm         diis
max_scf_cycles        100
$end

--------------------------------------------------------------
 ----------------------------------------------------------------
             Standard Nuclear Orientation (Angstroms)
    I     Atom           X                Y                Z
 ----------------------------------------------------------------
    1      C       0.9327496154     0.1509550163     0.3465291766
    2      C       1.0644469533    -1.1312007005    -0.4808630164
    3      C      -0.0170161168    -1.8760574933    -0.5483727795
    4      C      -1.3089864745     0.8903444688     0.3793148352
    5      C      -0.4340963717     1.7272872441    -0.4210101310
    6      N       0.8000649916     1.3722995682    -0.4503065900
    7      H       1.8626320430     0.2877496458     0.9326189468
    8      H       2.0159680678    -1.3982731507    -0.9467818467
    9      H      -0.3249545460    -2.8041374809    -1.0187684640
   10      H      -2.3946049199     0.9555296561     0.3880385520
   11      H      -0.7750245053     2.6431793825    -0.9081502615
   12      C      -0.5397235176    -0.0597518050     0.9828695796
   13      H      -0.9358023642    -0.7826336659     1.6885674101
 ----------------------------------------------------------------
 Nuclear Repulsion Energy =   263.5592546053 hartrees
 There are       25 alpha and       24 beta electrons
 Requested basis set is 6-31G(d)
 There are 40 shells and 117 basis functions

 Total QAlloc Memory Limit   8000 MB
 Mega-Array Size      1956 MB
 MEM_STATIC part      2000 MB

                       Distance Matrix (Angstroms)
             C (  1)   C (  2)   C (  3)   C (  4)   C (  5)   N (  6)
   C (  2)  1.531615
   C (  3)  2.410743  1.314888
   C (  4)  2.360752  3.234152  3.191046
   C (  5)  2.223108  3.228028  3.629638  1.451353
   N (  6)  1.464321  2.517607  3.350979  2.317035  1.284534
   H (  7)  1.107653  2.156027  3.226217  3.275428  3.029776  2.053724
   H (  8)  2.290442  1.092612  2.126037  4.248720  4.006043  3.066102
   H (  9)  3.489761  2.240200  1.085095  4.070891  4.571984  4.362504
   H ( 10)  3.423500  4.132127  3.814142  1.087609  2.256937  3.329029
   H ( 11)  3.271375  4.220447  4.596468  2.239445  1.091969  2.075009
   C ( 12)  1.617870  2.421545  2.432466  1.363351  2.274982  2.428950
   H ( 13)  2.482769  2.971351  2.653987  2.156911  3.316885  3.497393
             H (  7)   H (  8)   H (  9)   H ( 10)   H ( 11)   C ( 12)
   H (  8)  2.529492
   H (  9)  4.260659  2.731585
   H ( 10)  4.343566  5.174484  4.516376
   H ( 11)  3.986692  4.911667  5.466997  2.674193
   C ( 12)  2.427879  3.470843  3.403577  2.196635  3.307138
   H ( 13)  3.090051  4.004626  3.433552  2.615472  4.301742  1.085102

 
 A cutoff of  1.0D-14 yielded    799 shell pairs
 There are      7071 function pairs
 
 -------------------------------------------------------
 OpenMP Integral Computing Module                       
 Release: version 1.0, May 2013, Q-Chem Inc. Pittsburgh 
 -------------------------------------------------------
 Integral Job Info:
 Integral job number is                      11
 Integral operator is                         1
 short-range coefficients                     0
 long-range coefficients              100000000
 Omega coefficients                           0
 if combine SR and LR in K                    0
 Integral screening is                        0
 Integral computing path is                   2
 max size of driver memory is            800000
 size of driver memory is                593474
 size of scratch memory is              2361544
 max col of scratch BK array               1296
 max len of scratch array in speh3          155
 max len of scratch index in speh4           18
 max int batch size is                      520
 min int batch size is                       52
 fixed nKL is                                52
 max L of basis functions is                  2
 order of int derivative is                   0
 number of shells is                         40
 number of basis is                         117
 number of cartesian basis is               117
 number of contracted shell pairs           799
 number of primitive shell pairs           3442
 maxK2 (contraction) of shell pair           36
 max number of K2 of shell pair               1
 max number of CS2 of shell pair             89
 max number of PS2 of shell pair            402
 mem total for path MDJ                  534060
 -------------------------------------------------------
 Smallest overlap matrix eigenvalue = 1.50E-03

 Scale SEOQF with 1.000000e-01/1.000000e-01/1.000000e-01

 Standard Electronic Orientation quadrupole field applied
 Nucleus-field energy     =     0.0000000054 hartrees
 Guess MOs from core Hamiltonian diagonalization
 Mixing HOMO and LUMO in initial guess
 Adding  50% of the LUMO to the HOMO
 An unrestricted hybrid HF-DFT SCF calculation will be
 performed using Pulay DIIS extrapolation
 Exchange:     0.2000 Hartree-Fock + 0.0800 Slater + 0.7200 B88
 Correlation:  0.1900 VWN1RPA + 0.8100 LYP
 Using SG-1 standard quadrature grid
 SCF converges when DIIS error is below 1.0E-08
 using 4 threads for integral computing
 -------------------------------------------------------
 OpenMP Integral computing Module                
 Release: version 1.0, May 2013, Q-Chem Inc. Pittsburgh 
 -------------------------------------------------------
 -------------------------------------------------------
 OpenMP BLAS3 based DFT computing Module                
 Release: version 1.0, May 2013, Q-Chem Inc. Pittsburgh 
 -------------------------------------------------------
 ---------------------------------------
  Cycle       Energy         DIIS Error
 ---------------------------------------
    1    -229.6465877461      1.37E-01
    2    -195.1274737243      1.19E-01
    3    -248.6356603038      9.33E-02
    4    -254.0750638861      1.09E-01
    5    -284.4311445014      2.66E-02
    6    -285.0175329198      2.71E-02
    7    -286.2616667502      1.68E-02
    8    -286.8034097348      3.25E-03
    9    -286.8160586130      2.16E-03
   10    -286.8244726715      1.14E-03
   11    -286.8261728664      8.24E-04
   12    -286.8275902400      4.05E-04
   13    -286.8279209371      9.76E-05
   14    -286.8279505728      3.04E-05
   15    -286.8279548946      1.02E-05
   16    -286.8279562981      3.51E-06
   17    -286.8279566674      1.40E-06
   18    -286.8279568997      3.65E-07
   19    -286.8279570342      1.87E-07
   20    -286.8279571028      8.79E-08
   21    -286.8279571109      4.40E-08
   22    -286.8279571122      1.72E-08
   23    -286.8279571124      6.79E-09 Convergence criterion met
 ---------------------------------------
 <S^2> = 0.7689
 SCF time:  CPU 57.06 s  wall 18.37 s
 SCF   energy in the final basis set = -286.82795711
 Total energy in the final basis set = -286.82795711
 
 --------------------------------------------------------------
 
                    Orbital Energies (a.u.)
 --------------------------------------------------------------
 
 Alpha MOs
 -- Occupied --
-14.321 -10.235 -10.222 -10.212 -10.205 -10.200 -10.195  -0.941
 -0.793  -0.760  -0.692  -0.599  -0.551  -0.529  -0.512  -0.475
 -0.426  -0.413  -0.395  -0.359  -0.325  -0.282  -0.270  -0.257
 -0.207
 -- Virtual --
 -0.037   0.014   0.071   0.118   0.125   0.134   0.156   0.161
  0.168   0.193   0.232   0.276   0.294   0.346   0.396   0.435
  0.493   0.503   0.531   0.548   0.560   0.580   0.605   0.614
  0.623   0.647   0.667   0.685   0.688   0.725   0.736   0.796
  0.807   0.835   0.854   0.855   0.875   0.886   0.905   0.922
  0.922   0.994   1.055   1.056   1.127   1.208   1.254   1.319
  1.399   1.440   1.463   1.481   1.514   1.553   1.579   1.626
  1.686   1.752   1.800   1.843   1.902   1.918   1.946   1.974
  2.013   2.050   2.110   2.185   2.211   2.259   2.284   2.310
  2.337   2.414   2.515   2.550   2.575   2.590   2.647   2.712
  2.728   2.793   2.858   2.968   2.990   3.933   4.053   4.150
  4.225   4.308   4.423   4.581
 
 Beta MOs
 -- Occupied --
-14.319 -10.234 -10.223 -10.213 -10.202 -10.193 -10.190  -0.939
 -0.784  -0.757  -0.683  -0.592  -0.547  -0.521  -0.509  -0.466
 -0.418  -0.411  -0.394  -0.356  -0.319  -0.273  -0.255  -0.249
 -- Virtual --
 -0.073  -0.030   0.027   0.077   0.120   0.127   0.139   0.159
  0.164   0.170   0.195   0.232   0.279   0.298   0.348   0.414
  0.437   0.498   0.518   0.534   0.548   0.575   0.584   0.609
  0.619   0.627   0.648   0.672   0.689   0.693   0.734   0.745
  0.800   0.808   0.836   0.856   0.858   0.879   0.897   0.908
  0.928   0.929   0.999   1.059   1.064   1.130   1.210   1.257
  1.327   1.402   1.444   1.471   1.484   1.518   1.559   1.585
  1.628   1.723   1.758   1.824   1.852   1.915   1.928   1.956
  1.991   2.020   2.052   2.116   2.195   2.216   2.264   2.284
  2.313   2.339   2.421   2.517   2.553   2.578   2.593   2.652
  2.718   2.730   2.805   2.872   2.968   2.991   3.935   4.066
  4.167   4.225   4.312   4.425   4.581
 --------------------------------------------------------------
 
          Ground-State Mulliken Net Atomic Charges

     Atom                 Charge (a.u.)    Spin (a.u.)
  --------------------------------------------------------
      1 C                    -0.059952       0.045071
      2 C                    -0.108421      -0.156965
      3 C                    -0.174544       0.960189
      4 C                    -0.122987       0.144215
      5 C                     0.063859      -0.044832
      6 N                    -0.361203       0.074437
      7 H                     0.162650       0.001604
      8 H                     0.153510       0.061020
      9 H                     0.154336       0.012716
     10 H                     0.143032      -0.006724
     11 H                     0.141689       0.001363
     12 C                    -0.151689      -0.100305
     13 H                     0.159718       0.008212
  --------------------------------------------------------
  Sum of atomic charges =    -0.000000
  Sum of spin   charges =     1.000000

 -----------------------------------------------------------------
                    Cartesian Multipole Moments
 -----------------------------------------------------------------
    Charge (ESU x 10^10)
                 0.0000
    Dipole Moment (Debye)
         X      -1.1924      Y      -1.1605      Z       0.7219
       Tot       1.8137
    Quadrupole Moments (Debye-Ang)
        XX     -38.0733     XY      -3.7499     YY     -39.4717
        XZ       0.9349     YZ       1.0271     ZZ     -41.1816
    Octopole Moments (Debye-Ang^2)
       XXX      -8.1618    XXY      -6.9485    XYY     -11.3785
       YYY     -18.8008    XXZ       3.2472    XYZ       4.9259
       YYZ      -4.8869    XZZ      -3.5744    YZZ      -8.1943
       ZZZ       5.1932
    Hexadecapole Moments (Debye-Ang^3)
      XXXX    -231.5628   XXXY      23.7939   XXYY    -119.9582
      XYYY      28.6697   YYYY    -417.8872   XXXZ      24.5173
      XXYZ       0.9361   XYYZ      14.3086   YYYZ      -2.5178
      XXZZ     -63.7149   XYZZ      12.6679   YYZZ     -93.3388
      XZZZ      25.7763   YZZZ     -13.6702   ZZZZ    -138.8778
 -----------------------------------------------------------------
Archival summary:
1\1\c8-73\SP\ProcedureUnspecified\6-31G*\166(2)\hpark21\WedMar217:40:312022WedMar217:40:312022\0\\#,ProcedureUnspecified,6-31G*,\\0,2\N\C,1,1.28453\H,2,1.09197,1,121.439\C,2,1.45135,1,115.619,3,-175.551,0\H,4,1.08761,2,124.86,1,-169.996,0\C,4,1.36335,2,107.81,1,3.52612,0\H,6,1.0851,4,123.107,2,176.213,0\C,1,1.46432,2,107.767,3,177.105,0\H,8,1.10765,1,105.129,2,-137.775,0\C,8,1.53162,1,114.334,2,103.363,0\H,10,1.09261,8,120.655,1,78.2702,0\C,10,1.31489,8,115.546,1,-103.53,0\H,12,1.08509,10,137.746,8,179.013,0\\\@

 Total job time:  21.32s(wall), 59.04s(cpu) 
 Wed Mar  2 17:40:31 2022

        *************************************************************
        *                                                           *
        *  Thank you very much for using Q-Chem.  Have a nice day.  *
        *                                                           *
        *************************************************************


