
Running Job 1 of 1 optimize.in
qchem optimize.in_5617.0 ./optimize.d/ 1
/home/leeping/opt/qchem/5.0.2-openmp/exe/qcprog.exe_s optimize.in_5617.0 ./optimize.d/
Check license passed

                  Welcome to Q-Chem
     A Quantum Leap Into The Future Of Chemistry


 Q-Chem 5.0, Q-Chem, Inc., Pleasanton, CA (2017)

 Yihan Shao,  Zhengting Gan,  E. Epifanovsky,  A. T. B. Gilbert,  M. Wormit,  
 J. Kussmann,  A. W. Lange,  A. Behn,  Jia Deng,  Xintian Feng,  D. Ghosh,  
 M. Goldey,  P. R. Horn,  L. D. Jacobson,  I. Kaliman,  T. Kus,  A. Landau,  
 Jie Liu,  E. I. Proynov,  R. M. Richard,  R. P. Steele,  E. J. Sundstrom,  
 H. L. Woodcock III,  P. M. Zimmerman,  D. Zuev,  B. Albrecht,  E. Alguire,  
 S. A. Baeppler,  D. Barton,  Z. Benda,  Y. A. Bernard,  E. J. Berquist,  
 K. B. Bravaya,  H. Burton,  D. Casanova,  Chun-Min Chang,  Yunqing Chen,  
 A. Chien,  K. D. Closser,  M. P. Coons,  S. Dasgupta,  A. L. Dempwolff,  
 M. Diedenhofen,  Hainam Do,  R. G. Edgar,  Po-Tung Fang,  S. Fatehi,  
 Qingguo Feng,  J. Fosso-Tande,  Qinghui Ge,  A. Ghysels,  G. Gidofalvi,  
 J. Gomes,  J. Gonthier,  A. Gunina,  M. W. D. Hanson-Heine,  
 P. H. P. Harbach,  A. W. Hauser,  J. E. Herr,  E. G. Hohenstein,  
 Z. C. Holden,  Kerwin Hui,  T.-C. Jagau,  Hyunjun Ji,  B. Kaduk,  
 K. Khistyaev,  Jaehoon Kim,  P. Klunzinger,  K. Koh,  D. Kosenkov,  
 L. Koulias,  T. Kowalczyk,  C. M. Krauter,  A. Kunitsa,  Ka Un Lao,  
 A. Laurent,  K. V. Lawler,  Joonho Lee,  D. Lefrancois,  S. Lehtola,  
 D. S. Levine,  Yi-Pei Li,  You-Sheng Lin,  Fenglai Liu,  E. Livshits,  
 A. Luenser,  P. Manohar,  E. Mansoor,  S. F. Manzer,  Shan-Ping Mao,  
 Yuezhi Mao,  N. Mardirossian,  A. V. Marenich,  T. Markovich,  
 L. A. Martinez-Martinez,  S. A. Maurer,  N. J. Mayhall,  S. C. McKenzie,  
 J.-M. Mewes,  A. F. Morrison,  J. W. Mullinax,  K. Nanda,  
 T. S. Nguyen-Beck,  R. Olivares-Amaya,  J. A. Parkhill,  T. M. Perrine,  
 F. Plasser,  S. Prager,  A. Prociuk,  E. Ramos,  D. R. Rehn,  F. Rob,  
 M. Schneider,  N. Sergueev,  S. M. Sharada,  S. Sharma,  D. W. Small,  
 T. Stauch,  T. Stein,  Yu-Chuan Su,  A. J. W. Thom,  A. Tkatchenko,  
 T. Tsuchimochi,  L. Vogt,  O. Vydrov,  M. A. Watson,  J. Wenzel,  
 M. de Wergifosse,  T. A. Wesolowski,  A. White,  J. Witte,  A. Yamada,  
 Jun Yang,  K. Yao,  S. Yeganeh,  S. R. Yost,  Zhi-Qiang You,  A. Zech,  
 Igor Ying Zhang,  Xing Zhang,  Yan Zhao,  Ying Zhu,  B. R. Brooks,  
 G. K. L. Chan,  C. J. Cramer,  M. S. Gordon,  W. J. Hehre,  A. Klamt,  
 M. W. Schmidt,  C. D. Sherrill,  D. G. Truhlar,  A. Aspuru-Guzik,  R. Baer,  
 A. T. Bell,  N. A. Besley,  Jeng-Da Chai,  R. A. DiStasio Jr.,  A. Dreuw,  
 B. D. Dunietz,  T. R. Furlani,  Chao-Ping Hsu,  Yousung Jung,  Jing Kong,  
 D. S. Lambrecht,  WanZhen Liang,  C. Ochsenfeld,  V. A. Rassolov,  
 L. V. Slipchenko,  J. E. Subotnik,  T. Van Voorhis,  J. M. Herbert,  
 A. I. Krylov,  P. M. W. Gill,  M. Head-Gordon

 Contributors to earlier versions of Q-Chem not listed above: 
 R. D. Adamson,  B. Austin,  J. Baker,  G. J. O. Beran,  K. Brandhorst,  
 S. T. Brown,  E. F. C. Byrd,  A. K. Chakraborty,  C.-L. Cheng,  
 Siu Hung Chien,  D. M. Chipman,  D. L. Crittenden,  H. Dachsel,  
 R. J. Doerksen,  A. D. Dutoi,  L. Fusti-Molnar,  W. A. Goddard III,  
 A. Golubeva-Zadorozhnaya,  S. R. Gwaltney,  G. Hawkins,  A. Heyden,  
 S. Hirata,  G. Kedziora,  F. J. Keil,  C. Kelley,  Jihan Kim,  R. A. King,  
 R. Z. Khaliullin,  P. P. Korambath,  W. Kurlancheek,  A. M. Lee,  M. S. Lee,  
 S. V. Levchenko,  Ching Yeh Lin,  D. Liotard,  R. C. Lochan,  I. Lotan,  
 P. E. Maslen,  N. Nair,  D. P. O'Neill,  D. Neuhauser,  E. Neuscamman,  
 C. M. Oana,  R. Olson,  B. Peters,  R. Peverati,  P. A. Pieniazek,  
 Y. M. Rhee,  J. Ritchie,  M. A. Rohrdanz,  E. Rosta,  N. J. Russ,  
 H. F. Schaefer III,  N. E. Schultz,  N. Shenvi,  A. C. Simmonett,  A. Sodt,  
 D. Stuck,  K. S. Thanthiriwatte,  V. Vanovschi,  Tao Wang,  A. Warshel,  
 C. F. Williams,  Q. Wu,  X. Xu,  W. Zhang

 Please cite Q-Chem as follows:
 Y. Shao et al., Mol. Phys. 113, 184-215 (2015)
 DOI: 10.1080/00268976.2014.952696

 Q-Chem 5.0.2 for Intel X86 EM64T Linux

 Parts of Q-Chem use Armadillo 5.200.1 (Boston Tea Smuggler).
 http://arma.sourceforge.net/

 Q-Chem begins on Wed Mar  2 22:20:41 2022  

Host: 
0

     Scratch files written to ./optimize.d//
 Dec517 15110_ 26548  26544 5633   
Processing $rem in /home/leeping/opt/qchem/5.0.2-openmp/config/preferences.
 MEM_STATIC 2000
 MEM_TOTAL  8000
 SYMMETRY   OFF
 SYM_IGNORE TRUE 

Checking the input file for inconsistencies... 	...done.

--------------------------------------------------------------
User input:
--------------------------------------------------------------
$molecule
0 2
C        1.4825463761    0.2724760228   -0.7647880892
C        1.0840107170   -1.0147339519   -0.4539408633
C       -0.1324978688   -1.4384895748    0.1903973881
C       -1.2191139912    0.7946994251    0.5407614240
C       -0.2916276727    1.6649833741    0.0015535527
N        0.9155635246    1.4872344921   -0.5863845641
H        2.4552614483    0.3435007485   -1.2565741188
H        1.7798156307   -1.8023699243   -0.7328645564
H       -0.2411190373   -2.5110282525    0.3391467908
H       -2.1146245045    1.2569939177    0.9491657874
H       -0.5707413434    2.7197697806    0.0490519492
C       -1.1477814294   -0.6418431165    0.6283896289
H       -1.9996918495   -1.1311929409    1.0960856707
$end

$rem
method                b3lyp
basis                 6-31g(d)
unrestricted          true
symmetry              off
sym_ignore            true
incdft                false
incfock               0
scf_convergence       8
thresh                14
jobtype               opt
scf_guess             read
scf_algorithm         diis
max_scf_cycles        100
geom_opt_tol_gradient 600
geom_opt_tol_displacement 2400
geom_opt_tol_energy   200
geom_opt_max_cycles   100
$end

--------------------------------------------------------------
 ----------------------------------------------------------------
             Standard Nuclear Orientation (Angstroms)
    I     Atom           X                Y                Z
 ----------------------------------------------------------------
    1      C       1.4825463761     0.2724760228    -0.7647880892
    2      C       1.0840107170    -1.0147339519    -0.4539408633
    3      C      -0.1324978688    -1.4384895748     0.1903973881
    4      C      -1.2191139912     0.7946994251     0.5407614240
    5      C      -0.2916276727     1.6649833741     0.0015535527
    6      N       0.9155635246     1.4872344921    -0.5863845641
    7      H       2.4552614483     0.3435007485    -1.2565741188
    8      H       1.7798156307    -1.8023699243    -0.7328645564
    9      H      -0.2411190373    -2.5110282525     0.3391467908
   10      H      -2.1146245045     1.2569939177     0.9491657874
   11      H      -0.5707413434     2.7197697806     0.0490519492
   12      C      -1.1477814294    -0.6418431165     0.6283896289
   13      H      -1.9996918495    -1.1311929409     1.0960856707
 ----------------------------------------------------------------
 Nuclear Repulsion Energy =   260.7491041566 hartrees
 There are       25 alpha and       24 beta electrons
 Requested basis set is 6-31G(d)
 There are 40 shells and 117 basis functions

 Total QAlloc Memory Limit   8000 MB
 Mega-Array Size      1956 MB
 MEM_STATIC part      2000 MB
 A cutoff of  1.0D-14 yielded    791 shell pairs
 There are      7063 function pairs
 
 -------------------------------------------------------
 OpenMP Integral Computing Module                       
 Release: version 1.0, May 2013, Q-Chem Inc. Pittsburgh 
 -------------------------------------------------------
 Integral Job Info:
 Integral job number is                      11
 Integral operator is                         1
 short-range coefficients                     0
 long-range coefficients              100000000
 Omega coefficients                           0
 if combine SR and LR in K                    0
 Integral screening is                        0
 Integral computing path is                   2
 max size of driver memory is            800000
 size of driver memory is                593474
 size of scratch memory is              2361544
 max col of scratch BK array               1296
 max len of scratch array in speh3          155
 max len of scratch index in speh4           18
 max int batch size is                      520
 min int batch size is                       52
 fixed nKL is                                52
 max L of basis functions is                  2
 order of int derivative is                   0
 number of shells is                         40
 number of basis is                         117
 number of cartesian basis is               117
 number of contracted shell pairs           791
 number of primitive shell pairs           3395
 maxK2 (contraction) of shell pair           36
 max number of K2 of shell pair               1
 max number of CS2 of shell pair             94
 max number of PS2 of shell pair            402
 mem total for path MDJ                  535308
 -------------------------------------------------------
 Smallest overlap matrix eigenvalue = 1.33E-03

 Scale SEOQF with 1.000000e-01/1.000000e-01/1.000000e+00

 Standard Electronic Orientation quadrupole field applied
 Nucleus-field energy     =    -0.0000000092 hartrees
 Guess MOs from SCF MO coefficient file
 Reading MOs from coefficient file
 Reading MOs from coefficient file
 An unrestricted hybrid HF-DFT SCF calculation will be
 performed using Pulay DIIS extrapolation
 Exchange:     0.2000 Hartree-Fock + 0.0800 Slater + 0.7200 B88
 Correlation:  0.1900 VWN1RPA + 0.8100 LYP
 Using SG-1 standard quadrature grid
 SCF converges when DIIS error is below 1.0E-08
Using Q-Chem read-in guess as SCF_GUESS READ specified.

 using 4 threads for integral computing
 -------------------------------------------------------
 OpenMP Integral computing Module                
 Release: version 1.0, May 2013, Q-Chem Inc. Pittsburgh 
 -------------------------------------------------------
 -------------------------------------------------------
 OpenMP BLAS3 based DFT computing Module                
 Release: version 1.0, May 2013, Q-Chem Inc. Pittsburgh 
 -------------------------------------------------------
 ---------------------------------------
  Cycle       Energy         DIIS Error
 ---------------------------------------
    1    -286.9243488101      4.51E-10
    2    -286.9243488101      7.78E-10 Convergence criterion met
 ---------------------------------------
 <S^2> = 0.7684
 SCF time:  CPU 4.81 s  wall 1.85 s
 SCF   energy in the final basis set = -286.92434881
 Total energy in the final basis set = -286.92434881
 
 --------------------------------------------------------------
 
                    Orbital Energies (a.u.)
 --------------------------------------------------------------
 
 Alpha MOs
 -- Occupied --
-14.322 -10.232 -10.232 -10.212 -10.211 -10.201 -10.200  -0.922
 -0.818  -0.784  -0.693  -0.667  -0.551  -0.537  -0.518  -0.449
 -0.439  -0.414  -0.394  -0.386  -0.349  -0.322  -0.299  -0.251
 -0.162
 -- Virtual --
 -0.072   0.077   0.097   0.101   0.117   0.142   0.181   0.184
  0.193   0.214   0.266   0.320   0.357   0.390   0.412   0.483
  0.496   0.521   0.547   0.576   0.584   0.587   0.591   0.610
  0.619   0.624   0.646   0.658   0.714   0.718   0.833   0.840
  0.847   0.854   0.868   0.872   0.885   0.922   0.965   0.975
  1.024   1.027   1.043   1.127   1.177   1.185   1.300   1.303
  1.326   1.401   1.429   1.480   1.482   1.546   1.574   1.586
  1.682   1.732   1.769   1.829   1.850   1.919   1.925   2.030
  2.046   2.048   2.100   2.141   2.142   2.191   2.247   2.391
  2.410   2.415   2.446   2.546   2.577   2.601   2.614   2.739
  2.749   2.808   3.052   3.250   3.251   4.018   4.046   4.102
  4.196   4.239   4.532   4.595
 
 Beta MOs
 -- Occupied --
-14.314 -10.233 -10.233 -10.210 -10.210 -10.196 -10.196  -0.911
 -0.809  -0.777  -0.681  -0.665  -0.546  -0.535  -0.514  -0.447
 -0.438  -0.411  -0.383  -0.373  -0.348  -0.295  -0.276  -0.241
 -- Virtual --
 -0.078  -0.070   0.078   0.118   0.124   0.125   0.142   0.182
  0.187   0.196   0.219   0.268   0.324   0.360   0.393   0.415
  0.486   0.504   0.525   0.551   0.587   0.588   0.592   0.596
  0.614   0.624   0.629   0.649   0.676   0.716   0.729   0.834
  0.843   0.846   0.869   0.875   0.880   0.887   0.925   0.967
  0.979   1.026   1.030   1.045   1.133   1.180   1.189   1.311
  1.315   1.333   1.411   1.429   1.489   1.492   1.560   1.582
  1.597   1.685   1.737   1.782   1.831   1.853   1.922   1.933
  2.036   2.058   2.061   2.110   2.142   2.147   2.203   2.259
  2.399   2.422   2.426   2.448   2.558   2.579   2.611   2.624
  2.743   2.761   2.810   3.054   3.253   3.254   4.030   4.053
  4.109   4.201   4.239   4.537   4.601
 --------------------------------------------------------------
 
          Ground-State Mulliken Net Atomic Charges

     Atom                 Charge (a.u.)    Spin (a.u.)
  --------------------------------------------------------
      1 C                     0.036459      -0.115309
      2 C                    -0.132162       0.351669
      3 C                    -0.110708       0.088025
      4 C                    -0.131005       0.342362
      5 C                     0.034913      -0.109832
      6 N                    -0.423382       0.386774
      7 H                     0.142511       0.003533
      8 H                     0.134278      -0.018551
      9 H                     0.141977      -0.006364
     10 H                     0.134403      -0.018122
     11 H                     0.142640       0.003265
     12 C                    -0.111843       0.099460
     13 H                     0.141917      -0.006910
  --------------------------------------------------------
  Sum of atomic charges =     0.000000
  Sum of spin   charges =     1.000000

 -----------------------------------------------------------------
                    Cartesian Multipole Moments
 -----------------------------------------------------------------
    Charge (ESU x 10^10)
                 0.0000
    Dipole Moment (Debye)
         X      -1.1140      Y      -1.8113      Z       0.7143
       Tot       2.2433
    Quadrupole Moments (Debye-Ang)
        XX     -38.0779     XY      -3.5522     YY     -39.6013
        XZ      -2.3311     YZ       1.4463     ZZ     -42.3193
    Octopole Moments (Debye-Ang^2)
       XXX      -9.9912    XXY      -9.2809    XYY     -11.3350
       YYY     -24.6149    XXZ       2.8153    XYZ       2.9224
       YYZ       6.9642    XZZ      -3.6922    YZZ      -6.7679
       ZZZ       6.2843
    Hexadecapole Moments (Debye-Ang^3)
      XXXX    -318.8803   XXXY      -0.2805   XXYY    -127.6243
      XYYY     -15.7728   YYYY    -393.9072   XXXZ      57.3342
      XXYZ       7.6735   XYYZ      25.1370   YYYZ      20.9357
      XXZZ     -70.8417   XYZZ       0.9378   YYZZ     -94.4679
      XZZZ      74.3551   YZZZ      14.3744   ZZZZ    -122.9342
 -----------------------------------------------------------------
 Calculating analytic gradient of the SCF energy
 Gradient of SCF Energy
            1           2           3           4           5           6
    1  -0.0000964   0.0000422  -0.0002281   0.0002727  -0.0002110   0.0000373
    2   0.0003310  -0.0001029   0.0001856  -0.0000920  -0.0000863  -0.0002256
    3  -0.0001167   0.0000102  -0.0000056  -0.0000228   0.0002071   0.0000561
            7           8           9          10          11          12
    1  -0.0000035   0.0000363   0.0000475   0.0000720   0.0000044  -0.0000314
    2  -0.0000625   0.0000335  -0.0000049   0.0000745  -0.0000623   0.0000035
    3   0.0000497  -0.0000150   0.0000670  -0.0000013  -0.0000586  -0.0001510
           13
    1   0.0000581
    2   0.0000085
    3  -0.0000190
 Max gradient component =       3.310E-04
 RMS gradient           =       1.162E-04
 Gradient time:  CPU 7.53 s  wall 2.66 s
 Geometry Optimization Parameters
   NAtoms,    NIC,     NZ,  NCons,   NDum,   NFix, NCnnct, MaxDiis
       13      82       0       0       0       0       0       0


** GEOMETRY OPTIMIZATION IN DELOCALIZED INTERNAL COORDINATES **
   Searching for a Minimum

   Optimization Cycle:   1

                       Coordinates (Angstroms)
     ATOM                X               Y               Z
      1  C         1.4825463761    0.2724760228   -0.7647880892
      2  C         1.0840107170   -1.0147339519   -0.4539408633
      3  C        -0.1324978688   -1.4384895748    0.1903973881
      4  C        -1.2191139912    0.7946994251    0.5407614240
      5  C        -0.2916276727    1.6649833741    0.0015535527
      6  N         0.9155635246    1.4872344921   -0.5863845641
      7  H         2.4552614483    0.3435007485   -1.2565741188
      8  H         1.7798156307   -1.8023699243   -0.7328645564
      9  H        -0.2411190373   -2.5110282525    0.3391467908
     10  H        -2.1146245045    1.2569939177    0.9491657874
     11  H        -0.5707413434    2.7197697806    0.0490519492
     12  C        -1.1477814294   -0.6418431165    0.6283896289
     13  H        -1.9996918495   -1.1311929409    1.0960856707
   Point Group: c1    Number of degrees of freedom:    33


   Energy is   -286.924348810


 Attempting to Generate Delocalized Internal Coordinates

 33 Hessian modes will be used to form the next step
  Hessian Eigenvalues:
     0.018570    0.019896    0.020891    0.021858    0.022043    0.022709
     0.023120    0.023802    0.024030    0.025359    0.160000    0.160000
     0.160000    0.160000    0.160000    0.160000    0.220000    0.220000
     0.220000    0.233948    0.345506    0.345683    0.350169    0.350335
     0.351143    0.351216    0.382669    0.389809    0.467159    0.484774
     0.507326    0.533933    0.539532

 Minimum Search - Taking Simple RFO Step
 Searching for Lamda that Minimizes Along All modes
 Value Taken    Lamda =  -0.00000186
 Step Taken.  Stepsize is  0.007008

                             Maximum     Tolerance    Cnvgd?
         Gradient           0.000214      0.000600     YES
         Displacement       0.003379      0.002400      NO
         Energy change     *********      0.000002      NO


 New Cartesian Coordinates Obtained by Inverse Iteration

 Displacement from previous Coordinates is:  0.005374
 ----------------------------------------------------------------
             Standard Nuclear Orientation (Angstroms)
    I     Atom           X                Y                Z
 ----------------------------------------------------------------
    1      C       1.4829725816     0.2723929665    -0.7641216810
    2      C       1.0842352545    -1.0147839441    -0.4535381305
    3      C      -0.1319759948    -1.4386227935     0.1911504746
    4      C      -1.2194475125     0.7948747644     0.5404829085
    5      C      -0.2916969266     1.6652649833     0.0010186837
    6      N       0.9158301576     1.4874232484    -0.5863103216
    7      H       2.4550828524     0.3436562718    -1.2571673576
    8      H       1.7793480266    -1.8027153263    -0.7333345397
    9      H      -0.2415215458    -2.5112906490     0.3381781093
   10      H      -2.1155738840     1.2565007303     0.9484058707
   11      H      -0.5704210118     2.7202161300     0.0493931068
   12      C      -1.1472529003    -0.6417720525     0.6293630720
   13      H      -1.9995790970    -1.1311443294     1.0964798046
 ----------------------------------------------------------------
 Nuclear Repulsion Energy =   260.7257931866 hartrees
 There are       25 alpha and       24 beta electrons
 Applying Cartesian multipole field
    Component          Value
    ---------          -----
     (2,0,0)        1.00000E-11
     (0,2,0)        2.00000E-11
     (0,0,2)       -3.00000E-10
 Nucleus-field energy     =    -0.0000000092 hartrees
 Requested basis set is 6-31G(d)
 There are 40 shells and 117 basis functions
 A cutoff of  1.0D-14 yielded    791 shell pairs
 There are      7063 function pairs
 Smallest overlap matrix eigenvalue = 1.33E-03
 Guess MOs from SCF MO coefficient file
 Reading MOs from coefficient file
 Reading MOs from coefficient file
 An unrestricted hybrid HF-DFT SCF calculation will be
 performed using Pulay DIIS extrapolation
 Exchange:     0.2000 Hartree-Fock + 0.0800 Slater + 0.7200 B88
 Correlation:  0.1900 VWN1RPA + 0.8100 LYP
 Using SG-1 standard quadrature grid
 SCF converges when DIIS error is below 1.0E-08
 Geometry optimization detected.  Setting ReadMinima to 0
 Setting SaveMinima to 0
Using Q-Chem read-in guess as SCF_GUESS READ specified.

 using 4 threads for integral computing
 -------------------------------------------------------
 OpenMP Integral computing Module                
 Release: version 1.0, May 2013, Q-Chem Inc. Pittsburgh 
 -------------------------------------------------------
 -------------------------------------------------------
 OpenMP BLAS3 based DFT computing Module                
 Release: version 1.0, May 2013, Q-Chem Inc. Pittsburgh 
 -------------------------------------------------------
 ---------------------------------------
  Cycle       Energy         DIIS Error
 ---------------------------------------
    1    -286.9237797197      3.37E-05
    2    -286.9243494721      7.74E-06
    3    -286.9243493013      1.25E-05
    4    -286.9243496242      1.88E-06
    5    -286.9243496326      5.72E-07
    6    -286.9243496350      1.82E-07
    7    -286.9243496364      1.99E-07
    8    -286.9243496374      1.13E-07
    9    -286.9243496383      7.38E-08
   10    -286.9243496386      3.76E-08
   11    -286.9243496387      1.79E-08
   12    -286.9243496387      6.53E-09 Convergence criterion met
 ---------------------------------------
 <S^2> = 0.7684
 SCF time:  CPU 29.30 s  wall 12.02 s
 SCF   energy in the final basis set = -286.92434964
 Total energy in the final basis set = -286.92434964
 
 --------------------------------------------------------------
 
                    Orbital Energies (a.u.)
 --------------------------------------------------------------
 
 Alpha MOs
 -- Occupied --
-14.322 -10.232 -10.232 -10.212 -10.211 -10.201 -10.200  -0.922
 -0.818  -0.784  -0.693  -0.667  -0.551  -0.537  -0.518  -0.449
 -0.439  -0.414  -0.394  -0.386  -0.349  -0.322  -0.299  -0.251
 -0.162
 -- Virtual --
 -0.072   0.077   0.097   0.101   0.117   0.142   0.181   0.184
  0.193   0.213   0.266   0.320   0.356   0.390   0.412   0.483
  0.496   0.521   0.547   0.576   0.584   0.587   0.591   0.610
  0.619   0.624   0.646   0.658   0.714   0.718   0.833   0.840
  0.847   0.854   0.868   0.872   0.885   0.922   0.965   0.975
  1.024   1.027   1.043   1.127   1.177   1.185   1.300   1.303
  1.326   1.401   1.429   1.480   1.482   1.546   1.574   1.586
  1.682   1.732   1.769   1.829   1.850   1.919   1.925   2.030
  2.046   2.048   2.100   2.141   2.142   2.191   2.247   2.391
  2.410   2.414   2.446   2.545   2.577   2.601   2.614   2.739
  2.749   2.807   3.052   3.250   3.250   4.018   4.046   4.102
  4.196   4.239   4.532   4.595
 
 Beta MOs
 -- Occupied --
-14.314 -10.233 -10.233 -10.210 -10.210 -10.196 -10.196  -0.911
 -0.809  -0.777  -0.681  -0.665  -0.546  -0.535  -0.514  -0.447
 -0.438  -0.411  -0.383  -0.373  -0.348  -0.295  -0.276  -0.241
 -- Virtual --
 -0.078  -0.070   0.078   0.118   0.124   0.125   0.142   0.182
  0.187   0.196   0.219   0.268   0.324   0.360   0.393   0.415
  0.486   0.504   0.525   0.551   0.587   0.588   0.592   0.596
  0.614   0.624   0.629   0.649   0.676   0.716   0.729   0.834
  0.843   0.846   0.869   0.875   0.880   0.887   0.925   0.967
  0.979   1.026   1.030   1.045   1.133   1.180   1.189   1.311
  1.315   1.333   1.411   1.429   1.489   1.492   1.560   1.582
  1.597   1.685   1.737   1.781   1.831   1.853   1.922   1.933
  2.036   2.058   2.061   2.110   2.141   2.147   2.203   2.259
  2.399   2.422   2.426   2.448   2.558   2.578   2.611   2.624
  2.742   2.761   2.810   3.054   3.252   3.254   4.030   4.053
  4.109   4.200   4.239   4.537   4.601
 --------------------------------------------------------------
 
          Ground-State Mulliken Net Atomic Charges

     Atom                 Charge (a.u.)    Spin (a.u.)
  --------------------------------------------------------
      1 C                     0.036366      -0.114985
      2 C                    -0.132057       0.351015
      3 C                    -0.110751       0.088629
      4 C                    -0.131162       0.342995
      5 C                     0.035046      -0.110214
      6 N                    -0.423420       0.386796
      7 H                     0.142538       0.003519
      8 H                     0.134294      -0.018520
      9 H                     0.141994      -0.006392
     10 H                     0.134432      -0.018150
     11 H                     0.142665       0.003282
     12 C                    -0.111852       0.098909
     13 H                     0.141908      -0.006884
  --------------------------------------------------------
  Sum of atomic charges =    -0.000000
  Sum of spin   charges =     1.000000

 -----------------------------------------------------------------
                    Cartesian Multipole Moments
 -----------------------------------------------------------------
    Charge (ESU x 10^10)
                -0.0000
    Dipole Moment (Debye)
         X      -1.1154      Y      -1.8115      Z       0.7126
       Tot       2.2435
    Quadrupole Moments (Debye-Ang)
        XX     -38.0795     XY      -3.5509     YY     -39.5989
        XZ      -2.3326     YZ       1.4505     ZZ     -42.3212
    Octopole Moments (Debye-Ang^2)
       XXX     -10.0283    XXY      -9.2828    XYY     -11.3448
       YYY     -24.6258    XXZ       2.8043    XYZ       2.9238
       YYZ       6.9458    XZZ      -3.6944    YZZ      -6.7712
       ZZZ       6.2486
    Hexadecapole Moments (Debye-Ang^3)
      XXXX    -318.9486   XXXY      -0.2581   XXYY    -127.6565
      XYYY     -15.7483   YYYY    -393.9559   XXXZ      57.3213
      XXYZ       7.6887   XYYZ      25.1350   YYYZ      21.0097
      XXZZ     -70.8459   XYZZ       0.9461   YYZZ     -94.4875
      XZZZ      74.3485   YZZZ      14.4211   ZZZZ    -122.9346
 -----------------------------------------------------------------
 Calculating analytic gradient of the SCF energy
 Gradient of SCF Energy
            1           2           3           4           5           6
    1  -0.0000003  -0.0000285   0.0000225   0.0000645  -0.0001740   0.0001387
    2   0.0002485  -0.0001247   0.0000342  -0.0000029   0.0000114  -0.0001475
    3   0.0000823   0.0000026   0.0000058  -0.0000008  -0.0000223  -0.0000539
            7           8           9          10          11          12
    1  -0.0000051  -0.0000119   0.0000016   0.0000052   0.0000228  -0.0000288
    2  -0.0000123   0.0000052  -0.0000100   0.0000175   0.0000066  -0.0000154
    3  -0.0000338  -0.0000235  -0.0000220   0.0000231   0.0000406   0.0000263
           13
    1  -0.0000067
    2  -0.0000104
    3  -0.0000243
 Max gradient component =       2.485E-04
 RMS gradient           =       6.675E-05
 Gradient time:  CPU 7.53 s  wall 2.48 s
 Geometry Optimization Parameters
   NAtoms,    NIC,     NZ,  NCons,   NDum,   NFix, NCnnct, MaxDiis
       13      82       0       0       0       0       0       0

 Cartesian Hessian Update
 Hessian Updated using BFGS Update


** GEOMETRY OPTIMIZATION IN DELOCALIZED INTERNAL COORDINATES **
   Searching for a Minimum

   Optimization Cycle:   2

                       Coordinates (Angstroms)
     ATOM                X               Y               Z
      1  C         1.4829725816    0.2723929665   -0.7641216810
      2  C         1.0842352545   -1.0147839441   -0.4535381305
      3  C        -0.1319759948   -1.4386227935    0.1911504746
      4  C        -1.2194475125    0.7948747644    0.5404829085
      5  C        -0.2916969266    1.6652649833    0.0010186837
      6  N         0.9158301576    1.4874232484   -0.5863103216
      7  H         2.4550828524    0.3436562718   -1.2571673576
      8  H         1.7793480266   -1.8027153263   -0.7333345397
      9  H        -0.2415215458   -2.5112906490    0.3381781093
     10  H        -2.1155738840    1.2565007303    0.9484058707
     11  H        -0.5704210118    2.7202161300    0.0493931068
     12  C        -1.1472529003   -0.6417720525    0.6293630720
     13  H        -1.9995790970   -1.1311443294    1.0964798046
   Point Group: c1    Number of degrees of freedom:    33


   Energy is   -286.924349639

 Hessian Updated using BFGS Update

 28 Hessian modes will be used to form the next step
  Hessian Eigenvalues:
     0.018282    0.019105    0.020832    0.021238    0.022085    0.022393
     0.023162    0.023955    0.025020    0.033628    0.150400    0.160329
     0.216015    0.220143    0.233745    0.345192    0.345761    0.349707
     0.350269    0.351199    0.351503    0.379776    0.389578    0.447428
     0.487093    0.506134    0.518294    0.555615

 Minimum Search - Taking Simple RFO Step
 Searching for Lamda that Minimizes Along All modes
 Value Taken    Lamda =   0.00000000
 Step Taken.  Stepsize is  0.002692

                             Maximum     Tolerance    Cnvgd?
         Gradient           0.000118      0.000600     YES
         Displacement       0.001840      0.002400     YES
         Energy change     -0.000001      0.000002     YES


                       Distance Matrix (Angstroms)
             C (  1)   C (  2)   C (  3)   C (  4)   C (  5)   N (  6)
   C (  2)  1.382851
   C (  3)  2.539326  1.440289
   C (  4)  3.045990  3.093525  2.508613
   C (  5)  2.382223  3.046715  3.113805  1.381782
   N (  6)  1.352615  2.511380  3.203762  2.511712  1.354513
   H (  7)  1.092324  2.090551  3.459338  4.115497  3.297648  2.031637
   H (  8)  2.096392  1.087338  2.154158  4.166877  4.105532  3.404745
   H (  9)  3.455118  2.150344  1.088225  3.453693  4.190443  4.264253
   H ( 10)  4.104967  4.166888  3.431004  1.087448  2.095509  3.405597
   H ( 11)  3.296979  4.115951  4.184289  2.090298  1.092222  2.032939
   C ( 12)  3.113773  2.508257  1.363007  1.441203  2.539530  3.204317
   H ( 13)  4.190456  3.453405  2.098120  2.151113  3.454968  4.264773
             H (  7)   H (  8)   H (  9)   H ( 10)   H ( 11)   C ( 12)
   H (  8)  2.310396
   H (  9)  4.238812  2.394605
   H ( 10)  5.156427  5.230437  4.252141
   H ( 11)  4.063104  5.156645  5.249784  2.310451
   C ( 12)  4.184123  3.430704  2.097674  2.154733  3.460067
   H ( 13)  5.249639  4.252002  2.360210  2.395043  4.239323  1.088183

 
 Final energy is   -286.924349638707     


 ******************************
 **  OPTIMIZATION CONVERGED  **
 ******************************

                       Coordinates (Angstroms)
     ATOM                X               Y               Z
      1  C         1.4829725816    0.2723929665   -0.7641216810
      2  C         1.0842352545   -1.0147839441   -0.4535381305
      3  C        -0.1319759948   -1.4386227935    0.1911504746
      4  C        -1.2194475125    0.7948747644    0.5404829085
      5  C        -0.2916969266    1.6652649833    0.0010186837
      6  N         0.9158301576    1.4874232484   -0.5863103216
      7  H         2.4550828524    0.3436562718   -1.2571673576
      8  H         1.7793480266   -1.8027153263   -0.7333345397
      9  H        -0.2415215458   -2.5112906490    0.3381781093
     10  H        -2.1155738840    1.2565007303    0.9484058707
     11  H        -0.5704210118    2.7202161300    0.0493931068
     12  C        -1.1472529003   -0.6417720525    0.6293630720
     13  H        -1.9995790970   -1.1311443294    1.0964798046

Z-matrix Print:
$molecule
0 2
N 
C  1 1.352615
H  2 1.092324 1 111.955192
C  1 1.354513 2 123.280305 3 179.917207 0
H  4 1.092222 1 111.932732 2 179.966854 0
C  4 1.381782 1 133.246567 2 0.048755 0
H  6 1.087448 4 115.616410 1 179.951363 0
C  2 1.382851 1 133.291316 3 -179.918414 0
H  8 1.087338 2 115.618755 1 179.942969 0
C  8 1.440289 2 128.165105 1 -0.038709 0
H  10 1.088225 8 115.820006 2 179.977378 0
C  10 1.363007 8 126.931613 2 0.024970 0
H  12 1.088183 10 117.292045 8 179.926349 0
$end

 
 --------------------------------------------------------------
 
                    Orbital Energies (a.u.)
 --------------------------------------------------------------
 
 Alpha MOs
 -- Occupied --
-14.322 -10.232 -10.232 -10.212 -10.211 -10.201 -10.200  -0.922
 -0.818  -0.784  -0.693  -0.667  -0.551  -0.537  -0.518  -0.449
 -0.439  -0.414  -0.394  -0.386  -0.349  -0.322  -0.299  -0.251
 -0.162
 -- Virtual --
 -0.072   0.077   0.097   0.101   0.117   0.142   0.181   0.184
  0.193   0.213   0.266   0.320   0.356   0.390   0.412   0.483
  0.496   0.521   0.547   0.576   0.584   0.587   0.591   0.610
  0.619   0.624   0.646   0.658   0.714   0.718   0.833   0.840
  0.847   0.854   0.868   0.872   0.885   0.922   0.965   0.975
  1.024   1.027   1.043   1.127   1.177   1.185   1.300   1.303
  1.326   1.401   1.429   1.480   1.482   1.546   1.574   1.586
  1.682   1.732   1.769   1.829   1.850   1.919   1.925   2.030
  2.046   2.048   2.100   2.141   2.142   2.191   2.247   2.391
  2.410   2.414   2.446   2.545   2.577   2.601   2.614   2.739
  2.749   2.807   3.052   3.250   3.250   4.018   4.046   4.102
  4.196   4.239   4.532   4.595
 
 Beta MOs
 -- Occupied --
-14.314 -10.233 -10.233 -10.210 -10.210 -10.196 -10.196  -0.911
 -0.809  -0.777  -0.681  -0.665  -0.546  -0.535  -0.514  -0.447
 -0.438  -0.411  -0.383  -0.373  -0.348  -0.295  -0.276  -0.241
 -- Virtual --
 -0.078  -0.070   0.078   0.118   0.124   0.125   0.142   0.182
  0.187   0.196   0.219   0.268   0.324   0.360   0.393   0.415
  0.486   0.504   0.525   0.551   0.587   0.588   0.592   0.596
  0.614   0.624   0.629   0.649   0.676   0.716   0.729   0.834
  0.843   0.846   0.869   0.875   0.880   0.887   0.925   0.967
  0.979   1.026   1.030   1.045   1.133   1.180   1.189   1.311
  1.315   1.333   1.411   1.429   1.489   1.492   1.560   1.582
  1.597   1.685   1.737   1.781   1.831   1.853   1.922   1.933
  2.036   2.058   2.061   2.110   2.141   2.147   2.203   2.259
  2.399   2.422   2.426   2.448   2.558   2.578   2.611   2.624
  2.742   2.761   2.810   3.054   3.252   3.254   4.030   4.053
  4.109   4.200   4.239   4.537   4.601
 --------------------------------------------------------------
 
          Ground-State Mulliken Net Atomic Charges

     Atom                 Charge (a.u.)    Spin (a.u.)
  --------------------------------------------------------
      1 C                     0.036366      -0.114985
      2 C                    -0.132057       0.351015
      3 C                    -0.110751       0.088629
      4 C                    -0.131162       0.342995
      5 C                     0.035046      -0.110214
      6 N                    -0.423420       0.386796
      7 H                     0.142538       0.003519
      8 H                     0.134294      -0.018520
      9 H                     0.141994      -0.006392
     10 H                     0.134432      -0.018150
     11 H                     0.142665       0.003282
     12 C                    -0.111852       0.098909
     13 H                     0.141908      -0.006884
  --------------------------------------------------------
  Sum of atomic charges =    -0.000000
  Sum of spin   charges =     1.000000

 -----------------------------------------------------------------
                    Cartesian Multipole Moments
 -----------------------------------------------------------------
    Charge (ESU x 10^10)
                -0.0000
    Dipole Moment (Debye)
         X      -1.1154      Y      -1.8115      Z       0.7126
       Tot       2.2435
    Quadrupole Moments (Debye-Ang)
        XX     -38.0795     XY      -3.5509     YY     -39.5989
        XZ      -2.3326     YZ       1.4505     ZZ     -42.3212
    Octopole Moments (Debye-Ang^2)
       XXX     -10.0283    XXY      -9.2828    XYY     -11.3448
       YYY     -24.6258    XXZ       2.8043    XYZ       2.9238
       YYZ       6.9458    XZZ      -3.6944    YZZ      -6.7712
       ZZZ       6.2486
    Hexadecapole Moments (Debye-Ang^3)
      XXXX    -318.9486   XXXY      -0.2581   XXYY    -127.6565
      XYYY     -15.7483   YYYY    -393.9559   XXXZ      57.3213
      XXYZ       7.6887   XYYZ      25.1350   YYYZ      21.0097
      XXZZ     -70.8459   XYZZ       0.9461   YYZZ     -94.4875
      XZZZ      74.3485   YZZZ      14.4211   ZZZZ    -122.9346
 -----------------------------------------------------------------
Archival summary:
1\1\c8-66\OPT\ProcedureUnspecified\6-31G*\166(2)\hpark21\WedMar222:21:032022WedMar222:21:032022\0\\#,OPT,ProcedureUnspecified,6-31G*,\\0,2\N\C,1,1.35261\H,2,1.09232,1,111.955\C,1,1.35451,2,123.28,3,179.917,0\H,4,1.09222,1,111.933,2,179.967,0\C,4,1.38178,1,133.247,2,0.0487545,0\H,6,1.08745,4,115.616,1,179.951,0\C,2,1.38285,1,133.291,3,-179.918,0\H,8,1.08734,2,115.619,1,179.943,0\C,8,1.44029,2,128.165,1,-0.0387092,0\H,10,1.08823,8,115.82,2,179.977,0\C,10,1.36301,8,126.932,2,0.0249704,0\H,12,1.08818,10,117.292,8,179.926,0\\\@

 Total job time:  22.03s(wall), 51.92s(cpu) 
 Wed Mar  2 22:21:03 2022

        *************************************************************
        *                                                           *
        *  Thank you very much for using Q-Chem.  Have a nice day.  *
        *                                                           *
        *************************************************************


