13   
From optimize.out: Frame 1 / 2, Energy=    -286.9243488101
C        0.0364590000   -0.1153090000   -0.0000000000
C       -0.1321620000    0.3516690000   -0.0000000000
C       -0.1107080000    0.0880250000    0.0000000000
C       -0.1310050000    0.3423620000    0.0000000000
C        0.0349130000   -0.1098320000    0.0000000000
N       -0.4233820000    0.3867740000   -0.0000000000
H        0.1425110000    0.0035330000   -0.0000000000
H        0.1342780000   -0.0185510000   -0.0000000000
H        0.1419770000   -0.0063640000    0.0000000000
H        0.1344030000   -0.0181220000    0.0000000000
H        0.1426400000    0.0032650000    0.0000000000
C       -0.1118430000    0.0994600000    0.0000000000
H        0.1419170000   -0.0069100000    0.0000000000
