13   
From optimize.out: Frame 2 / 3, Energy=    -286.8584653799
C        1.5751877236    0.4456964295   -0.0859246270
C        0.8224775221   -0.8153030354    0.1174561384
C       -0.5187162062   -0.9686041869   -0.5830774992
C       -1.1193980815    0.3160409781   -0.0361673903
C       -0.3701428071    1.5789271588   -0.2388473708
N        0.9609130039    1.6141495743   -0.2598457188
H        2.6634259738    0.4386562133   -0.0979529891
H        1.4063163589   -1.7246875642    0.2497027670
H       -0.9207244973   -1.7424615602   -1.2221101752
H       -2.2063341362    0.3789713473   -0.0331540677
H       -0.9040697882    2.5169144806   -0.3782928638
C       -0.5024268939   -0.7468623541    0.8584352223
H       -0.8865081718   -1.2914374808    1.7097785743
13   
From optimize.out: Frame 1 / 3, Energy=    -286.8584556587
C        1.5751790802    0.4473963093   -0.0901362647
C        0.8186418355   -0.8071464604    0.1398865964
C       -0.5112045414   -0.9860097690   -0.5666511284
C       -1.1199913529    0.3133664250   -0.0031180454
C       -0.3682474710    1.5673247760   -0.2638100435
N        0.9632643505    1.6052632214   -0.3056546571
H        2.6626048411    0.4357957071   -0.1001014616
H        1.4031054882   -1.7107323842    0.3005594406
H       -0.9237847798   -1.6521932327   -1.3108556501
H       -2.2084151012    0.3641255519   -0.0021078979
H       -0.8988689859    2.5063774918   -0.3976922266
C       -0.5193706152   -0.7679865907    0.8682672978
H       -0.8729127482   -1.3155810454    1.7314140405
13   
From optimize.out: Frame 33 / 34, Energy=    -286.8584556587
C        1.5746371173    0.4457223607   -0.1086553964
C        0.8278453159   -0.8103424719    0.1458336594
C       -0.4984306989   -1.0165277579   -0.5296135301
C       -1.1050936286    0.3060694936    0.0198431541
C       -0.3732428629    1.5535028747   -0.2983428534
N        0.9581420581    1.5911976071   -0.3708117232
H        2.6618125204    0.4489822445   -0.0693595666
H        1.4217210948   -1.7052029238    0.3301261465
H       -0.9558490015   -1.5360979687   -1.3557993432
H       -2.1936986966    0.3576642470    0.0129259207
H       -0.9040513695    2.4968290830   -0.4051270262
C       -0.5210864083   -0.7699521087    0.9003969029
H       -0.8927054402   -1.3618446794    1.7285836556
13   
From optimize.out: Frame 30 / 34, Energy=    -286.8584214792
C        1.5640135531    0.4382358909   -0.1255718028
C        0.8359415323   -0.8244601601    0.1153716737
C       -0.5084225263   -1.0588717732   -0.4655579170
C       -1.0915727860    0.2976484440    0.0329226814
C       -0.3793578882    1.5389017140   -0.3304889697
N        0.9510557880    1.5814640006   -0.4199540693
H        2.6460180144    0.4612725127   -0.0205873028
H        1.4378511190   -1.7088666747    0.3163901950
H       -0.9557357665   -1.4260232356   -1.3723786476
H       -2.1799613216    0.3481126799   -0.0019983582
H       -0.9002479331    2.4907742836   -0.4043486179
C       -0.5155123172   -0.7455202309    0.9474688675
H       -0.9040694679   -1.3926674511    1.7287322676
13   
From optimize.out: Frame 29 / 34, Energy=    -286.8583943354
C        1.5530492439    0.4186990030   -0.1365092261
C        0.8446905816   -0.8447801391    0.0551728951
C       -0.5303432277   -1.0899100723   -0.3927112868
C       -1.1011107389    0.2954487063    0.0349004065
C       -0.3883111734    1.5256244357   -0.3353976936
N        0.9374297824    1.5725698130   -0.4227685883
H        2.6287026049    0.4563737795    0.0107754919
H        1.4466473573   -1.7281641492    0.2574000007
H       -0.8940959953   -1.3752632839   -1.3661080470
H       -2.1857193199    0.3435277527   -0.0539509994
H       -0.8951830578    2.4877085525   -0.3866327810
C       -0.5115162505   -0.6883036615    0.9938984799
H       -0.9042398068   -1.3735307365    1.7419313481
13   
From optimize.out: Frame 27 / 34, Energy=    -286.8582735639
C        1.5548135833    0.4014665318   -0.1410327202
C        0.8712487292   -0.8581366046   -0.0052245428
C       -0.5257980362   -1.1068652220   -0.3485906722
C       -1.1240030020    0.2934593155    0.0310774132
C       -0.3912433106    1.5172474675   -0.3129737695
N        0.9266078396    1.5692350142   -0.3825587981
H        2.6284734448    0.4477823503    0.0116642187
H        1.4795041415   -1.7410615600    0.1807956150
H       -0.8677007639   -1.3874658120   -1.3318124724
H       -2.2013719709    0.3240659766   -0.1181161533
H       -0.8870859330    2.4866410046   -0.3637411330
C       -0.5287521732   -0.6238901456    1.0250546360
H       -0.9346925486   -1.3224783163    1.7554583786
13   
From optimize.out: Frame 26 / 34, Energy=    -286.8581878949
C        1.5592348836    0.3844230100   -0.1391141746
C        0.8994353207   -0.8719538435   -0.0545527934
C       -0.5165661265   -1.1223459087   -0.3208700280
C       -1.1526198168    0.2917570248    0.0285174831
C       -0.3954734538    1.5096732152   -0.2878041938
N        0.9165518801    1.5612019652   -0.3337810527
H        2.6336746252    0.4373051789    0.0052384660
H        1.5200002463   -1.7536135880    0.1003640982
H       -0.8466914908   -1.4074855135   -1.3084275198
H       -2.2210271429    0.3024085744   -0.1740658943
H       -0.8805632231    2.4853589971   -0.3466315041
C       -0.5489728074   -0.5562109956    1.0560634506
H       -0.9669828945   -1.2605181164    1.7750636628
13   
From optimize.out: Frame 25 / 34, Energy=    -286.8580173302
C        1.5588165118    0.3670561125   -0.1301443664
C        0.9178957329   -0.8888653840   -0.0970119610
C       -0.5100434937   -1.1430317307   -0.2993756620
C       -1.1833352870    0.2914248442    0.0227895501
C       -0.4026111032    1.5034167376   -0.2628725024
N        0.9059091672    1.5505935131   -0.2808745434
H        2.6346985605    0.4242467955    0.0030925710
H        1.5526725890   -1.7676759300    0.0214961696
H       -0.8286187554   -1.4351303993   -1.2909940748
H       -2.2399119078    0.2796272498   -0.2322657799
H       -0.8734318048    2.4869511155   -0.3265783569
C       -0.5560971986   -0.4775588718    1.0812051075
H       -0.9759430109   -1.1910540524    1.7915338486
13   
From optimize.out: Frame 22 / 34, Energy=    -286.8528959086
C        1.5506851959    0.3489114081   -0.1153268167
C        0.9235465011   -0.9122690367   -0.1278384711
C       -0.5017528596   -1.1745154425   -0.2977386390
C       -1.2152339256    0.2927758631    0.0143745634
C       -0.4116410342    1.5019781128   -0.2385609155
N        0.8952370287    1.5400186438   -0.2297515698
H        2.6271874098    0.4088013780    0.0116183892
H        1.5731065528   -1.7847623165   -0.0369853451
H       -0.8243387449   -1.4728365336   -1.2871459932
H       -2.2588668200    0.2540099023   -0.2830989834
H       -0.8672380442    2.4938664063   -0.2992176138
C       -0.5409326358   -0.3856345030    1.0897439526
H       -0.9497586240   -1.1103438822    1.7999274426
13   
From optimize.out: Frame 20 / 34, Energy=    -286.8462926905
C        1.5410266469    0.3303084351   -0.1006343746
C        0.9270530998   -0.9408190932   -0.1513568856
C       -0.4900674924   -1.2150748779   -0.3157827663
C       -1.2473335515    0.2973018165    0.0072343124
C       -0.4208145149    1.5067620219   -0.2155011711
N        0.8852262026    1.5310997686   -0.1863896103
H        2.6174314513    0.3947699675    0.0275593959
H        1.5898712730   -1.8056723005   -0.0708155496
H       -0.8301125705   -1.5207329131   -1.3000226915
H       -2.2813396662    0.2337505515   -0.3154752896
H       -0.8660692269    2.5048301035   -0.2673283313
C       -0.5145103699   -0.2930959962    1.0852488255
H       -0.9103612814   -1.0234274838    1.8032641360
13   
From optimize.out: Frame 19 / 34, Energy=    -286.8428711912
C        1.5337121788    0.3109416905   -0.0877278883
C        0.9331919734   -0.9722022238   -0.1686990878
C       -0.4794879616   -1.2583930670   -0.3426378452
C       -1.2785404040    0.3052833496    0.0008578721
C       -0.4313588733    1.5170846822   -0.1945801069
N        0.8752040090    1.5247660826   -0.1509204495
H        2.6099063532    0.3828112873    0.0480633965
H        1.6056313743   -1.8310220750   -0.0825560574
H       -0.8433931965   -1.5773997300   -1.3228090464
H       -2.3074648302    0.2219629652   -0.3323207612
H       -0.8713083670    2.5190808357   -0.2325975873
C       -0.4816122181   -0.2062753940    1.0683969703
H       -0.8644800379   -0.9366384031    1.7975305910
13   
From optimize.out: Frame 17 / 34, Energy=    -286.8334788919
C        1.5304795039    0.2909728466   -0.0748578142
C        0.9424650889   -1.0033114915   -0.1808800188
C       -0.4731601673   -1.2981786298   -0.3693526331
C       -1.3076294969    0.3146694770   -0.0059903725
C       -0.4446046400    1.5298967611   -0.1769630740
N        0.8649935337    1.5195713578   -0.1204419045
H        2.6065466151    0.3715737633    0.0735406966
H        1.6206111274   -1.8588708028   -0.0798808544
H       -0.8665662598   -1.6368805592   -1.3483951221
H       -2.3348432286    0.2147922026   -0.3402402855
H       -0.8825656555    2.5341348002   -0.1981845126
C       -0.4441449014   -0.1256289360    1.0407259190
H       -0.8115815195   -0.8527407892    1.7809199762
13   
From optimize.out: Frame 16 / 34, Energy=    -286.8277960833
C        1.5344824025    0.2710522281   -0.0602985939
C        0.9548778926   -1.0307491746   -0.1877296012
C       -0.4714380818   -1.3287127736   -0.3918979076
C       -1.3342688320    0.3233754755   -0.0136420951
C       -0.4615748434    1.5411248870   -0.1640131015
N        0.8552899565    1.5097354434   -0.0922199570
H        2.6103057348    0.3606873670    0.1033567409
H        1.6346597895   -1.8862688204   -0.0674741426
H       -0.9028732393   -1.6927078876   -1.3759623861
H       -2.3621844573    0.2082714508   -0.3419773959
H       -0.9010738545    2.5456653538   -0.1663189715
C       -0.4042274436   -0.0507049170    1.0038337567
H       -0.7519750239   -0.7707686325    1.7543436547
13   
From optimize.out: Frame 13 / 34, Energy=    -286.8048234795
C        1.5536601012    0.2550101305   -0.0470419779
C        0.9723647957   -1.0548170954   -0.1890225064
C       -0.4748759806   -1.3483767835   -0.4094749419
C       -1.3622979339    0.3306939738   -0.0210780612
C       -0.4822285964    1.5492202513   -0.1529710475
N        0.8466438721    1.4921010863   -0.0661521005
H        2.6311096758    0.3537724375    0.1319297586
H        1.6514529601   -1.9137026831   -0.0455897224
H       -0.9538822490   -1.7431259105   -1.4054125182
H       -2.3927661657    0.2028354808   -0.3426227257
H       -0.9280666133    2.5523508999   -0.1362863745
C       -0.3670881873    0.0163606228    0.9642400170
H       -0.6940256787   -0.6923224103    1.7194822007
13   
From optimize.out: Frame 12 / 34, Energy=    -286.7954760785
C        1.5646980505    0.2472658346   -0.0280543333
C        0.9772138653   -1.0839336370   -0.1908789335
C       -0.4727811373   -1.3679179421   -0.4343676801
C       -1.3776905350    0.3473988148   -0.0284805777
C       -0.5006299158    1.5665079149   -0.1653506096
N        0.8427955436    1.4803600576   -0.0510138401
H        2.6377157266    0.3504216436    0.1807335828
H        1.6644017656   -1.9340227468   -0.0210515263
H       -1.0196642475   -1.7848365935   -1.4250259004
H       -2.4234811755    0.1840976620   -0.3134875550
H       -0.9402121043    2.5704685320   -0.1279548286
C       -0.3205475108    0.0736382905    0.9381014214
H       -0.6318183254   -0.6494478305    1.6668307804
13   
From optimize.out: Frame 10 / 34, Energy=    -286.7759771218
C        1.5649189044    0.2473027728   -0.0173920146
C        0.9636360822   -1.1165515214   -0.2211899988
C       -0.4494710674   -1.3971110138   -0.4831431154
C       -1.3740382789    0.3786016693   -0.0409654136
C       -0.5164561124    1.6029735046   -0.2034526440
N        0.8564182780    1.4806907261   -0.0484636013
H        2.6118126851    0.3466734513    0.2503179104
H        1.6720665126   -1.9324751443   -0.0493173500
H       -1.0388134539   -1.8026887483   -1.4061008334
H       -2.4428867481    0.1317488678   -0.2350429242
H       -0.9180214573    2.6102488660   -0.1580310886
C       -0.3072181205    0.1160632961    0.9649579262
H       -0.6219472239   -0.6654767261    1.6478231474
13   
From optimize.out: Frame 9 / 34, Energy=    -286.7646887803
C        1.5550638159    0.2440439156   -0.0081610304
C        0.9460310914   -1.1385911045   -0.2574051583
C       -0.4331026873   -1.4129737885   -0.5409813072
C       -1.3637066625    0.4029662714   -0.0592202542
C       -0.5288707871    1.6360242537   -0.2410013845
N        0.8626324365    1.4848445876   -0.0481020379
H        2.5775835837    0.3374403474    0.3180459465
H        1.6674063103   -1.9322756269   -0.0993565965
H       -1.0173282786   -1.8036430042   -1.3629281280
H       -2.4338758457    0.0934617127   -0.1599799038
H       -0.8993189353    2.6453048101   -0.1963109230
C       -0.3154641787    0.1382812618    0.9887813010
H       -0.6170498626   -0.6948836360    1.6666194762
13   
From optimize.out: Frame 8 / 34, Energy=    -286.7510723139
C        1.5402122118    0.2440772941    0.0036155688
C        0.9191330463   -1.1328642527   -0.2800152319
C       -0.4400810725   -1.3798846878   -0.5876091750
C       -1.3314853990    0.3873394407   -0.0616474668
C       -0.5274151186    1.6339560695   -0.2673120520
N        0.8652001713    1.4917656325   -0.0499299978
H        2.5507051382    0.3244996755    0.3689065704
H        1.6343012890   -1.9306258850   -0.1316405722
H       -1.0116386716   -1.7593609470   -1.3663706807
H       -2.3882782698    0.0389834134   -0.1159979764
H       -0.8985564396    2.6403632207   -0.2437806129
C       -0.3130482252    0.1448455099    1.0206337730
H       -0.5990486603   -0.7030944837    1.7111478535
13   
From optimize.out: Frame 5 / 34, Energy=    -286.6920170815
C        1.5308456867    0.2477330405    0.0137903092
C        0.8926519297   -1.1106504873   -0.2847183487
C       -0.4633797803   -1.3206087358   -0.6127613450
C       -1.2921821619    0.3460625072   -0.0508593174
C       -0.5164634404    1.6048250189   -0.2791061552
N        0.8686709221    1.4967416081   -0.0524828802
H        2.5373851153    0.3140076690    0.3920111474
H        1.5871658982   -1.9252137651   -0.1325832555
H       -1.0290045385   -1.6840800801   -1.4058408235
H       -2.3389134898   -0.0232359488   -0.1087219381
H       -0.9087764158    2.6023223204   -0.2831497699
C       -0.2933939728    0.1444474310    1.0499358479
H       -0.5746057526   -0.6923505781    1.7544865291
13   
From optimize.out: Frame 3 / 34, Energy=    -286.6361401641
C        1.5214786126    0.2513890359    0.0239652538
C        0.8661700262   -1.0884359747   -0.2894223794
C       -0.4866781795   -1.2613310880   -0.6379162614
C       -1.2528780992    0.3047840649   -0.0400689487
C       -0.5055110176    1.5756924090   -0.2909003296
N        0.8721422007    1.5017174948   -0.0550363167
H        2.5240638378    0.3035157252    0.4151168381
H        1.5400284789   -1.9198012771   -0.1335263919
H       -1.0463692400   -1.6087975531   -1.4453144850
H       -2.2895476909   -0.0854576598   -0.1014430235
H       -0.9189956354    2.5642790857   -0.3225208235
C       -0.2737399151    0.1440503502    1.0792394754
H       -0.5501633785   -0.6816046129    1.7978273923
13   
From optimize.out: Frame 2 / 34, Energy=    -286.6015441328
C        1.5121110256    0.2550452676    0.0341403573
C        0.8396874455   -1.0662208065   -0.2941273252
C       -0.5099761424   -1.2020519993   -0.6630738898
C       -1.2135733909    0.2635042803   -0.0292763459
C       -0.4945578860    1.5465583367   -0.3026945135
N        0.8756140125    1.5066932587   -0.0575903176
H        2.5107413420    0.2930238997    0.4382235639
H        1.4928892023   -1.9143884356   -0.1344699743
H       -1.0637326557   -1.5335137093   -1.4847915871
H       -2.2401811062   -0.1476814702   -0.0941611742
H       -0.9292140310    2.5262336322   -0.3618936191
C       -0.2540861489    0.1436543095    1.1085445468
H       -0.5257216667   -0.6708565639    1.8411702788
13   
From optimize.out: Frame 1 / 34, Energy=    -286.5637887220
C        1.5014046727    0.2579009237    0.0444642705
C        0.8135006485   -1.0450212876   -0.2997595769
C       -0.5315679610   -1.1440657461   -0.6914590896
C       -1.1753069233    0.2233879826   -0.0163396519
C       -0.4838890364    1.5172351874   -0.3146307843
N        0.8783343829    1.5109145381   -0.0610653842
H        2.4954623725    0.2819565875    0.4626003700
H        1.4461060953   -1.9096763097   -0.1356412989
H       -1.0770786919   -1.4599700672   -1.5286064788
H       -2.1924980634   -0.2071135637   -0.0832148772
H       -0.9390048380    2.4880200212   -0.4019466714
C       -0.2343567204    0.1443519573    1.1390276318
H       -0.5011059375   -0.6579202236    1.8865715408
13   
C5H5N+CH->C6H6N atoms 1-13 frame 105 charge +0.000 sz -1.000 sz^2 0.523
C        1.4835555275    0.2554235924    0.0545368352
C        0.7921616089   -1.0325995556   -0.3105402641
C       -0.5400257980   -1.1008015619   -0.7367616010
C       -1.1479113821    0.1951409505    0.0085099817
C       -0.4762213859    1.4900913975   -0.3260901577
N        0.8760428284    1.5099367578   -0.0698982695
H        2.4697053580    0.2685564278    0.4921238604
H        1.4069100912   -1.9098858966   -0.1381004328
H       -1.0637885224   -1.4057238092   -1.5945107450
H       -2.1607980946   -0.2422835957   -0.0506269360
H       -0.9450069737    2.4531373684   -0.4416624041
C       -0.2164091654    0.1518017067    1.1733816938
H       -0.4782140919   -0.6327937820    1.9396384391
13   
C5H5N+CH->C6H6N atoms 1-13 frame 106 charge -0.000 sz -1.000 sz^2 0.519
C        1.4589740385    0.2474293341    0.0638883927
C        0.7769042186   -1.0300043778   -0.3262677053
C       -0.5342378409   -1.0750325561   -0.7978712379
C       -1.1332289141    0.1806992255    0.0448095839
C       -0.4720680609    1.4664752311   -0.3365278898
N        0.8685649167    1.5035156235   -0.0839866673
H        2.4340529594    0.2532997559    0.5257441330
H        1.3774943647   -1.9152810036   -0.1418081917
H       -1.0229840764   -1.3742982267   -1.6807489661
H       -2.1474019084   -0.2502545728    0.0033290655
H       -0.9467386718    2.4233477060   -0.4792259084
C       -0.2011539552    0.1660411190    1.2102684017
H       -0.4581770703   -0.5959372581    1.9983969898
13   
C5H5N+CH->C6H6N atoms 1-13 frame 109 charge +0.000 sz -1.000 sz^2 0.500
C        1.4343922510    0.2394352643    0.0732389828
C        0.7616475447   -1.0274095432   -0.3419959755
C       -0.5284471931   -1.0492649102   -0.8589810353
C       -1.1185481695    0.1662584266    0.0811100415
C       -0.4679142388    1.4428590166   -0.3469646397
N        0.8610877622    1.4970941732   -0.0980749946
H        2.3983992176    0.2380437434    0.5593629666
H        1.3480788131   -1.9206761852   -0.1455174328
H       -0.9821760021   -1.3428745019   -1.7669858057
H       -2.1340082537   -0.2582241850    0.0572855912
H       -0.9484685719    2.3935574790   -0.5167882823
C       -0.1859004255    0.1802811051    1.2471553266
H       -0.4381427341   -0.5590798826    2.0571552573
13   
C5H5N+CH->C6H6N atoms 1-13 frame 111 charge +0.000 sz -1.000 sz^2 0.507
C        1.3991197226    0.2343383728    0.0845503234
C        0.7422492143   -1.0197344438   -0.3491281458
C       -0.5274962935   -1.0072759315   -0.8941304265
C       -1.0924494363    0.1478065155    0.1051665252
C       -0.4575793929    1.4181161438   -0.3630754535
N        0.8486986266    1.4933037855   -0.1172017200
H        2.3545126752    0.2261751472    0.5913282259
H        1.3148695995   -1.9230796642   -0.1466088328
H       -0.9544096790   -1.2953649670   -1.8271646098
H       -2.1105865500   -0.2615855505    0.0938983070
H       -0.9457892721    2.3633368777   -0.5570552407
C       -0.1620959722    0.1735537788    1.2773256945
H       -0.4090432420   -0.5495900643    2.1020953531
13   
C5H5N+CH->C6H6N atoms 1-13 frame 112 charge +0.000 sz -1.000 sz^2 0.520
C        1.3618983626    0.2399216254    0.0928670743
C        0.7260658194   -1.0048380612   -0.3301044940
C       -0.5391523553   -0.9543386153   -0.8408651943
C       -1.0562484925    0.1322354657    0.0823413292
C       -0.4391509665    1.4077322178   -0.3820310721
N        0.8327680889    1.4986328428   -0.1355135371
H        2.3207122482    0.2308860752    0.5970730753
H        1.2953016100   -1.9164351878   -0.1404810067
H       -0.9780687320   -1.2410641924   -1.7813529373
H       -2.0786365246   -0.2512487049    0.0623474921
H       -0.9340885033    2.3529891384   -0.5761060343
C       -0.1336756671    0.1197413697    1.2700207123
H       -0.3777248879   -0.6142139735    2.0818045926
13   
C5H5N+CH->C6H6N atoms 1-13 frame 113 charge +0.000 sz -1.000 sz^2 0.537
C        1.3492575442    0.2407854761    0.0877764826
C        0.7505104819   -1.0070427494   -0.3193033133
C       -0.5172865489   -0.9555001394   -0.7791118678
C       -1.0636554677    0.1491145038    0.0620298799
C       -0.4353003680    1.4172181816   -0.3842288487
N        0.8156472994    1.4963826882   -0.1470084552
H        2.3186078543    0.2451998255    0.5725738390
H        1.3383867381   -1.9123655804   -0.1508494269
H       -0.9828699680   -1.2488241036   -1.7134608443
H       -2.0937817391   -0.1945465164    0.0329852741
H       -0.9154929169    2.3741310587   -0.5678371230
C       -0.1528990002    0.0705481336    1.2574116281
H       -0.4111239091   -0.6751007782    2.0490227757
13   
From optimize.out: Frame 2 / 24, Energy=    -286.6491115880
C        1.3523480194    0.2379876134    0.0771918384
C        0.7901396903   -1.0182834477   -0.3177004483
C       -0.4818031195   -0.9854092322   -0.7353816609
C       -1.0929019244    0.1786870163    0.0521035341
C       -0.4406273956    1.4334536773   -0.3769993032
N        0.8021036586    1.4898437015   -0.1524745204
H        2.3323814954    0.2596594643    0.5404847223
H        1.4028392872   -1.9114128679   -0.1681049579
H       -0.9718922938   -1.2875616426   -1.6596428093
H       -2.1306766533   -0.1279596354    0.0179271216
H       -0.8983855708    2.4048732695   -0.5493560831
C       -0.1928607421    0.0393427900    1.2485081299
H       -0.4706644514   -0.7132207065    2.0234444367
13   
From optimize.out: Frame 5 / 24, Energy=    -286.7106062759
C        1.3550878373    0.2352276189    0.0670165677
C        0.8295846454   -1.0295036457   -0.3161192823
C       -0.4465984920   -1.0156084569   -0.6917575516
C       -1.1218801694    0.2084436279    0.0422112020
C       -0.4459143406    1.4499029111   -0.3699147473
N        0.7886363420    1.4834668298   -0.1581060783
H        2.3457973253    0.2740170513    0.5088611433
H        1.4672553178   -1.9103576633   -0.1855633198
H       -0.9610230216   -1.3269024027   -1.6059373129
H       -2.1673544156   -0.0609745920    0.0031233487
H       -0.8813437621    2.4357943466   -0.5310893986
C       -0.2325108589    0.0080238112    1.2395370951
H       -0.5297364076   -0.7515294361    1.9977383341
13   
From optimize.out: Frame 6 / 24, Energy=    -286.7440823765
C        1.3380427653    0.2357790716    0.0832869394
C        0.8404256753   -1.0342588087   -0.3164094390
C       -0.4429909578   -1.0465423011   -0.6745498965
C       -1.1228270808    0.2336167966    0.0387830236
C       -0.4465790344    1.4697496764   -0.3738738971
N        0.7856271528    1.4886924153   -0.1697421187
H        2.3339615554    0.2760706866    0.5168847044
H        1.4989177085   -1.9044365168   -0.2053397352
H       -0.9611271932   -1.3790614271   -1.5838201921
H       -2.1749863151   -0.0051509671    0.0086754891
H       -0.8759631774    2.4613555354   -0.5328699163
C       -0.2367296471   -0.0143076020    1.2313376824
H       -0.5357714514   -0.7815065590    1.9776373561
13   
From optimize.out: Frame 7 / 24, Energy=    -286.7734394401
C        1.3051777734    0.2372609478    0.1284965251
C        0.8076405874   -1.0297623692   -0.3188218798
C       -0.4802893481   -1.0485013762   -0.7088351867
C       -1.0887064243    0.2335454299    0.0497350624
C       -0.4442985165    1.4758900751   -0.3947783411
N        0.7971004685    1.5017574149   -0.1850763523
H        2.2938364080    0.2577399271    0.5800075009
H        1.4631224124   -1.9016142390   -0.2137938109
H       -0.9733402271   -1.3969865276   -1.6247049290
H       -2.1428069045   -0.0005315930    0.0466359195
H       -0.8934758969    2.4566808615   -0.5687853827
C       -0.1865994835   -0.0090726208    1.2287932078
H       -0.4573608487   -0.7764059304    1.9811276667
13   
From optimize.out: Frame 9 / 24, Energy=    -286.8090541289
C        1.2829497801    0.2305638209    0.1690870828
C        0.7854635840   -1.0316392822   -0.3200848939
C       -0.4995066399   -1.0200711448   -0.7496112798
C       -1.0707180709    0.2220693290    0.0670726596
C       -0.4514727183    1.4636361099   -0.4211458957
N        0.8025757110    1.4999670521   -0.2021769519
H        2.2609232189    0.2374389491    0.6430931088
H        1.4232117407   -1.9147301445   -0.2125308225
H       -0.9762343833   -1.3577511734   -1.6747103192
H       -2.1273600900   -0.0074745900    0.0952458733
H       -0.9167449167    2.4326569637   -0.6158113934
C       -0.1383741729    0.0014833828    1.2267026462
H       -0.3747130428   -0.7561492726    1.9948701856
13   
From optimize.out: Frame 10 / 24, Energy=    -286.8230493891
C        1.2523187990    0.2240195360    0.2151157431
C        0.7650121458   -1.0355031334   -0.3210074483
C       -0.5179630946   -0.9986810387   -0.7827709274
C       -1.0536754949    0.2156525283    0.0816762860
C       -0.4564131416    1.4559689167   -0.4468684350
N        0.8068512201    1.4970648597   -0.2231720840
H        2.2211423777    0.2217850011    0.7079113708
H        1.3900415661   -1.9266219034   -0.2150259362
H       -0.9809666697   -1.3298950531   -1.7143946522
H       -2.1134628334   -0.0030522275    0.1430674476
H       -0.9336906238    2.4147318186   -0.6616040212
C       -0.0885525932    0.0072282230    1.2184010965
H       -0.2906416576   -0.7426975272    1.9986715603
13   
From optimize.out: Frame 13 / 24, Energy=    -286.8455816218
C        1.2120219048    0.2173556664    0.2808617562
C        0.7631466544   -1.0401826725   -0.3345723740
C       -0.5307297973   -0.9985330738   -0.7947217109
C       -1.0459645932    0.2177274283    0.0914480479
C       -0.4554108298    1.4558701458   -0.4671058128
N        0.8124712735    1.4897411797   -0.2471762184
H        2.1815802309    0.2186218303    0.7724136499
H        1.3981503404   -1.9248777066   -0.2643548813
H       -0.9911766283   -1.3341710306   -1.7234072919
H       -2.1127460105    0.0333629101    0.1815412235
H       -0.9343123401    2.4058100520   -0.7103194003
C       -0.0586746565    0.0013358299    1.2154973206
H       -0.2383555484   -0.7420605590    1.9998956915
13   
From optimize.out: Frame 15 / 24, Energy=    -286.8495260980
C        1.1911648974    0.2025933908    0.3415491045
C        0.7933786629   -1.0414040634   -0.3746763582
C       -0.5220927996   -1.0039263005   -0.7920183277
C       -1.0558969245    0.2138987200    0.0996971746
C       -0.4532727947    1.4505149779   -0.4729832718
N        0.8169779400    1.4762649960   -0.2466773100
H        2.1702851129    0.2166442427    0.8142870995
H        1.4538822990   -1.9068547052   -0.3764161960
H       -0.9983995167   -1.3396802608   -1.7094488920
H       -2.1316938462    0.0675125438    0.1896585037
H       -0.9287101372    2.3891204941   -0.7573030362
C       -0.0775859874    0.0030035364    1.2475134436
H       -0.2580369059   -0.7276875717    2.0368180661
13   
From optimize.out: Frame 16 / 24, Energy=    -286.8509243224
C        1.1708039408    0.1814053994    0.3966364114
C        0.8220713334   -1.0431274001   -0.4192075021
C       -0.5087330680   -0.9994400993   -0.7767911818
C       -1.0602605091    0.2059542615    0.0984492384
C       -0.4473699459    1.4506235620   -0.4741367112
N        0.8192559188    1.4665065506   -0.2346621620
H        2.1581161168    0.2166059613    0.8519471007
H        1.5005610241   -1.8887570678   -0.4988453290
H       -1.0106621310   -1.3463097558   -1.6729367505
H       -2.1432079655    0.0865567810    0.1760580758
H       -0.9243814304    2.3741179162   -0.7984514789
C       -0.0979900338    0.0092729529    1.2804895696
H       -0.2782032501   -0.7134090620    2.0714507196
13   
From optimize.out: Frame 17 / 24, Energy=    -286.8511511751
C        1.1481346823    0.1606875302    0.4534544124
C        0.8402574025   -1.0391030328   -0.4549925405
C       -0.4916903422   -0.9766131754   -0.7476067302
C       -1.0660509680    0.1947010708    0.0883247363
C       -0.4341535805    1.4524649733   -0.4793191493
N        0.8288781624    1.4562149255   -0.2388859229
H        2.1409911909    0.2289295572    0.8954243923
H        1.5246829034   -1.8639773360   -0.6160073498
H       -1.0234243856   -1.3651658250   -1.6059226044
H       -2.1538150936    0.1122232560    0.1690233297
H       -0.9135410836    2.3617674308   -0.8345907213
C       -0.1118735656    0.0006002625    1.2915347852
H       -0.2883953224   -0.7227296372    2.0795633626
13   
From optimize.out: Frame 19 / 24, Energy=    -286.8515658299
C        1.1213352643    0.1433782861    0.4806396129
C        0.8602698315   -1.0190486714   -0.4968043047
C       -0.4651849845   -0.9991185501   -0.7512346017
C       -1.0855107651    0.1992443574    0.1006226928
C       -0.4198574040    1.4462271498   -0.4776872390
N        0.8387065297    1.4429998889   -0.2353581550
H        2.1126377025    0.2131109445    0.9265851828
H        1.5722893475   -1.8068815151   -0.7115831250
H       -1.0011904843   -1.4251018319   -1.5899109903
H       -2.1735230086    0.1540350936    0.1932244268
H       -0.8880640641    2.3541789391   -0.8499392751
C       -0.1405208098    0.0063062603    1.3083424361