
Running Job 1 of 1 optimize.in
qchem optimize.in_3879.0 ./optimize.d/ 1
/home/leeping/opt/qchem/5.0.2-openmp/exe/qcprog.exe_s optimize.in_3879.0 ./optimize.d/
Check license passed

                  Welcome to Q-Chem
     A Quantum Leap Into The Future Of Chemistry


 Q-Chem 5.0, Q-Chem, Inc., Pleasanton, CA (2017)

 Yihan Shao,  Zhengting Gan,  E. Epifanovsky,  A. T. B. Gilbert,  M. Wormit,  
 J. Kussmann,  A. W. Lange,  A. Behn,  Jia Deng,  Xintian Feng,  D. Ghosh,  
 M. Goldey,  P. R. Horn,  L. D. Jacobson,  I. Kaliman,  T. Kus,  A. Landau,  
 Jie Liu,  E. I. Proynov,  R. M. Richard,  R. P. Steele,  E. J. Sundstrom,  
 H. L. Woodcock III,  P. M. Zimmerman,  D. Zuev,  B. Albrecht,  E. Alguire,  
 S. A. Baeppler,  D. Barton,  Z. Benda,  Y. A. Bernard,  E. J. Berquist,  
 K. B. Bravaya,  H. Burton,  D. Casanova,  Chun-Min Chang,  Yunqing Chen,  
 A. Chien,  K. D. Closser,  M. P. Coons,  S. Dasgupta,  A. L. Dempwolff,  
 M. Diedenhofen,  Hainam Do,  R. G. Edgar,  Po-Tung Fang,  S. Fatehi,  
 Qingguo Feng,  J. Fosso-Tande,  Qinghui Ge,  A. Ghysels,  G. Gidofalvi,  
 J. Gomes,  J. Gonthier,  A. Gunina,  M. W. D. Hanson-Heine,  
 P. H. P. Harbach,  A. W. Hauser,  J. E. Herr,  E. G. Hohenstein,  
 Z. C. Holden,  Kerwin Hui,  T.-C. Jagau,  Hyunjun Ji,  B. Kaduk,  
 K. Khistyaev,  Jaehoon Kim,  P. Klunzinger,  K. Koh,  D. Kosenkov,  
 L. Koulias,  T. Kowalczyk,  C. M. Krauter,  A. Kunitsa,  Ka Un Lao,  
 A. Laurent,  K. V. Lawler,  Joonho Lee,  D. Lefrancois,  S. Lehtola,  
 D. S. Levine,  Yi-Pei Li,  You-Sheng Lin,  Fenglai Liu,  E. Livshits,  
 A. Luenser,  P. Manohar,  E. Mansoor,  S. F. Manzer,  Shan-Ping Mao,  
 Yuezhi Mao,  N. Mardirossian,  A. V. Marenich,  T. Markovich,  
 L. A. Martinez-Martinez,  S. A. Maurer,  N. J. Mayhall,  S. C. McKenzie,  
 J.-M. Mewes,  A. F. Morrison,  J. W. Mullinax,  K. Nanda,  
 T. S. Nguyen-Beck,  R. Olivares-Amaya,  J. A. Parkhill,  T. M. Perrine,  
 F. Plasser,  S. Prager,  A. Prociuk,  E. Ramos,  D. R. Rehn,  F. Rob,  
 M. Schneider,  N. Sergueev,  S. M. Sharada,  S. Sharma,  D. W. Small,  
 T. Stauch,  T. Stein,  Yu-Chuan Su,  A. J. W. Thom,  A. Tkatchenko,  
 T. Tsuchimochi,  L. Vogt,  O. Vydrov,  M. A. Watson,  J. Wenzel,  
 M. de Wergifosse,  T. A. Wesolowski,  A. White,  J. Witte,  A. Yamada,  
 Jun Yang,  K. Yao,  S. Yeganeh,  S. R. Yost,  Zhi-Qiang You,  A. Zech,  
 Igor Ying Zhang,  Xing Zhang,  Yan Zhao,  Ying Zhu,  B. R. Brooks,  
 G. K. L. Chan,  C. J. Cramer,  M. S. Gordon,  W. J. Hehre,  A. Klamt,  
 M. W. Schmidt,  C. D. Sherrill,  D. G. Truhlar,  A. Aspuru-Guzik,  R. Baer,  
 A. T. Bell,  N. A. Besley,  Jeng-Da Chai,  R. A. DiStasio Jr.,  A. Dreuw,  
 B. D. Dunietz,  T. R. Furlani,  Chao-Ping Hsu,  Yousung Jung,  Jing Kong,  
 D. S. Lambrecht,  WanZhen Liang,  C. Ochsenfeld,  V. A. Rassolov,  
 L. V. Slipchenko,  J. E. Subotnik,  T. Van Voorhis,  J. M. Herbert,  
 A. I. Krylov,  P. M. W. Gill,  M. Head-Gordon

 Contributors to earlier versions of Q-Chem not listed above: 
 R. D. Adamson,  B. Austin,  J. Baker,  G. J. O. Beran,  K. Brandhorst,  
 S. T. Brown,  E. F. C. Byrd,  A. K. Chakraborty,  C.-L. Cheng,  
 Siu Hung Chien,  D. M. Chipman,  D. L. Crittenden,  H. Dachsel,  
 R. J. Doerksen,  A. D. Dutoi,  L. Fusti-Molnar,  W. A. Goddard III,  
 A. Golubeva-Zadorozhnaya,  S. R. Gwaltney,  G. Hawkins,  A. Heyden,  
 S. Hirata,  G. Kedziora,  F. J. Keil,  C. Kelley,  Jihan Kim,  R. A. King,  
 R. Z. Khaliullin,  P. P. Korambath,  W. Kurlancheek,  A. M. Lee,  M. S. Lee,  
 S. V. Levchenko,  Ching Yeh Lin,  D. Liotard,  R. C. Lochan,  I. Lotan,  
 P. E. Maslen,  N. Nair,  D. P. O'Neill,  D. Neuhauser,  E. Neuscamman,  
 C. M. Oana,  R. Olson,  B. Peters,  R. Peverati,  P. A. Pieniazek,  
 Y. M. Rhee,  J. Ritchie,  M. A. Rohrdanz,  E. Rosta,  N. J. Russ,  
 H. F. Schaefer III,  N. E. Schultz,  N. Shenvi,  A. C. Simmonett,  A. Sodt,  
 D. Stuck,  K. S. Thanthiriwatte,  V. Vanovschi,  Tao Wang,  A. Warshel,  
 C. F. Williams,  Q. Wu,  X. Xu,  W. Zhang

 Please cite Q-Chem as follows:
 Y. Shao et al., Mol. Phys. 113, 184-215 (2015)
 DOI: 10.1080/00268976.2014.952696

 Q-Chem 5.0.2 for Intel X86 EM64T Linux

 Parts of Q-Chem use Armadillo 5.200.1 (Boston Tea Smuggler).
 http://arma.sourceforge.net/

 Q-Chem begins on Tue Mar  1 19:02:05 2022  

Host: 
0

     Scratch files written to ./optimize.d//
 Dec517 15110_ 26548  26544 5633   
Processing $rem in /home/leeping/opt/qchem/5.0.2-openmp/config/preferences.
 MEM_STATIC 2000
 MEM_TOTAL  8000
 SYMMETRY   OFF
 SYM_IGNORE TRUE 

Checking the input file for inconsistencies... 	...done.

--------------------------------------------------------------
User input:
--------------------------------------------------------------
$molecule
0 2
C        1.6743008766    0.2996164537   -2.3316921139
C        1.2703594332   -1.0973644381   -2.3052671545
C       -0.1160931123   -1.2729716452   -2.4113758165
C       -1.4042992337    0.4471441171   -0.8648241519
C       -0.8551435909    1.0573234632   -2.0884924270
N        0.8752345605    1.3817837221   -2.7804458413
H        2.7900299037    0.3966411484   -2.1973751509
H        1.8870516106   -1.7863755108   -1.7284759913
H       -0.4318328172   -1.5696865181   -3.4042696204
H       -1.2148914524    0.8811278605    0.1447918478
H       -1.7008061418    1.4941069935   -2.6185020738
C       -1.5663446149   -0.9008307177   -1.1028417785
H       -1.9144987475   -1.7598744657   -0.3457620661
$end

$rem
method                b3lyp
basis                 6-31g(d)
unrestricted          true
symmetry              off
sym_ignore            true
incdft                false
incfock               0
scf_convergence       8
thresh                14
jobtype               opt
scf_guess             read
scf_algorithm         diis
max_scf_cycles        100
geom_opt_tol_gradient 600
geom_opt_tol_displacement 2400
geom_opt_tol_energy   200
geom_opt_max_cycles   100
$end

--------------------------------------------------------------
 ----------------------------------------------------------------
             Standard Nuclear Orientation (Angstroms)
    I     Atom           X                Y                Z
 ----------------------------------------------------------------
    1      C       1.6743008766     0.2996164537    -2.3316921139
    2      C       1.2703594332    -1.0973644381    -2.3052671545
    3      C      -0.1160931123    -1.2729716452    -2.4113758165
    4      C      -1.4042992337     0.4471441171    -0.8648241519
    5      C      -0.8551435909     1.0573234632    -2.0884924270
    6      N       0.8752345605     1.3817837221    -2.7804458413
    7      H       2.7900299037     0.3966411484    -2.1973751509
    8      H       1.8870516106    -1.7863755108    -1.7284759913
    9      H      -0.4318328172    -1.5696865181    -3.4042696204
   10      H      -1.2148914524     0.8811278605     0.1447918478
   11      H      -1.7008061418     1.4941069935    -2.6185020738
   12      C      -1.5663446149    -0.9008307177    -1.1028417785
   13      H      -1.9144987475    -1.7598744657    -0.3457620661
 ----------------------------------------------------------------
 Nuclear Repulsion Energy =   244.9447944746 hartrees
 There are       25 alpha and       24 beta electrons
 Requested basis set is 6-31G(d)
 There are 40 shells and 117 basis functions

 Total QAlloc Memory Limit   8000 MB
 Mega-Array Size      1956 MB
 MEM_STATIC part      2000 MB
 A cutoff of  1.0D-14 yielded    799 shell pairs
 There are      7061 function pairs
 
 -------------------------------------------------------
 OpenMP Integral Computing Module                       
 Release: version 1.0, May 2013, Q-Chem Inc. Pittsburgh 
 -------------------------------------------------------
 Integral Job Info:
 Integral job number is                      11
 Integral operator is                         1
 short-range coefficients                     0
 long-range coefficients              100000000
 Omega coefficients                           0
 if combine SR and LR in K                    0
 Integral screening is                        0
 Integral computing path is                   2
 max size of driver memory is            800000
 size of driver memory is                593474
 size of scratch memory is              2361544
 max col of scratch BK array               1296
 max len of scratch array in speh3          155
 max len of scratch index in speh4           18
 max int batch size is                      520
 min int batch size is                       52
 fixed nKL is                                52
 max L of basis functions is                  2
 order of int derivative is                   0
 number of shells is                         40
 number of basis is                         117
 number of cartesian basis is               117
 number of contracted shell pairs           799
 number of primitive shell pairs           3347
 maxK2 (contraction) of shell pair           36
 max number of K2 of shell pair               1
 max number of CS2 of shell pair             86
 max number of PS2 of shell pair            420
 mem total for path MDJ                  532812
 -------------------------------------------------------
 Smallest overlap matrix eigenvalue = 3.88E-03

 Scale SEOQF with 1.000000e-01/1.000000e-01/1.000000e-01

 Standard Electronic Orientation quadrupole field applied
 Nucleus-field energy     =    -0.0000000164 hartrees
 Guess MOs from SCF MO coefficient file
 Reading MOs from coefficient file
 Reading MOs from coefficient file
 An unrestricted hybrid HF-DFT SCF calculation will be
 performed using Pulay DIIS extrapolation
 Exchange:     0.2000 Hartree-Fock + 0.0800 Slater + 0.7200 B88
 Correlation:  0.1900 VWN1RPA + 0.8100 LYP
 Using SG-1 standard quadrature grid
 SCF converges when DIIS error is below 1.0E-08
Using Q-Chem read-in guess as SCF_GUESS READ specified.

 using 4 threads for integral computing
 -------------------------------------------------------
 OpenMP Integral computing Module                
 Release: version 1.0, May 2013, Q-Chem Inc. Pittsburgh 
 -------------------------------------------------------
 -------------------------------------------------------
 OpenMP BLAS3 based DFT computing Module                
 Release: version 1.0, May 2013, Q-Chem Inc. Pittsburgh 
 -------------------------------------------------------
 ---------------------------------------
  Cycle       Energy         DIIS Error
 ---------------------------------------
    1    -286.5896370306      2.03E-09
    2    -286.5896370306      4.84E-09 Convergence criterion met
 ---------------------------------------
 <S^2> = 1.3482
 SCF time:  CPU 5.07 s  wall 3.35 s
 SCF   energy in the final basis set = -286.58963703
 Total energy in the final basis set = -286.58963703
 
 --------------------------------------------------------------
 
                    Orbital Energies (a.u.)
 --------------------------------------------------------------
 
 Alpha MOs
 -- Occupied --
-14.382 -10.251 -10.244 -10.243 -10.225 -10.223 -10.218  -0.866
 -0.797  -0.765  -0.646  -0.626  -0.534  -0.520  -0.469  -0.460
 -0.414  -0.410  -0.384  -0.348  -0.328  -0.298  -0.254  -0.231
 -0.198
 -- Virtual --
 -0.071  -0.054  -0.030   0.039   0.076   0.114   0.130   0.145
  0.154   0.163   0.180   0.243   0.284   0.313   0.357   0.383
  0.476   0.503   0.523   0.558   0.575   0.586   0.593   0.600
  0.605   0.641   0.643   0.667   0.694   0.713   0.735   0.767
  0.794   0.803   0.815   0.834   0.844   0.859   0.864   0.890
  0.905   0.956   0.982   1.006   1.032   1.116   1.149   1.152
  1.249   1.283   1.379   1.427   1.480   1.518   1.595   1.630
  1.706   1.728   1.747   1.799   1.820   1.852   1.901   1.911
  1.956   1.988   2.001   2.060   2.107   2.136   2.168   2.216
  2.229   2.269   2.342   2.372   2.441   2.476   2.495   2.564
  2.645   2.659   2.769   2.791   2.878   3.721   4.034   4.116
  4.161   4.228   4.352   4.412
 
 Beta MOs
 -- Occupied --
-14.370 -10.248 -10.245 -10.235 -10.233 -10.220 -10.217  -0.853
 -0.788  -0.757  -0.637  -0.623  -0.524  -0.520  -0.471  -0.453
 -0.408  -0.407  -0.378  -0.339  -0.312  -0.278  -0.231  -0.208
 -- Virtual --
 -0.121  -0.056  -0.039  -0.018   0.055   0.080   0.121   0.130
  0.148   0.154   0.166   0.180   0.245   0.290   0.318   0.360
  0.388   0.479   0.509   0.525   0.564   0.580   0.586   0.600
  0.604   0.618   0.637   0.645   0.675   0.696   0.723   0.735
  0.772   0.797   0.810   0.824   0.839   0.856   0.864   0.869
  0.890   0.910   0.961   0.985   1.011   1.034   1.120   1.152
  1.158   1.261   1.294   1.385   1.434   1.488   1.524   1.606
  1.632   1.720   1.736   1.750   1.805   1.838   1.851   1.905
  1.919   1.971   2.000   2.026   2.068   2.111   2.142   2.173
  2.219   2.236   2.272   2.345   2.374   2.452   2.481   2.501
  2.574   2.647   2.673   2.772   2.795   2.878   3.743   4.039
  4.121   4.177   4.212   4.360   4.413
 --------------------------------------------------------------
 
          Ground-State Mulliken Net Atomic Charges

     Atom                 Charge (a.u.)    Spin (a.u.)
  --------------------------------------------------------
      1 C                     0.047582      -0.292845
      2 C                    -0.115371       0.583141
      3 C                    -0.198658      -0.866088
      4 C                    -0.128232      -0.178019
      5 C                    -0.115965       0.747807
      6 N                    -0.321559       0.574298
      7 H                     0.147105       0.008619
      8 H                     0.160786      -0.055614
      9 H                     0.174582       0.054005
     10 H                     0.163624       0.055016
     11 H                     0.171535      -0.039905
     12 C                    -0.128181       0.384166
     13 H                     0.142753       0.025420
  --------------------------------------------------------
  Sum of atomic charges =    -0.000000
  Sum of spin   charges =     1.000000

 -----------------------------------------------------------------
                    Cartesian Multipole Moments
 -----------------------------------------------------------------
    Charge (ESU x 10^10)
                 0.0000
    Dipole Moment (Debye)
         X       0.0700      Y      -1.7889      Z       1.5669
       Tot       2.3791
    Quadrupole Moments (Debye-Ang)
        XX     -38.1705     XY      -3.0368     YY     -43.3325
        XZ       0.1771     YZ       5.2178     ZZ     -46.6978
    Octopole Moments (Debye-Ang^2)
       XXX      15.2059    XXY       0.0509    XYY      -3.9072
       YYY      -3.9618    XXZ      76.9572    XYZ       9.0373
       YYZ      90.2856    XZZ      -5.4218    YZZ     -15.1818
       ZZZ     261.5917
    Hexadecapole Moments (Debye-Ang^3)
      XXXX    -436.8099   XXXY      -7.7804   XXYY    -123.4175
      XYYY     -15.3124   YYYY    -334.0920   XXXZ      54.6138
      XXYZ      -2.9976   XYYZ      37.3007   YYYZ      24.4192
      XXZZ    -260.5143   XYZZ     -23.4991   YYZZ    -267.7010
      XZZZ     106.9931   YZZZ      62.5649   ZZZZ   -1194.8969
 -----------------------------------------------------------------
 Calculating analytic gradient of the SCF energy
 Gradient of SCF Energy
            1           2           3           4           5           6
    1   0.0102295  -0.0005886   0.0852260  -0.0507788  -0.0394132   0.0167958
    2   0.0020923  -0.0651318  -0.0034941   0.0422956   0.0154675   0.0467133
    3   0.0337692  -0.0512890  -0.0028451  -0.0079660   0.0369034  -0.0701312
            7           8           9          10          11          12
    1   0.0201024  -0.0061247   0.0185064   0.0246566  -0.0166848  -0.0487431
    2  -0.0153258   0.0030874   0.0003255  -0.0000726  -0.0086206   0.0206602
    3   0.0088664   0.0058421  -0.0000430   0.0088868   0.0208502  -0.0180989
           13
    1  -0.0131833
    2  -0.0379970
    3   0.0352550
 Max gradient component =       8.523E-02
 RMS gradient           =       3.161E-02
 Gradient time:  CPU 7.55 s  wall 2.33 s
 Geometry Optimization Parameters
   NAtoms,    NIC,     NZ,  NCons,   NDum,   NFix, NCnnct, MaxDiis
       13      82       0       0       0       0       0       0


** GEOMETRY OPTIMIZATION IN DELOCALIZED INTERNAL COORDINATES **
   Searching for a Minimum

   Optimization Cycle:   1

                       Coordinates (Angstroms)
     ATOM                X               Y               Z
      1  C         1.6743008766    0.2996164537   -2.3316921139
      2  C         1.2703594332   -1.0973644381   -2.3052671545
      3  C        -0.1160931123   -1.2729716452   -2.4113758165
      4  C        -1.4042992337    0.4471441171   -0.8648241519
      5  C        -0.8551435909    1.0573234632   -2.0884924270
      6  N         0.8752345605    1.3817837221   -2.7804458413
      7  H         2.7900299037    0.3966411484   -2.1973751509
      8  H         1.8870516106   -1.7863755108   -1.7284759913
      9  H        -0.4318328172   -1.5696865181   -3.4042696204
     10  H        -1.2148914524    0.8811278605    0.1447918478
     11  H        -1.7008061418    1.4941069935   -2.6185020738
     12  C        -1.5663446149   -0.9008307177   -1.1028417785
     13  H        -1.9144987475   -1.7598744657   -0.3457620661
   Point Group: c1    Number of degrees of freedom:    33


   Energy is   -286.589637031


 Attempting to Generate Delocalized Internal Coordinates

 33 Hessian modes will be used to form the next step
  Hessian Eigenvalues:
     0.006931    0.008896    0.012209    0.015417    0.018302    0.019923
     0.020643    0.024683    0.031071    0.055956    0.092712    0.108866
     0.117323    0.138101    0.142545    0.156704    0.159366    0.159529
     0.173590    0.199683    0.212047    0.225721    0.249001    0.307696
     0.320616    0.336772    0.348321    0.348798    0.355969    0.368224
     0.415477    0.440557    0.483872

 Minimum Search - Taking Simple RFO Step
 Searching for Lamda that Minimizes Along All modes
 Value Taken    Lamda =  -0.12461431
 Calculated Step too Large.  Step scaled by  0.422397
 Step Taken.  Stepsize is  0.300000

                             Maximum     Tolerance    Cnvgd?
         Gradient           0.089799      0.000600      NO
         Displacement       0.140691      0.002400      NO
         Energy change     *********      0.000002      NO


 New Cartesian Coordinates Obtained by Inverse Iteration

 Displacement from previous Coordinates is:  0.461722
 ----------------------------------------------------------------
             Standard Nuclear Orientation (Angstroms)
    I     Atom           X                Y                Z
 ----------------------------------------------------------------
    1      C       1.6464770319     0.3143419501    -2.3028206368
    2      C       1.2201594159    -1.0609663993    -2.2835385000
    3      C      -0.1748365747    -1.2572624571    -2.4029572668
    4      C      -1.3493383129     0.4101479916    -0.8826111777
    5      C      -0.8057634813     1.0208974090    -2.1154226758
    6      N       0.8699839093     1.3782625463    -2.7348207999
    7      H       2.7504960562     0.4303136399    -2.1716207466
    8      H       1.8415138698    -1.7607151919    -1.7228242193
    9      H      -0.5311142293    -1.5427279736    -3.3881668056
   10      H      -1.1855470508     0.8640999466     0.1158994846
   11      H      -1.6228756559     1.4593507747    -2.6877726553
   12      C      -1.5138924461    -0.9251554694    -1.0982430764
   13      H      -1.8521958582    -1.7599463038    -0.3596332627
 ----------------------------------------------------------------
 Nuclear Repulsion Energy =   249.1152166490 hartrees
 There are       25 alpha and       24 beta electrons
 Applying Cartesian multipole field
    Component          Value
    ---------          -----
     (2,0,0)        1.00000E-11
     (0,2,0)        2.00000E-11
     (0,0,2)       -3.00000E-11
 Nucleus-field energy     =    -0.0000000164 hartrees
 Requested basis set is 6-31G(d)
 There are 40 shells and 117 basis functions
 A cutoff of  1.0D-14 yielded    801 shell pairs
 There are      7068 function pairs
 Smallest overlap matrix eigenvalue = 3.60E-03
 Guess MOs from SCF MO coefficient file
 Reading MOs from coefficient file
 Reading MOs from coefficient file
 An unrestricted hybrid HF-DFT SCF calculation will be
 performed using Pulay DIIS extrapolation
 Exchange:     0.2000 Hartree-Fock + 0.0800 Slater + 0.7200 B88
 Correlation:  0.1900 VWN1RPA + 0.8100 LYP
 Using SG-1 standard quadrature grid
 SCF converges when DIIS error is below 1.0E-08
 Geometry optimization detected.  Setting ReadMinima to 0
 Setting SaveMinima to 0
Using Q-Chem read-in guess as SCF_GUESS READ specified.

 using 4 threads for integral computing
 -------------------------------------------------------
 OpenMP Integral computing Module                
 Release: version 1.0, May 2013, Q-Chem Inc. Pittsburgh 
 -------------------------------------------------------
 -------------------------------------------------------
 OpenMP BLAS3 based DFT computing Module                
 Release: version 1.0, May 2013, Q-Chem Inc. Pittsburgh 
 -------------------------------------------------------
 ---------------------------------------
  Cycle       Energy         DIIS Error
 ---------------------------------------
    1    -286.7185376231      2.43E-03
    2    -286.6379693327      1.11E-03
    3    -286.6378405476      1.25E-03
    4    -286.6406542511      4.63E-04
    5    -286.6411377238      1.13E-04
    6    -286.6412448939      5.61E-05
    7    -286.6413311591      4.06E-05
    8    -286.6414176202      2.58E-05
    9    -286.6415421032      2.64E-05
   10    -286.6415991428      2.00E-05
   11    -286.6417445915      1.99E-05
   12    -286.6418441057      1.69E-05
   13    -286.6421429061      1.52E-05
   14    -286.6421654508      1.52E-05
   15    -286.6421176467      1.46E-05
   16    -286.6418801240      1.80E-05
   17    -286.6416727545      2.24E-05
   18    -286.6419239141      1.86E-05
   19    -286.6419496887      1.93E-05
   20    -286.6419463214      1.94E-05
   21    -286.6420006571      1.90E-05
   22    -286.6419794579      1.95E-05
   23    -286.6420036087      1.90E-05
   24    -286.6418701541      1.99E-05
   25    -286.6418814019      1.94E-05
   26    -286.6418864385      2.00E-05
   27    -286.6419039729      2.02E-05
   28    -286.6419083074      2.05E-05
   29    -286.6418817260      2.02E-05
   30    -286.6418800471      1.54E-05
   31    -286.6419119064      1.48E-05
   32    -286.6419426564      2.33E-05
   33    -286.6419538631      1.45E-05
   34    -286.6419628710      9.24E-06
   35    -286.6419705580      9.57E-06
   36    -286.6419371152      1.07E-05
   37    -286.6418989410      9.94E-06
   38    -286.6417426813      1.19E-05
   39    -286.6418982708      1.19E-05
   40    -286.6422431060      1.91E-05
   41    -286.6421821837      1.79E-05
   42    -286.6419462274      1.90E-05
   43    -286.6419453178      1.90E-05
   44    -286.6419479087      1.91E-05
   45    -286.6419767407      3.56E-05
   46    -286.6419882719      1.68E-05
   47    -286.6419982477      9.07E-06
   48    -286.6420123874      1.12E-05
   49    -286.6419986937      1.18E-05
   50    -286.6419398832      1.07E-05
   51    -286.6417973157      1.13E-05
   52    -286.6417671252      1.14E-05
   53    -286.6421783223      1.71E-05
   54    -286.6421727398      1.70E-05
   55    -286.6422168075      3.42E-05
   56    -286.6422330579      1.67E-05
   57    -286.6422467324      1.13E-05
   58    -286.6422654278      1.31E-05
   59    -286.6421795574      1.41E-05
   60    -286.6420369670      9.45E-06
   61    -286.6419065699      1.03E-05
   62    -286.6418554342      1.04E-05
   63    -286.6420211991      1.06E-05
   64    -286.6423196122      2.22E-05
   65    -286.6420015452      1.86E-05
   66    -286.6419667948      1.98E-05
   67    -286.6420472916      2.10E-05
   68    -286.6420571040      2.11E-05
   69    -286.6420662336      2.16E-05
   70    -286.6419787522      2.03E-05
   71    -286.6419977199      2.09E-05
   72    -286.6420419285      2.15E-05
   73    -286.6419988074      2.14E-05
   74    -286.6417865713      1.79E-05
   75    -286.6416824804      2.00E-05
   76    -286.6415951913      2.27E-05
   77    -286.6417528126      1.95E-05
   78    -286.6416818646      2.19E-05
   79    -286.6415114822      2.81E-05
   80    -286.6415060171      2.75E-05
   81    -286.6414929279      2.90E-05
   82    -286.6415981557      2.50E-05
   83    -286.6415645573      2.62E-05
   84    -286.6415542504      2.68E-05
   85    -286.6417215335      2.04E-05
   86    -286.6417904518      1.80E-05
   87    -286.6417550208      1.90E-05
   88    -286.6418023488      1.52E-05
   89    -286.6421207953      1.44E-05
   90    -286.6416365601      2.26E-05
   91    -286.6415049392      2.81E-05
   92    -286.6416767856      2.14E-05
   93    -286.6416784640      2.08E-05
   94    -286.6418534681      1.50E-05
   95    -286.6415842212      2.44E-05
   96    -286.6416495581      2.22E-05
   97    -286.6416256237      2.30E-05
   98    -286.6417285195      1.95E-05
   99    -286.6416957519      2.05E-05
  100    -286.6416761464      2.17E-05    Convergence failure

 Q-Chem fatal error occurred in module /scratch/svnadmin/15110_zgan/qchem/scfman/scfman.C, line 5101:

 SCF failed to converge

