13   
From optimize.out: Frame 1 / 21, Energy=    -286.5896370306
C        0.0475820000   -0.2928450000   -0.0000000000
C       -0.1153710000    0.5831410000   -0.0000000000
C       -0.1986580000   -0.8660880000   -0.0000000000
C       -0.1282320000   -0.1780190000   -0.0000000000
C       -0.1159650000    0.7478070000   -0.0000000000
N       -0.3215590000    0.5742980000   -0.0000000000
H        0.1471050000    0.0086190000   -0.0000000000
H        0.1607860000   -0.0556140000   -0.0000000000
H        0.1745820000    0.0540050000   -0.0000000000
H        0.1636240000    0.0550160000    0.0000000000
H        0.1715350000   -0.0399050000   -0.0000000000
C       -0.1281810000    0.3841660000   -0.0000000000
H        0.1427530000    0.0254200000   -0.0000000000
13   
From optimize.out: Frame 3 / 21, Energy=    -286.6490635098
C        0.0556320000   -0.2333050000   -0.0000000000
C       -0.1207910000    0.4399280000   -0.0000000000
C       -0.1978680000    0.6550920000   -0.0000000000
C       -0.1224160000    0.0514440000   -0.0000000000
C       -0.1009530000   -0.6320570000   -0.0000000000
N       -0.3357990000    0.6744320000   -0.0000000000
H        0.1455690000    0.0210320000   -0.0000000000
H        0.1548370000    0.0056340000   -0.0000000000
H        0.1732920000   -0.0161900000   -0.0000000000
H        0.1680160000    0.0068420000    0.0000000000
H        0.1759970000    0.0273150000   -0.0000000000
C       -0.1363290000    0.0137050000   -0.0000000000
H        0.1408140000   -0.0138720000   -0.0000000000
13   
From optimize.out: Frame 4 / 21, Energy=    -286.6973519848
C        0.0607040000   -0.2171410000   -0.0000000000
C       -0.1144060000    0.4563840000   -0.0000000000
C       -0.2076130000    0.5369200000   -0.0000000000
C       -0.1095320000    0.0452240000   -0.0000000000
C       -0.0991320000   -0.4639010000   -0.0000000000
N       -0.3458090000    0.6033610000   -0.0000000000
H        0.1424990000    0.0162010000   -0.0000000000
H        0.1510870000   -0.0039440000   -0.0000000000
H        0.1740590000   -0.0093350000   -0.0000000000
H        0.1612950000    0.0103540000    0.0000000000
H        0.1739560000    0.0212250000   -0.0000000000
C       -0.1300790000    0.0126930000   -0.0000000000
H        0.1429710000   -0.0080410000   -0.0000000000
13   
From optimize.out: Frame 5 / 21, Energy=    -286.7419989578
C        0.0624140000   -0.2032200000   -0.0000000000
C       -0.1108210000    0.4686300000   -0.0000000000
C       -0.2165870000    0.4065000000   -0.0000000000
C       -0.0986510000    0.0445910000   -0.0000000000
C       -0.0930300000   -0.3019360000   -0.0000000000
N       -0.3510030000    0.5550150000   -0.0000000000
H        0.1403440000    0.0125460000   -0.0000000000
H        0.1477490000   -0.0126530000   -0.0000000000
H        0.1737810000   -0.0015650000   -0.0000000000
H        0.1541560000    0.0143160000    0.0000000000
H        0.1705150000    0.0150950000   -0.0000000000
C       -0.1213790000    0.0067690000   -0.0000000000
H        0.1425130000   -0.0040870000   -0.0000000000
13   
From optimize.out: Frame 6 / 21, Energy=    -286.7798769413
C        0.0602890000   -0.1956750000   -0.0000000000
C       -0.1097330000    0.4841420000   -0.0000000000
C       -0.2242310000    0.3079340000   -0.0000000000
C       -0.0909420000    0.0523360000   -0.0000000000
C       -0.0840230000   -0.1970510000   -0.0000000000
N       -0.3499280000    0.5279940000   -0.0000000000
H        0.1397050000    0.0101940000   -0.0000000000
H        0.1452300000   -0.0186010000   -0.0000000000
H        0.1722320000    0.0052030000   -0.0000000000
H        0.1475040000    0.0169720000    0.0000000000
H        0.1655620000    0.0117400000   -0.0000000000
C       -0.1122660000   -0.0033610000   -0.0000000000
H        0.1406010000   -0.0018270000   -0.0000000000
13   
From optimize.out: Frame 7 / 21, Energy=    -286.8081201075
C        0.0568350000   -0.1973290000   -0.0000000000
C       -0.1100100000    0.5141620000   -0.0000000000
C       -0.2299340000    0.2090700000   -0.0000000000
C       -0.0847470000    0.0638000000   -0.0000000000
C       -0.0762930000   -0.1270440000   -0.0000000000
N       -0.3438900000    0.5223940000   -0.0000000000
H        0.1406520000    0.0090520000   -0.0000000000
H        0.1433610000   -0.0232360000   -0.0000000000
H        0.1692100000    0.0124720000   -0.0000000000
H        0.1414620000    0.0178700000    0.0000000000
H        0.1600040000    0.0103140000   -0.0000000000
C       -0.1045430000   -0.0108290000   -0.0000000000
H        0.1378920000   -0.0006970000   -0.0000000000
13   
From optimize.out: Frame 8 / 21, Energy=    -286.8275226693
C        0.0559130000   -0.2095620000   -0.0000000000
C       -0.1097620000    0.5690590000   -0.0000000000
C       -0.2289520000    0.0898470000   -0.0000000000
C       -0.0789620000    0.0705580000   -0.0000000000
C       -0.0725460000   -0.0745800000   -0.0000000000
N       -0.3405480000    0.5376000000   -0.0000000000
H        0.1421250000    0.0090260000   -0.0000000000
H        0.1411430000   -0.0273210000   -0.0000000000
H        0.1643550000    0.0207180000   -0.0000000000
H        0.1366110000    0.0155460000   -0.0000000000
H        0.1554350000    0.0096430000   -0.0000000000
C       -0.1010910000   -0.0105040000   -0.0000000000
H        0.1362790000   -0.0000300000   -0.0000000000
13   
From optimize.out: Frame 9 / 21, Energy=    -286.8427474377
C        0.0558500000   -0.2191640000   -0.0000000000
C       -0.1132710000    0.6149520000   -0.0000000000
C       -0.2169140000    0.0143100000   -0.0000000000
C       -0.0752620000    0.0754750000   -0.0000000000
C       -0.0673070000   -0.0486680000   -0.0000000000
N       -0.3417190000    0.5441730000   -0.0000000000
H        0.1428380000    0.0090750000   -0.0000000000
H        0.1389270000   -0.0293130000   -0.0000000000
H        0.1582300000    0.0256420000   -0.0000000000
H        0.1344550000    0.0117290000   -0.0000000000
H        0.1511500000    0.0101530000   -0.0000000000
C       -0.1023980000   -0.0094130000   -0.0000000000
H        0.1354180000    0.0010510000   -0.0000000000
13   
From optimize.out: Frame 10 / 21, Energy=    -286.8540420596
C        0.0551090000   -0.2241690000   -0.0000000000
C       -0.1173240000    0.6468730000   -0.0000000000
C       -0.2078190000   -0.0163360000   -0.0000000000
C       -0.0745110000    0.0810280000   -0.0000000000
C       -0.0616550000   -0.0409090000   -0.0000000000
N       -0.3432520000    0.5347050000   -0.0000000000
H        0.1425140000    0.0088870000   -0.0000000000
H        0.1396060000   -0.0306390000   -0.0000000000
H        0.1537570000    0.0267960000   -0.0000000000
H        0.1347600000    0.0085490000   -0.0000000000
H        0.1484200000    0.0127150000   -0.0000000000
C       -0.1040330000   -0.0098720000   -0.0000000000
H        0.1344290000    0.0023720000   -0.0000000000
13   
From optimize.out: Frame 11 / 21, Energy=    -286.8625629266
C        0.0536470000   -0.2268130000   -0.0000000000
C       -0.1195240000    0.6692000000   -0.0000000000
C       -0.2052160000   -0.0308230000   -0.0000000000
C       -0.0763010000    0.0802460000   -0.0000000000
C       -0.0576120000   -0.0380130000   -0.0000000000
N       -0.3446170000    0.5243310000   -0.0000000000
H        0.1422360000    0.0085120000   -0.0000000000
H        0.1415030000   -0.0316430000   -0.0000000000
H        0.1513420000    0.0266830000   -0.0000000000
H        0.1356020000    0.0064610000   -0.0000000000
H        0.1481960000    0.0161600000   -0.0000000000
C       -0.1027430000   -0.0077700000   -0.0000000000
H        0.1334870000    0.0034700000   -0.0000000000
13   
From optimize.out: Frame 12 / 21, Energy=    -286.8687055824
C        0.0516790000   -0.2280750000   -0.0000000000
C       -0.1217860000    0.6841000000   -0.0000000000
C       -0.1981200000   -0.0408370000   -0.0000000000
C       -0.0772430000    0.0708440000   -0.0000000000
C       -0.0573050000   -0.0354160000   -0.0000000000
N       -0.3450880000    0.5166780000   -0.0000000000
H        0.1414550000    0.0079330000   -0.0000000000
H        0.1420680000   -0.0320980000   -0.0000000000
H        0.1499610000    0.0267820000   -0.0000000000
H        0.1363340000    0.0052280000   -0.0000000000
H        0.1484260000    0.0192110000   -0.0000000000
C       -0.1038880000    0.0009590000   -0.0000000000
H        0.1335080000    0.0046910000   -0.0000000000
13   
From optimize.out: Frame 13 / 21, Energy=    -286.8723117886
C        0.0502930000   -0.2289150000   -0.0000000000
C       -0.1194410000    0.6924360000   -0.0000000000
C       -0.2033570000   -0.0456170000   -0.0000000000
C       -0.0801160000    0.0617510000   -0.0000000000
C       -0.0538380000   -0.0340700000   -0.0000000000
N       -0.3476640000    0.5145540000   -0.0000000000
H        0.1414490000    0.0077280000   -0.0000000000
H        0.1444980000   -0.0324830000   -0.0000000000
H        0.1486550000    0.0260000000   -0.0000000000
H        0.1374730000    0.0042520000   -0.0000000000
H        0.1505570000    0.0220640000   -0.0000000000
C       -0.1007060000    0.0069920000   -0.0000000000
H        0.1321980000    0.0053080000   -0.0000000000
13   
From optimize.out: Frame 14 / 21, Energy=    -286.8745636639
C        0.0491020000   -0.2315960000   -0.0000000000
C       -0.1208090000    0.6982540000   -0.0000000000
C       -0.1930200000   -0.0500440000   -0.0000000000
C       -0.0796170000    0.0452620000   -0.0000000000
C       -0.0601060000   -0.0315540000   -0.0000000000
N       -0.3479740000    0.5143230000   -0.0000000000
H        0.1406960000    0.0075050000   -0.0000000000
H        0.1438940000   -0.0325210000   -0.0000000000
H        0.1489780000    0.0257310000   -0.0000000000
H        0.1374250000    0.0039860000   -0.0000000000
H        0.1510010000    0.0239360000   -0.0000000000
C       -0.1027360000    0.0206210000   -0.0000000000
H        0.1331670000    0.0060970000   -0.0000000000
13   
From optimize.out: Frame 16 / 21, Energy=    -286.8748748160
C        0.0475750000   -0.2309210000   -0.0000000000
C       -0.1155740000    0.6904470000   -0.0000000000
C       -0.1942980000   -0.0536280000   -0.0000000000
C       -0.0762770000    0.0333980000   -0.0000000000
C       -0.0592170000   -0.0281620000   -0.0000000000
N       -0.3526590000    0.5175550000   -0.0000000000
H        0.1406370000    0.0074570000   -0.0000000000
H        0.1443920000   -0.0320550000   -0.0000000000
H        0.1472610000    0.0256790000   -0.0000000000
H        0.1382050000    0.0038800000   -0.0000000000
H        0.1525930000    0.0252790000   -0.0000000000
C       -0.1055050000    0.0340420000   -0.0000000000
H        0.1328660000    0.0070290000   -0.0000000000
13   
From optimize.out: Frame 18 / 21, Energy=    -286.8753728372
C        0.0484090000   -0.2322090000   -0.0000000000
C       -0.1156490000    0.6955520000   -0.0000000000
C       -0.1940500000   -0.0536640000   -0.0000000000
C       -0.0767110000    0.0314550000   -0.0000000000
C       -0.0610770000   -0.0283340000   -0.0000000000
N       -0.3519100000    0.5187510000   -0.0000000000
H        0.1410210000    0.0074930000   -0.0000000000
H        0.1437330000   -0.0322510000   -0.0000000000
H        0.1484140000    0.0252050000   -0.0000000000
H        0.1373470000    0.0036490000   -0.0000000000
H        0.1515980000    0.0252440000   -0.0000000000
C       -0.1042770000    0.0325090000   -0.0000000000
H        0.1331520000    0.0065990000   -0.0000000000
13   
From optimize.out: Frame 20 / 21, Energy=    -286.8754792730
C        0.0480530000   -0.2308180000   -0.0000000000
C       -0.1149110000    0.6931870000   -0.0000000000
C       -0.1938100000   -0.0540140000   -0.0000000000
C       -0.0761700000    0.0321430000   -0.0000000000
C       -0.0612870000   -0.0277670000   -0.0000000000
N       -0.3514180000    0.5168250000   -0.0000000000
H        0.1405970000    0.0074370000   -0.0000000000
H        0.1434620000   -0.0321510000   -0.0000000000
H        0.1481010000    0.0252970000   -0.0000000000
H        0.1375010000    0.0036550000   -0.0000000000
H        0.1515590000    0.0253740000   -0.0000000000
C       -0.1050600000    0.0339230000   -0.0000000000
H        0.1333820000    0.0069100000   -0.0000000000
