13   
From optimize.out: Frame 1 / 3, Energy=    -286.9243417161
C        1.3960784201    0.7437234280   -0.5959173159
C        0.3635835181   -1.3573714866    0.3869511549
C       -0.9308699208   -0.9688280996    0.5631722859
C       -1.4999493556    0.3162287886    0.2490437581
C       -0.8679476358    1.4209866422   -0.2922682357
N        0.4045034645    1.6635437151   -0.6829185179
H        2.3488776696    1.1360265633   -0.9580442066
H        0.6251982123   -2.3708159614    0.6840300517
H       -1.6176108291   -1.7002651395    0.9848074461
H       -2.5591738579    0.4376211093    0.4622880786
H       -1.5132134634    2.2896824927   -0.4420123990
C        1.4394622984   -0.5628892499   -0.1493176981
H        2.4110614796   -1.0476428021   -0.2098144022
13   
From optimize.out: Frame 2 / 3, Energy=    -286.9243440615
C        1.3960829670    0.7443225564   -0.5949874076
C        0.3639012247   -1.3569228095    0.3887351509
C       -0.9308772275   -0.9687238373    0.5641770874
C       -1.4994999000    0.3164935697    0.2491947696
C       -0.8675764611    1.4213168892   -0.2914472093
N        0.4049107611    1.6637213178   -0.6813477997
H        2.3480693747    1.1360537116   -0.9598292382
H        0.6249665545   -2.3717715346    0.6820559101
H       -1.6174517793   -1.7004574560    0.9853868422
H       -2.5592310576    0.4374797798    0.4604030862
H       -1.5133671518    2.2891379140   -0.4433897298
C        1.4396186175   -0.5623635044   -0.1483629224
H        2.4104540778   -1.0482865966   -0.2105885396
