13   
From optimize.out: Frame 1 / 3, Energy=    -286.8249527070
C       -0.0447190000   -0.0805040000    0.0000000000
C       -0.1246290000    0.0895320000   -0.0000000000
C       -0.1250060000    0.0895250000   -0.0000000000
C       -0.1247410000    0.0890050000    0.0000000000
C       -0.0446920000   -0.0802840000   -0.0000000000
N       -0.2858280000    0.8106740000   -0.0000000000
H        0.1492730000    0.0010470000    0.0000000000
H        0.1440070000   -0.0025180000   -0.0000000000
H        0.1439920000   -0.0025250000   -0.0000000000
H        0.1440090000   -0.0024570000    0.0000000000
H        0.1493180000    0.0010460000   -0.0000000000
C       -0.1248730000    0.0899550000    0.0000000000
H        0.1438900000   -0.0024960000    0.0000000000
13   
From optimize.out: Frame 2 / 3, Energy=    -286.8249551859
C       -0.0447000000   -0.0804660000    0.0000000000
C       -0.1248200000    0.0896110000   -0.0000000000
C       -0.1248150000    0.0895850000   -0.0000000000
C       -0.1247660000    0.0888700000    0.0000000000
C       -0.0448600000   -0.0802840000   -0.0000000000
N       -0.2858410000    0.8109800000   -0.0000000000
H        0.1492940000    0.0010460000    0.0000000000
H        0.1440040000   -0.0025090000   -0.0000000000
H        0.1440070000   -0.0025270000   -0.0000000000
H        0.1439870000   -0.0024600000    0.0000000000
H        0.1493330000    0.0010450000   -0.0000000000
C       -0.1247400000    0.0895990000    0.0000000000
H        0.1439190000   -0.0024900000    0.0000000000
