13   
Frame   0 IRC: Energy =  -286.8735140000 ; +0.0000 kcal/mol
C        0.0260820000   -0.0902380000    0.0000000000
C       -0.1468450000    0.0482940000   -0.0000000000
C       -0.1278200000    0.0927470000   -0.0000000000
C        0.0081990000   -0.0609700000    0.0000000000
C       -0.0915110000   -0.0308780000   -0.0000000000
N       -0.2036070000    0.0247390000   -0.0000000000
H        0.1294160000    0.0035850000    0.0000000000
H        0.1389300000    0.0006030000   -0.0000000000
H        0.1385840000    0.0002340000   -0.0000000000
H        0.1246650000    0.0034970000    0.0000000000
H        0.1373410000   -0.0001310000   -0.0000000000
C       -0.2723430000    1.0343890000    0.0000000000
H        0.1389080000   -0.0258720000    0.0000000000
13   
Frame   1 IRC: Energy =  -286.8735120000 ; +0.0013 kcal/mol
C        0.0261420000   -0.0902240000    0.0000000000
C       -0.1468000000    0.0482810000   -0.0000000000
C       -0.1278870000    0.0927020000   -0.0000000000
C        0.0080190000   -0.0609660000    0.0000000000
C       -0.0914860000   -0.0308460000   -0.0000000000
N       -0.2036250000    0.0247160000   -0.0000000000
H        0.1294160000    0.0035820000    0.0000000000
H        0.1389370000    0.0006000000   -0.0000000000
H        0.1385720000    0.0002310000   -0.0000000000
H        0.1246390000    0.0034930000    0.0000000000
H        0.1373610000   -0.0001310000   -0.0000000000
C       -0.2722010000    1.0344160000    0.0000000000
H        0.1389130000   -0.0258550000    0.0000000000
13   
Frame   2 IRC: Energy =  -286.8734760000 ; +0.0238 kcal/mol
C        0.0259330000   -0.0903550000    0.0000000000
C       -0.1466050000    0.0500910000   -0.0000000000
C       -0.1279020000    0.0916630000   -0.0000000000
C        0.0073960000   -0.0609480000    0.0000000000
C       -0.0910590000   -0.0304030000   -0.0000000000
N       -0.2034440000    0.0241020000   -0.0000000000
H        0.1293990000    0.0035810000    0.0000000000
H        0.1389870000    0.0005270000   -0.0000000000
H        0.1387030000    0.0002580000   -0.0000000000
H        0.1245920000    0.0035240000    0.0000000000
H        0.1373240000   -0.0001450000   -0.0000000000
C       -0.2722930000    1.0338170000    0.0000000000
H        0.1389690000   -0.0257130000    0.0000000000
13   
Frame   3 IRC: Energy =  -286.8734700000 ; +0.0276 kcal/mol
C        0.0259720000   -0.0903440000    0.0000000000
C       -0.1465910000    0.0501960000   -0.0000000000
C       -0.1279660000    0.0916290000   -0.0000000000
C        0.0070200000   -0.0609770000    0.0000000000
C       -0.0908750000   -0.0302920000   -0.0000000000
N       -0.2034750000    0.0239670000   -0.0000000000
H        0.1293900000    0.0035810000    0.0000000000
H        0.1390060000    0.0005200000   -0.0000000000
H        0.1386910000    0.0002460000   -0.0000000000
H        0.1245540000    0.0035230000    0.0000000000
H        0.1373090000   -0.0001470000   -0.0000000000
C       -0.2720220000    1.0338400000    0.0000000000
H        0.1389870000   -0.0257420000    0.0000000000
13   
Frame   4 IRC: Energy =  -286.8734350000 ; +0.0496 kcal/mol
C        0.0259190000   -0.0904530000    0.0000000000
C       -0.1463340000    0.0513510000   -0.0000000000
C       -0.1279790000    0.0907380000   -0.0000000000
C        0.0068390000   -0.0609160000    0.0000000000
C       -0.0908340000   -0.0301020000   -0.0000000000
N       -0.2033310000    0.0237330000   -0.0000000000
H        0.1293850000    0.0035720000    0.0000000000
H        0.1390190000    0.0004650000   -0.0000000000
H        0.1387830000    0.0002820000   -0.0000000000
H        0.1245190000    0.0035370000    0.0000000000
H        0.1373380000   -0.0001550000   -0.0000000000
C       -0.2723120000    1.0335170000    0.0000000000
H        0.1389890000   -0.0255690000    0.0000000000
13   
Frame   5 IRC: Energy =  -286.8734250000 ; +0.0558 kcal/mol
C        0.0258010000   -0.0904440000    0.0000000000
C       -0.1461200000    0.0514720000   -0.0000000000
C       -0.1279650000    0.0904610000   -0.0000000000
C        0.0063680000   -0.0608980000    0.0000000000
C       -0.0906470000   -0.0299960000   -0.0000000000
N       -0.2033060000    0.0236210000   -0.0000000000
H        0.1293720000    0.0035590000    0.0000000000
H        0.1390250000    0.0004450000   -0.0000000000
H        0.1387570000    0.0002690000   -0.0000000000
H        0.1244580000    0.0035260000    0.0000000000
H        0.1373100000   -0.0001580000   -0.0000000000
C       -0.2720410000    1.0336730000    0.0000000000
H        0.1389870000   -0.0255320000    0.0000000000
13   
Frame   6 IRC: Energy =  -286.8733650000 ; +0.0935 kcal/mol
C        0.0258860000   -0.0906150000    0.0000000000
C       -0.1460940000    0.0529900000   -0.0000000000
C       -0.1281200000    0.0896500000   -0.0000000000
C        0.0060570000   -0.0609480000    0.0000000000
C       -0.0904780000   -0.0296830000   -0.0000000000
N       -0.2031590000    0.0232200000   -0.0000000000
H        0.1293660000    0.0035640000    0.0000000000
H        0.1390780000    0.0003930000   -0.0000000000
H        0.1388970000    0.0003070000   -0.0000000000
H        0.1244400000    0.0035580000    0.0000000000
H        0.1373300000   -0.0001690000   -0.0000000000
C       -0.2722310000    1.0332180000    0.0000000000
H        0.1390270000   -0.0254870000    0.0000000000
13   
Frame   7 IRC: Energy =  -286.8733350000 ; +0.1123 kcal/mol
C        0.0250000000   -0.0906860000    0.0000000000
C       -0.1458440000    0.0527970000   -0.0000000000
C       -0.1277030000    0.0890990000   -0.0000000000
C        0.0057290000   -0.0608710000    0.0000000000
C       -0.0907360000   -0.0296240000   -0.0000000000
N       -0.2026790000    0.0233350000   -0.0000000000
H        0.1293780000    0.0035330000    0.0000000000
H        0.1390050000    0.0004010000   -0.0000000000
H        0.1388900000    0.0002690000   -0.0000000000
H        0.1244240000    0.0035270000    0.0000000000
H        0.1373070000   -0.0001650000   -0.0000000000
C       -0.2718100000    1.0336240000    0.0000000000
H        0.1390410000   -0.0252400000    0.0000000000
13   
Frame   8 IRC: Energy =  -286.8732510000 ; +0.1650 kcal/mol
C        0.0263840000   -0.0907790000    0.0000000000
C       -0.1456110000    0.0552760000   -0.0000000000
C       -0.1284650000    0.0881610000   -0.0000000000
C        0.0050260000   -0.0609820000    0.0000000000
C       -0.0898270000   -0.0291770000   -0.0000000000
N       -0.2032330000    0.0225350000   -0.0000000000
H        0.1293120000    0.0035540000    0.0000000000
H        0.1391990000    0.0002630000   -0.0000000000
H        0.1390420000    0.0003630000   -0.0000000000
H        0.1242740000    0.0035850000    0.0000000000
H        0.1373140000   -0.0001900000   -0.0000000000
C       -0.2724310000    1.0328330000    0.0000000000
H        0.1390170000   -0.0254420000    0.0000000000
13   
Frame   9 IRC: Energy =  -286.8732170000 ; +0.1864 kcal/mol
C        0.0273230000   -0.0907570000    0.0000000000
C       -0.1457780000    0.0558700000   -0.0000000000
C       -0.1290060000    0.0882370000   -0.0000000000
C        0.0044660000   -0.0611100000    0.0000000000
C       -0.0893280000   -0.0289850000   -0.0000000000
N       -0.2036130000    0.0222230000   -0.0000000000
H        0.1292950000    0.0035730000    0.0000000000
H        0.1393110000    0.0002380000   -0.0000000000
H        0.1390620000    0.0003880000   -0.0000000000
H        0.1241870000    0.0036060000    0.0000000000
H        0.1373640000   -0.0001960000   -0.0000000000
C       -0.2723240000    1.0325320000    0.0000000000
H        0.1390400000   -0.0256200000    0.0000000000
13   
Frame  10 IRC: Energy =  -286.8726420000 ; +0.5472 kcal/mol
C        0.0257050000   -0.0918230000    0.0000000000
C       -0.1440470000    0.0613830000   -0.0000000000
C       -0.1288660000    0.0828070000   -0.0000000000
C        0.0022880000   -0.0612440000    0.0000000000
C       -0.0894540000   -0.0277950000   -0.0000000000
N       -0.2019760000    0.0213340000   -0.0000000000
H        0.1292690000    0.0034550000    0.0000000000
H        0.1393120000   -0.0000530000   -0.0000000000
H        0.1395180000    0.0004380000   -0.0000000000
H        0.1239620000    0.0036090000    0.0000000000
H        0.1373580000   -0.0002340000   -0.0000000000
C       -0.2720650000    1.0331720000    0.0000000000
H        0.1389980000   -0.0250490000    0.0000000000
13   
Frame  11 IRC: Energy =  -286.8725420000 ; +0.6099 kcal/mol
C        0.0257330000   -0.0918090000    0.0000000000
C       -0.1439180000    0.0613310000   -0.0000000000
C       -0.1287670000    0.0823760000   -0.0000000000
C        0.0005980000   -0.0612820000    0.0000000000
C       -0.0889930000   -0.0274930000   -0.0000000000
N       -0.2019270000    0.0211380000   -0.0000000000
H        0.1292450000    0.0034270000    0.0000000000
H        0.1392380000   -0.0000840000   -0.0000000000
H        0.1393510000    0.0003570000   -0.0000000000
H        0.1237810000    0.0035700000    0.0000000000
H        0.1373310000   -0.0002350000   -0.0000000000
C       -0.2707110000    1.0337210000    0.0000000000
H        0.1390400000   -0.0250160000    0.0000000000
13   
Frame  12 IRC: Energy =  -286.8716180000 ; +1.1898 kcal/mol
C        0.0267260000   -0.0932590000    0.0000000000
C       -0.1422660000    0.0691950000   -0.0000000000
C       -0.1301310000    0.0769870000   -0.0000000000
C       -0.0006710000   -0.0619970000    0.0000000000
C       -0.0885350000   -0.0261500000   -0.0000000000
N       -0.2014400000    0.0198760000   -0.0000000000
H        0.1292050000    0.0033600000    0.0000000000
H        0.1396840000   -0.0005240000   -0.0000000000
H        0.1401990000    0.0005520000   -0.0000000000
H        0.1235690000    0.0036520000    0.0000000000
H        0.1373870000   -0.0002950000   -0.0000000000
C       -0.2725500000    1.0337330000    0.0000000000
H        0.1388240000   -0.0251300000    0.0000000000
13   
Frame  13 IRC: Energy =  -286.8713470000 ; +1.3598 kcal/mol
C        0.0289290000   -0.0934050000    0.0000000000
C       -0.1423400000    0.0712700000   -0.0000000000
C       -0.1304630000    0.0760160000   -0.0000000000
C       -0.0040310000   -0.0622040000    0.0000000000
C       -0.0866590000   -0.0254360000   -0.0000000000
N       -0.2024840000    0.0189940000   -0.0000000000
H        0.1291380000    0.0033900000    0.0000000000
H        0.1397020000   -0.0006680000   -0.0000000000
H        0.1399700000    0.0004280000   -0.0000000000
H        0.1232520000    0.0036330000    0.0000000000
H        0.1371700000   -0.0003210000   -0.0000000000
C       -0.2710430000    1.0339220000    0.0000000000
H        0.1388600000   -0.0256180000    0.0000000000
13   
Frame  14 IRC: Energy =  -286.8701370000 ; +2.1191 kcal/mol
C        0.0271560000   -0.0952570000    0.0000000000
C       -0.1405060000    0.0764860000   -0.0000000000
C       -0.1310860000    0.0709420000   -0.0000000000
C       -0.0032470000   -0.0631880000    0.0000000000
C       -0.0887600000   -0.0245140000   -0.0000000000
N       -0.2001180000    0.0189780000   -0.0000000000
H        0.1292510000    0.0032030000    0.0000000000
H        0.1400680000   -0.0010380000   -0.0000000000
H        0.1410840000    0.0005870000   -0.0000000000
H        0.1233330000    0.0036460000    0.0000000000
H        0.1374240000   -0.0003440000   -0.0000000000
C       -0.2731600000    1.0357320000    0.0000000000
H        0.1385610000   -0.0252330000    0.0000000000
13   
Frame  15 IRC: Energy =  -286.8682680000 ; +3.2919 kcal/mol
C        0.0322730000   -0.0977680000    0.0000000000
C       -0.1395060000    0.0859500000   -0.0000000000
C       -0.1323850000    0.0646060000   -0.0000000000
C       -0.0079130000   -0.0653510000    0.0000000000
C       -0.0877500000   -0.0220080000   -0.0000000000
N       -0.2007040000    0.0172950000   -0.0000000000
H        0.1291800000    0.0030690000    0.0000000000
H        0.1408560000   -0.0018320000   -0.0000000000
H        0.1420090000    0.0004990000   -0.0000000000
H        0.1229450000    0.0035930000    0.0000000000
H        0.1371130000   -0.0004220000   -0.0000000000
C       -0.2743560000    1.0388800000    0.0000000000
H        0.1382370000   -0.0265100000    0.0000000000
13   
Frame  16 IRC: Energy =  -286.8658530000 ; +4.8074 kcal/mol
C        0.0385000000   -0.1009260000    0.0000000000
C       -0.1394370000    0.0975490000   -0.0000000000
C       -0.1340100000    0.0561110000   -0.0000000000
C       -0.0107710000   -0.0683470000    0.0000000000
C       -0.0886230000   -0.0186390000   -0.0000000000
N       -0.2002970000    0.0153810000   -0.0000000000
H        0.1293060000    0.0029220000    0.0000000000
H        0.1421420000   -0.0027130000   -0.0000000000
H        0.1429460000    0.0005560000   -0.0000000000
H        0.1229940000    0.0034770000    0.0000000000
H        0.1373060000   -0.0004920000   -0.0000000000
C       -0.2783330000    1.0434990000    0.0000000000
H        0.1382760000   -0.0283760000    0.0000000000
13   
Frame  17 IRC: Energy =  -286.8627350000 ; +6.7639 kcal/mol
C        0.0465480000   -0.1057030000    0.0000000000
C       -0.1384290000    0.1307980000   -0.0000000000
C       -0.1355170000    0.0331680000   -0.0000000000
C       -0.0159600000   -0.0723060000    0.0000000000
C       -0.0832280000   -0.0126290000   -0.0000000000
N       -0.2007330000    0.0106700000   -0.0000000000
H        0.1298270000    0.0031410000    0.0000000000
H        0.1431360000   -0.0043530000   -0.0000000000
H        0.1426680000    0.0019050000   -0.0000000000
H        0.1236680000    0.0035140000    0.0000000000
H        0.1376640000   -0.0005900000   -0.0000000000
C       -0.2889610000    1.0458830000    0.0000000000
H        0.1393190000   -0.0334970000    0.0000000000
13   
Frame  18 IRC: Energy =  -286.8580440000 ; +9.7076 kcal/mol
C        0.0515680000   -0.1115260000    0.0000000000
C       -0.1375020000    0.2062720000   -0.0000000000
C       -0.1349380000   -0.0200720000   -0.0000000000
C       -0.0201660000   -0.0738740000    0.0000000000
C       -0.0740640000   -0.0031040000   -0.0000000000
N       -0.2017810000    0.0035240000   -0.0000000000
H        0.1303520000    0.0037760000    0.0000000000
H        0.1435700000   -0.0076200000   -0.0000000000
H        0.1418120000    0.0051970000   -0.0000000000
H        0.1247850000    0.0036680000    0.0000000000
H        0.1378170000   -0.0006720000   -0.0000000000
C       -0.3025810000    1.0337720000    0.0000000000
H        0.1411280000   -0.0393400000    0.0000000000
13   
Frame  19 IRC: Energy =  -286.8518110000 ; +13.6188 kcal/mol
C        0.0487910000   -0.1187440000    0.0000000000
C       -0.1379850000    0.3484190000   -0.0000000000
C       -0.1318000000   -0.1139240000   -0.0000000000
C       -0.0210880000   -0.0682780000    0.0000000000
C       -0.0659380000    0.0107310000   -0.0000000000
N       -0.2028150000   -0.0038570000   -0.0000000000
H        0.1306170000    0.0049580000    0.0000000000
H        0.1430270000   -0.0135260000   -0.0000000000
H        0.1410010000    0.0102920000   -0.0000000000
H        0.1264350000    0.0038320000    0.0000000000
H        0.1374900000   -0.0005840000   -0.0000000000
C       -0.3111410000    0.9830630000    0.0000000000
H        0.1434050000   -0.0423810000    0.0000000000
13   
Frame  20 IRC: Energy =  -286.8461080000 ; +17.1975 kcal/mol
C        0.0362530000   -0.1248350000    0.0000000000
C       -0.1387770000    0.5502200000   -0.0000000000
C       -0.1308550000   -0.2114840000   -0.0000000000
C       -0.0194580000   -0.0529180000    0.0000000000
C       -0.0622680000    0.0279940000   -0.0000000000
N       -0.2044230000   -0.0071290000   -0.0000000000
H        0.1305390000    0.0066840000    0.0000000000
H        0.1411520000   -0.0219180000   -0.0000000000
H        0.1405990000    0.0141860000   -0.0000000000
H        0.1287780000    0.0038690000    0.0000000000
H        0.1364340000    0.0000200000   -0.0000000000
C       -0.3039320000    0.8542870000    0.0000000000
H        0.1459580000   -0.0389760000    0.0000000000
13   
Frame  21 IRC: Energy =  -286.8438490000 ; +18.6151 kcal/mol (Transition State)
C        0.0162060000   -0.1240360000    0.0000000000
C       -0.1333890000    0.7385440000   -0.0000000000
C       -0.1393860000   -0.2306890000   -0.0000000000
C       -0.0182750000   -0.0323140000    0.0000000000
C       -0.0638280000    0.0422280000   -0.0000000000
N       -0.2067900000   -0.0029690000   -0.0000000000
H        0.1303920000    0.0082930000    0.0000000000
H        0.1388570000   -0.0302200000   -0.0000000000
H        0.1405570000    0.0126520000   -0.0000000000
H        0.1315860000    0.0036110000    0.0000000000
H        0.1349100000    0.0013460000   -0.0000000000
C       -0.2781390000    0.6416420000    0.0000000000
H        0.1472990000   -0.0280880000    0.0000000000
13   
Frame  22 IRC: Energy =  -286.8457440000 ; +17.4260 kcal/mol
C       -0.0098480000   -0.1189690000    0.0000000000
C       -0.1184360000    0.8628290000   -0.0000000000
C       -0.1531230000   -0.1805930000   -0.0000000000
C       -0.0196970000   -0.0131300000    0.0000000000
C       -0.0679720000    0.0466540000   -0.0000000000
N       -0.2082050000    0.0055350000   -0.0000000000
H        0.1304990000    0.0091590000    0.0000000000
H        0.1376730000   -0.0362310000   -0.0000000000
H        0.1402730000    0.0079130000   -0.0000000000
H        0.1342390000    0.0031200000    0.0000000000
H        0.1336580000    0.0029290000   -0.0000000000
C       -0.2449880000    0.4257430000    0.0000000000
H        0.1459270000   -0.0149610000    0.0000000000
13   
Frame  23 IRC: Energy =  -286.8497210000 ; +14.9303 kcal/mol
C       -0.0412520000   -0.1166480000    0.0000000000
C       -0.0982610000    0.9376940000   -0.0000000000
C       -0.1618990000   -0.1352100000   -0.0000000000
C       -0.0269860000    0.0039730000    0.0000000000
C       -0.0718110000    0.0426820000   -0.0000000000
N       -0.2078800000    0.0137910000   -0.0000000000
H        0.1308510000    0.0094830000    0.0000000000
H        0.1373890000   -0.0401040000   -0.0000000000
H        0.1394730000    0.0043680000   -0.0000000000
H        0.1364660000    0.0026290000    0.0000000000
H        0.1329000000    0.0040740000   -0.0000000000
C       -0.2114080000    0.2783790000    0.0000000000
H        0.1424190000   -0.0051110000    0.0000000000
13   
Frame  24 IRC: Energy =  -286.8534390000 ; +12.5973 kcal/mol
C       -0.0731990000   -0.1179430000    0.0000000000
C       -0.0774050000    0.9856490000   -0.0000000000
C       -0.1653740000   -0.1162540000   -0.0000000000
C       -0.0406840000    0.0205540000    0.0000000000
C       -0.0739140000    0.0353010000   -0.0000000000
N       -0.2068410000    0.0203940000   -0.0000000000
H        0.1312630000    0.0096130000    0.0000000000
H        0.1376550000   -0.0426350000   -0.0000000000
H        0.1385610000    0.0027170000   -0.0000000000
H        0.1382010000    0.0022400000    0.0000000000
H        0.1324310000    0.0046220000   -0.0000000000
C       -0.1788610000    0.1949040000    0.0000000000
H        0.1381680000    0.0008380000    0.0000000000
13   
Frame  25 IRC: Energy =  -286.8555530000 ; +11.2707 kcal/mol
C       -0.0981230000   -0.1211840000    0.0000000000
C       -0.0619720000    1.0159610000   -0.0000000000
C       -0.1671910000   -0.1136060000   -0.0000000000
C       -0.0563410000    0.0352140000    0.0000000000
C       -0.0746330000    0.0281700000   -0.0000000000
N       -0.2059500000    0.0251140000   -0.0000000000
H        0.1316860000    0.0098010000    0.0000000000
H        0.1382430000   -0.0441080000   -0.0000000000
H        0.1383050000    0.0021340000   -0.0000000000
H        0.1393770000    0.0019730000    0.0000000000
H        0.1320430000    0.0047790000   -0.0000000000
C       -0.1505230000    0.1517820000    0.0000000000
H        0.1350810000    0.0039700000    0.0000000000
13   
Frame  26 IRC: Energy =  -286.8567690000 ; +10.5077 kcal/mol
C       -0.1013880000   -0.1249290000    0.0000000000
C       -0.0573430000    1.0248620000   -0.0000000000
C       -0.1731560000   -0.1177130000   -0.0000000000
C       -0.0641170000    0.0424820000    0.0000000000
C       -0.0752310000    0.0250320000   -0.0000000000
N       -0.2056200000    0.0261410000   -0.0000000000
H        0.1320690000    0.0101500000    0.0000000000
H        0.1383760000   -0.0442960000   -0.0000000000
H        0.1388360000    0.0018930000   -0.0000000000
H        0.1393760000    0.0019020000    0.0000000000
H        0.1317640000    0.0045960000   -0.0000000000
C       -0.1380390000    0.1453360000    0.0000000000
H        0.1344730000    0.0045440000    0.0000000000
13   
Frame  27 IRC: Energy =  -286.8570140000 ; +10.3539 kcal/mol
C       -0.1046280000   -0.1250650000    0.0000000000
C       -0.0578550000    1.0313430000   -0.0000000000
C       -0.1710080000   -0.1159010000   -0.0000000000
C       -0.0681640000    0.0414470000    0.0000000000
C       -0.0745430000    0.0238380000   -0.0000000000
N       -0.2048670000    0.0260990000   -0.0000000000
H        0.1319650000    0.0101230000    0.0000000000
H        0.1385030000   -0.0445270000   -0.0000000000
H        0.1389580000    0.0019210000   -0.0000000000
H        0.1393190000    0.0019820000    0.0000000000
H        0.1317370000    0.0046380000   -0.0000000000
C       -0.1339750000    0.1394490000    0.0000000000
H        0.1345580000    0.0046520000    0.0000000000
13   
Frame  28 IRC: Energy =  -286.8576200000 ; +9.9736 kcal/mol
C       -0.1094160000   -0.1268530000    0.0000000000
C       -0.0581890000    1.0351660000   -0.0000000000
C       -0.1726610000   -0.1174150000   -0.0000000000
C       -0.0768810000    0.0441170000   -0.0000000000
C       -0.0734490000    0.0220450000   -0.0000000000
N       -0.2035810000    0.0263070000   -0.0000000000
H        0.1321910000    0.0105140000    0.0000000000
H        0.1381180000   -0.0443980000   -0.0000000000
H        0.1394490000    0.0019910000   -0.0000000000
H        0.1388900000    0.0022500000    0.0000000000
H        0.1319160000    0.0045180000   -0.0000000000
C       -0.1213610000    0.1372310000    0.0000000000
H        0.1349760000    0.0045260000    0.0000000000
13   
Frame  29 IRC: Energy =  -286.8576840000 ; +9.9335 kcal/mol
C       -0.1096900000   -0.1271620000    0.0000000000
C       -0.0583740000    1.0383650000   -0.0000000000
C       -0.1711480000   -0.1167580000   -0.0000000000
C       -0.0786860000    0.0438800000   -0.0000000000
C       -0.0731160000    0.0216640000   -0.0000000000
N       -0.2032960000    0.0264160000   -0.0000000000
H        0.1321000000    0.0105450000    0.0000000000
H        0.1381270000   -0.0444940000   -0.0000000000
H        0.1394180000    0.0019980000   -0.0000000000
H        0.1388520000    0.0022430000    0.0000000000
H        0.1318900000    0.0045850000   -0.0000000000
C       -0.1209080000    0.1342460000    0.0000000000
H        0.1348300000    0.0044730000    0.0000000000
13   
Frame  30 IRC: Energy =  -286.8578540000 ; +9.8268 kcal/mol
C       -0.1125550000   -0.1287060000    0.0000000000
C       -0.0586770000    1.0430880000   -0.0000000000
C       -0.1696320000   -0.1185250000   -0.0000000000
C       -0.0845280000    0.0472330000   -0.0000000000
C       -0.0725920000    0.0208130000   -0.0000000000
N       -0.2024630000    0.0271170000   -0.0000000000
H        0.1321220000    0.0109200000    0.0000000000
H        0.1382220000   -0.0445050000   -0.0000000000
H        0.1394370000    0.0020990000   -0.0000000000
H        0.1387270000    0.0023380000    0.0000000000
H        0.1318630000    0.0045920000   -0.0000000000
C       -0.1146790000    0.1292570000    0.0000000000
H        0.1347550000    0.0042790000    0.0000000000
13   
Frame  31 IRC: Energy =  -286.8578770000 ; +9.8124 kcal/mol
C       -0.1124540000   -0.1287600000    0.0000000000
C       -0.0586350000    1.0414170000   -0.0000000000
C       -0.1702280000   -0.1191910000   -0.0000000000
C       -0.0843440000    0.0480660000   -0.0000000000
C       -0.0729820000    0.0211300000   -0.0000000000
N       -0.2024950000    0.0272010000   -0.0000000000
H        0.1321540000    0.0110270000    0.0000000000
H        0.1381630000   -0.0444060000   -0.0000000000
H        0.1394960000    0.0021340000   -0.0000000000
H        0.1386880000    0.0023540000    0.0000000000
H        0.1319230000    0.0045980000   -0.0000000000
C       -0.1142020000    0.1301770000    0.0000000000
H        0.1349150000    0.0042540000    0.0000000000
13   
Frame  32 IRC: Energy =  -286.8580660000 ; +9.6938 kcal/mol
C       -0.1103530000   -0.1307270000    0.0000000000
C       -0.0624240000    1.0422120000   -0.0000000000
C       -0.1655770000   -0.1238550000   -0.0000000000
C       -0.0931420000    0.0553390000   -0.0000000000
C       -0.0724460000    0.0230740000   -0.0000000000
N       -0.2027160000    0.0282590000   -0.0000000000
H        0.1320500000    0.0123210000    0.0000000000
H        0.1379560000   -0.0435060000   -0.0000000000
H        0.1397950000    0.0026410000   -0.0000000000
H        0.1378290000    0.0025810000    0.0000000000
H        0.1322820000    0.0047640000   -0.0000000000
C       -0.1085900000    0.1233790000    0.0000000000
H        0.1353360000    0.0035170000    0.0000000000
13   
Frame  33 IRC: Energy =  -286.8580990000 ; +9.6731 kcal/mol
C       -0.1103860000   -0.1309430000    0.0000000000
C       -0.0622030000    1.0431160000   -0.0000000000
C       -0.1658270000   -0.1248480000   -0.0000000000
C       -0.0928530000    0.0565640000   -0.0000000000
C       -0.0731940000    0.0230230000   -0.0000000000
N       -0.2026300000    0.0282100000   -0.0000000000
H        0.1320870000    0.0123190000    0.0000000000
H        0.1380340000   -0.0434800000   -0.0000000000
H        0.1396390000    0.0026210000   -0.0000000000
H        0.1379170000    0.0025460000    0.0000000000
H        0.1321500000    0.0047190000   -0.0000000000
C       -0.1079260000    0.1227110000    0.0000000000
H        0.1351930000    0.0034420000    0.0000000000
13   
Frame  34 IRC: Energy =  -286.8581530000 ; +9.6392 kcal/mol
C       -0.1089120000   -0.1317500000    0.0000000000
C       -0.0623650000    1.0429320000   -0.0000000000
C       -0.1650230000   -0.1272450000   -0.0000000000
C       -0.0931920000    0.0601930000   -0.0000000000
C       -0.0740410000    0.0234800000   -0.0000000000
N       -0.2031080000    0.0287660000   -0.0000000000
H        0.1321670000    0.0126200000    0.0000000000
H        0.1381410000   -0.0431990000   -0.0000000000
H        0.1394860000    0.0026720000   -0.0000000000
H        0.1381220000    0.0025020000    0.0000000000
H        0.1319390000    0.0046990000   -0.0000000000
C       -0.1082630000    0.1210350000    0.0000000000
H        0.1350500000    0.0032930000    0.0000000000
13   
Frame  35 IRC: Energy =  -286.8582240000 ; +9.5946 kcal/mol
C       -0.1064500000   -0.1313360000    0.0000000000
C       -0.0631080000    1.0399900000   -0.0000000000
C       -0.1642060000   -0.1286100000   -0.0000000000
C       -0.0934120000    0.0625500000   -0.0000000000
C       -0.0743570000    0.0250860000   -0.0000000000
N       -0.2036690000    0.0290430000   -0.0000000000
H        0.1321180000    0.0129420000    0.0000000000
H        0.1379580000   -0.0425210000   -0.0000000000
H        0.1395340000    0.0028040000   -0.0000000000
H        0.1379600000    0.0024770000    0.0000000000
H        0.1321290000    0.0048010000   -0.0000000000
C       -0.1096800000    0.1196910000    0.0000000000
H        0.1351840000    0.0030810000    0.0000000000
13   
Frame  36 IRC: Energy =  -286.8582660000 ; +9.5683 kcal/mol
C       -0.1050710000   -0.1317730000    0.0000000000
C       -0.0639290000    1.0410070000   -0.0000000000
C       -0.1630260000   -0.1296660000   -0.0000000000
C       -0.0939190000    0.0638360000   -0.0000000000
C       -0.0746160000    0.0254570000   -0.0000000000
N       -0.2039470000    0.0291190000   -0.0000000000
H        0.1321550000    0.0130940000    0.0000000000
H        0.1380690000   -0.0423360000   -0.0000000000
H        0.1394240000    0.0028460000   -0.0000000000
H        0.1379490000    0.0024660000    0.0000000000
H        0.1319910000    0.0047810000   -0.0000000000
C       -0.1101210000    0.1182510000    0.0000000000
H        0.1350420000    0.0029190000    0.0000000000
13   
Frame  37 IRC: Energy =  -286.8583690000 ; +9.5036 kcal/mol
C       -0.1015260000   -0.1315350000    0.0000000000
C       -0.0648380000    1.0364420000   -0.0000000000
C       -0.1616870000   -0.1321890000   -0.0000000000
C       -0.0948140000    0.0684770000   -0.0000000000
C       -0.0752660000    0.0271550000   -0.0000000000
N       -0.2046970000    0.0297530000   -0.0000000000
H        0.1321720000    0.0136100000    0.0000000000
H        0.1376030000   -0.0412150000   -0.0000000000
H        0.1394900000    0.0030140000   -0.0000000000
H        0.1379550000    0.0024240000    0.0000000000
H        0.1320680000    0.0048900000   -0.0000000000
C       -0.1116880000    0.1165600000    0.0000000000
H        0.1352270000    0.0026140000    0.0000000000
13   
Frame  38 IRC: Energy =  -286.8584000000 ; +9.4842 kcal/mol
C       -0.1011340000   -0.1317070000    0.0000000000
C       -0.0653320000    1.0379930000   -0.0000000000
C       -0.1609320000   -0.1323550000   -0.0000000000
C       -0.0950150000    0.0684710000   -0.0000000000
C       -0.0754380000    0.0273960000   -0.0000000000
N       -0.2047510000    0.0296900000   -0.0000000000
H        0.1321880000    0.0136580000    0.0000000000
H        0.1377100000   -0.0411510000   -0.0000000000
H        0.1394050000    0.0030230000   -0.0000000000
H        0.1378910000    0.0024300000    0.0000000000
H        0.1320540000    0.0048420000   -0.0000000000
C       -0.1116980000    0.1151750000    0.0000000000
H        0.1350520000    0.0025350000    0.0000000000
13   