13   
Frame   0 IRC: Energy =  -286.8735140000 ; +0.0000 kcal/mol
C        1.1213686618    0.2184417183    0.4767945193
C        0.8703404599   -0.9788791997   -0.4538239192
C       -0.4538298727   -1.0167708793   -0.6890556272
C       -1.0764290991    0.1611470087    0.0895609418
C       -0.4407543179    1.4362233479   -0.5005631398
N        0.8196305878    1.4895138924   -0.2981166313
H        2.0909332849    0.2665200093    0.9682036017
H        1.6390412408   -1.6319649401   -0.8502391910
H       -1.0071843387   -1.7102617134   -1.3117882474
H       -2.1578147296    0.1536545909    0.2208443485
H       -0.9779026026    2.2064694592   -1.0498015255
C       -0.1490415098    0.0741005365    1.3064974920
H       -0.2783577654   -0.6681938307    2.0914873784
13   
Frame   1 IRC: Energy =  -286.8735120000 ; +0.0013 kcal/mol
C        1.1213037552    0.2183592354    0.4766532228
C        0.8704052306   -0.9787188743   -0.4538750292
C       -0.4539226854   -1.0169113542   -0.6890549190
C       -1.0764071431    0.1611122948    0.0893583863
C       -0.4408176136    1.4363659450   -0.5005464023
N        0.8197363829    1.4895038556   -0.2980769339
H        2.0909965469    0.2665423234    0.9682836406
H        1.6390501973   -1.6318426778   -0.8503341445
H       -1.0071875408   -1.7104754933   -1.3113249116
H       -2.1577751295    0.1537625296    0.2207605729
H       -0.9778436529    2.2065816805   -1.0497983497
C       -0.1491655167    0.0739701247    1.3068522061
H       -0.2783728309   -0.6682495895    2.0911026615
13   
Frame   2 IRC: Energy =  -286.8734760000 ; +0.0238 kcal/mol
C        1.1212145400    0.2192831280    0.4765608530
C        0.8708532502   -0.9773589292   -0.4552320008
C       -0.4538746015   -1.0177863388   -0.6873238059
C       -1.0765290114    0.1623751887    0.0882781928
C       -0.4394993949    1.4374374038   -0.5008626561
N        0.8206219904    1.4908359870   -0.2968211406
H        2.0901497667    0.2656699483    0.9692089538
H        1.6402681211   -1.6274997201   -0.8551840161
H       -1.0086371855   -1.7193129923   -1.2998412564
H       -2.1582468484    0.1559947003    0.2174956425
H       -0.9754444304    2.2094807453   -1.0485941392
C       -0.1500851734    0.0736076355    1.3055566948
H       -0.2807910227   -0.6727267564    2.0867586781
13   
Frame   3 IRC: Energy =  -286.8734700000 ; +0.0276 kcal/mol
C        1.1210530006    0.2194360346    0.4763965162
C        0.8708264968   -0.9772039314   -0.4553088099
C       -0.4538789264   -1.0180654899   -0.6873076768
C       -1.0765376246    0.1626462836    0.0881488127
C       -0.4393711967    1.4375489136   -0.5009750628
N        0.8207345822    1.4910277215   -0.2967135489
H        2.0901625853    0.2655760242    0.9693686694
H        1.6404264541   -1.6270945600   -0.8557113376
H       -1.0087131046   -1.7201056213   -1.2986171049
H       -2.1583277935    0.1561968707    0.2171770293
H       -0.9751724436    2.2097334454   -1.0484316091
C       -0.1502094392    0.0731544365    1.3059497041
H       -0.2809925905   -0.6728501275    2.0860244182
13   
Frame   4 IRC: Energy =  -286.8734350000 ; +0.0496 kcal/mol
C        1.1210776663    0.2195100357    0.4764705468
C        0.8712747532   -0.9761482522   -0.4564745051
C       -0.4539017265   -1.0186259439   -0.6860658027
C       -1.0765362328    0.1629564309    0.0871764570
C       -0.4386546864    1.4383463380   -0.5009033505
N        0.8213325132    1.4914721862   -0.2958419412
H        2.0896061176    0.2649325558    0.9699704577
H        1.6411102260   -1.6240369068   -0.8590654676
H       -1.0095875953   -1.7257198524   -1.2913070173
H       -2.1583573898    0.1576261184    0.2150677142
H       -0.9737217924    2.2116643097   -1.0477812386
C       -0.1510219915    0.0735092022    1.3049871950
H       -0.2826198618   -0.6754862214    2.0837669524
13   
Frame   5 IRC: Energy =  -286.8734250000 ; +0.0558 kcal/mol
C        1.1209966272    0.2194740203    0.4761817394
C        0.8709853515   -0.9759190719   -0.4568370364
C       -0.4536450187   -1.0190284783   -0.6859346281
C       -1.0765480301    0.1629268933    0.0866917164
C       -0.4383185246    1.4385955814   -0.5007836514
N        0.8213572115    1.4915404177   -0.2956873106
H        2.0896484892    0.2648224286    0.9702371289
H        1.6412320052   -1.6233323561   -0.8597770998
H       -1.0096425337   -1.7267251278   -1.2895508132
H       -2.1583713604    0.1579587870    0.2146637181
H       -0.9734553936    2.2121248029   -1.0476990943
C       -0.1513163189    0.0733396121    1.3054953786
H       -0.2829225046   -0.6757775092    2.0829999524
13   
Frame   6 IRC: Energy =  -286.8733650000 ; +0.0935 kcal/mol
C        1.1208635722    0.2199889139    0.4763075593
C        0.8718152987   -0.9747291086   -0.4579915945
C       -0.4539680490   -1.0198055487   -0.6845063204
C       -1.0766423114    0.1639088933    0.0859857178
C       -0.4374503214    1.4393003263   -0.5011842630
N        0.8223311723    1.4925169772   -0.2945531752
H        2.0888431343    0.2636921384    0.9710466671
H        1.6423986140   -1.6192990087   -0.8646926960
H       -1.0107691977   -1.7341158247   -1.2802431752
H       -2.1587809259    0.1595922068    0.2118136811
H       -0.9713067073    2.2143732984   -1.0465126106
C       -0.1520923057    0.0729603767    1.3042236825
H       -0.2852419731   -0.6783836403    2.0803065271
13   
Frame   7 IRC: Energy =  -286.8733350000 ; +0.1123 kcal/mol
C        1.1212424136    0.2190360738    0.4752262153
C        0.8717347242   -0.9744079159   -0.4581330068
C       -0.4533302149   -1.0200783937   -0.6846310664
C       -1.0768935743    0.1621272934    0.0850722107
C       -0.4364418657    1.4398899710   -0.5009742957
N        0.8228678377    1.4936183309   -0.2943663203
H        2.0881743919    0.2634976791    0.9713967440
H        1.6423056362   -1.6176267532   -0.8660088633
H       -1.0110008553   -1.7359799480   -1.2768885260
H       -2.1597976189    0.1603918568    0.2111475510
H       -0.9708428748    2.2153493355   -1.0465015567
C       -0.1518043677    0.0736624456    1.3050535653
H       -0.2862136322   -0.6794799755    2.0796073488
13   
Frame   8 IRC: Energy =  -286.8732510000 ; +0.1650 kcal/mol
C        1.1202319940    0.2206321970    0.4768060823
C        0.8721667289   -0.9728896464   -0.4604458726
C       -0.4540115541   -1.0214237515   -0.6823098930
C       -1.0765052310    0.1658000918    0.0844584461
C       -0.4362140993    1.4403231017   -0.5012074169
N        0.8230398980    1.4925954401   -0.2928719760
H        2.0882256055    0.2620844093    0.9722922253
H        1.6441513232   -1.6135828944   -0.8718019925
H       -1.0120549656   -1.7441047290   -1.2673096328
H       -2.1582247358    0.1617683420    0.2078573188
H       -0.9684705142    2.2175592803   -1.0449774347
C       -0.1541624399    0.0723180904    1.3030303016
H       -0.2881720097   -0.6810799314    2.0764798444
13   
Frame   9 IRC: Energy =  -286.8732170000 ; +0.1864 kcal/mol
C        1.1196082963    0.2213412462    0.4771912727
C        0.8726792353   -0.9723321213   -0.4607434175
C       -0.4549012867   -1.0218960329   -0.6818637638
C       -1.0763164783    0.1674009192    0.0844763191
C       -0.4367641619    1.4404870547   -0.5016049261
N        0.8231867417    1.4920356416   -0.2924840179
H        2.0885894649    0.2617564748    0.9725408938
H        1.6447735007   -1.6130934892   -0.8730657056
H       -1.0122047198   -1.7456807968   -1.2656169880
H       -2.1575121253    0.1618937446    0.2071650736
H       -0.9678470170    2.2177074234   -1.0444419900
C       -0.1549457621    0.0710740000    1.3031322233
H       -0.2883456878   -0.6806940643    2.0753150263
13   
Frame  10 IRC: Energy =  -286.8726420000 ; +0.5472 kcal/mol
C        1.1200512031    0.2200931311    0.4756047910
C        0.8747435211   -0.9670295911   -0.4682234923
C       -0.4534018480   -1.0263183851   -0.6769217363
C       -1.0767113609    0.1662784264    0.0786849383
C       -0.4306935226    1.4441402281   -0.5012437859
N        0.8276866702    1.4971266690   -0.2863997648
H        2.0850813369    0.2548084039    0.9766804351
H        1.6482900407   -1.5919392889   -0.8988979789
H       -1.0161489090   -1.7763269504   -1.2209762213
H       -2.1603466600    0.1672536238    0.1932380554
H       -0.9586622556    2.2278498542   -1.0403816448
C       -0.1583738415    0.0716786013    1.3006878879
H       -0.3015143745   -0.6876147224    2.0681485168
13   
Frame  11 IRC: Energy =  -286.8725420000 ; +0.6099 kcal/mol
C        1.1196375404    0.2197315048    0.4744283294
C        0.8747820880   -0.9668418094   -0.4691220339
C       -0.4531026503   -1.0280041096   -0.6774109894
C       -1.0767797647    0.1657524545    0.0775696288
C       -0.4301299919    1.4451092559   -0.5014404261
N        0.8284442251    1.4980325579   -0.2858864591
H        2.0851148564    0.2541962376    0.9774771430
H        1.6482016325   -1.5894702619   -0.9012880960
H       -1.0159809326   -1.7784642548   -1.2158176661
H       -2.1610781058    0.1678628619    0.1919983492
H       -0.9576587881    2.2286864101   -1.0399209607
C       -0.1587207598    0.0707090299    1.3029888470
H       -0.3027293491   -0.6872998770    2.0664243340
13   
Frame  12 IRC: Energy =  -286.8716180000 ; +1.1898 kcal/mol
C        1.1193097706    0.2203043076    0.4758033436
C        0.8779838771   -0.9600683358   -0.4789414083
C       -0.4526870822   -1.0303568920   -0.6717616813
C       -1.0759094250    0.1692548173    0.0729305973
C       -0.4257997913    1.4477922815   -0.5004343215
N        0.8314563148    1.5005001255   -0.2779753003
H        2.0824813705    0.2467093142    0.9810633202
H        1.6524746948   -1.5714407814   -0.9286671863
H       -1.0203697053   -1.8079314382   -1.1714041408
H       -2.1598303184    0.1704231229    0.1773160087
H       -0.9486292790    2.2369102317   -1.0363120329
C       -0.1639320653    0.0691195927    1.2967788817
H       -0.3165483614   -0.6912163461    2.0616039201
13   
Frame  13 IRC: Energy =  -286.8713470000 ; +1.3598 kcal/mol
C        1.1170445906    0.2217672893    0.4777989273
C        0.8774170958   -0.9598728303   -0.4822599176
C       -0.4521928473   -1.0334739419   -0.6715902697
C       -1.0755602445    0.1725886452    0.0714456614
C       -0.4254306153    1.4486403242   -0.5007392009
N        0.8316247701    1.5010285926   -0.2771060743
H        2.0829930168    0.2451675795    0.9820000732
H        1.6531241218   -1.5678774373   -0.9339137246
H       -1.0201746129   -1.8122595975   -1.1620100410
H       -2.1594817115    0.1705675729    0.1744894430
H       -0.9463688557    2.2377206125   -1.0349393589
C       -0.1641866465    0.0658182797    1.2980160382
H       -0.3188080615   -0.6898150889    2.0588084439
13   
Frame  14 IRC: Energy =  -286.8701370000 ; +2.1191 kcal/mol
C        1.1201404051    0.2189800338    0.4733472500
C        0.8824903907   -0.9527396383   -0.4918402413
C       -0.4510229022   -1.0331506221   -0.6697196662
C       -1.0748583467    0.1690069629    0.0662970954
C       -0.4202730539    1.4520262731   -0.4985693191
N        0.8357929441    1.5061325544   -0.2676487627
H        2.0790786698    0.2396622306    0.9864024704
H        1.6557639175   -1.5522915049   -0.9591748795
H       -1.0252872076   -1.8370508570   -1.1178344520
H       -2.1601235087    0.1726681874    0.1615884547
H       -0.9388611793    2.2448938060   -1.0339154095
C       -0.1686531463    0.0655284570    1.2929854075
H       -0.3341869824   -0.6936658828    2.0580820522
13   
Frame  15 IRC: Energy =  -286.8682680000 ; +3.2919 kcal/mol
C        1.1186780188    0.2186294007    0.4733130065
C        0.8870345054   -0.9455335190   -0.5110452931
C       -0.4473668895   -1.0342806280   -0.6718187505
C       -1.0727867621    0.1730221936    0.0599740237
C       -0.4165940688    1.4556891991   -0.4949369254
N        0.8377854714    1.5089925361   -0.2573097340
H        2.0748808890    0.2366178909    0.9925094894
H        1.6613112308   -1.5394463742   -0.9882915696
H       -1.0308113765   -1.8605004367   -1.0632283016
H       -2.1576872557    0.1745961254    0.1480335385
H       -0.9289142453    2.2497072207   -1.0330497974
C       -0.1731704358    0.0551965225    1.2879058426
H       -0.3523590819   -0.6926901311    2.0579444711
13   
Frame  16 IRC: Energy =  -286.8658530000 ; +4.8074 kcal/mol
C        1.1191643812    0.2155615370    0.4695712782
C        0.8967282145   -0.9405272590   -0.5309665836
C       -0.4414576416   -1.0320668436   -0.6775685594
C       -1.0718760771    0.1734447933    0.0534339611
C       -0.4157487607    1.4602031311   -0.4918965623
N        0.8379110850    1.5120305497   -0.2479820856
H        2.0687389728    0.2369221234    0.9998761427
H        1.6703115298   -1.5326965809   -1.0163864862
H       -1.0364666877   -1.8756826528   -1.0069885550
H       -2.1579126527    0.1801905229    0.1381749321
H       -0.9205167378    2.2566129498   -1.0366157924
C       -0.1771586159    0.0391203782    1.2814425610
H       -0.3717170100   -0.6931126492    2.0659057492
13   
Frame  17 IRC: Energy =  -286.8627350000 ; +6.7639 kcal/mol
C        1.1207927673    0.2126305806    0.4644159536
C        0.9083286557   -0.9364181360   -0.5467834737
C       -0.4345881515   -1.0318915864   -0.6675384907
C       -1.0750326749    0.1789458681    0.0446568298
C       -0.4158678866    1.4670228390   -0.4900550927
N        0.8372572848    1.5139165218   -0.2413025234
H        2.0637159782    0.2389065304    1.0066580906
H        1.6788868048   -1.5290647765   -1.0376181125
H       -1.0381122104   -1.8777462641   -0.9598447251
H       -2.1632856912    0.1869590764    0.1329731565
H       -0.9157517373    2.2635127977   -1.0426020539
C       -0.1787214042    0.0024787601    1.2613439207
H       -0.3876217346   -0.6892522112    2.0756965208
13   
Frame  18 IRC: Energy =  -286.8580440000 ; +9.7076 kcal/mol
C        1.1231590919    0.2106840031    0.4597828801
C        0.9203905245   -0.9315238183   -0.5574812043
C       -0.4297054223   -1.0313670855   -0.6424282441
C       -1.0807229153    0.1908887373    0.0354482734
C       -0.4164651821    1.4737517298   -0.4890287410
N        0.8364001058    1.5143132176   -0.2372240396
H        2.0607740156    0.2409379403    1.0118823611
H        1.6859257475   -1.5270234733   -1.0517423814
H       -1.0378810823   -1.8744915015   -0.9265959772
H       -2.1692489856    0.1922717514    0.1306664797
H       -0.9132526381    2.2683083490   -1.0478721025
C       -0.1811239208   -0.0445692241    1.2329268323
H       -0.3982493386   -0.6821806260    2.0816658636
13   
Frame  19 IRC: Energy =  -286.8518110000 ; +13.6188 kcal/mol
C        1.1262227957    0.2093773297    0.4555990732
C        0.9337577620   -0.9253963622   -0.5648617593
C       -0.4276889794   -1.0296995410   -0.6088478547
C       -1.0873560411    0.2063277667    0.0272758601
C       -0.4173726001    1.4796679039   -0.4882971158
N        0.8358290522    1.5138190866   -0.2347354608
H        2.0590507540    0.2426350874    1.0160132722
H        1.6917898631   -1.5256743586   -1.0614304911
H       -1.0375735432   -1.8705633290   -0.9028419229
H       -2.1740604002    0.1961683302    0.1296054350
H       -0.9116719426    2.2714412274   -1.0519793485
C       -0.1855153371   -0.0937305271    1.2009396518
H       -0.4054113833   -0.6743726139    2.0835606608
13   
Frame  20 IRC: Energy =  -286.8461080000 ; +17.1975 kcal/mol
C        1.1298294130    0.2085535913    0.4516035515
C        0.9490181963   -0.9178087468   -0.5703757602
C       -0.4288813525   -1.0278751503   -0.5709368174
C       -1.0939074976    0.2230831022    0.0211250245
C       -0.4185095444    1.4848882419   -0.4875850935
N        0.8359293378    1.5129084903   -0.2331730383
H        2.0578025060    0.2440289179    1.0195445443
H        1.6968421311   -1.5246546499   -1.0684068617
H       -1.0375468153   -1.8670298819   -0.8844868401
H       -2.1776913591    0.1991881480    0.1289562585
H       -0.9103847010    2.2736580375   -1.0551776946
C       -0.1917635961   -0.1416915690    1.1667189319
H       -0.4107367182   -0.6672485313    2.0821937952
13   
Frame  21 IRC: Energy =  -286.8438490000 ; +18.6151 kcal/mol (Transition State)
C        1.1332821756    0.2082702104    0.4478119786
C        0.9649914012   -0.9091894824   -0.5761122160
C       -0.4314068927   -1.0273738221   -0.5304640809
C       -1.1000986562    0.2399348545    0.0170010899
C       -0.4194043440    1.4898270899   -0.4865777796
N        0.8367161198    1.5119731581   -0.2322239793
H        2.0565021376    0.2453062903    1.0229640795
H        1.7012737475   -1.5236028993   -1.0736382912
H       -1.0376601134   -1.8637418015   -0.8682124551
H       -2.1808996222    0.2019685377    0.1283217162
H       -0.9090664767    2.2756313047   -1.0578079542
C       -0.1988037413   -0.1877918854    1.1312008434
H       -0.4154257354   -0.6612115549    2.0777370486
13   
Frame  22 IRC: Energy =  -286.8457440000 ; +17.4260 kcal/mol
C        1.1365321230    0.2081043726    0.4443060713
C        0.9793020120   -0.8997793308   -0.5821444029
C       -0.4331085261   -1.0285742258   -0.4894476964
C       -1.1060375683    0.2566026613    0.0141051978
C       -0.4196053817    1.4947339343   -0.4852554623
N        0.8374596247    1.5111527250   -0.2315984053
H        2.0551658510    0.2466490509    1.0264565183
H        1.7059587843   -1.5228178918   -1.0786933354
H       -1.0375550929   -1.8600212936   -0.8518840055
H       -2.1842078282    0.2048264280    0.1276072245
H       -0.9077543138    2.2777691160   -1.0603404893
C       -0.2061298499   -0.2331897491    1.0950573329
H       -0.4200198341   -0.6554557969    2.0718314523
13   
Frame  23 IRC: Energy =  -286.8497210000 ; +14.9303 kcal/mol
C        1.1387552465    0.2083515298    0.4411443955
C        0.9909572948   -0.8899249128   -0.5912716310
C       -0.4320301290   -1.0336307677   -0.4475328635
C       -1.1118904978    0.2724960961    0.0127683576
C       -0.4192133124    1.4998276379   -0.4834153918
N        0.8389661725    1.5108045418   -0.2312133679
H        2.0532841292    0.2482208478    1.0304409618
H        1.7107423423   -1.5218866035   -1.0832006668
H       -1.0371476914   -1.8558068893   -0.8333700392
H       -2.1881920178    0.2084200302    0.1266099448
H       -0.9060181101    2.2804753886   -1.0625540066
C       -0.2132814936   -0.2768057967    1.0599597703
H       -0.4249319330   -0.6505411022    2.0616345369
13   
Frame  24 IRC: Energy =  -286.8534390000 ; +12.5973 kcal/mol
C        1.1402424858    0.2085989240    0.4374242451
C        0.9993813960   -0.8793473702   -0.6060866997
C       -0.4262329788   -1.0436311138   -0.4080477240
C       -1.1180071021    0.2871550767    0.0115206899
C       -0.4185080702    1.5050889829   -0.4808667098
N        0.8408735510    1.5110222476   -0.2300934502
H        2.0498245343    0.2500496697    1.0354381939
H        1.7168869361   -1.5209364683   -1.0883992937
H       -1.0367337658   -1.8520764917   -0.8072805867
H       -2.1936310693    0.2139353342    0.1248739546
H       -0.9030152291    2.2844413765   -1.0642293701
C       -0.2196294629   -0.3167260202    1.0295928737
H       -0.4314512248   -0.6475741474    2.0461538770
13   
Frame  25 IRC: Energy =  -286.8555530000 ; +11.2707 kcal/mol
C        1.1409654926    0.2084715946    0.4327522773
C        1.0052008831   -0.8678400117   -0.6257648085
C       -0.4165873918   -1.0550535633   -0.3775155920
C       -1.1232953410    0.2974758703    0.0107812225
C       -0.4173746734    1.5097023009   -0.4773970036
N        0.8424189823    1.5119439688   -0.2273365108
H        2.0441733294    0.2514009007    1.0411941515
H        1.7252784491   -1.5198123651   -1.0951885770
H       -1.0383413191   -1.8535647745   -0.7724333228
H       -2.1995606056    0.2217452817    0.1214623364
H       -0.8980563021    2.2899686472   -1.0643932388
C       -0.2239531995   -0.3452175437    1.0055956230
H       -0.4408683041   -0.6492203060    2.0282434429
13   
Frame  26 IRC: Energy =  -286.8567690000 ; +10.5077 kcal/mol
C        1.1400866856    0.2093054472    0.4271434059
C        1.0083448335   -0.8597853079   -0.6501366191
C       -0.4062401467   -1.0659956751   -0.3743074891
C       -1.1246632944    0.2986473294    0.0093441962
C       -0.4163441092    1.5127060676   -0.4735487836
N        0.8433146613    1.5153103306   -0.2214413582
H        2.0358220725    0.2504285716    1.0471530210
H        1.7355727957   -1.5151780153   -1.1036919671
H       -1.0436507862   -1.8685127054   -0.7236799929
H       -2.2045935521    0.2325230228    0.1145216749
H       -0.8896783656    2.2978778035   -1.0602228515
C       -0.2229052793   -0.3465003048    0.9980258783
H       -0.4550655151   -0.6608265644    2.0108408852
13   
Frame  27 IRC: Energy =  -286.8570140000 ; +10.3539 kcal/mol
C        1.1406416342    0.2099946205    0.4257735072
C        1.0094933950   -0.8574581424   -0.6507856302
C       -0.4096100521   -1.0633273491   -0.3710032877
C       -1.1250838838    0.2992149633    0.0055885062
C       -0.4155239536    1.5133051559   -0.4737513023
N        0.8432349319    1.5170742414   -0.2202167103
H        2.0343391446    0.2489788824    1.0473375587
H        1.7380731178   -1.5132929952   -1.1060396006
H       -1.0437023365   -1.8748719084   -0.7125164466
H       -2.2030570100    0.2341686057    0.1121504745
H       -0.8881061041    2.3001564878   -1.0581792882
C       -0.2232675357   -0.3495714200    0.9938166547
H       -0.4574313478   -0.6643711418    2.0078255646
13   
Frame  28 IRC: Energy =  -286.8576200000 ; +9.9736 kcal/mol
C        1.1384023971    0.2107749995    0.4236720679
C        1.0054356046   -0.8558334563   -0.6598586953
C       -0.4075869926   -1.0678365892   -0.3736521870
C       -1.1239951932    0.2982436331   -0.0041245351
C       -0.4122914209    1.5179148842   -0.4756863308
N        0.8454098602    1.5232622327   -0.2141437296
H        2.0318709197    0.2442002012    1.0483260367
H        1.7421924808   -1.5008151692   -1.1138928402
H       -1.0415403755   -1.8963821676   -0.6627870168
H       -2.2042861926    0.2424547017    0.1028129044
H       -0.8833752684    2.3124924926   -1.0499478050
C       -0.2237955599   -0.3496656828    0.9864424730
H       -0.4664402593   -0.6788100801    1.9928396577
13   
Frame  29 IRC: Energy =  -286.8576840000 ; +9.9335 kcal/mol
C        1.1392315658    0.2107556619    0.4228085283
C        1.0078811040   -0.8542556577   -0.6590768106
C       -0.4096262231   -1.0673127786   -0.3708854851
C       -1.1251254800    0.2991246395   -0.0053112804
C       -0.4118990756    1.5175171036   -0.4752331038
N        0.8449375656    1.5230794986   -0.2136194213
H        2.0310885999    0.2433729870    1.0478156522
H        1.7429465801   -1.5005128264   -1.1156061106
H       -1.0414875629   -1.8989314650   -0.6605367719
H       -2.2035474150    0.2429418918    0.1014113584
H       -0.8828759618    2.3136617251   -1.0491945879
C       -0.2244739830   -0.3497989574    0.9858071196
H       -0.4670497140   -0.6796418225    1.9916209132
13   
Frame  30 IRC: Energy =  -286.8578540000 ; +9.8268 kcal/mol
C        1.1387446950    0.2117888720    0.4215029644
C        1.0089073537   -0.8547726760   -0.6586176996
C       -0.4099096302   -1.0704284935   -0.3647371675
C       -1.1267298951    0.3008513216   -0.0103699759
C       -0.4109884005    1.5191842671   -0.4757363709
N        0.8447139442    1.5244655272   -0.2116395801
H        2.0304148934    0.2393079501    1.0462586674
H        1.7451187805   -1.4941153702   -1.1260340684
H       -1.0377139792   -1.9112254687   -0.6396884878
H       -2.2054324918    0.2472500521    0.0929787381
H       -0.8793217896    2.3209478028   -1.0425683205
C       -0.2266401764   -0.3483893278    0.9833722676
H       -0.4711633041   -0.6848644569    1.9852790330
13   
Frame  31 IRC: Energy =  -286.8578770000 ; +9.8124 kcal/mol
C        1.1384782066    0.2112362130    0.4215272100
C        1.0078401121   -0.8560043016   -0.6584121663
C       -0.4086596718   -1.0711633302   -0.3659300909
C       -1.1265976982    0.3001400295   -0.0102105079
C       -0.4108203581    1.5192523537   -0.4758853297
N        0.8454538274    1.5247622174   -0.2115387814
H        2.0305646184    0.2393612245    1.0463325221
H        1.7446396905   -1.4924426900   -1.1273027671
H       -1.0371894517   -1.9118917544   -0.6372106214
H       -2.2058160869    0.2476970237    0.0921037398
H       -0.8794015433    2.3220294140   -1.0421805200
C       -0.2268252159   -0.3480241286    0.9831844614
H       -0.4716664291   -0.6849522709    1.9855228515
13   
Frame  32 IRC: Energy =  -286.8580660000 ; +9.6938 kcal/mol
C        1.1379297670    0.2062226511    0.4210244684
C        1.0086399812   -0.8655967015   -0.6478143923
C       -0.4085905809   -1.0768377153   -0.3625713614
C       -1.1260596754    0.3000073860   -0.0180288267
C       -0.4061081943    1.5218231156   -0.4780376341
N        0.8490186720    1.5227083155   -0.2096280034
H        2.0285313126    0.2365142895    1.0468779128
H        1.7438661498   -1.4671422237   -1.1608396547
H       -1.0315483635   -1.9338576766   -0.5977092638
H       -2.2069487039    0.2539737532    0.0727323941
H       -0.8754235549    2.3353799718   -1.0304431785
C       -0.2317752817   -0.3475547083    0.9812826503
H       -0.4815315280   -0.6856404575    1.9831548894
13   
Frame  33 IRC: Energy =  -286.8580990000 ; +9.6731 kcal/mol
C        1.1374380941    0.2074576940    0.4223867675
C        1.0084766508   -0.8669537715   -0.6479871146
C       -0.4086000647   -1.0783049759   -0.3601975212
C       -1.1267335440    0.3006260134   -0.0183787824
C       -0.4063897318    1.5206466614   -0.4779104463
N        0.8492857135    1.5227243279   -0.2101720964
H        2.0288662976    0.2361945770    1.0476182979
H        1.7442622953   -1.4663177250   -1.1633910404
H       -1.0315339010   -1.9330299026   -0.5986287019
H       -2.2068874920    0.2538368928    0.0727108319
H       -0.8745450232    2.3345463127   -1.0301874117
C       -0.2320269239   -0.3464297689    0.9817630157
H       -0.4816123709   -0.6849963355    1.9823742019
13   
Frame  34 IRC: Energy =  -286.8581530000 ; +9.6392 kcal/mol
C        1.1374796189    0.2077562516    0.4233158020
C        1.0090949171   -0.8696239477   -0.6452639185
C       -0.4066561773   -1.0810014884   -0.3550038576
C       -1.1272870958    0.3009537943   -0.0179233669
C       -0.4061012857    1.5190448165   -0.4786284798
N        0.8494806935    1.5217159841   -0.2108371560
H        2.0287196962    0.2355863309    1.0498715238
H        1.7440169898   -1.4620035910   -1.1716853124
H       -1.0326420214   -1.9316976975   -0.6008406383
H       -2.2078651293    0.2535215062    0.0724996750
H       -0.8726310079    2.3325313736   -1.0302865140
C       -0.2330904656   -0.3439417807    0.9825672231
H       -0.4825187325   -0.6828415519    1.9822150196
13   
Frame  35 IRC: Energy =  -286.8582240000 ; +9.5946 kcal/mol
C        1.1378435319    0.2057962180    0.4245267367
C        1.0103135018   -0.8738953790   -0.6393061616
C       -0.4056123980   -1.0819138858   -0.3554944649
C       -1.1268150541    0.3010869600   -0.0166723293
C       -0.4050198810    1.5182622182   -0.4794731874
N        0.8510642411    1.5194709280   -0.2118166721
H        2.0274125564    0.2359266891    1.0519633309
H        1.7421597854   -1.4536150677   -1.1819889920
H       -1.0334522263   -1.9313787641   -0.6003040736
H       -2.2078162133    0.2531396898    0.0717252280
H       -0.8724249440    2.3322329947   -1.0330642669
C       -0.2333971906   -0.3452460116    0.9838962609
H       -0.4842557092   -0.6798665895    1.9860085914
13   
Frame  36 IRC: Energy =  -286.8582660000 ; +9.5683 kcal/mol
C        1.1372842308    0.2056836943    0.4260690958
C        1.0104105434   -0.8758452088   -0.6375567804
C       -0.4063644054   -1.0825909862   -0.3526125616
C       -1.1267471743    0.3014495248   -0.0169055253
C       -0.4047478331    1.5176654556   -0.4796996003
N        0.8510864196    1.5184823099   -0.2126322382
H        2.0277676977    0.2358632727    1.0536019499
H        1.7425175399   -1.4500382543   -1.1879973462
H       -1.0337926537   -1.9315556788   -0.6006182872
H       -2.2071561004    0.2530703814    0.0713548756
H       -0.8708707949    2.3305290906   -1.0332325966
C       -0.2347252783   -0.3438827777    0.9846004730
H       -0.4846621913   -0.6788308235    1.9856285413
13   
Frame  37 IRC: Energy =  -286.8583690000 ; +9.5036 kcal/mol
C        1.1382069959    0.2036394360    0.4270122726
C        1.0115735876   -0.8811347308   -0.6306763070
C       -0.4036762475   -1.0854863742   -0.3514190326
C       -1.1269468387    0.3016517772   -0.0158926263
C       -0.4026436391    1.5156788141   -0.4810700250
N        0.8530655076    1.5154953813   -0.2129681445
H        2.0260249239    0.2360818486    1.0566165329
H        1.7393570128   -1.4375851927   -1.2015519592
H       -1.0349715007   -1.9314352371   -0.5991699813
H       -2.2085119945    0.2532119948    0.0705186696
H       -0.8695135739    2.3294915951   -1.0362050718
C       -0.2349588026   -0.3431671509    0.9861994042
H       -0.4870054307   -0.6764421614    1.9886062686
13   
Frame  38 IRC: Energy =  -286.8584000000 ; +9.4842 kcal/mol
C        1.1375234244    0.2037084770    0.4281856084
C        1.0119192377   -0.8820488062   -0.6296708529
C       -0.4049355609   -1.0853563878   -0.3496885061
C       -1.1266343820    0.3017830295   -0.0159226505
C       -0.4030025399    1.5158239755   -0.4814216014
N        0.8532470298    1.5152019400   -0.2137357757
H        2.0263906824    0.2359726380    1.0574488465
H        1.7398139595   -1.4359109822   -1.2048501472
H       -1.0349635650   -1.9316980709   -0.5990269655
H       -2.2077138863    0.2532628308    0.0702096924
H       -0.8684910473    2.3284702616   -1.0362848359
C       -0.2360337435   -0.3433489578    0.9865171454
H       -0.4871196090   -0.6758599477    1.9882400424
13   