13   
Frame   0 IRC: Energy =  -286.8735140000 ; +0.0000 kcal/mol
C        1.1213686618    0.2184417183    0.4767945193
C        0.8703404599   -0.9788791997   -0.4538239192
C       -0.4538298727   -1.0167708793   -0.6890556272
C       -1.0764290991    0.1611470087    0.0895609418
C       -0.4407543179    1.4362233479   -0.5005631398
N        0.8196305878    1.4895138924   -0.2981166313
H        2.0909332849    0.2665200093    0.9682036017
H        1.6390412408   -1.6319649401   -0.8502391910
H       -1.0071843387   -1.7102617134   -1.3117882474
H       -2.1578147296    0.1536545909    0.2208443485
H       -0.9779026026    2.2064694592   -1.0498015255
C       -0.1490415098    0.0741005365    1.3064974920
H       -0.2783577654   -0.6681938307    2.0914873784
13   
Frame   1 IRC: Energy =  -286.8718797482 ; +1.0255 kcal/mol
C        1.1194026203    0.2201420456    0.4754138334
C        0.8770768832   -0.9619871066   -0.4761598032
C       -0.4528048032   -1.0296904023   -0.6733620016
C       -1.0761559724    0.1682626777    0.0742447293
C       -0.4270264385    1.4470322415   -0.5007193280
N        0.8306030584    1.4998011198   -0.2802163514
H        2.0832273771    0.2488301891    0.9800474378
H        1.6512642336   -1.5765481226   -0.9209113136
H       -1.0191264660   -1.7995840563   -1.1839854810
H       -2.1601837882    0.1696978593    0.1814751814
H       -0.9511871333    2.2345806103   -1.0373343600
C       -0.1624558211    0.0695698441    1.2985380234
H       -0.3126337500   -0.6901068996    2.0629694335
13   
Frame   2 IRC: Energy =  -286.8673466945 ; +3.8700 kcal/mol
C        1.1188635626    0.2174590323    0.4718855635
C        0.8907325871   -0.9436236661   -0.5186451249
C       -0.4451125531   -1.0334360849   -0.6740122621
C       -1.0724393422    0.1731834124    0.0574790359
C       -0.4162715897    1.4574112323   -0.4937770483
N        0.8378333921    1.5101515169   -0.2537513019
H        2.0725377913    0.2367339534    0.9953198157
H        1.6647447814   -1.5368713757   -0.9990095821
H       -1.0329688378   -1.8662923451   -1.0417732349
H       -2.1577732431    0.1767303486    0.1442725497
H       -0.9257106554    2.2523417077   -1.0344101993
C       -0.1746918983    0.0490635868    1.2854401462
H       -0.3597439950   -0.6928513188    2.0609816425
13   
Frame   3 IRC: Energy =  -286.8574227080 ; +10.0974 kcal/mol
C        1.1234644753    0.2105537567    0.4593658473
C        0.9217229419   -0.9309130467   -0.5582168821
C       -0.4295044277   -1.0312008682   -0.6390810234
C       -1.0813840909    0.1924276664    0.0346336649
C       -0.4165556316    1.4743414413   -0.4889558142
N        0.8363431844    1.5142639637   -0.2369759835
H        2.0606022446    0.2411071083    1.0122941214
H        1.6865102699   -1.5268889964   -1.0527080712
H       -1.0378504275   -1.8740999497   -0.9242282243
H       -2.1697285770    0.1926601539    0.1305607171
H       -0.9130950778    2.2686206275   -1.0482815039
C       -0.1815616477   -0.0494695166    1.2297384192
H       -0.3989632358   -0.6814023402    2.0818547329
13   
Frame   4 IRC: Energy =  -286.8443507238 ; +18.3002 kcal/mol (Transition State)
C        1.1325153171    0.2083331493    0.4486540869
C        0.9614437527   -0.9111038208   -0.5748381493
C       -0.4308459703   -1.0274851671   -0.5394530748
C       -1.0987236000    0.2361920807    0.0179170157
C       -0.4192056090    1.4887301718   -0.4868015040
N        0.8365413756    1.5121808954   -0.2324347653
H        2.0567909494    0.2450225859    1.0222046008
H        1.7002894856   -1.5238364931   -1.0724763908
H       -1.0376349499   -1.8644720841   -0.8718269957
H       -2.1801870670    0.2013510132    0.1284626481
H       -0.9093592543    2.2751930421   -1.0572237736
C       -0.1972401252   -0.1775530062    1.1390894101
H       -0.4143843048   -0.6625523672    2.0787268919
13   
Frame   5 IRC: Energy =  -286.8514207246 ; +13.8638 kcal/mol
C        1.1394351543    0.2084646287    0.4394436879
C        0.9948084652   -0.8850892730   -0.5980445025
C       -0.4293798981   -1.0382025358   -0.4294817980
C       -1.1146867707    0.2791976102    0.0121979726
C       -0.4188909032    1.5022329196   -0.4822502338
N        0.8398381515    1.5109040684   -0.2307013852
H        2.0517025373    0.2490569138    1.0327255013
H        1.7135514109   -1.5214522387   -1.0855772762
H       -1.0369584607   -1.8541014970   -0.8214429593
H       -2.1906785400    0.2109414120    0.1258163178
H       -0.9046453101    2.2822884836   -1.0633199174
C       -0.2161835375   -0.2950557656    1.0460772098
H       -0.4279122989   -0.6491847262    2.0545573831
13   
Frame   6 IRC: Energy =  -286.8570843535 ; +10.3098 kcal/mol
C        1.1403816703    0.2100852185    0.4255295409
C        1.0090223064   -0.8572695247   -0.6518389664
C       -0.4093751853   -1.0638508487   -0.3713108112
C       -1.1249574924    0.2991021969    0.0044608721
C       -0.4151486732    1.5138403217   -0.4739759491
N        0.8434874299    1.5177926353   -0.2195116685
H        2.0340525964    0.2484241021    1.0474523159
H        1.7385513546   -1.5118443838   -1.1069513213
H       -1.0434513439   -1.8773691388   -0.7067431158
H       -2.2031997117    0.2351305788    0.1110664307
H       -0.8875568784    2.3015886344   -1.0572236553
C       -0.2233288366   -0.3495823634    0.9929605502
H       -0.4584772360   -0.6660474282    2.0060857779
13   
Frame   7 IRC: Energy =  -286.8582170804 ; +9.5990 kcal/mol
C        1.1378080653    0.2059872407    0.4244087203
C        1.0101947399   -0.8734790900   -0.6398867981
C       -0.4057141236   -1.0818249645   -0.3554466509
C       -1.1268610587    0.3010739818   -0.0167942540
C       -0.4051252736    1.5183384893   -0.4793908631
N        0.8509099103    1.5196897288   -0.2117212095
H        2.0275399488    0.2358935182    1.0517594657
H        1.7423407865   -1.4544326040   -1.1809848067
H       -1.0333732646   -1.9314098470   -0.6003563666
H       -2.2078209806    0.2531769012    0.0718007048
H       -0.8724450268    2.3322620744   -1.0327935502
C       -0.2333672975   -0.3451189027    0.9837667343
H       -0.4840864254   -0.6801565261    1.9856388741
13   
Frame   8 IRC: Energy =  -286.8593420218 ; +8.8931 kcal/mol
C        1.1355166191    0.1919517972    0.4460934945
C        1.0185650763   -0.9164502599   -0.5929087135
C       -0.4017191642   -1.0995389762   -0.3257195588
C       -1.1228053230    0.3027087015   -0.0141768801
C       -0.3935255963    1.5045821552   -0.4906446245
N        0.8645039511    1.4921906262   -0.2210556585
H        2.0216844664    0.2346794959    1.0833437283
H        1.7169475252   -1.3377790762   -1.3069050825
H       -1.0397871633   -1.9399264186   -0.5816860695
H       -2.2032882003    0.2561058218    0.0605206148
H       -0.8475829796    2.3112587939   -1.0556532133
C       -0.2465840238   -0.3364395018    0.9988589084
H       -0.5019251876   -0.6633431588    1.9999330547
13   
Frame   9 IRC: Energy =  -286.8602300000 ; +8.3358 kcal/mol
C        1.1360765727    0.1783113013    0.4647911030
C        1.0238536986   -0.9320160400   -0.5734560163
C       -0.3955663336   -1.1177861726   -0.2997753217
C       -1.1183711163    0.2962568259   -0.0119173658
C       -0.3734787044    1.4836449150   -0.5024538088
N        0.8802454812    1.4721384576   -0.2193105744
H        2.0145059999    0.2193514602    1.1096429874
H        1.6639657206   -1.2025490363   -1.4078021613
H       -1.0395450124   -1.9535559012   -0.5515801813
H       -2.2006631115    0.2555280379    0.0488449343
H       -0.8183243827    2.2856719625   -1.0883793054
C       -0.2506065614   -0.3421120551    1.0125051585
H       -0.5220922505   -0.6428837553    2.0188905518
