
Running Job 1 of 1 irc_reactant.in
qchem irc_reactant.in_22502.0 ./irc_reactant.d/ 1
/home/leeping/opt/qchem/5.0.2-openmp/exe/qcprog.exe_s irc_reactant.in_22502.0 ./irc_reactant.d/
Check license passed

                  Welcome to Q-Chem
     A Quantum Leap Into The Future Of Chemistry


 Q-Chem 5.0, Q-Chem, Inc., Pleasanton, CA (2017)

 Yihan Shao,  Zhengting Gan,  E. Epifanovsky,  A. T. B. Gilbert,  M. Wormit,  
 J. Kussmann,  A. W. Lange,  A. Behn,  Jia Deng,  Xintian Feng,  D. Ghosh,  
 M. Goldey,  P. R. Horn,  L. D. Jacobson,  I. Kaliman,  T. Kus,  A. Landau,  
 Jie Liu,  E. I. Proynov,  R. M. Richard,  R. P. Steele,  E. J. Sundstrom,  
 H. L. Woodcock III,  P. M. Zimmerman,  D. Zuev,  B. Albrecht,  E. Alguire,  
 S. A. Baeppler,  D. Barton,  Z. Benda,  Y. A. Bernard,  E. J. Berquist,  
 K. B. Bravaya,  H. Burton,  D. Casanova,  Chun-Min Chang,  Yunqing Chen,  
 A. Chien,  K. D. Closser,  M. P. Coons,  S. Dasgupta,  A. L. Dempwolff,  
 M. Diedenhofen,  Hainam Do,  R. G. Edgar,  Po-Tung Fang,  S. Fatehi,  
 Qingguo Feng,  J. Fosso-Tande,  Qinghui Ge,  A. Ghysels,  G. Gidofalvi,  
 J. Gomes,  J. Gonthier,  A. Gunina,  M. W. D. Hanson-Heine,  
 P. H. P. Harbach,  A. W. Hauser,  J. E. Herr,  E. G. Hohenstein,  
 Z. C. Holden,  Kerwin Hui,  T.-C. Jagau,  Hyunjun Ji,  B. Kaduk,  
 K. Khistyaev,  Jaehoon Kim,  P. Klunzinger,  K. Koh,  D. Kosenkov,  
 L. Koulias,  T. Kowalczyk,  C. M. Krauter,  A. Kunitsa,  Ka Un Lao,  
 A. Laurent,  K. V. Lawler,  Joonho Lee,  D. Lefrancois,  S. Lehtola,  
 D. S. Levine,  Yi-Pei Li,  You-Sheng Lin,  Fenglai Liu,  E. Livshits,  
 A. Luenser,  P. Manohar,  E. Mansoor,  S. F. Manzer,  Shan-Ping Mao,  
 Yuezhi Mao,  N. Mardirossian,  A. V. Marenich,  T. Markovich,  
 L. A. Martinez-Martinez,  S. A. Maurer,  N. J. Mayhall,  S. C. McKenzie,  
 J.-M. Mewes,  A. F. Morrison,  J. W. Mullinax,  K. Nanda,  
 T. S. Nguyen-Beck,  R. Olivares-Amaya,  J. A. Parkhill,  T. M. Perrine,  
 F. Plasser,  S. Prager,  A. Prociuk,  E. Ramos,  D. R. Rehn,  F. Rob,  
 M. Schneider,  N. Sergueev,  S. M. Sharada,  S. Sharma,  D. W. Small,  
 T. Stauch,  T. Stein,  Yu-Chuan Su,  A. J. W. Thom,  A. Tkatchenko,  
 T. Tsuchimochi,  L. Vogt,  O. Vydrov,  M. A. Watson,  J. Wenzel,  
 M. de Wergifosse,  T. A. Wesolowski,  A. White,  J. Witte,  A. Yamada,  
 Jun Yang,  K. Yao,  S. Yeganeh,  S. R. Yost,  Zhi-Qiang You,  A. Zech,  
 Igor Ying Zhang,  Xing Zhang,  Yan Zhao,  Ying Zhu,  B. R. Brooks,  
 G. K. L. Chan,  C. J. Cramer,  M. S. Gordon,  W. J. Hehre,  A. Klamt,  
 M. W. Schmidt,  C. D. Sherrill,  D. G. Truhlar,  A. Aspuru-Guzik,  R. Baer,  
 A. T. Bell,  N. A. Besley,  Jeng-Da Chai,  R. A. DiStasio Jr.,  A. Dreuw,  
 B. D. Dunietz,  T. R. Furlani,  Chao-Ping Hsu,  Yousung Jung,  Jing Kong,  
 D. S. Lambrecht,  WanZhen Liang,  C. Ochsenfeld,  V. A. Rassolov,  
 L. V. Slipchenko,  J. E. Subotnik,  T. Van Voorhis,  J. M. Herbert,  
 A. I. Krylov,  P. M. W. Gill,  M. Head-Gordon

 Contributors to earlier versions of Q-Chem not listed above: 
 R. D. Adamson,  B. Austin,  J. Baker,  G. J. O. Beran,  K. Brandhorst,  
 S. T. Brown,  E. F. C. Byrd,  A. K. Chakraborty,  C.-L. Cheng,  
 Siu Hung Chien,  D. M. Chipman,  D. L. Crittenden,  H. Dachsel,  
 R. J. Doerksen,  A. D. Dutoi,  L. Fusti-Molnar,  W. A. Goddard III,  
 A. Golubeva-Zadorozhnaya,  S. R. Gwaltney,  G. Hawkins,  A. Heyden,  
 S. Hirata,  G. Kedziora,  F. J. Keil,  C. Kelley,  Jihan Kim,  R. A. King,  
 R. Z. Khaliullin,  P. P. Korambath,  W. Kurlancheek,  A. M. Lee,  M. S. Lee,  
 S. V. Levchenko,  Ching Yeh Lin,  D. Liotard,  R. C. Lochan,  I. Lotan,  
 P. E. Maslen,  N. Nair,  D. P. O'Neill,  D. Neuhauser,  E. Neuscamman,  
 C. M. Oana,  R. Olson,  B. Peters,  R. Peverati,  P. A. Pieniazek,  
 Y. M. Rhee,  J. Ritchie,  M. A. Rohrdanz,  E. Rosta,  N. J. Russ,  
 H. F. Schaefer III,  N. E. Schultz,  N. Shenvi,  A. C. Simmonett,  A. Sodt,  
 D. Stuck,  K. S. Thanthiriwatte,  V. Vanovschi,  Tao Wang,  A. Warshel,  
 C. F. Williams,  Q. Wu,  X. Xu,  W. Zhang

 Please cite Q-Chem as follows:
 Y. Shao et al., Mol. Phys. 113, 184-215 (2015)
 DOI: 10.1080/00268976.2014.952696

 Q-Chem 5.0.2 for Intel X86 EM64T Linux

 Parts of Q-Chem use Armadillo 5.200.1 (Boston Tea Smuggler).
 http://arma.sourceforge.net/

 Q-Chem begins on Wed Mar  2 16:25:58 2022  

Host: 
0

     Scratch files written to ./irc_reactant.d//
 Dec517 15110_ 26548  26544 5633   
Processing $rem in /home/leeping/opt/qchem/5.0.2-openmp/config/preferences.
 MEM_STATIC 2000
 MEM_TOTAL  8000
 SYMMETRY   OFF
 SYM_IGNORE TRUE 

Checking the input file for inconsistencies... 	...done.

--------------------------------------------------------------
User input:
--------------------------------------------------------------
$molecule
0 2
C        1.1213686618    0.2184417183    0.4767945193
C        0.8703404599   -0.9788791997   -0.4538239192
C       -0.4538298727   -1.0167708793   -0.6890556272
C       -1.0764290991    0.1611470087    0.0895609418
C       -0.4407543179    1.4362233479   -0.5005631398
N        0.8196305878    1.4895138924   -0.2981166313
H        2.0909332849    0.2665200093    0.9682036017
H        1.6390412408   -1.6319649401   -0.8502391910
H       -1.0071843387   -1.7102617134   -1.3117882474
H       -2.1578147296    0.1536545909    0.2208443485
H       -0.9779026026    2.2064694592   -1.0498015255
C       -0.1490415098    0.0741005365    1.3064974920
H       -0.2783577654   -0.6681938307    2.0914873784
$end

$rem
method                b3lyp
basis                 6-31+g(d,p)
unrestricted          true
symmetry              off
sym_ignore            true
incdft                false
incfock               0
scf_convergence       8
thresh                14
jobtype               sp
scf_guess             core
scf_guess_mix         5
scf_algorithm         diis
max_scf_cycles        100
$end

--------------------------------------------------------------
 ----------------------------------------------------------------
             Standard Nuclear Orientation (Angstroms)
    I     Atom           X                Y                Z
 ----------------------------------------------------------------
    1      C       1.1213686618     0.2184417183     0.4767945193
    2      C       0.8703404599    -0.9788791997    -0.4538239192
    3      C      -0.4538298727    -1.0167708793    -0.6890556272
    4      C      -1.0764290991     0.1611470087     0.0895609418
    5      C      -0.4407543179     1.4362233479    -0.5005631398
    6      N       0.8196305878     1.4895138924    -0.2981166313
    7      H       2.0909332849     0.2665200093     0.9682036017
    8      H       1.6390412408    -1.6319649401    -0.8502391910
    9      H      -1.0071843387    -1.7102617134    -1.3117882474
   10      H      -2.1578147296     0.1536545909     0.2208443485
   11      H      -0.9779026026     2.2064694592    -1.0498015255
   12      C      -0.1490415098     0.0741005365     1.3064974920
   13      H      -0.2783577654    -0.6681938307     2.0914873784
 ----------------------------------------------------------------
 Nuclear Repulsion Energy =   279.0290446027 hartrees
 There are       25 alpha and       24 beta electrons
 Requested basis set is 6-31+G(d,p)
 There are 53 shells and 163 basis functions

 Total QAlloc Memory Limit   8000 MB
 Mega-Array Size      1956 MB
 MEM_STATIC part      2000 MB

                       Distance Matrix (Angstroms)
             C (  1)   C (  2)   C (  3)   C (  4)   C (  5)   N (  6)
   C (  2)  1.537089
   C (  3)  2.316508  1.345436
   C (  4)  2.232386  2.320525  1.543167
   C (  5)  2.208721  2.748431  2.460260  1.542125
   N (  6)  1.518933  2.473819  2.838309  2.347317  1.277652
   H (  7)  1.088049  2.250117  3.296841  3.288662  3.151971  2.171518
   H (  8)  2.335168  1.083774  2.187362  3.387072  3.723117  3.274126
   H (  9)  3.383735  2.190005  1.083940  2.338962  3.298378  3.821433
   H ( 10)  3.289795  3.302656  2.258623  1.089351  2.261351  3.304394
   H ( 11)  3.269509  3.730635  3.285433  2.343331  1.087874  2.076098
   C ( 12)  1.524199  2.290554  2.294587  1.532501  2.281654  2.348725
   H ( 13)  2.313566  2.809741  2.807796  2.309206  3.342704  3.401689
             H (  7)   H (  8)   H (  9)   H ( 10)   H ( 11)   C ( 12)
   H (  8)  2.667431
   H (  9)  4.324854  2.687316
   H ( 10)  4.315454  4.330332  2.673405
   H ( 11)  4.153734  4.649925  3.925593  2.687151
   C ( 12)  2.273534  3.280154  3.282648  2.284763  3.284228
   H ( 13)  2.783702  3.641295  3.633095  2.776166  4.315176  1.088087

 
 A cutoff of  1.0D-14 yielded   1410 shell pairs
 There are     13528 function pairs
 
 -------------------------------------------------------
 OpenMP Integral Computing Module                       
 Release: version 1.0, May 2013, Q-Chem Inc. Pittsburgh 
 -------------------------------------------------------
 Integral Job Info:
 Integral job number is                      11
 Integral operator is                         1
 short-range coefficients                     0
 long-range coefficients              100000000
 Omega coefficients                           0
 if combine SR and LR in K                    0
 Integral screening is                        0
 Integral computing path is                   2
 max size of driver memory is            800000
 size of driver memory is                593474
 size of scratch memory is              2361544
 max col of scratch BK array               1296
 max len of scratch array in speh3          155
 max len of scratch index in speh4           18
 max int batch size is                      520
 min int batch size is                       52
 fixed nKL is                                52
 max L of basis functions is                  2
 order of int derivative is                   0
 number of shells is                         53
 number of basis is                         163
 number of cartesian basis is               163
 number of contracted shell pairs          1410
 number of primitive shell pairs           4819
 maxK2 (contraction) of shell pair           36
 max number of K2 of shell pair               1
 max number of CS2 of shell pair            127
 max number of PS2 of shell pair            684
 mem total for path MDJ                  535308
 -------------------------------------------------------
 Smallest overlap matrix eigenvalue = 2.22E-05

 Scale SEOQF with 1.000000e-01/1.000000e-01/1.000000e-01

 Standard Electronic Orientation quadrupole field applied
 Nucleus-field energy     =     0.0000000022 hartrees
 Guess MOs from core Hamiltonian diagonalization
 Mixing HOMO and LUMO in initial guess
 Adding  50% of the LUMO to the HOMO
 An unrestricted hybrid HF-DFT SCF calculation will be
 performed using Pulay DIIS extrapolation
 Exchange:     0.2000 Hartree-Fock + 0.0800 Slater + 0.7200 B88
 Correlation:  0.1900 VWN1RPA + 0.8100 LYP
 Using SG-1 standard quadrature grid
 SCF converges when DIIS error is below 1.0E-08
 using 4 threads for integral computing
 -------------------------------------------------------
 OpenMP Integral computing Module                
 Release: version 1.0, May 2013, Q-Chem Inc. Pittsburgh 
 -------------------------------------------------------
 -------------------------------------------------------
 OpenMP BLAS3 based DFT computing Module                
 Release: version 1.0, May 2013, Q-Chem Inc. Pittsburgh 
 -------------------------------------------------------
 ---------------------------------------
  Cycle       Energy         DIIS Error
 ---------------------------------------
    1    -234.8019003148      1.00E-01
    2    -214.6672521924      7.19E-02
    3    -253.7182269126      7.72E-02
    4    -280.8558069357      3.78E-02
    5    -280.3368493741      3.41E-02
    6    -286.1027696235      1.36E-02
    7    -286.3019817451      1.24E-02
    8    -286.7810198861      5.34E-03
    9    -286.8551884419      2.37E-03
   10    -286.8718998504      6.92E-04
   11    -286.8733660620      1.98E-04
   12    -286.8735006422      5.31E-05
   13    -286.8735121726      1.18E-05
   14    -286.8735130839      6.24E-06
   15    -286.8735134248      1.73E-06
   16    -286.8735135568      7.16E-07
   17    -286.8735135957      3.19E-07
   18    -286.8735136144      8.87E-08
   19    -286.8735136236      4.53E-08
   20    -286.8735136307      1.77E-08
   21    -286.8735136323      6.07E-09 Convergence criterion met
 ---------------------------------------
 <S^2> = 0.7539
 SCF time:  CPU 107.91 s  wall 33.13 s
 SCF   energy in the final basis set = -286.87351363
 Total energy in the final basis set = -286.87351363
 
 --------------------------------------------------------------
 
                    Orbital Energies (a.u.)
 --------------------------------------------------------------
 
 Alpha MOs
 -- Occupied --
-14.337 -10.235 -10.231 -10.221 -10.216 -10.213 -10.209  -0.965
 -0.833  -0.737  -0.715  -0.589  -0.583  -0.539  -0.520  -0.481
 -0.429  -0.420  -0.391  -0.383  -0.358  -0.305  -0.283  -0.271
 -0.206
 -- Virtual --
 -0.041   0.002   0.002   0.020   0.026   0.032   0.048   0.049
  0.065   0.072   0.075   0.094   0.104   0.106   0.109   0.120
  0.121   0.131   0.138   0.150   0.169   0.171   0.185   0.190
  0.193   0.199   0.204   0.219   0.230   0.234   0.239   0.247
  0.257   0.268   0.279   0.287   0.303   0.324   0.337   0.342
  0.353   0.392   0.420   0.455   0.616   0.668   0.681   0.702
  0.707   0.717   0.727   0.737   0.746   0.764   0.777   0.789
  0.805   0.832   0.859   0.892   0.898   0.951   0.959   0.994
  1.011   1.026   1.053   1.070   1.082   1.107   1.122   1.144
  1.210   1.288   1.310   1.329   1.359   1.406   1.430   1.481
  1.499   1.576   1.624   1.685   1.743   1.754   1.810   1.830
  1.891   1.899   1.972   1.988   2.032   2.048   2.092   2.112
  2.122   2.172   2.216   2.265   2.290   2.325   2.354   2.396
  2.403   2.449   2.453   2.477   2.496   2.513   2.516   2.558
  2.590   2.606   2.625   2.636   2.686   2.742   2.776   2.791
  2.817   2.866   2.916   3.043   3.110   3.285   3.329   3.388
  3.447   3.540   3.717   4.141   4.375   4.473   4.555   4.613
  4.763   4.826
 
 Beta MOs
 -- Occupied --
-14.336 -10.235 -10.231 -10.221 -10.212 -10.208 -10.202  -0.961
 -0.827  -0.735  -0.700  -0.587  -0.571  -0.536  -0.517  -0.472
 -0.425  -0.416  -0.389  -0.380  -0.352  -0.298  -0.273  -0.268
 -- Virtual --
 -0.064  -0.036   0.003   0.003   0.021   0.029   0.032   0.048
  0.050   0.068   0.073   0.076   0.094   0.105   0.107   0.109
  0.120   0.127   0.132   0.140   0.152   0.170   0.171   0.185
  0.191   0.197   0.200   0.207   0.223   0.233   0.238   0.241
  0.250   0.261   0.270   0.280   0.292   0.308   0.327   0.340
  0.345   0.362   0.393   0.422   0.457   0.619   0.682   0.687
  0.710   0.714   0.725   0.733   0.740   0.750   0.770   0.791
  0.795   0.807   0.835   0.861   0.899   0.904   0.953   0.967
  0.999   1.013   1.029   1.058   1.077   1.084   1.109   1.127
  1.148   1.213   1.292   1.313   1.334   1.363   1.408   1.435
  1.486   1.509   1.584   1.630   1.692   1.747   1.760   1.818
  1.840   1.895   1.911   1.975   1.991   2.047   2.056   2.096
  2.122   2.131   2.174   2.222   2.271   2.305   2.327   2.359
  2.398   2.407   2.453   2.456   2.479   2.498   2.518   2.520
  2.565   2.601   2.611   2.636   2.638   2.689   2.745   2.779
  2.797   2.821   2.870   2.918   3.045   3.111   3.286   3.330
  3.397   3.449   3.542   3.718   4.142   4.385   4.477   4.570
  4.621   4.766   4.827
 --------------------------------------------------------------
 
          Ground-State Mulliken Net Atomic Charges

     Atom                 Charge (a.u.)    Spin (a.u.)
  --------------------------------------------------------
      1 C                     0.026082      -0.090238
      2 C                    -0.146845       0.048294
      3 C                    -0.127820       0.092747
      4 C                     0.008199      -0.060970
      5 C                    -0.091511      -0.030878
      6 N                    -0.203607       0.024739
      7 H                     0.129416       0.003585
      8 H                     0.138930       0.000603
      9 H                     0.138584       0.000234
     10 H                     0.124665       0.003497
     11 H                     0.137341      -0.000131
     12 C                    -0.272343       1.034389
     13 H                     0.138908      -0.025872
  --------------------------------------------------------
  Sum of atomic charges =     0.000000
  Sum of spin   charges =     1.000000

 -----------------------------------------------------------------
                    Cartesian Multipole Moments
 -----------------------------------------------------------------
    Charge (ESU x 10^10)
                 0.0000
    Dipole Moment (Debye)
         X      -1.5752      Y      -2.0622      Z      -0.0917
       Tot       2.5966
    Quadrupole Moments (Debye-Ang)
        XX     -38.9595     XY      -4.3519     YY     -44.4938
        XZ       2.3767     YZ       0.1024     ZZ     -42.0375
    Octopole Moments (Debye-Ang^2)
       XXX     -10.9906    XXY     -11.9284    XYY     -12.2924
       YYY     -26.5703    XXZ       1.1380    XYZ       3.7834
       YYZ      -4.4041    XZZ      -4.5776    YZZ     -10.9159
       ZZZ       1.2884
    Hexadecapole Moments (Debye-Ang^3)
      XXXX    -225.4701   XXXY      -9.2396   XXYY     -93.3353
      XYYY     -21.0759   YYYY    -318.6033   XXXZ      -0.7088
      XXYZ       3.9532   XYYZ       5.0261   YYYZ      -2.0629
      XXZZ     -69.1763   XYZZ      -0.6092   YYZZ     -78.3132
      XZZZ      -1.2053   YZZZ     -10.4344   ZZZZ    -190.1227
 -----------------------------------------------------------------
Archival summary:
1\1\c8-89\SP\ProcedureUnspecified\6-31+G**\166(2)\hpark21\WedMar216:26:342022WedMar216:26:342022\0\\#,ProcedureUnspecified,6-31+G**,\\0,2\N\C,1,1.27765\H,2,1.08787,1,122.517\C,1,1.51893,2,103.999,3,-179.234,0\H,4,1.08805,1,111.744,2,-163.212,0\C,4,1.5242,1,101.034,2,-34.3562,0\H,6,1.08809,4,123.806,1,-172.638,0\C,6,1.5325,4,93.827,1,53.2734,0\H,8,1.08935,6,120.307,4,-176.689,0\C,4,1.53709,1,108.091,2,66.7121,0\H,10,1.08377,4,125.101,1,111.103,0\C,10,1.34544,4,106.77,1,-67.3338,0\H,12,1.08394,10,128.382,4,178.93,0\\\@

 Total job time:  36.09s(wall), 109.73s(cpu) 
 Wed Mar  2 16:26:34 2022

        *************************************************************
        *                                                           *
        *  Thank you very much for using Q-Chem.  Have a nice day.  *
        *                                                           *
        *************************************************************


