
Running Job 1 of 1 irc_transition.in
qchem irc_transition.in_23791.0 ./irc_transition.d/ 1
/home/leeping/opt/qchem/5.0.2-openmp/exe/qcprog.exe_s irc_transition.in_23791.0 ./irc_transition.d/
Check license passed

                  Welcome to Q-Chem
     A Quantum Leap Into The Future Of Chemistry


 Q-Chem 5.0, Q-Chem, Inc., Pleasanton, CA (2017)

 Yihan Shao,  Zhengting Gan,  E. Epifanovsky,  A. T. B. Gilbert,  M. Wormit,  
 J. Kussmann,  A. W. Lange,  A. Behn,  Jia Deng,  Xintian Feng,  D. Ghosh,  
 M. Goldey,  P. R. Horn,  L. D. Jacobson,  I. Kaliman,  T. Kus,  A. Landau,  
 Jie Liu,  E. I. Proynov,  R. M. Richard,  R. P. Steele,  E. J. Sundstrom,  
 H. L. Woodcock III,  P. M. Zimmerman,  D. Zuev,  B. Albrecht,  E. Alguire,  
 S. A. Baeppler,  D. Barton,  Z. Benda,  Y. A. Bernard,  E. J. Berquist,  
 K. B. Bravaya,  H. Burton,  D. Casanova,  Chun-Min Chang,  Yunqing Chen,  
 A. Chien,  K. D. Closser,  M. P. Coons,  S. Dasgupta,  A. L. Dempwolff,  
 M. Diedenhofen,  Hainam Do,  R. G. Edgar,  Po-Tung Fang,  S. Fatehi,  
 Qingguo Feng,  J. Fosso-Tande,  Qinghui Ge,  A. Ghysels,  G. Gidofalvi,  
 J. Gomes,  J. Gonthier,  A. Gunina,  M. W. D. Hanson-Heine,  
 P. H. P. Harbach,  A. W. Hauser,  J. E. Herr,  E. G. Hohenstein,  
 Z. C. Holden,  Kerwin Hui,  T.-C. Jagau,  Hyunjun Ji,  B. Kaduk,  
 K. Khistyaev,  Jaehoon Kim,  P. Klunzinger,  K. Koh,  D. Kosenkov,  
 L. Koulias,  T. Kowalczyk,  C. M. Krauter,  A. Kunitsa,  Ka Un Lao,  
 A. Laurent,  K. V. Lawler,  Joonho Lee,  D. Lefrancois,  S. Lehtola,  
 D. S. Levine,  Yi-Pei Li,  You-Sheng Lin,  Fenglai Liu,  E. Livshits,  
 A. Luenser,  P. Manohar,  E. Mansoor,  S. F. Manzer,  Shan-Ping Mao,  
 Yuezhi Mao,  N. Mardirossian,  A. V. Marenich,  T. Markovich,  
 L. A. Martinez-Martinez,  S. A. Maurer,  N. J. Mayhall,  S. C. McKenzie,  
 J.-M. Mewes,  A. F. Morrison,  J. W. Mullinax,  K. Nanda,  
 T. S. Nguyen-Beck,  R. Olivares-Amaya,  J. A. Parkhill,  T. M. Perrine,  
 F. Plasser,  S. Prager,  A. Prociuk,  E. Ramos,  D. R. Rehn,  F. Rob,  
 M. Schneider,  N. Sergueev,  S. M. Sharada,  S. Sharma,  D. W. Small,  
 T. Stauch,  T. Stein,  Yu-Chuan Su,  A. J. W. Thom,  A. Tkatchenko,  
 T. Tsuchimochi,  L. Vogt,  O. Vydrov,  M. A. Watson,  J. Wenzel,  
 M. de Wergifosse,  T. A. Wesolowski,  A. White,  J. Witte,  A. Yamada,  
 Jun Yang,  K. Yao,  S. Yeganeh,  S. R. Yost,  Zhi-Qiang You,  A. Zech,  
 Igor Ying Zhang,  Xing Zhang,  Yan Zhao,  Ying Zhu,  B. R. Brooks,  
 G. K. L. Chan,  C. J. Cramer,  M. S. Gordon,  W. J. Hehre,  A. Klamt,  
 M. W. Schmidt,  C. D. Sherrill,  D. G. Truhlar,  A. Aspuru-Guzik,  R. Baer,  
 A. T. Bell,  N. A. Besley,  Jeng-Da Chai,  R. A. DiStasio Jr.,  A. Dreuw,  
 B. D. Dunietz,  T. R. Furlani,  Chao-Ping Hsu,  Yousung Jung,  Jing Kong,  
 D. S. Lambrecht,  WanZhen Liang,  C. Ochsenfeld,  V. A. Rassolov,  
 L. V. Slipchenko,  J. E. Subotnik,  T. Van Voorhis,  J. M. Herbert,  
 A. I. Krylov,  P. M. W. Gill,  M. Head-Gordon

 Contributors to earlier versions of Q-Chem not listed above: 
 R. D. Adamson,  B. Austin,  J. Baker,  G. J. O. Beran,  K. Brandhorst,  
 S. T. Brown,  E. F. C. Byrd,  A. K. Chakraborty,  C.-L. Cheng,  
 Siu Hung Chien,  D. M. Chipman,  D. L. Crittenden,  H. Dachsel,  
 R. J. Doerksen,  A. D. Dutoi,  L. Fusti-Molnar,  W. A. Goddard III,  
 A. Golubeva-Zadorozhnaya,  S. R. Gwaltney,  G. Hawkins,  A. Heyden,  
 S. Hirata,  G. Kedziora,  F. J. Keil,  C. Kelley,  Jihan Kim,  R. A. King,  
 R. Z. Khaliullin,  P. P. Korambath,  W. Kurlancheek,  A. M. Lee,  M. S. Lee,  
 S. V. Levchenko,  Ching Yeh Lin,  D. Liotard,  R. C. Lochan,  I. Lotan,  
 P. E. Maslen,  N. Nair,  D. P. O'Neill,  D. Neuhauser,  E. Neuscamman,  
 C. M. Oana,  R. Olson,  B. Peters,  R. Peverati,  P. A. Pieniazek,  
 Y. M. Rhee,  J. Ritchie,  M. A. Rohrdanz,  E. Rosta,  N. J. Russ,  
 H. F. Schaefer III,  N. E. Schultz,  N. Shenvi,  A. C. Simmonett,  A. Sodt,  
 D. Stuck,  K. S. Thanthiriwatte,  V. Vanovschi,  Tao Wang,  A. Warshel,  
 C. F. Williams,  Q. Wu,  X. Xu,  W. Zhang

 Please cite Q-Chem as follows:
 Y. Shao et al., Mol. Phys. 113, 184-215 (2015)
 DOI: 10.1080/00268976.2014.952696

 Q-Chem 5.0.2 for Intel X86 EM64T Linux

 Parts of Q-Chem use Armadillo 5.200.1 (Boston Tea Smuggler).
 http://arma.sourceforge.net/

 Q-Chem begins on Wed Mar  2 16:40:51 2022  

Host: 
0

     Scratch files written to ./irc_transition.d//
 Dec517 15110_ 26548  26544 5633   
Processing $rem in /home/leeping/opt/qchem/5.0.2-openmp/config/preferences.
 MEM_STATIC 2000
 MEM_TOTAL  8000
 SYMMETRY   OFF
 SYM_IGNORE TRUE 

Checking the input file for inconsistencies... 	...done.

--------------------------------------------------------------
User input:
--------------------------------------------------------------
$molecule
0 2
C        1.1304038735    0.2058728035    0.4472418737
C        0.9635959528   -0.9094625034   -0.5792380224
C       -0.4327732329   -1.0285283241   -0.5350123166
C       -1.1026342522    0.2372174244    0.0146348289
C       -0.4222232878    1.4885780494   -0.4856696085
N        0.8336718974    1.5108779240   -0.2302191769
H        2.0531227355    0.2421817237    1.0232438464
H        1.7006385913   -1.5223848018   -1.0774770623
H       -1.0382739155   -1.8645032019   -0.8750759224
H       -2.1835061792    0.1984042600    0.1249700767
H       -0.9118506795    2.2753419835   -1.0556070699
C       -0.2020286659   -0.1924142041    1.1286590747
H       -0.4191738524   -0.6680026297    2.0739874181
$end

$rem
method                b3lyp
basis                 6-31+g(d,p)
unrestricted          true
symmetry              off
sym_ignore            true
incdft                false
incfock               0
scf_convergence       8
thresh                14
jobtype               sp
scf_guess             read
scf_algorithm         diis
max_scf_cycles        100
scf_final_print       1
$end

--------------------------------------------------------------
 ----------------------------------------------------------------
             Standard Nuclear Orientation (Angstroms)
    I     Atom           X                Y                Z
 ----------------------------------------------------------------
    1      C       1.1304038735     0.2058728035     0.4472418737
    2      C       0.9635959528    -0.9094625034    -0.5792380224
    3      C      -0.4327732329    -1.0285283241    -0.5350123166
    4      C      -1.1026342522     0.2372174244     0.0146348289
    5      C      -0.4222232878     1.4885780494    -0.4856696085
    6      N       0.8336718974     1.5108779240    -0.2302191769
    7      H       2.0531227355     0.2421817237     1.0232438464
    8      H       1.7006385913    -1.5223848018    -1.0774770623
    9      H      -1.0382739155    -1.8645032019    -0.8750759224
   10      H      -2.1835061792     0.1984042600     0.1249700767
   11      H      -0.9118506795     2.2753419835    -1.0556070699
   12      C      -0.2020286659    -0.1924142041     1.1286590747
   13      H      -0.4191738524    -0.6680026297     2.0739874181
 ----------------------------------------------------------------
 Nuclear Repulsion Energy =   280.5556869324 hartrees
 There are       25 alpha and       24 beta electrons
 Requested basis set is 6-31+G(d,p)
 There are 53 shells and 163 basis functions

 Total QAlloc Memory Limit   8000 MB
 Mega-Array Size      1956 MB
 MEM_STATIC part      2000 MB

                       Distance Matrix (Angstroms)
             C (  1)   C (  2)   C (  3)   C (  4)   C (  5)   N (  6)
   C (  2)  1.524945
   C (  3)  2.220831  1.402134
   C (  4)  2.274773  2.436569  1.533929
   C (  5)  2.219529  2.771254  2.517612  1.509691
   N (  6)  1.500014  2.448825  2.854009  2.330546  1.281805
   H (  7)  1.088350  2.254174  3.197272  3.313023  3.155576  2.160514
   H (  8)  2.374197  1.080346  2.256016  3.485290  3.731310  3.266521
   H (  9)  3.276911  2.237656  1.086797  2.283190  3.431371  3.913211
   H ( 10)  3.329552  3.409916  2.237411  1.087182  2.267057  3.309397
   H ( 11)  3.272929  3.726554  3.378771  2.309928  1.087916  2.076661
   C ( 12)  1.548657  2.188550  1.876202  1.495568  2.340999  2.412557
   H ( 13)  2.410633  3.001660  2.633827  2.351058  3.347043  3.409767
             H (  7)   H (  8)   H (  9)   H ( 10)   H ( 11)   C ( 12)
   H (  8)  2.766038
   H (  9)  4.195053  2.767608
   H ( 10)  4.331032  4.415153  2.562662
   H ( 11)  4.152882  4.609589  4.145708  2.706389
   C ( 12)  2.299064  3.202499  2.740464  2.255301  3.371155
   H ( 13)  2.836327  3.892981  3.242202  2.768068  4.324392  1.080269

 
 A cutoff of  1.0D-14 yielded   1404 shell pairs
 There are     13506 function pairs
 
 -------------------------------------------------------
 OpenMP Integral Computing Module                       
 Release: version 1.0, May 2013, Q-Chem Inc. Pittsburgh 
 -------------------------------------------------------
 Integral Job Info:
 Integral job number is                      11
 Integral operator is                         1
 short-range coefficients                     0
 long-range coefficients              100000000
 Omega coefficients                           0
 if combine SR and LR in K                    0
 Integral screening is                        0
 Integral computing path is                   2
 max size of driver memory is            800000
 size of driver memory is                593474
 size of scratch memory is              2361544
 max col of scratch BK array               1296
 max len of scratch array in speh3          155
 max len of scratch index in speh4           18
 max int batch size is                      520
 min int batch size is                       52
 fixed nKL is                                52
 max L of basis functions is                  2
 order of int derivative is                   0
 number of shells is                         53
 number of basis is                         163
 number of cartesian basis is               163
 number of contracted shell pairs          1404
 number of primitive shell pairs           4827
 maxK2 (contraction) of shell pair           36
 max number of K2 of shell pair               1
 max number of CS2 of shell pair            126
 max number of PS2 of shell pair            696
 mem total for path MDJ                  535308
 -------------------------------------------------------
 Smallest overlap matrix eigenvalue = 2.31E-05

 Scale SEOQF with 1.000000e-01/1.000000e-01/1.000000e-01

 Standard Electronic Orientation quadrupole field applied
 Nucleus-field energy     =     0.0000000028 hartrees
 Guess MOs from SCF MO coefficient file
 Reading MOs from coefficient file
 Reading MOs from coefficient file
 An unrestricted hybrid HF-DFT SCF calculation will be
 performed using Pulay DIIS extrapolation
 Exchange:     0.2000 Hartree-Fock + 0.0800 Slater + 0.7200 B88
 Correlation:  0.1900 VWN1RPA + 0.8100 LYP
 Using SG-1 standard quadrature grid
 SCF converges when DIIS error is below 1.0E-08
Using Q-Chem read-in guess as SCF_GUESS READ specified.

 using 4 threads for integral computing
 -------------------------------------------------------
 OpenMP Integral computing Module                
 Release: version 1.0, May 2013, Q-Chem Inc. Pittsburgh 
 -------------------------------------------------------
 -------------------------------------------------------
 OpenMP BLAS3 based DFT computing Module                
 Release: version 1.0, May 2013, Q-Chem Inc. Pittsburgh 
 -------------------------------------------------------
 ---------------------------------------
  Cycle       Energy         DIIS Error
 ---------------------------------------
    1    -286.8438486145      1.23E-09
    2    -286.8438486145      1.70E-09 Convergence criterion met
 ---------------------------------------
 One-Electron    Energy =  -941.5149755513
 Total Coulomb   Energy =   415.7197534907
 Alpha Exchange  Energy =    -4.0169508783
 Beta  Exchange  Energy =    -3.9250285872
 DFT   Exchange  Energy =   -31.5520604033
 DFT Correlation Energy =    -2.1102736203
 Nuclear Repu.   Energy =   280.5556869353
 Nuclear Attr.   Energy = -1225.6522834394
 Kinetic         Energy =   284.1373078881
 <S^2> = 0.7809
 SCF time:  CPU 10.39 s  wall 3.83 s
 Final Alpha MO Eigenvalues
            1           2           3           4           5           6
    1 -14.3336641 -10.2336197 -10.2310055 -10.2284875 -10.2253213 -10.2224588
            7           8           9          10          11          12
    1 -10.1988242  -0.9686534  -0.8498408  -0.7503750  -0.6897930  -0.6013426
           13          14          15          16          17          18
    1  -0.5866518  -0.5458628  -0.5237206  -0.4742597  -0.4359356  -0.4180516
           19          20          21          22          23          24
    1  -0.4090758  -0.3865641  -0.3509833  -0.3072461  -0.2864762  -0.2658768
           25          26          27          28          29          30
    1  -0.1522119  -0.0249798  -0.0089212   0.0000291   0.0202176   0.0264402
 Final Beta MO Eigenvalues
            1           2           3           4           5           6
    1 -14.3337694 -10.2363179 -10.2318003 -10.2276289 -10.2250844 -10.2135803
            7           8           9          10          11          12
    1 -10.1894320  -0.9651943  -0.8443839  -0.7430993  -0.6798386  -0.5966364
           13          14          15          16          17          18
    1  -0.5774775  -0.5435086  -0.5159853  -0.4690399  -0.4318810  -0.4131475
           19          20          21          22          23          24
    1  -0.4068609  -0.3847396  -0.3458541  -0.2909278  -0.2766143  -0.2620840
           25          26          27          28          29
    1  -0.0431372  -0.0195161  -0.0007923   0.0017798   0.0204088
 SCF   energy in the final basis set = -286.84384861
 Total energy in the final basis set = -286.84384861
 
 --------------------------------------------------------------
 
                    Orbital Energies (a.u.)
 --------------------------------------------------------------
 
 Alpha MOs
 -- Occupied --
-14.334 -10.234 -10.231 -10.228 -10.225 -10.222 -10.199  -0.969
 -0.850  -0.750  -0.690  -0.601  -0.587  -0.546  -0.524  -0.474
 -0.436  -0.418  -0.409  -0.387  -0.351  -0.307  -0.286  -0.266
 -0.152
 -- Virtual --
 -0.025  -0.009   0.000   0.020   0.026   0.031   0.048   0.048
  0.068   0.071   0.074   0.091   0.103   0.106   0.109   0.115
  0.123   0.129   0.143   0.154   0.167   0.177   0.183   0.185
  0.190   0.199   0.208   0.211   0.228   0.233   0.241   0.246
  0.258   0.268   0.281   0.289   0.301   0.318   0.330   0.353
  0.373   0.385   0.414   0.459   0.617   0.655   0.691   0.698
  0.699   0.715   0.725   0.738   0.752   0.758   0.787   0.795
  0.799   0.816   0.863   0.899   0.913   0.934   0.972   0.986
  1.009   1.015   1.036   1.063   1.088   1.117   1.133   1.162
  1.187   1.255   1.289   1.299   1.384   1.419   1.436   1.517
  1.530   1.610   1.616   1.712   1.717   1.775   1.801   1.832
  1.887   1.916   1.945   1.991   1.999   2.077   2.115   2.137
  2.150   2.222   2.231   2.262   2.278   2.359   2.370   2.379
  2.403   2.420   2.472   2.488   2.500   2.517   2.524   2.554
  2.579   2.595   2.627   2.648   2.684   2.745   2.760   2.774
  2.825   2.875   2.956   3.059   3.110   3.294   3.311   3.337
  3.476   3.625   3.692   4.154   4.388   4.473   4.575   4.639
  4.713   4.851
 
 Beta MOs
 -- Occupied --
-14.334 -10.236 -10.232 -10.228 -10.225 -10.214 -10.189  -0.965
 -0.844  -0.743  -0.680  -0.597  -0.577  -0.544  -0.516  -0.469
 -0.432  -0.413  -0.407  -0.385  -0.346  -0.291  -0.277  -0.262
 -- Virtual --
 -0.043  -0.020  -0.001   0.002   0.020   0.027   0.035   0.048
  0.049   0.070   0.072   0.078   0.092   0.103   0.106   0.110
  0.116   0.128   0.130   0.144   0.155   0.167   0.177   0.184
  0.189   0.191   0.202   0.210   0.216   0.232   0.235   0.243
  0.247   0.261   0.272   0.281   0.291   0.304   0.322   0.331
  0.357   0.376   0.388   0.420   0.462   0.620   0.661   0.692
  0.703   0.708   0.734   0.742   0.745   0.753   0.768   0.791
  0.797   0.804   0.819   0.864   0.903   0.914   0.936   0.974
  0.988   1.010   1.020   1.039   1.067   1.091   1.121   1.140
  1.168   1.192   1.259   1.297   1.300   1.386   1.423   1.445
  1.521   1.537   1.618   1.621   1.718   1.722   1.781   1.806
  1.849   1.891   1.925   1.946   1.999   2.002   2.082   2.125
  2.138   2.158   2.229   2.235   2.270   2.285   2.362   2.374
  2.383   2.408   2.427   2.476   2.496   2.502   2.524   2.530
  2.558   2.589   2.601   2.631   2.654   2.690   2.749   2.763
  2.779   2.827   2.877   2.959   3.061   3.111   3.295   3.312
  3.338   3.477   3.629   3.695   4.154   4.394   4.479   4.588
  4.645   4.716   4.855
 --------------------------------------------------------------
 
          Ground-State Mulliken Net Atomic Charges

     Atom                 Charge (a.u.)    Spin (a.u.)
  --------------------------------------------------------
      1 C                     0.016206      -0.124038
      2 C                    -0.133389       0.738547
      3 C                    -0.139386      -0.230693
      4 C                    -0.018275      -0.032313
      5 C                    -0.063828       0.042219
      6 N                    -0.206790      -0.002961
      7 H                     0.130392       0.008293
      8 H                     0.138857      -0.030221
      9 H                     0.140557       0.012653
     10 H                     0.131586       0.003611
     11 H                     0.134910       0.001346
     12 C                    -0.278140       0.641642
     13 H                     0.147299      -0.028088
  --------------------------------------------------------
  Sum of atomic charges =    -0.000000
  Sum of spin   charges =     1.000000

 -----------------------------------------------------------------
                    Cartesian Multipole Moments
 -----------------------------------------------------------------
    Charge (ESU x 10^10)
                -0.0000
    Dipole Moment (Debye)
         X      -2.1050      Y      -1.9877      Z       0.5257
       Tot       2.9425
    Quadrupole Moments (Debye-Ang)
        XX     -39.4594     XY      -3.6674     YY     -44.4589
        XZ       2.0206     YZ       0.2277     ZZ     -41.4539
    Octopole Moments (Debye-Ang^2)
       XXX     -14.2952    XXY     -11.5082    XYY     -14.4942
       YYY     -25.7125    XXZ       2.7760    XYZ       4.1061
       YYZ      -3.4326    XZZ      -4.6788    YZZ      -8.8352
       ZZZ       8.6859
    Hexadecapole Moments (Debye-Ang^3)
      XXXX    -236.1187   XXXY      -8.4285   XXYY     -98.4342
      XYYY     -17.9749   YYYY    -324.9414   XXXZ       4.5379
      XXYZ       5.9117   XYYZ       5.4349   YYYZ       4.0038
      XXZZ     -68.2859   XYZZ      -1.5153   YYZZ     -75.8813
      XZZZ       3.0889   YZZZ      -3.9228   ZZZZ    -163.7358
 -----------------------------------------------------------------
 Mayer SCF Bond Order, atomic valence on the diagonal:

            1           2           3           4           5           6
    1   3.5917015   0.9063224  -0.0925200  -0.0995854   0.0160588   0.9455134
    2   0.9063224   3.5420913   1.5092809   0.0335189   0.0677076   0.0126132
    3  -0.0925200   1.5092809   4.0631900   1.0024564  -0.0043636   0.0264283
    4  -0.0995854   0.0335189   1.0024564   3.6759804   0.8855201  -0.0116801
    5   0.0160588   0.0677076  -0.0043636   0.8855201   3.8457911   1.7795239
    6   0.9455134   0.0126132   0.0264283  -0.0116801   1.7795239   2.7525362
    7   0.9250085  -0.0013336   0.0176411   0.0110603   0.0083152  -0.0236997
    8   0.0384257   0.8393949   0.0694976  -0.0131826   0.0109918   0.0004200
    9  -0.0037143   0.0463671   0.8610692   0.0013913   0.0052948   0.0059310
   10   0.0123343   0.0089851   0.0222240   0.8654998   0.0098199   0.0125870
   11   0.0041936   0.0018893   0.0048820  -0.0404491   0.9774344  -0.0237726
   12   0.9171123   0.1175317   0.6194604   1.0167327   0.0901455   0.0207546
   13   0.0225521  -0.0001864   0.0271335   0.0246982  -0.0006574   0.0079171
            7           8           9          10          11          12
    1   0.9250085   0.0384257  -0.0037143   0.0123343   0.0041936   0.9171123
    2  -0.0013336   0.8393949   0.0463671   0.0089851   0.0018893   0.1175317
    3   0.0176411   0.0694976   0.8610692   0.0222240   0.0048820   0.6194604
    4   0.0110603  -0.0131826   0.0013913   0.8654998  -0.0404491   1.0167327
    5   0.0083152   0.0109918   0.0052948   0.0098199   0.9774344   0.0901455
    6  -0.0236997   0.0004200   0.0059310   0.0125870  -0.0237726   0.0207546
    7   0.9486901   0.0005159   0.0017679   0.0017663   0.0016983   0.0057103
    8   0.0005159   0.9578897   0.0004640   0.0005580   0.0000670   0.0102630
    9   0.0017679   0.0004640   0.9559106   0.0000959   0.0003356   0.0366877
   10   0.0017663   0.0005580   0.0000959   0.9562931   0.0001168   0.0219765
   11   0.0016983   0.0000670   0.0003356   0.0001168   0.9465936   0.0195807
   12   0.0057103   0.0102630   0.0366877   0.0219765   0.0195807   3.7570908
   13   0.0002395   0.0004743   0.0002204   0.0003292   0.0006176   0.8811353
           13
    1   0.0225521
    2  -0.0001864
    3   0.0271335
    4   0.0246982
    5  -0.0006574
    6   0.0079171
    7   0.0002395
    8   0.0004743
    9   0.0002204
   10   0.0003292
   11   0.0006176
   12   0.8811353
   13   0.9644734


Archival summary:
1\1\c8-89\SP\ProcedureUnspecified\6-31+G**\166(2)\hpark21\WedMar216:40:592022WedMar216:40:592022\0\\#,ProcedureUnspecified,6-31+G**,\\0,2\N\C,1,1.28181\H,2,1.08792,1,122.194\C,1,1.50001,2,105.586,3,-174.7,0\H,4,1.08835,1,112.192,2,-159.472,0\C,2,1.50969,1,112.952,3,176.716,0\H,6,1.08718,2,120.751,1,162.589,0\C,6,1.49557,2,102.331,1,24.7821,0\H,8,1.08027,6,131.091,2,145.275,0\C,4,1.52495,1,108.099,2,68.3679,0\H,10,1.08035,4,130.599,1,107.588,0\C,10,1.40213,4,98.6161,1,-80.4806,0\H,12,1.0868,10,127.611,4,-161.495,0\\\@

 Total job time:  7.79s(wall), 12.21s(cpu) 
 Wed Mar  2 16:40:59 2022

        *************************************************************
        *                                                           *
        *  Thank you very much for using Q-Chem.  Have a nice day.  *
        *                                                           *
        *************************************************************


