
Running Job 1 of 1 qcfsm.in
qchem qcfsm.in_1878.0 ./qcfsm.d/ 1
/home/leeping/opt/qchem/5.0.2-openmp/exe/qcprog.exe_s qcfsm.in_1878.0 ./qcfsm.d/
Check license passed

                  Welcome to Q-Chem
     A Quantum Leap Into The Future Of Chemistry


 Q-Chem 5.0, Q-Chem, Inc., Pleasanton, CA (2017)

 Yihan Shao,  Zhengting Gan,  E. Epifanovsky,  A. T. B. Gilbert,  M. Wormit,  
 J. Kussmann,  A. W. Lange,  A. Behn,  Jia Deng,  Xintian Feng,  D. Ghosh,  
 M. Goldey,  P. R. Horn,  L. D. Jacobson,  I. Kaliman,  T. Kus,  A. Landau,  
 Jie Liu,  E. I. Proynov,  R. M. Richard,  R. P. Steele,  E. J. Sundstrom,  
 H. L. Woodcock III,  P. M. Zimmerman,  D. Zuev,  B. Albrecht,  E. Alguire,  
 S. A. Baeppler,  D. Barton,  Z. Benda,  Y. A. Bernard,  E. J. Berquist,  
 K. B. Bravaya,  H. Burton,  D. Casanova,  Chun-Min Chang,  Yunqing Chen,  
 A. Chien,  K. D. Closser,  M. P. Coons,  S. Dasgupta,  A. L. Dempwolff,  
 M. Diedenhofen,  Hainam Do,  R. G. Edgar,  Po-Tung Fang,  S. Fatehi,  
 Qingguo Feng,  J. Fosso-Tande,  Qinghui Ge,  A. Ghysels,  G. Gidofalvi,  
 J. Gomes,  J. Gonthier,  A. Gunina,  M. W. D. Hanson-Heine,  
 P. H. P. Harbach,  A. W. Hauser,  J. E. Herr,  E. G. Hohenstein,  
 Z. C. Holden,  Kerwin Hui,  T.-C. Jagau,  Hyunjun Ji,  B. Kaduk,  
 K. Khistyaev,  Jaehoon Kim,  P. Klunzinger,  K. Koh,  D. Kosenkov,  
 L. Koulias,  T. Kowalczyk,  C. M. Krauter,  A. Kunitsa,  Ka Un Lao,  
 A. Laurent,  K. V. Lawler,  Joonho Lee,  D. Lefrancois,  S. Lehtola,  
 D. S. Levine,  Yi-Pei Li,  You-Sheng Lin,  Fenglai Liu,  E. Livshits,  
 A. Luenser,  P. Manohar,  E. Mansoor,  S. F. Manzer,  Shan-Ping Mao,  
 Yuezhi Mao,  N. Mardirossian,  A. V. Marenich,  T. Markovich,  
 L. A. Martinez-Martinez,  S. A. Maurer,  N. J. Mayhall,  S. C. McKenzie,  
 J.-M. Mewes,  A. F. Morrison,  J. W. Mullinax,  K. Nanda,  
 T. S. Nguyen-Beck,  R. Olivares-Amaya,  J. A. Parkhill,  T. M. Perrine,  
 F. Plasser,  S. Prager,  A. Prociuk,  E. Ramos,  D. R. Rehn,  F. Rob,  
 M. Schneider,  N. Sergueev,  S. M. Sharada,  S. Sharma,  D. W. Small,  
 T. Stauch,  T. Stein,  Yu-Chuan Su,  A. J. W. Thom,  A. Tkatchenko,  
 T. Tsuchimochi,  L. Vogt,  O. Vydrov,  M. A. Watson,  J. Wenzel,  
 M. de Wergifosse,  T. A. Wesolowski,  A. White,  J. Witte,  A. Yamada,  
 Jun Yang,  K. Yao,  S. Yeganeh,  S. R. Yost,  Zhi-Qiang You,  A. Zech,  
 Igor Ying Zhang,  Xing Zhang,  Yan Zhao,  Ying Zhu,  B. R. Brooks,  
 G. K. L. Chan,  C. J. Cramer,  M. S. Gordon,  W. J. Hehre,  A. Klamt,  
 M. W. Schmidt,  C. D. Sherrill,  D. G. Truhlar,  A. Aspuru-Guzik,  R. Baer,  
 A. T. Bell,  N. A. Besley,  Jeng-Da Chai,  R. A. DiStasio Jr.,  A. Dreuw,  
 B. D. Dunietz,  T. R. Furlani,  Chao-Ping Hsu,  Yousung Jung,  Jing Kong,  
 D. S. Lambrecht,  WanZhen Liang,  C. Ochsenfeld,  V. A. Rassolov,  
 L. V. Slipchenko,  J. E. Subotnik,  T. Van Voorhis,  J. M. Herbert,  
 A. I. Krylov,  P. M. W. Gill,  M. Head-Gordon

 Contributors to earlier versions of Q-Chem not listed above: 
 R. D. Adamson,  B. Austin,  J. Baker,  G. J. O. Beran,  K. Brandhorst,  
 S. T. Brown,  E. F. C. Byrd,  A. K. Chakraborty,  C.-L. Cheng,  
 Siu Hung Chien,  D. M. Chipman,  D. L. Crittenden,  H. Dachsel,  
 R. J. Doerksen,  A. D. Dutoi,  L. Fusti-Molnar,  W. A. Goddard III,  
 A. Golubeva-Zadorozhnaya,  S. R. Gwaltney,  G. Hawkins,  A. Heyden,  
 S. Hirata,  G. Kedziora,  F. J. Keil,  C. Kelley,  Jihan Kim,  R. A. King,  
 R. Z. Khaliullin,  P. P. Korambath,  W. Kurlancheek,  A. M. Lee,  M. S. Lee,  
 S. V. Levchenko,  Ching Yeh Lin,  D. Liotard,  R. C. Lochan,  I. Lotan,  
 P. E. Maslen,  N. Nair,  D. P. O'Neill,  D. Neuhauser,  E. Neuscamman,  
 C. M. Oana,  R. Olson,  B. Peters,  R. Peverati,  P. A. Pieniazek,  
 Y. M. Rhee,  J. Ritchie,  M. A. Rohrdanz,  E. Rosta,  N. J. Russ,  
 H. F. Schaefer III,  N. E. Schultz,  N. Shenvi,  A. C. Simmonett,  A. Sodt,  
 D. Stuck,  K. S. Thanthiriwatte,  V. Vanovschi,  Tao Wang,  A. Warshel,  
 C. F. Williams,  Q. Wu,  X. Xu,  W. Zhang

 Please cite Q-Chem as follows:
 Y. Shao et al., Mol. Phys. 113, 184-215 (2015)
 DOI: 10.1080/00268976.2014.952696

 Q-Chem 5.0.2 for Intel X86 EM64T Linux

 Parts of Q-Chem use Armadillo 5.200.1 (Boston Tea Smuggler).
 http://arma.sourceforge.net/

 Q-Chem begins on Wed Mar  2 12:01:45 2022  

Host: 
0

     Scratch files written to ./qcfsm.d//
 Dec517 15110_ 26548  26544 5633   
Processing $rem in /home/leeping/opt/qchem/5.0.2-openmp/config/preferences.
 MEM_STATIC 2000
 MEM_TOTAL  8000
 SYMMETRY   OFF
 SYM_IGNORE TRUE 
 Now reading second FSM geometry

Checking the input file for inconsistencies... 	...done.

--------------------------------------------------------------
User input:
--------------------------------------------------------------
$molecule
0 2
C        1.1187211344    0.2262124186    0.4758076972
C        0.8717076848   -0.9809679116   -0.4424830205
C       -0.4495229106   -1.0233109056   -0.6793106180
C       -1.0762950112    0.1562205380    0.0913089130
C       -0.4451104867    1.4277942924   -0.5114998962
N        0.8137958374    1.4907113157   -0.3130860058
H        2.0896756730    0.2831277202    0.9655733606
H        1.6433743730   -1.6348341026   -0.8336170598
H       -0.9986478795   -1.7128342237   -1.3112176556
H       -2.1582381303    0.1437166275    0.2234362696
H       -0.9881667713    2.1886042097   -1.0696600052
C       -0.1490827344    0.0892654167    1.3092065499
H       -0.2722107785   -0.6537053951    2.0955414706
****
C        1.5915560534    0.4038568986   -0.4015746982
C        1.2326624385   -0.9184939181   -0.2197401111
C       -0.0622307331   -1.4509571608    0.1203810849
C       -1.3664923973    0.6865277646    0.2691547711
C       -0.4098913406    1.6398897740   -0.0248094947
N        0.9074062739    1.5695081078   -0.3286538055
H        2.6415186609    0.5624870927   -0.6574742130
H        2.0309931089   -1.6449091882   -0.3515158048
H       -0.1199588073   -2.5336397950    0.2129643870
H       -2.3635984213    1.0685109871    0.4745849906
H       -0.7720165505    2.6703330996   -0.0154478226
C       -1.2072701854   -0.7438136993    0.3359894837
H       -2.1026781001   -1.3092999629    0.5861412326
$end

$rem
method                b3lyp
basis                 6-31g(d)
unrestricted          true
symmetry              off
sym_ignore            true
incdft                false
incfock               0
scf_convergence       8
thresh                14
jobtype               fsm
scf_guess             core
scf_guess_mix         5
scf_algorithm         diis
max_scf_cycles        100
fsm_nnode             21
fsm_ngrad             6
fsm_mode              2
fsm_opt_mode          2
$end

--------------------------------------------------------------
 ----------------------------------------------------------------
             Standard Nuclear Orientation (Angstroms)
    I     Atom           X                Y                Z
 ----------------------------------------------------------------
    1      C       1.1187211344     0.2262124186     0.4758076972
    2      C       0.8717076848    -0.9809679116    -0.4424830205
    3      C      -0.4495229106    -1.0233109056    -0.6793106180
    4      C      -1.0762950112     0.1562205380     0.0913089130
    5      C      -0.4451104867     1.4277942924    -0.5114998962
    6      N       0.8137958374     1.4907113157    -0.3130860058
    7      H       2.0896756730     0.2831277202     0.9655733606
    8      H       1.6433743730    -1.6348341026    -0.8336170598
    9      H      -0.9986478795    -1.7128342237    -1.3112176556
   10      H      -2.1582381303     0.1437166275     0.2234362696
   11      H      -0.9881667713     2.1886042097    -1.0696600052
   12      C      -0.1490827344     0.0892654167     1.3092065499
   13      H      -0.2722107785    -0.6537053951     2.0955414706
 ----------------------------------------------------------------
 Nuclear Repulsion Energy =   279.1144786141 hartrees
 There are       25 alpha and       24 beta electrons
 Requested basis set is 6-31G(d)
 There are 40 shells and 117 basis functions

 Total QAlloc Memory Limit   8000 MB
 Mega-Array Size      1956 MB
 MEM_STATIC part      2000 MB
 beginning FSman 

*******************************************
*******************************************
******** Starting FSM Calculation *********
*******************************************
*******************************************
-FSM parameters:
 Maximum displacement of each coordinate during optimization (Angstrom)      0.05
 Maximum optimization steps for each new node                                6
 The scaling factor for optimization (hartrees/Angstrom^2)                   1.75
 The number of LST interpolations used for reparameterization                100
-Aligning product structure to maximum coincidence with the reactant structure
 Total R --> P Distance 4.606012
 New node interpolation distace (Angstroms): 0.22
-Performing force calculation on reactant structure in state:0
 ----------------------------------------------------------------
             Standard Nuclear Orientation (Angstroms)
    I     Atom           X                Y                Z
 ----------------------------------------------------------------
    1      C       1.1187211344     0.2262124186     0.4758076972
    2      C       0.8717076848    -0.9809679116    -0.4424830205
    3      C      -0.4495229106    -1.0233109056    -0.6793106180
    4      C      -1.0762950112     0.1562205380     0.0913089130
    5      C      -0.4451104867     1.4277942924    -0.5114998962
    6      N       0.8137958374     1.4907113157    -0.3130860058
    7      H       2.0896756730     0.2831277202     0.9655733606
    8      H       1.6433743730    -1.6348341026    -0.8336170598
    9      H      -0.9986478795    -1.7128342237    -1.3112176556
   10      H      -2.1582381303     0.1437166275     0.2234362696
   11      H      -0.9881667713     2.1886042097    -1.0696600052
   12      C      -0.1490827344     0.0892654167     1.3092065499
   13      H      -0.2722107785    -0.6537053951     2.0955414706
 ----------------------------------------------------------------
 Nuclear Repulsion Energy =   279.1144786141 hartrees
 There are       25 alpha and       24 beta electrons

                       Distance Matrix (Angstroms)
             C (  1)   C (  2)   C (  3)   C (  4)   C (  5)   N (  6)
   C (  2)  1.536736
   C (  3)  2.314086  1.342956
   C (  4)  2.229537  2.317940  1.542074
   C (  5)  2.205481  2.746072  2.456847  1.542294
   N (  6)  1.521279  2.475741  2.837323  2.348796  1.275998
   H (  7)  1.088973  2.250335  3.295445  3.286916  3.149150  2.172809
   H (  8)  2.335241  1.084434  2.185861  3.385257  3.720917  3.275391
   H (  9)  3.381806  2.188277  1.084568  2.338050  3.287780  3.813650
   H ( 10)  3.287698  3.299839  2.257568  1.090053  2.263580  3.306847
   H ( 11)  3.267786  3.728092  3.280078  2.342264  1.088708  2.075218
   C ( 12)  1.523363  2.292559  2.298323  1.532149  2.279093  2.350110
   H ( 13)  2.309217  2.803073  2.804969  2.306400  3.340539  3.402855
             H (  7)   H (  8)   H (  9)   H ( 10)   H ( 11)   C ( 12)
   H (  8)  2.667367
   H (  9)  4.324972  2.685976
   H ( 10)  4.314507  4.328148  2.673311
   H ( 11)  4.152846  4.647516  3.908923  2.687514
   C ( 12)  2.273259  3.282852  3.291800  2.284418  3.281812
   H ( 13)  2.780826  3.634838  3.640807  2.774484  4.313910  1.088802

 
 Requested basis set is 6-31G(d)
 There are 40 shells and 117 basis functions
 A cutoff of  1.0D-14 yielded    814 shell pairs
 There are      7086 function pairs
 
 -------------------------------------------------------
 OpenMP Integral Computing Module                       
 Release: version 1.0, May 2013, Q-Chem Inc. Pittsburgh 
 -------------------------------------------------------
 Integral Job Info:
 Integral job number is                      11
 Integral operator is                         1
 short-range coefficients                     0
 long-range coefficients              100000000
 Omega coefficients                           0
 if combine SR and LR in K                    0
 Integral screening is                        0
 Integral computing path is                   2
 max size of driver memory is            800000
 size of driver memory is                593474
 size of scratch memory is              2361544
 max col of scratch BK array               1296
 max len of scratch array in speh3          155
 max len of scratch index in speh4           18
 max int batch size is                      520
 min int batch size is                       52
 fixed nKL is                                52
 max L of basis functions is                  2
 order of int derivative is                   0
 number of shells is                         40
 number of basis is                         117
 number of cartesian basis is               117
 number of contracted shell pairs           814
 number of primitive shell pairs           3589
 maxK2 (contraction) of shell pair           36
 max number of K2 of shell pair               1
 max number of CS2 of shell pair             85
 max number of PS2 of shell pair            390
 mem total for path MDJ                  535308
 -------------------------------------------------------
 Smallest overlap matrix eigenvalue = 1.11E-03

 Scale SEOQF with 1.000000e-01/1.000000e-01/1.000000e-01

 Standard Electronic Orientation quadrupole field applied
 Nucleus-field energy     =     0.0000000022 hartrees
 Guess MOs from core Hamiltonian diagonalization
 Mixing HOMO and LUMO in initial guess
 Adding  50% of the LUMO to the HOMO
 An unrestricted hybrid HF-DFT SCF calculation will be
 performed using Pulay DIIS extrapolation
 Exchange:     0.2000 Hartree-Fock + 0.0800 Slater + 0.7200 B88
 Correlation:  0.1900 VWN1RPA + 0.8100 LYP
 Using SG-1 standard quadrature grid
 SCF converges when DIIS error is below 1.0E-08
 using 4 threads for integral computing
 -------------------------------------------------------
 OpenMP Integral computing Module                
 Release: version 1.0, May 2013, Q-Chem Inc. Pittsburgh 
 -------------------------------------------------------
 -------------------------------------------------------
 OpenMP BLAS3 based DFT computing Module                
 Release: version 1.0, May 2013, Q-Chem Inc. Pittsburgh 
 -------------------------------------------------------
 ---------------------------------------
  Cycle       Energy         DIIS Error
 ---------------------------------------
    1    -235.1035948766      1.38E-01
    2    -229.2827881464      1.01E-01
    3    -252.0974064200      1.07E-01
    4    -283.2993938119      4.12E-02
    5    -283.0852474811      3.79E-02
    6    -286.5125874062      1.28E-02
    7    -286.6236787332      1.11E-02
    8    -286.8206131207      4.42E-03
    9    -286.8464508780      1.71E-03
   10    -286.8513888115      3.84E-04
   11    -286.8516314406      1.46E-04
   12    -286.8516681840      3.52E-05
   13    -286.8516713510      1.50E-05
   14    -286.8516720350      3.19E-06
   15    -286.8516722584      1.09E-06
   16    -286.8516723560      6.13E-07
   17    -286.8516723873      3.59E-07
   18    -286.8516724083      1.83E-07
   19    -286.8516724195      6.21E-08
   20    -286.8516724221      1.39E-08
   21    -286.8516724222      2.63E-09 Convergence criterion met
 ---------------------------------------
 <S^2> = 0.7537
 SCF time:  CPU 55.62 s  wall 48.14 s
 SCF   energy in the final basis set = -286.85167242
 Total energy in the final basis set = -286.85167242
 
 --------------------------------------------------------------
 
                    Orbital Energies (a.u.)
 --------------------------------------------------------------
 
 Alpha MOs
 -- Occupied --
-14.322 -10.224 -10.220 -10.210 -10.204 -10.201 -10.197  -0.952
 -0.821  -0.726  -0.705  -0.579  -0.573  -0.531  -0.512  -0.472
 -0.418  -0.410  -0.381  -0.373  -0.348  -0.294  -0.271  -0.258
 -0.196
 -- Virtual --
 -0.021   0.029   0.103   0.140   0.150   0.154   0.159   0.163
  0.172   0.210   0.215   0.255   0.288   0.322   0.346   0.366
  0.495   0.510   0.532   0.540   0.570   0.599   0.606   0.622
  0.635   0.641   0.655   0.690   0.700   0.728   0.778   0.791
  0.799   0.817   0.825   0.846   0.858   0.876   0.891   0.940
  0.965   1.005   1.059   1.092   1.201   1.264   1.334   1.339
  1.395   1.406   1.487   1.510   1.563   1.611   1.659   1.725
  1.784   1.796   1.827   1.892   1.954   1.986   2.000   2.049
  2.097   2.138   2.172   2.208   2.235   2.276   2.315   2.335
  2.425   2.476   2.515   2.532   2.548   2.618   2.629   2.645
  2.722   2.835   2.856   2.904   2.939   3.922   4.187   4.267
  4.279   4.396   4.543   4.678
 
 Beta MOs
 -- Occupied --
-14.321 -10.224 -10.221 -10.210 -10.200 -10.196 -10.190  -0.949
 -0.815  -0.725  -0.690  -0.577  -0.561  -0.527  -0.509  -0.463
 -0.414  -0.406  -0.379  -0.369  -0.342  -0.287  -0.261  -0.255
 -- Virtual --
 -0.045  -0.016   0.031   0.105   0.143   0.153   0.158   0.160
  0.166   0.176   0.216   0.223   0.267   0.290   0.324   0.349
  0.369   0.497   0.529   0.540   0.544   0.577   0.604   0.611
  0.624   0.641   0.658   0.662   0.693   0.708   0.742   0.782
  0.793   0.810   0.819   0.827   0.848   0.860   0.879   0.894
  0.942   0.973   1.013   1.060   1.099   1.204   1.265   1.338
  1.345   1.400   1.411   1.489   1.513   1.578   1.619   1.665
  1.728   1.793   1.799   1.837   1.910   1.966   1.998   2.003
  2.054   2.119   2.144   2.178   2.224   2.249   2.281   2.318
  2.339   2.428   2.493   2.517   2.542   2.553   2.630   2.636
  2.648   2.729   2.837   2.859   2.906   2.942   3.923   4.190
  4.269   4.307   4.399   4.549   4.679
 --------------------------------------------------------------
 
          Ground-State Mulliken Net Atomic Charges

     Atom                 Charge (a.u.)    Spin (a.u.)
  --------------------------------------------------------
      1 C                    -0.094402      -0.045003
      2 C                    -0.088160       0.040351
      3 C                    -0.095623       0.079383
      4 C                    -0.246292      -0.043880
      5 C                     0.092264      -0.008800
      6 N                    -0.325162       0.021892
      7 H                     0.139796       0.003027
      8 H                     0.146101       0.000879
      9 H                     0.145548       0.000347
     10 H                     0.133920       0.002861
     11 H                     0.149686      -0.000175
     12 C                    -0.096522       0.975652
     13 H                     0.138847      -0.026535
  --------------------------------------------------------
  Sum of atomic charges =    -0.000000
  Sum of spin   charges =     1.000000

 -----------------------------------------------------------------
                    Cartesian Multipole Moments
 -----------------------------------------------------------------
    Charge (ESU x 10^10)
                -0.0000
    Dipole Moment (Debye)
         X      -1.4211      Y      -1.9010      Z      -0.0756
       Tot       2.3747
    Quadrupole Moments (Debye-Ang)
        XX     -38.1866     XY      -3.9089     YY     -42.7481
        XZ       2.0991     YZ       0.2714     ZZ     -40.5453
    Octopole Moments (Debye-Ang^2)
       XXX      -9.9931    XXY     -10.9987    XYY     -10.8640
       YYY     -25.2892    XXZ       0.8935    XYZ       3.3090
       YYZ      -3.5428    XZZ      -4.2183    YZZ      -9.7446
       ZZZ       1.0586
    Hexadecapole Moments (Debye-Ang^3)
      XXXX    -216.9358   XXXY      -6.9480   XXYY     -87.6633
      XYYY     -17.2274   YYYY    -296.0427   XXXZ      -2.1217
      XXYZ       3.5374   XYYZ       4.0369   YYYZ      -1.0228
      XXZZ     -65.3834   XYZZ      -0.3349   YYZZ     -72.6310
      XZZZ      -2.8275   YZZZ      -7.6311   ZZZZ    -173.8116
 -----------------------------------------------------------------
 Calculating analytic gradient of the SCF energy
 Gradient of SCF Energy
            1           2           3           4           5           6
    1  -0.0000124   0.0000427  -0.0000301   0.0000223   0.0000214  -0.0000249
    2  -0.0000594  -0.0000074   0.0000216  -0.0000089  -0.0000205   0.0000602
    3   0.0000693   0.0000221  -0.0000203   0.0000289   0.0000108  -0.0000568
            7           8           9          10          11          12
    1  -0.0000044  -0.0000031   0.0000087  -0.0000006   0.0000097  -0.0000069
    2  -0.0000067   0.0000044   0.0000167   0.0000054   0.0000182  -0.0000109
    3  -0.0000005  -0.0000047  -0.0000269  -0.0000398   0.0000290  -0.0000099
           13
    1  -0.0000225
    2  -0.0000126
    3  -0.0000011
 Max gradient component =       6.926E-05
 RMS gradient           =       2.655E-05
 Gradient time:  CPU 8.04 s  wall 2.35 s
-Performing force calculation on product structure in state0
 ----------------------------------------------------------------
             Standard Nuclear Orientation (Angstroms)
    I     Atom           X                Y                Z
 ----------------------------------------------------------------
    1      C       1.5915934248     0.4038973630    -0.4013858420
    2      C       1.2327743937    -0.9184426780    -0.2193258371
    3      C      -0.0621351394    -1.4509359207     0.1206860834
    4      C      -1.3665943140     0.6864765329     0.2687677153
    5      C      -0.4100187189     1.6398513960    -0.0252377157
    6      N       0.9073373629     1.5695094419    -0.3288376377
    7      H       2.6415877748     0.5625562184    -0.6571373033
    8      H       2.0311863042    -1.6448224653    -0.3508045926
    9      H      -0.1197923623    -2.5336030131     0.2134950071
   10      H      -2.3637667217     1.0684243417     0.4739414010
   11      H      -0.7722283055     2.6702676353    -0.0161633044
   12      C      -1.2072688564    -0.7438375525     0.3359414483
   13      H      -2.1026748421    -1.3093412994     0.5860605773
 ----------------------------------------------------------------
 Nuclear Repulsion Energy =   260.7288710738 hartrees
 There are       25 alpha and       24 beta electrons

                       Distance Matrix (Angstroms)
             C (  1)   C (  2)   C (  3)   C (  4)   C (  5)   N (  6)
   C (  2)  1.382201
   C (  3)  2.539249  1.440815
   C (  4)  3.046282  3.093658  2.508401
   C (  5)  2.382335  3.046524  3.113725  1.382172
   N (  6)  1.353559  2.511535  3.203910  2.511502  1.353716
   H (  7)  1.092277  2.090405  3.459664  4.115602  3.297296  2.032083
   H (  8)  2.095961  1.087371  2.154505  4.166982  4.105430  3.405209
   H (  9)  3.454827  2.150701  1.088166  3.453474  4.190340  4.264347
   H ( 10)  4.105200  4.166937  3.430667  1.087351  2.095910  3.405240
   H ( 11)  3.297345  4.115842  4.184170  2.090427  1.092262  2.032332
   C ( 12)  3.113612  2.508509  1.362958  1.440727  2.539297  3.203914
   H ( 13)  4.190209  3.453501  2.097719  2.150762  3.454925  4.264387
             H (  7)   H (  8)   H (  9)   H ( 10)   H ( 11)   C ( 12)
   H (  8)  2.310617
   H (  9)  4.239036  2.394801
   H ( 10)  5.156434  5.230442  4.251806
   H ( 11)  4.062934  5.156658  5.249637  2.310649
   C ( 12)  4.184085  3.430887  2.097822  2.154257  3.459675
   H ( 13)  5.249530  4.251949  2.359967  2.394684  4.239109  1.088166

 
 Applying Cartesian multipole field
    Component          Value
    ---------          -----
     (2,0,0)        1.00000E-11
     (0,2,0)        2.00000E-11
     (0,0,2)       -3.00000E-11
 Nucleus-field energy     =     0.0000000077 hartrees
 Requested basis set is 6-31G(d)
 There are 40 shells and 117 basis functions
 A cutoff of  1.0D-14 yielded    791 shell pairs
 There are      7063 function pairs
 Smallest overlap matrix eigenvalue = 1.33E-03
 Guess MOs from core Hamiltonian diagonalization
 Mixing HOMO and LUMO in initial guess
 Adding  50% of the LUMO to the HOMO
 An unrestricted hybrid HF-DFT SCF calculation will be
 performed using Pulay DIIS extrapolation
 Exchange:     0.2000 Hartree-Fock + 0.0800 Slater + 0.7200 B88
 Correlation:  0.1900 VWN1RPA + 0.8100 LYP
 Using SG-1 standard quadrature grid
 SCF converges when DIIS error is below 1.0E-08
 using 4 threads for integral computing
 -------------------------------------------------------
 OpenMP Integral computing Module                
 Release: version 1.0, May 2013, Q-Chem Inc. Pittsburgh 
 -------------------------------------------------------
 -------------------------------------------------------
 OpenMP BLAS3 based DFT computing Module                
 Release: version 1.0, May 2013, Q-Chem Inc. Pittsburgh 
 -------------------------------------------------------
 ---------------------------------------
  Cycle       Energy         DIIS Error
 ---------------------------------------
    1    -239.4872878014      1.26E-01
    2    -227.8991927848      1.03E-01
    3    -250.2636175323      1.03E-01
    4    -281.9108057962      4.85E-02
    5    -282.4568010350      4.73E-02
    6    -285.5325264060      2.31E-02
    7    -286.6140583080      1.25E-02
    8    -286.8610560987      4.93E-03
    9    -286.9210544234      8.94E-04
   10    -286.9229969742      7.32E-04
   11    -286.9240036452      1.82E-04
   12    -286.9242037681      8.29E-05
   13    -286.9242895948      4.87E-05
   14    -286.9243396227      1.19E-05
   15    -286.9243485295      4.26E-06
   16    -286.9243506316      1.19E-06
   17    -286.9243507291      7.37E-07
   18    -286.9243507497      2.26E-07
   19    -286.9243507530      1.32E-07
   20    -286.9243507538      1.14E-07
   21    -286.9243507543      6.38E-08
   22    -286.9243507546      1.81E-08
   23    -286.9243507547      3.10E-09 Convergence criterion met
 ---------------------------------------
 <S^2> = 0.7684
 SCF time:  CPU 58.49 s  wall 38.88 s
 SCF   energy in the final basis set = -286.92435075
 Total energy in the final basis set = -286.92435075
 
 --------------------------------------------------------------
 
                    Orbital Energies (a.u.)
 --------------------------------------------------------------
 
 Alpha MOs
 -- Occupied --
-14.322 -10.232 -10.232 -10.212 -10.211 -10.201 -10.201  -0.922
 -0.818  -0.784  -0.693  -0.667  -0.551  -0.537  -0.518  -0.449
 -0.439  -0.414  -0.394  -0.386  -0.349  -0.322  -0.299  -0.251
 -0.162
 -- Virtual --
 -0.072   0.077   0.097   0.101   0.117   0.142   0.181   0.184
  0.193   0.213   0.266   0.320   0.356   0.390   0.412   0.483
  0.496   0.521   0.547   0.576   0.584   0.587   0.591   0.610
  0.619   0.624   0.646   0.658   0.714   0.718   0.833   0.840
  0.847   0.854   0.868   0.872   0.885   0.922   0.965   0.975
  1.024   1.027   1.043   1.127   1.177   1.185   1.300   1.303
  1.326   1.401   1.429   1.480   1.482   1.546   1.574   1.586
  1.682   1.732   1.769   1.829   1.850   1.919   1.925   2.030
  2.046   2.048   2.100   2.141   2.141   2.191   2.247   2.391
  2.410   2.414   2.446   2.545   2.577   2.601   2.614   2.739
  2.749   2.807   3.052   3.250   3.250   4.018   4.046   4.102
  4.196   4.239   4.532   4.595
 
 Beta MOs
 -- Occupied --
-14.314 -10.233 -10.233 -10.210 -10.210 -10.196 -10.196  -0.911
 -0.809  -0.777  -0.681  -0.665  -0.546  -0.535  -0.514  -0.447
 -0.438  -0.411  -0.383  -0.373  -0.348  -0.295  -0.276  -0.241
 -- Virtual --
 -0.078  -0.070   0.078   0.118   0.124   0.125   0.142   0.182
  0.187   0.196   0.219   0.268   0.324   0.360   0.393   0.415
  0.486   0.505   0.525   0.551   0.587   0.588   0.592   0.596
  0.614   0.624   0.629   0.649   0.676   0.716   0.729   0.834
  0.843   0.846   0.869   0.875   0.880   0.887   0.925   0.967
  0.979   1.026   1.030   1.045   1.133   1.180   1.189   1.311
  1.315   1.333   1.411   1.429   1.489   1.492   1.560   1.582
  1.597   1.685   1.737   1.781   1.831   1.854   1.922   1.933
  2.036   2.058   2.061   2.110   2.141   2.147   2.203   2.259
  2.399   2.422   2.426   2.448   2.558   2.579   2.611   2.624
  2.743   2.761   2.810   3.054   3.252   3.254   4.030   4.053
  4.109   4.201   4.239   4.537   4.601
 --------------------------------------------------------------
 
          Ground-State Mulliken Net Atomic Charges

     Atom                 Charge (a.u.)    Spin (a.u.)
  --------------------------------------------------------
      1 C                     0.035660      -0.112733
      2 C                    -0.131494       0.347189
      3 C                    -0.111357       0.093517
      4 C                    -0.131386       0.346715
      5 C                     0.035447      -0.112465
      6 N                    -0.423427       0.386947
      7 H                     0.142587       0.003408
      8 H                     0.134385      -0.018343
      9 H                     0.141954      -0.006626
     10 H                     0.134353      -0.018319
     11 H                     0.142647       0.003394
     12 C                    -0.111312       0.093964
     13 H                     0.141943      -0.006647
  --------------------------------------------------------
  Sum of atomic charges =     0.000000
  Sum of spin   charges =     1.000000

 -----------------------------------------------------------------
                    Cartesian Multipole Moments
 -----------------------------------------------------------------
    Charge (ESU x 10^10)
                 0.0000
    Dipole Moment (Debye)
         X      -1.1049      Y      -1.9112      Z       0.4012
       Tot       2.2438
    Quadrupole Moments (Debye-Ang)
        XX     -36.7062     XY      -3.5342     YY     -40.1858
        XZ      -1.2868     YZ       0.5972     ZZ     -43.1061
    Octopole Moments (Debye-Ang^2)
       XXX      -9.3959    XXY      -9.3925    XYY     -12.2130
       YYY     -27.7696    XXZ       1.5184    XYZ       1.6734
       YYZ       4.1599    XZZ      -3.1994    YZZ      -5.7597
       ZZZ       3.3429
    Hexadecapole Moments (Debye-Ang^3)
      XXXX    -358.2509   XXXY      -2.1670   XXYY    -134.6249
      XYYY     -21.8910   YYYY    -402.0103   XXXZ      29.2220
      XXYZ       5.2414   XYYZ      14.3350   YYYZ      16.8884
      XXZZ     -78.2773   XYZZ       1.0491   YYZZ     -84.8498
      XZZZ      43.3485   YZZZ      13.9195   ZZZZ     -66.0054
 -----------------------------------------------------------------
 Calculating analytic gradient of the SCF energy
 Gradient of SCF Energy
            1           2           3           4           5           6
    1   0.0000005   0.0000054  -0.0000844   0.0000486  -0.0000196  -0.0000196
    2  -0.0000399   0.0000208   0.0000105   0.0000516  -0.0000446   0.0000330
    3  -0.0000407   0.0000319  -0.0000254  -0.0000127   0.0000438  -0.0000131
            7           8           9          10          11          12
    1   0.0000065   0.0000107   0.0000215  -0.0000026   0.0000108   0.0000037
    2   0.0000303  -0.0000009   0.0000178  -0.0000310  -0.0000108  -0.0000213
    3   0.0000141  -0.0000016   0.0000011   0.0000013  -0.0000072  -0.0000091
           13
    1   0.0000185
    2  -0.0000157
    3   0.0000177
 Max gradient component =       8.442E-05
 RMS gradient           =       2.703E-05
 Gradient time:  CPU 7.65 s  wall 3.30 s

STARTING FREEZING STRING ITERATION # 1
 The distance between the innermost nodes (Angstroms): 4.606
-Adding two new nodes
 The distance between the previous and current R_nodes (Angstroms): 0.2334
 The distance between the previous and current P_nodes (Angstroms): 0.2286
-Optimizing new reactant side node
 Using BFGS, step: 2 E_tol 0.0727
 max_steps 6, node_spacing 0.2193, sigma 0.7000
 ----------------------------------------------------------------
             Standard Nuclear Orientation (Angstroms)
    I     Atom           X                Y                Z
 ----------------------------------------------------------------
    1      C       1.1576071720     0.2398392893     0.4345099426
    2      C       0.8963262337    -0.9761184070    -0.4493396016
    3      C      -0.4333301704    -1.0541361869    -0.6541563384
    4      C      -1.1041550751     0.1925826952     0.0853739312
    5      C      -0.4472071393     1.4442276815    -0.4994227696
    6      N       0.8198227303     1.4984061368    -0.3268361647
    7      H       2.1413220262     0.3048888850     0.8971503388
    8      H       1.6655230996    -1.6455544803    -0.8180679804
    9      H      -0.9628228943    -1.7903289745    -1.2490625177
   10      H      -2.1853923180     0.2051248248     0.2220344550
   11      H      -0.9880859951     2.2313212493    -1.0217683914
   12      C      -0.1952931603     0.0424342517     1.2970449374
   13      H      -0.3698363737    -0.7041346813     2.0691150053
 ----------------------------------------------------------------
 Nuclear Repulsion Energy =   277.0300160262 hartrees
 There are       25 alpha and       24 beta electrons

                       Distance Matrix (Angstroms)
             C (  1)   C (  2)   C (  3)   C (  4)   C (  5)   N (  6)
   C (  2)  1.525782
   C (  3)  2.321777  1.347599
   C (  4)  2.289039  2.377752  1.597254
   C (  5)  2.213190  2.768694  2.503189  1.529766
   N (  6)  1.509217  2.478736  2.862342  2.361521  1.279877
   H (  7)  1.089019  2.236969  3.298839  3.347345  3.154202  2.160784
   H (  8)  2.319836  1.084329  2.186739  3.444717  3.756583  3.292568
   H (  9)  3.384113  2.181497  1.084553  2.394292  3.360086  3.852805
   H ( 10)  3.349925  3.367947  2.328770  1.089912  2.253256  3.317402
   H ( 11)  3.269671  3.763822  3.352182  2.322863  1.088536  2.070901
   C ( 12)  1.616563  2.297595  2.250848  1.522078  2.292549  2.405682
   H ( 13)  2.428190  2.831917  2.746405  2.297511  3.349453  3.465120
             H (  7)   H (  8)   H (  9)   H ( 10)   H ( 11)   C ( 12)
   H (  8)  2.640566
   H (  9)  4.316467  2.667380
   H ( 10)  4.380204  4.397315  2.764170
   H ( 11)  4.145671  4.702478  4.028147  2.661965
   C ( 12)  2.385072  3.284151  3.229673  2.267732  3.285824
   H ( 13)  2.949160  3.655788  3.541434  2.744941  4.307284  1.088082

 
 Applying Cartesian multipole field
    Component          Value
    ---------          -----
     (2,0,0)        1.00000E-11
     (0,2,0)        2.00000E-11
     (0,0,2)       -3.00000E-11
 Nucleus-field energy     =     0.0000000025 hartrees
 Requested basis set is 6-31G(d)
 There are 40 shells and 117 basis functions
 A cutoff of  1.0D-14 yielded    813 shell pairs
 There are      7085 function pairs
 Smallest overlap matrix eigenvalue = 1.18E-03
 Guess MOs from core Hamiltonian diagonalization
 Mixing HOMO and LUMO in initial guess
 Adding  50% of the LUMO to the HOMO
 An unrestricted hybrid HF-DFT SCF calculation will be
 performed using Pulay DIIS extrapolation
 Exchange:     0.2000 Hartree-Fock + 0.0800 Slater + 0.7200 B88
 Correlation:  0.1900 VWN1RPA + 0.8100 LYP
 Using SG-1 standard quadrature grid
 SCF converges when DIIS error is below 1.0E-08
 using 4 threads for integral computing
 -------------------------------------------------------
 OpenMP Integral computing Module                
 Release: version 1.0, May 2013, Q-Chem Inc. Pittsburgh 
 -------------------------------------------------------
 -------------------------------------------------------
 OpenMP BLAS3 based DFT computing Module                
 Release: version 1.0, May 2013, Q-Chem Inc. Pittsburgh 
 -------------------------------------------------------
 ---------------------------------------
  Cycle       Energy         DIIS Error
 ---------------------------------------
    1    -234.9480900425      1.37E-01
    2    -230.3336756921      1.00E-01
    3    -249.3052839078      1.12E-01
    4    -282.3579476451      4.32E-02
    5    -282.5756451987      4.24E-02
    6    -286.3719929807      1.44E-02
    7    -286.7061010054      8.15E-03
    8    -286.8294600088      2.82E-03
    9    -286.8412196714      1.43E-03
   10    -286.8444218494      5.26E-04
   11    -286.8448802874      1.71E-04
   12    -286.8449444655      4.49E-05
   13    -286.8449518047      2.08E-05
   14    -286.8449545313      6.30E-06
   15    -286.8449551262      1.77E-06
   16    -286.8449552448      6.63E-07
   17    -286.8449552903      3.52E-07
   18    -286.8449553186      2.33E-07
   19    -286.8449553396      9.99E-08
   20    -286.8449553423      8.72E-09 Convergence criterion met
 ---------------------------------------
 <S^2> = 0.7540
 SCF time:  CPU 52.86 s  wall 52.69 s
 SCF   energy in the final basis set = -286.84495534
 Total energy in the final basis set = -286.84495534
 
 --------------------------------------------------------------
 
                    Orbital Energies (a.u.)
 --------------------------------------------------------------
 
 Alpha MOs
 -- Occupied --
-14.322 -10.226 -10.224 -10.214 -10.206 -10.206 -10.199  -0.946
 -0.817  -0.732  -0.692  -0.584  -0.574  -0.526  -0.510  -0.466
 -0.420  -0.409  -0.380  -0.378  -0.340  -0.291  -0.273  -0.259
 -0.185
 -- Virtual --
 -0.021   0.024   0.104   0.134   0.142   0.150   0.159   0.165
  0.170   0.203   0.205   0.249   0.288   0.313   0.352   0.368
  0.496   0.503   0.524   0.540   0.579   0.586   0.599   0.615
  0.629   0.645   0.652   0.687   0.698   0.730   0.774   0.795
  0.805   0.818   0.825   0.847   0.860   0.874   0.892   0.939
  0.964   1.008   1.056   1.091   1.188   1.250   1.321   1.339
  1.387   1.393   1.476   1.516   1.575   1.617   1.659   1.721
  1.743   1.777   1.796   1.883   1.951   1.988   2.002   2.045
  2.083   2.127   2.131   2.188   2.239   2.262   2.292   2.324
  2.414   2.443   2.504   2.525   2.561   2.603   2.621   2.636
  2.711   2.812   2.847   2.900   2.939   3.917   4.172   4.262
  4.268   4.392   4.520   4.656
 
 Beta MOs
 -- Occupied --
-14.322 -10.226 -10.224 -10.214 -10.204 -10.198 -10.192  -0.944
 -0.811  -0.729  -0.679  -0.580  -0.562  -0.522  -0.508  -0.458
 -0.416  -0.405  -0.378  -0.374  -0.334  -0.283  -0.265  -0.255
 -- Virtual --
 -0.035  -0.015   0.026   0.105   0.141   0.144   0.156   0.160
  0.166   0.173   0.209   0.211   0.259   0.290   0.315   0.355
  0.370   0.498   0.523   0.531   0.547   0.584   0.590   0.604
  0.619   0.634   0.654   0.670   0.691   0.703   0.741   0.779
  0.797   0.814   0.820   0.827   0.849   0.862   0.877   0.896
  0.941   0.970   1.018   1.058   1.098   1.191   1.251   1.325
  1.346   1.392   1.396   1.478   1.520   1.591   1.624   1.666
  1.724   1.753   1.782   1.803   1.902   1.957   2.003   2.013
  2.051   2.098   2.131   2.140   2.204   2.256   2.268   2.295
  2.327   2.418   2.458   2.507   2.535   2.566   2.614   2.626
  2.639   2.718   2.814   2.850   2.902   2.941   3.918   4.175
  4.269   4.290   4.395   4.526   4.657
 --------------------------------------------------------------
 
          Ground-State Mulliken Net Atomic Charges

     Atom                 Charge (a.u.)    Spin (a.u.)
  --------------------------------------------------------
      1 C                    -0.095958      -0.043255
      2 C                    -0.079159       0.042757
      3 C                    -0.109415       0.082678
      4 C                    -0.242492      -0.047243
      5 C                     0.099564      -0.005829
      6 N                    -0.326941       0.012583
      7 H                     0.141602       0.001976
      8 H                     0.149015      -0.000751
      9 H                     0.144968       0.003382
     10 H                     0.138733       0.003217
     11 H                     0.148782      -0.000202
     12 C                    -0.109294       0.980858
     13 H                     0.140594      -0.030172
  --------------------------------------------------------
  Sum of atomic charges =    -0.000000
  Sum of spin   charges =     1.000000

 -----------------------------------------------------------------
                    Cartesian Multipole Moments
 -----------------------------------------------------------------
    Charge (ESU x 10^10)
                 0.0000
    Dipole Moment (Debye)
         X      -1.3960      Y      -1.9398      Z      -0.0626
       Tot       2.3907
    Quadrupole Moments (Debye-Ang)
        XX     -37.7855     XY      -3.9668     YY     -42.5381
        XZ       1.7946     YZ       0.2793     ZZ     -41.1231
    Octopole Moments (Debye-Ang^2)
       XXX      -9.5947    XXY     -10.6985    XYY     -11.0602
       YYY     -25.6031    XXZ       1.4415    XYZ       3.4731
       YYZ      -3.2206    XZZ      -4.4781    YZZ      -9.9513
       ZZZ       1.5682
    Hexadecapole Moments (Debye-Ang^3)
      XXXX    -221.6983   XXXY      -6.9053   XXYY     -89.7746
      XYYY     -16.9220   YYYY    -301.0533   XXXZ       0.6441
      XXYZ       4.0102   XYYZ       5.0451   YYYZ       0.9626
      XXZZ     -66.3329   XYZZ       0.0460   YYZZ     -73.4035
      XZZZ      -0.8699   YZZZ      -6.6988   ZZZZ    -170.4823
 -----------------------------------------------------------------
 Calculating analytic gradient of the SCF energy
 Gradient of SCF Energy
            1           2           3           4           5           6
    1   0.0287445   0.0085996   0.0041477  -0.0197035  -0.0029706   0.0042023
    2   0.0045334  -0.0002134  -0.0125071   0.0186940  -0.0012928   0.0036844
    3  -0.0128295   0.0007889   0.0043787   0.0038581   0.0015582  -0.0019108
            7           8           9          10          11          12
    1   0.0027064   0.0006334   0.0018117  -0.0005005   0.0000475  -0.0232939
    2   0.0002023   0.0005308  -0.0005094   0.0031482   0.0002894  -0.0182489
    3  -0.0035730   0.0007086  -0.0001527   0.0020698   0.0012170   0.0024709
           13
    1  -0.0044246
    2   0.0016892
    3   0.0014156
 Max gradient component =       2.874E-02
 RMS gradient           =       8.809E-03
 Gradient time:  CPU 7.67 s  wall 2.29 s
 ----------------------------------------------------------------
             Standard Nuclear Orientation (Angstroms)
    I     Atom           X                Y                Z
 ----------------------------------------------------------------
    1      C       1.1345149803     0.2371244064     0.4421840602
    2      C       0.8909352865    -0.9749629437    -0.4510839815
    3      C      -0.4353767048    -1.0454868406    -0.6553371370
    4      C      -1.0882737744     0.1789317733     0.0812836163
    5      C      -0.4445319215     1.4474574682    -0.4993534593
    6      N       0.8164925728     1.4957979838    -0.3263532270
    7      H       2.1449969883     0.3073445311     0.8923911693
    8      H       1.6674517783    -1.6470946949    -0.8169381404
    9      H      -0.9601211043    -1.7988504883    -1.2411960312
   10      H      -2.1879904374     0.2095696027     0.2199699665
   11      H      -0.9879743024     2.2361422881    -1.0170092255
   12      C      -0.1782975789     0.0542657812     1.2932805763
   13      H      -0.3773482867    -0.7116861920     2.0647365889
 ----------------------------------------------------------------
 Nuclear Repulsion Energy =   278.0401484060 hartrees
 There are       25 alpha and       24 beta electrons

                       Distance Matrix (Angstroms)
             C (  1)   C (  2)   C (  3)   C (  4)   C (  5)   N (  6)
   C (  2)  1.525259
   C (  3)  2.305256  1.343799
   C (  4)  2.252649  2.352054  1.571014
   C (  5)  2.201088  2.766572  2.497836  1.536457
   N (  6)  1.508657  2.475027  2.851935  2.351263  1.273754
   H (  7)  1.108463  2.240962  3.299082  3.335929  3.153168  2.159325
   H (  8)  2.328023  1.090224  2.193156  3.425668  3.759998  3.292807
   H (  9)  3.371418  2.174736  1.089102  2.382645  3.369670  3.853311
   H ( 10)  3.330042  3.366484  2.326582  1.108850  2.255979  3.313574
   H ( 11)  3.260411  3.763213  3.347426  2.334186  1.088724  2.069110
   C ( 12)  1.575208  2.290279  2.252256  1.520702  2.285914  2.385547
   H ( 13)  2.412188  2.829702  2.741093  2.287510  3.352756  3.466346
             H (  7)   H (  8)   H (  9)   H ( 10)   H ( 11)   C ( 12)
   H (  8)  2.640017
   H (  9)  4.316250  2.665926
   H ( 10)  4.385942  4.403046  2.770635
   H ( 11)  4.145067  4.708593  4.041312  2.660292
   C ( 12)  2.371172  3.279396  3.235562  2.283633  3.279268
   H ( 13)  2.962270  3.655167  3.528561  2.744139  4.308099  1.105191

 
 Applying Cartesian multipole field
    Component          Value
    ---------          -----
     (2,0,0)        1.00000E-11
     (0,2,0)        2.00000E-11
     (0,0,2)       -3.00000E-11
 Nucleus-field energy     =     0.0000000025 hartrees
 Requested basis set is 6-31G(d)
 There are 40 shells and 117 basis functions
 A cutoff of  1.0D-14 yielded    814 shell pairs
 There are      7086 function pairs
 Smallest overlap matrix eigenvalue = 1.12E-03
 Guess MOs from core Hamiltonian diagonalization
 Mixing HOMO and LUMO in initial guess
 Adding  50% of the LUMO to the HOMO
 An unrestricted hybrid HF-DFT SCF calculation will be
 performed using Pulay DIIS extrapolation
 Exchange:     0.2000 Hartree-Fock + 0.0800 Slater + 0.7200 B88
 Correlation:  0.1900 VWN1RPA + 0.8100 LYP
 Using SG-1 standard quadrature grid
 SCF converges when DIIS error is below 1.0E-08
 using 4 threads for integral computing
 -------------------------------------------------------
 OpenMP Integral computing Module                
 Release: version 1.0, May 2013, Q-Chem Inc. Pittsburgh 
 -------------------------------------------------------
 -------------------------------------------------------
 OpenMP BLAS3 based DFT computing Module                
 Release: version 1.0, May 2013, Q-Chem Inc. Pittsburgh 
 -------------------------------------------------------
 ---------------------------------------
  Cycle       Energy         DIIS Error
 ---------------------------------------
    1    -234.8755563789      1.38E-01
    2    -229.8439265332      1.01E-01
    3    -249.9540445132      1.11E-01
    4    -282.4313055206      4.29E-02
    5    -282.5813061920      4.23E-02
    6    -286.3364467220      1.49E-02
    7    -286.6556410605      9.13E-03
    8    -286.8247511117      3.14E-03
    9    -286.8419829922      1.56E-03
   10    -286.8469234960      2.37E-04
   11    -286.8470523732      2.01E-04
   12    -286.8471424907      6.92E-05
   13    -286.8471614479      3.20E-05
   14    -286.8471674080      7.32E-06
   15    -286.8471686612      3.00E-06
   16    -286.8471689915      9.99E-07
   17    -286.8471691940      6.19E-07
   18    -286.8471693134      4.18E-07
   19    -286.8471693873      1.03E-07
   20    -286.8471693887      1.31E-08
   21    -286.8471693887      4.60E-09 Convergence criterion met
 ---------------------------------------
 <S^2> = 0.7538
 SCF time:  CPU 55.60 s  wall 43.77 s
 SCF   energy in the final basis set = -286.84716939
 Total energy in the final basis set = -286.84716939
 
 --------------------------------------------------------------
 
                    Orbital Energies (a.u.)
 --------------------------------------------------------------
 
 Alpha MOs
 -- Occupied --
-14.322 -10.225 -10.223 -10.214 -10.207 -10.205 -10.199  -0.952
 -0.822  -0.729  -0.696  -0.581  -0.573  -0.526  -0.509  -0.469
 -0.419  -0.407  -0.378  -0.376  -0.344  -0.293  -0.275  -0.259
 -0.188
 -- Virtual --
 -0.020   0.025   0.099   0.134   0.144   0.149   0.157   0.164
  0.168   0.209   0.211   0.252   0.289   0.316   0.350   0.367
  0.495   0.505   0.526   0.542   0.576   0.594   0.602   0.617
  0.632   0.645   0.653   0.687   0.699   0.729   0.777   0.788
  0.799   0.815   0.822   0.843   0.857   0.873   0.892   0.927
  0.959   1.003   1.060   1.092   1.193   1.253   1.318   1.344
  1.387   1.399   1.480   1.519   1.576   1.616   1.662   1.724
  1.760   1.791   1.803   1.883   1.953   1.984   1.997   2.047
  2.089   2.132   2.146   2.201   2.238   2.276   2.302   2.331
  2.418   2.454   2.509   2.524   2.563   2.613   2.626   2.641
  2.718   2.823   2.852   2.899   2.944   3.922   4.174   4.264
  4.270   4.394   4.527   4.671
 
 Beta MOs
 -- Occupied --
-14.321 -10.226 -10.223 -10.214 -10.203 -10.198 -10.193  -0.949
 -0.816  -0.727  -0.683  -0.579  -0.560  -0.522  -0.507  -0.461
 -0.416  -0.403  -0.375  -0.374  -0.338  -0.285  -0.266  -0.256
 -- Virtual --
 -0.039  -0.014   0.027   0.100   0.140   0.147   0.153   0.158
  0.166   0.171   0.215   0.217   0.263   0.291   0.318   0.352
  0.370   0.497   0.525   0.533   0.548   0.584   0.598   0.605
  0.620   0.637   0.656   0.668   0.692   0.705   0.741   0.781
  0.790   0.809   0.818   0.823   0.845   0.859   0.876   0.895
  0.929   0.965   1.013   1.063   1.099   1.197   1.254   1.323
  1.350   1.392   1.404   1.483   1.522   1.590   1.624   1.668
  1.728   1.769   1.795   1.810   1.902   1.958   1.998   2.009
  2.052   2.108   2.136   2.153   2.217   2.256   2.281   2.304
  2.334   2.422   2.469   2.513   2.534   2.567   2.624   2.633
  2.644   2.725   2.826   2.855   2.900   2.946   3.923   4.177
  4.269   4.294   4.396   4.533   4.672
 --------------------------------------------------------------
 
          Ground-State Mulliken Net Atomic Charges

     Atom                 Charge (a.u.)    Spin (a.u.)
  --------------------------------------------------------
      1 C                    -0.096462      -0.042626
      2 C                    -0.080073       0.045408
      3 C                    -0.103274       0.080395
      4 C                    -0.244318      -0.045277
      5 C                     0.096528      -0.007395
      6 N                    -0.324264       0.015544
      7 H                     0.139301       0.002466
      8 H                     0.149018      -0.000458
      9 H                     0.144465       0.002342
     10 H                     0.135624       0.003503
     11 H                     0.148941      -0.000158
     12 C                    -0.104607       0.974317
     13 H                     0.139122      -0.028060
  --------------------------------------------------------
  Sum of atomic charges =     0.000000
  Sum of spin   charges =     1.000000

 -----------------------------------------------------------------
                    Cartesian Multipole Moments
 -----------------------------------------------------------------
    Charge (ESU x 10^10)
                -0.0000
    Dipole Moment (Debye)
         X      -1.3999      Y      -1.9259      Z      -0.0778
       Tot       2.3822
    Quadrupole Moments (Debye-Ang)
        XX     -38.0161     XY      -3.9797     YY     -42.4098
        XZ       1.7218     YZ       0.2726     ZZ     -41.1647
    Octopole Moments (Debye-Ang^2)
       XXX      -9.5849    XXY     -10.7389    XYY     -11.0738
       YYY     -25.5817    XXZ       1.2826    XYZ       3.4893
       YYZ      -3.2653    XZZ      -4.5199    YZZ      -9.8755
       ZZZ       1.4227
    Hexadecapole Moments (Debye-Ang^3)
      XXXX    -220.3556   XXXY      -7.1828   XXYY     -89.2280
      XYYY     -17.0044   YYYY    -299.6709   XXXZ      -0.0527
      XXYZ       3.9054   XYYZ       4.7793   YYYZ       0.7283
      XXZZ     -66.1324   XYZZ       0.0186   YYZZ     -73.2455
      XZZZ      -1.5372   YZZZ      -6.8207   ZZZZ    -170.8591
 -----------------------------------------------------------------
 Calculating analytic gradient of the SCF energy
 Gradient of SCF Energy
            1           2           3           4           5           6
    1  -0.0009591   0.0022914   0.0062904   0.0024220   0.0028722  -0.0010552
    2   0.0027500   0.0023287  -0.0029385   0.0072844   0.0012851   0.0004745
    3  -0.0129584   0.0004972   0.0084312   0.0023488   0.0032099  -0.0025661
            7           8           9          10          11          12
    1   0.0138251   0.0036144   0.0014041  -0.0118650   0.0003845  -0.0109312
    2   0.0015921  -0.0022993  -0.0037210   0.0050120   0.0006766  -0.0061315
    3  -0.0003451  -0.0006269  -0.0012818   0.0026562   0.0011877  -0.0083128
           13
    1  -0.0082935
    2  -0.0063132
    3   0.0077601
 Max gradient component =       1.383E-02
 RMS gradient           =       5.545E-03
 Gradient time:  CPU 7.56 s  wall 2.87 s
 FSM gradient convergence criteria satisfied
done with opt_step_by_gradient, Reactant, iter1
-Optimizing new product side node
 Using BFGS, step: 2 E_tol 0.0726783
 max_steps 6, node_spacing 0.2193339, sigma 0.7000000
 ----------------------------------------------------------------
             Standard Nuclear Orientation (Angstroms)
    I     Atom           X                Y                Z
 ----------------------------------------------------------------
    1      C       1.5874053962     0.4044534279    -0.3558349185
    2      C       1.2263567881    -0.9266395160    -0.2328062324
    3      C      -0.0670640660    -1.4627733987     0.0521998638
    4      C      -1.3647284180     0.6831368853     0.2456964548
    5      C      -0.4126197704     1.6430035830    -0.0531967425
    6      N       0.9018936983     1.5750976955    -0.3315818442
    7      H       2.6440882573     0.5704118151    -0.5790190644
    8      H       2.0263747598    -1.6493247955    -0.3779499499
    9      H      -0.1308836982    -2.5476991971     0.1177507626
   10      H      -2.3632010433     1.0623360281     0.4539319537
   11      H      -0.7809458741     2.6712915154    -0.0734964287
   12      C      -1.1909970874    -0.7253675673     0.4332636566
   13      H      -2.0796055465    -1.2948391045     0.6979788468
 ----------------------------------------------------------------
 Nuclear Repulsion Energy =   260.6140035727 hartrees
 There are       25 alpha and       24 beta electrons

                       Distance Matrix (Angstroms)
             C (  1)   C (  2)   C (  3)   C (  4)   C (  5)   N (  6)
   C (  2)  1.384666
   C (  3)  2.527904  1.428848
   C (  4)  3.025657  3.087729  2.515215
   C (  5)  2.371855  3.053125  3.126718  1.384627
   N (  6)  1.356806  2.524623  3.211671  2.503282  1.345383
   H (  7)  1.092672  2.090691  3.447119  4.094322  3.281830  2.026292
   H (  8)  2.100283  1.087828  2.145301  4.162799  4.110181  3.415188
   H (  9)  3.448479  2.143088  1.088776  3.460787  4.203640  4.273872
   H ( 10)  4.086052  4.160836  3.436541  1.088164  2.097408  3.397175
   H ( 11)  3.290495  4.123075  4.197132  2.096532  1.092452  2.024895
   C ( 12)  3.101402  2.515504  1.397212  1.431520  2.540019  3.202705
   H ( 13)  4.176732  3.454174  2.120273  2.151278  3.460351  4.264489
             H (  7)   H (  8)   H (  9)   H ( 10)   H ( 11)   C ( 12)
   H (  8)  2.312840
   H (  9)  4.231852  2.388841
   H ( 10)  5.136334  5.226233  4.257771
   H ( 11)  4.049705  5.161537  5.262796  2.317423
   C ( 12)  4.172726  3.444306  2.131732  2.137843  3.458647
   H ( 13)  5.236713  4.259385  2.388271  2.386684  4.244041  1.088116

 
 Applying Cartesian multipole field
    Component          Value
    ---------          -----
     (2,0,0)        1.00000E-11
     (0,2,0)        2.00000E-11
     (0,0,2)       -3.00000E-11
 Nucleus-field energy     =     0.0000000077 hartrees
 Requested basis set is 6-31G(d)
 There are 40 shells and 117 basis functions
 A cutoff of  1.0D-14 yielded    791 shell pairs
 There are      7063 function pairs
 Smallest overlap matrix eigenvalue = 1.66E-03
 Guess MOs from core Hamiltonian diagonalization
 Mixing HOMO and LUMO in initial guess
 Adding  50% of the LUMO to the HOMO
 An unrestricted hybrid HF-DFT SCF calculation will be
 performed using Pulay DIIS extrapolation
 Exchange:     0.2000 Hartree-Fock + 0.0800 Slater + 0.7200 B88
 Correlation:  0.1900 VWN1RPA + 0.8100 LYP
 Using SG-1 standard quadrature grid
 SCF converges when DIIS error is below 1.0E-08
 using 4 threads for integral computing
 -------------------------------------------------------
 OpenMP Integral computing Module                
 Release: version 1.0, May 2013, Q-Chem Inc. Pittsburgh 
 -------------------------------------------------------
 -------------------------------------------------------
 OpenMP BLAS3 based DFT computing Module                
 Release: version 1.0, May 2013, Q-Chem Inc. Pittsburgh 
 -------------------------------------------------------
 ---------------------------------------
  Cycle       Energy         DIIS Error
 ---------------------------------------
    1    -239.3518130170      1.26E-01
    2    -227.5371409246      1.03E-01
    3    -250.6519394939      1.06E-01
    4    -283.3236343233      4.26E-02
    5    -282.4853907064      4.33E-02
    6    -286.3997121891      1.44E-02
    7    -286.5396342954      1.29E-02
    8    -286.8991363247      3.13E-03
    9    -286.9127560057      2.03E-03
   10    -286.9198554824      2.59E-04
   11    -286.9200664340      1.74E-04
   12    -286.9201565840      7.09E-05
   13    -286.9202018889      3.34E-05
   14    -286.9202235000      1.71E-05
   15    -286.9202328371      5.51E-06
   16    -286.9202349766      3.05E-06
   17    -286.9202357052      1.81E-06
   18    -286.9202359485      1.84E-06
   19    -286.9202360786      1.12E-06
   20    -286.9202361585      4.25E-07
   21    -286.9202361644      7.51E-08
   22    -286.9202361647      1.54E-08
   23    -286.9202361647      5.54E-09 Convergence criterion met
 ---------------------------------------
 <S^2> = 0.7668
 SCF time:  CPU 58.69 s  wall 54.63 s
 SCF   energy in the final basis set = -286.92023616
 Total energy in the final basis set = -286.92023616
 
 --------------------------------------------------------------
 
                    Orbital Energies (a.u.)
 --------------------------------------------------------------
 
 Alpha MOs
 -- Occupied --
-14.321 -10.233 -10.233 -10.215 -10.214 -10.200 -10.199  -0.923
 -0.816  -0.785  -0.689  -0.670  -0.552  -0.535  -0.517  -0.449
 -0.439  -0.416  -0.394  -0.382  -0.351  -0.320  -0.299  -0.251
 -0.158
 -- Virtual --
 -0.076   0.076   0.093   0.097   0.117   0.143   0.179   0.185
  0.194   0.219   0.260   0.321   0.354   0.394   0.402   0.487
  0.497   0.519   0.546   0.575   0.579   0.584   0.591   0.609
  0.618   0.620   0.645   0.658   0.705   0.717   0.816   0.842
  0.844   0.850   0.866   0.871   0.886   0.922   0.948   0.987
  1.016   1.027   1.030   1.126   1.161   1.178   1.248   1.296
  1.329   1.351   1.444   1.461   1.477   1.549   1.569   1.584
  1.700   1.735   1.780   1.829   1.848   1.915   1.921   2.008
  2.050   2.058   2.116   2.133   2.148   2.193   2.247   2.379
  2.400   2.420   2.438   2.550   2.563   2.595   2.602   2.736
  2.753   2.790   3.041   3.212   3.250   4.021   4.044   4.106
  4.191   4.241   4.535   4.571
 
 Beta MOs
 -- Occupied --
-14.314 -10.234 -10.234 -10.214 -10.213 -10.196 -10.195  -0.913
 -0.807  -0.778  -0.678  -0.668  -0.547  -0.533  -0.514  -0.447
 -0.437  -0.412  -0.379  -0.373  -0.350  -0.292  -0.276  -0.242
 -- Virtual --
 -0.075  -0.074   0.078   0.117   0.118   0.124   0.143   0.181
  0.188   0.196   0.224   0.262   0.326   0.357   0.397   0.405
  0.490   0.505   0.523   0.550   0.583   0.586   0.589   0.596
  0.614   0.623   0.624   0.648   0.675   0.708   0.728   0.818
  0.844   0.845   0.867   0.871   0.879   0.888   0.925   0.952
  0.991   1.019   1.029   1.032   1.132   1.165   1.182   1.255
  1.306   1.339   1.360   1.446   1.467   1.488   1.562   1.576
  1.595   1.707   1.739   1.793   1.831   1.852   1.918   1.929
  2.015   2.062   2.068   2.125   2.136   2.153   2.204   2.259
  2.392   2.407   2.431   2.441   2.562   2.572   2.600   2.612
  2.744   2.761   2.793   3.043   3.215   3.253   4.033   4.050
  4.112   4.196   4.242   4.540   4.578
 --------------------------------------------------------------
 
          Ground-State Mulliken Net Atomic Charges

     Atom                 Charge (a.u.)    Spin (a.u.)
  --------------------------------------------------------
      1 C                     0.035912      -0.097305
      2 C                    -0.130441       0.318755
      3 C                    -0.113735       0.115417
      4 C                    -0.134355       0.346826
      5 C                     0.040285      -0.109523
      6 N                    -0.423066       0.375952
      7 H                     0.142130       0.002735
      8 H                     0.136178      -0.017011
      9 H                     0.142461      -0.006867
     10 H                     0.133279      -0.018388
     11 H                     0.143291       0.003369
     12 C                    -0.114807       0.092088
     13 H                     0.142865      -0.006048
  --------------------------------------------------------
  Sum of atomic charges =    -0.000000
  Sum of spin   charges =     1.000000

 -----------------------------------------------------------------
                    Cartesian Multipole Moments
 -----------------------------------------------------------------
    Charge (ESU x 10^10)
                -0.0000
    Dipole Moment (Debye)
         X      -1.0875      Y      -1.9104      Z       0.4220
       Tot       2.2384
    Quadrupole Moments (Debye-Ang)
        XX     -36.8454     XY      -3.5265     YY     -40.1057
        XZ      -1.2885     YZ       0.6731     ZZ     -43.1351
    Octopole Moments (Debye-Ang^2)
       XXX      -9.0072    XXY      -9.3932    XYY     -12.1633
       YYY     -27.8625    XXZ       1.9254    XYZ       2.0415
       YYZ       3.5808    XZZ      -3.4028    YZZ      -5.8006
       ZZZ       3.3533
    Hexadecapole Moments (Debye-Ang^3)
      XXXX    -356.3908   XXXY      -1.5257   XXYY    -134.5398
      XYYY     -21.5452   YYYY    -402.7687   XXXZ      29.5371
      XXYZ       5.1239   XYYZ      14.3150   YYYZ      17.3151
      XXZZ     -78.0873   XYZZ       1.2937   YYZZ     -85.2852
      XZZZ      43.3288   YZZZ      14.0479   ZZZZ     -67.0604
 -----------------------------------------------------------------
 Calculating analytic gradient of the SCF energy
 Gradient of SCF Energy
            1           2           3           4           5           6
    1  -0.0030764  -0.0041113   0.0233826   0.0022175   0.0040606  -0.0045733
    2   0.0010854  -0.0055943  -0.0116959  -0.0060239   0.0001433   0.0022715
    3   0.0062430   0.0058761  -0.0225491  -0.0126168   0.0014053  -0.0032314
            7           8           9          10          11          12
    1  -0.0003223  -0.0003201   0.0011803  -0.0002823   0.0012991  -0.0191567
    2   0.0008498  -0.0007825  -0.0006591  -0.0008768   0.0004741   0.0216333
    3  -0.0015146  -0.0003001  -0.0003704   0.0007294   0.0012397   0.0269002
           13
    1  -0.0002977
    2  -0.0008249
    3  -0.0018112
 Max gradient component =       2.690E-02
 RMS gradient           =       8.992E-03
 Gradient time:  CPU 7.68 s  wall 12.21 s
 ----------------------------------------------------------------
             Standard Nuclear Orientation (Angstroms)
    I     Atom           X                Y                Z
 ----------------------------------------------------------------
    1      C       1.5929667302     0.4028821362    -0.3580531695
    2      C       1.2319636631    -0.9177607526    -0.2425865718
    3      C      -0.1102074086    -1.4437596367     0.0734885554
    4      C      -1.3690759123     0.6908203098     0.2580918875
    5      C      -0.4197373863     1.6426041780    -0.0584609228
    6      N       0.9088501619     1.5715685471    -0.3272744462
    7      H       2.6451452106     0.5698429316    -0.5674765829
    8      H       2.0257562172    -1.6479750494    -0.3797118032
    9      H      -0.1357232072    -2.5471616330     0.1043853464
   10      H      -2.3625538137     1.0619801312     0.4476345465
   11      H      -0.7839997239     2.6700903088    -0.0816313566
   12      C      -1.1521209686    -0.7584665441     0.4138217045
   13      H      -2.0751904970    -1.2915779967     0.7147091491
 ----------------------------------------------------------------
 Nuclear Repulsion Energy =   261.0713894265 hartrees
 There are       25 alpha and       24 beta electrons

                       Distance Matrix (Angstroms)
             C (  1)   C (  2)   C (  3)   C (  4)   C (  5)   N (  6)
   C (  2)  1.373955
   C (  3)  2.548944  1.475805
   C (  4)  3.039118  3.098971  2.485007
   C (  5)  2.382781  3.052456  3.104652  1.381065
   N (  6)  1.354544  2.511640  3.208005  2.511438  1.357369
   H (  7)  1.085732  2.077402  3.472377  4.100021  3.286855  2.018879
   H (  8)  2.096137  1.087255  2.193042  4.171528  4.112366  3.408180
   H (  9)  3.450359  2.155436  1.104129  3.468330  4.202537  4.270995
   H ( 10)  4.090194  4.161290  3.389953  1.077351  2.089926  3.400331
   H ( 11)  3.296454  4.118579  4.171549  2.091706  1.090391  2.032937
   C ( 12)  3.078965  2.477924  1.292686  1.473687  2.554325  3.197794
   H ( 13)  4.180597  3.463152  2.072554  2.153369  3.456551  4.264720
             H (  7)   H (  8)   H (  9)   H ( 10)   H ( 11)   C ( 12)
   H (  8)  2.310328
   H (  9)  4.230880  2.390581
   H ( 10)  5.133196  5.223564  4.254703
   H ( 11)  4.050447  5.160355  5.260664  2.314730
   C ( 12)  4.140843  3.394087  2.080444  2.186394  3.483675
   H ( 13)  5.233589  4.259406  2.389669  2.386031  4.242187  1.107609

 
 Applying Cartesian multipole field
    Component          Value
    ---------          -----
     (2,0,0)        1.00000E-11
     (0,2,0)        2.00000E-11
     (0,0,2)       -3.00000E-11
 Nucleus-field energy     =     0.0000000076 hartrees
 Requested basis set is 6-31G(d)
 There are 40 shells and 117 basis functions
 A cutoff of  1.0D-14 yielded    791 shell pairs
 There are      7063 function pairs
 Smallest overlap matrix eigenvalue = 1.35E-03
 Guess MOs from core Hamiltonian diagonalization
 Mixing HOMO and LUMO in initial guess
 Adding  50% of the LUMO to the HOMO
 An unrestricted hybrid HF-DFT SCF calculation will be
 performed using Pulay DIIS extrapolation
 Exchange:     0.2000 Hartree-Fock + 0.0800 Slater + 0.7200 B88
 Correlation:  0.1900 VWN1RPA + 0.8100 LYP
 Using SG-1 standard quadrature grid
 SCF converges when DIIS error is below 1.0E-08
 using 4 threads for integral computing
 -------------------------------------------------------
 OpenMP Integral computing Module                
 Release: version 1.0, May 2013, Q-Chem Inc. Pittsburgh 
 -------------------------------------------------------
 -------------------------------------------------------
 OpenMP BLAS3 based DFT computing Module                
 Release: version 1.0, May 2013, Q-Chem Inc. Pittsburgh 
 -------------------------------------------------------
 ---------------------------------------
  Cycle       Energy         DIIS Error
 ---------------------------------------
    1    -239.8337553160      1.26E-01
    2    -229.8759450504      1.02E-01
    3    -250.3603725637      1.06E-01
    4    -283.6259133319      4.08E-02
    5    -282.5858382756      4.36E-02
    6    -286.3276292067      1.53E-02
    7    -286.6073264045      1.16E-02
    8    -286.8880485798      3.38E-03
    9    -286.9078212353      1.99E-03
   10    -286.9147811449      2.58E-04
   11    -286.9151131590      1.64E-04
   12    -286.9152124313      6.83E-05
   13    -286.9152876799      2.86E-05
   14    -286.9153201189      1.41E-05
   15    -286.9153266492      3.54E-06
   16    -286.9153284402      1.24E-06
   17    -286.9153286511      3.93E-07
   18    -286.9153286599      9.76E-08
   19    -286.9153286604      3.74E-08
   20    -286.9153286605      1.95E-08
   21    -286.9153286605      1.60E-08
   22    -286.9153286605      7.47E-09 Convergence criterion met
 ---------------------------------------
 <S^2> = 0.7729
 SCF time:  CPU 55.89 s  wall 38.13 s
 SCF   energy in the final basis set = -286.91532866
 Total energy in the final basis set = -286.91532866
 
 --------------------------------------------------------------
 
                    Orbital Energies (a.u.)
 --------------------------------------------------------------
 
 Alpha MOs
 -- Occupied --
-14.324 -10.229 -10.227 -10.208 -10.207 -10.203 -10.203  -0.921
 -0.824  -0.782  -0.699  -0.661  -0.549  -0.536  -0.520  -0.448
 -0.438  -0.411  -0.397  -0.394  -0.339  -0.325  -0.297  -0.253
 -0.170
 -- Virtual --
 -0.063   0.073   0.095   0.102   0.118   0.140   0.179   0.184
  0.194   0.205   0.276   0.316   0.359   0.384   0.419   0.479
  0.494   0.514   0.546   0.576   0.579   0.585   0.594   0.612
  0.618   0.647   0.651   0.657   0.713   0.718   0.825   0.830
  0.849   0.850   0.867   0.875   0.882   0.924   0.962   0.972
  1.019   1.031   1.055   1.126   1.175   1.189   1.285   1.303
  1.327   1.357   1.449   1.464   1.481   1.548   1.578   1.586
  1.693   1.713   1.779   1.824   1.856   1.914   1.928   2.018
  2.041   2.069   2.102   2.149   2.153   2.203   2.246   2.379
  2.407   2.437   2.462   2.552   2.585   2.599   2.609   2.729
  2.756   2.834   3.045   3.240   3.253   4.014   4.051   4.092
  4.214   4.234   4.532   4.580
 
 Beta MOs
 -- Occupied --
-14.316 -10.231 -10.229 -10.207 -10.206 -10.198 -10.198  -0.910
 -0.815  -0.775  -0.687  -0.658  -0.544  -0.533  -0.517  -0.446
 -0.437  -0.407  -0.393  -0.373  -0.337  -0.300  -0.273  -0.243
 -- Virtual --
 -0.084  -0.061   0.075   0.119   0.123   0.125   0.139   0.181
  0.188   0.196   0.210   0.278   0.321   0.363   0.386   0.422
  0.482   0.503   0.518   0.551   0.581   0.586   0.590   0.600
  0.616   0.622   0.652   0.653   0.675   0.715   0.729   0.826
  0.832   0.848   0.868   0.873   0.882   0.886   0.926   0.964
  0.976   1.022   1.032   1.058   1.131   1.178   1.193   1.294
  1.313   1.336   1.366   1.452   1.470   1.492   1.561   1.586
  1.598   1.699   1.720   1.789   1.827   1.859   1.917   1.937
  2.033   2.047   2.079   2.113   2.148   2.158   2.215   2.258
  2.388   2.417   2.447   2.465   2.566   2.594   2.609   2.613
  2.733   2.766   2.836   3.047   3.243   3.257   4.026   4.058
  4.100   4.218   4.233   4.537   4.587
 --------------------------------------------------------------
 
          Ground-State Mulliken Net Atomic Charges

     Atom                 Charge (a.u.)    Spin (a.u.)
  --------------------------------------------------------
      1 C                     0.032285      -0.130959
      2 C                    -0.132089       0.374833
      3 C                    -0.105002       0.076911
      4 C                    -0.133256       0.381657
      5 C                     0.032003      -0.134649
      6 N                    -0.418511       0.401532
      7 H                     0.140116       0.004358
      8 H                     0.137140      -0.019501
      9 H                     0.139607      -0.005378
     10 H                     0.137474      -0.019764
     11 H                     0.141373       0.004553
     12 C                    -0.108506       0.071726
     13 H                     0.137365      -0.005319
  --------------------------------------------------------
  Sum of atomic charges =     0.000000
  Sum of spin   charges =     1.000000

 -----------------------------------------------------------------
                    Cartesian Multipole Moments
 -----------------------------------------------------------------
    Charge (ESU x 10^10)
                 0.0000
    Dipole Moment (Debye)
         X      -1.1222      Y      -1.9038      Z       0.4072
       Tot       2.2471
    Quadrupole Moments (Debye-Ang)
        XX     -36.7455     XY      -3.7507     YY     -40.2302
        XZ      -1.2354     YZ       0.7008     ZZ     -43.0303
    Octopole Moments (Debye-Ang^2)
       XXX      -9.4755    XXY      -9.1078    XYY     -11.8215
       YYY     -27.6733    XXZ       1.9811    XYZ       1.9366
       YYZ       3.3181    XZZ      -3.5217    YZZ      -5.9269
       ZZZ       3.4378
    Hexadecapole Moments (Debye-Ang^3)
      XXXX    -355.0379   XXXY      -4.1001   XXYY    -134.1916
      XYYY     -22.8913   YYYY    -403.4893   XXXZ      29.8157
      XXYZ       5.4330   XYYZ      14.3426   YYYZ      17.7435
      XXZZ     -77.8793   XYZZ       0.9864   YYZZ     -85.0461
      XZZZ      43.2731   YZZZ      14.1906   ZZZZ     -66.6719
 -----------------------------------------------------------------
 Calculating analytic gradient of the SCF energy
 Gradient of SCF Energy
            1           2           3           4           5           6
    1  -0.0021571   0.0195972  -0.0868002  -0.0171186  -0.0025067   0.0054152
    2  -0.0046842   0.0050628   0.0480506   0.0136253   0.0001197   0.0014343
    3   0.0049210  -0.0010022   0.0155059  -0.0067727   0.0002012  -0.0038710
            7           8           9          10          11          12
    1  -0.0049920   0.0011721   0.0032818   0.0063345   0.0009834   0.0875163
    2  -0.0001560   0.0003751  -0.0094972  -0.0003309  -0.0009885  -0.0504313
    3   0.0000983  -0.0003700  -0.0024554  -0.0016951   0.0017617  -0.0092209
           13
    1  -0.0107257
    2  -0.0025797
    3   0.0028991
 Max gradient component =       8.752E-02
 RMS gradient           =       2.360E-02
 Gradient time:  CPU 7.63 s  wall 2.63 s
WARNING!!!!! energy has increased from optimization step!
 ----------------------------------------------------------------
             Standard Nuclear Orientation (Angstroms)
    I     Atom           X                Y                Z
 ----------------------------------------------------------------
    1      C       1.5940444279     0.4051547989    -0.3595768537
    2      C       1.2224256184    -0.9202383922    -0.2421123885
    3      C      -0.0689721952    -1.4668751926     0.0643555734
    4      C      -1.3609241219     0.6840362397     0.2604577734
    5      C      -0.4185686285     1.6425305374    -0.0588532613
    6      N       0.9061804949     1.5709071329    -0.3255309805
    7      H       2.6475919125     0.5700047187    -0.5666073046
    8      H       2.0250709072    -1.6481513464    -0.3797837616
    9      H      -0.1375963082    -2.5426614687     0.1041146749
   10      H      -2.3655724727     1.0619518635     0.4479398435
   11      H      -0.7845617640     2.6705231085    -0.0830936026
   12      C      -1.1934107610    -0.7339502995     0.4208824569
   13      H      -2.0696340946    -1.2901448063     0.7147441954
 ----------------------------------------------------------------
 Nuclear Repulsion Energy =   260.5925039101 hartrees
 There are       25 alpha and       24 beta electrons

                       Distance Matrix (Angstroms)
             C (  1)   C (  2)   C (  3)   C (  4)   C (  5)   N (  6)
   C (  2)  1.381508
   C (  3)  2.539653  1.435424
   C (  4)  3.032170  3.082202  2.516747
   C (  5)  2.381626  3.048644  3.131422  1.381559
   N (  6)  1.353992  2.512524  3.214196  2.503934  1.353221
   H (  7)  1.086278  2.087396  3.453508  4.094538  3.287775  2.022977
   H (  8)  2.098156  1.092268  2.148287  4.161006  4.111321  3.408401
   H (  9)  3.450103  2.145178  1.078706  3.454353  4.197778  4.265620
   H ( 10)  4.094146  4.156799  3.437510  1.089627  2.093976  3.400244
   H ( 11)  3.296377  4.116656  4.201413  2.096748  1.091470  2.031389
   C ( 12)  3.110721  2.512077  1.388759  1.436831  2.545228  3.205898
   H ( 13)  4.177409  3.448197  2.111134  2.146168  3.453267  4.257143
             H (  7)   H (  8)   H (  9)   H ( 10)   H ( 11)   C ( 12)
   H (  8)  2.311418
   H (  9)  4.230347  2.389861
   H ( 10)  5.138398  5.225661  4.251509
   H ( 11)  4.052856  5.160718  5.256511  2.317130
   C ( 12)  4.174774  3.440269  2.118141  2.144752  3.465774
   H ( 13)  5.230128  4.253560  2.382108  2.385607  4.239675  1.078645

 
 Applying Cartesian multipole field
    Component          Value
    ---------          -----
     (2,0,0)        1.00000E-11
     (0,2,0)        2.00000E-11
     (0,0,2)       -3.00000E-11
 Nucleus-field energy     =     0.0000000077 hartrees
 Requested basis set is 6-31G(d)
 There are 40 shells and 117 basis functions
 A cutoff of  1.0D-14 yielded    791 shell pairs
 There are      7063 function pairs
 Smallest overlap matrix eigenvalue = 1.49E-03
 Guess MOs from core Hamiltonian diagonalization
 Mixing HOMO and LUMO in initial guess
 Adding  50% of the LUMO to the HOMO
 An unrestricted hybrid HF-DFT SCF calculation will be
 performed using Pulay DIIS extrapolation
 Exchange:     0.2000 Hartree-Fock + 0.0800 Slater + 0.7200 B88
 Correlation:  0.1900 VWN1RPA + 0.8100 LYP
 Using SG-1 standard quadrature grid
 SCF converges when DIIS error is below 1.0E-08
 using 4 threads for integral computing
 -------------------------------------------------------
 OpenMP Integral computing Module                
 Release: version 1.0, May 2013, Q-Chem Inc. Pittsburgh 
 -------------------------------------------------------
 -------------------------------------------------------
 OpenMP BLAS3 based DFT computing Module                
 Release: version 1.0, May 2013, Q-Chem Inc. Pittsburgh 
 -------------------------------------------------------
 ---------------------------------------
  Cycle       Energy         DIIS Error
 ---------------------------------------
    1    -239.4675009585      1.26E-01
    2    -227.2979735164      1.03E-01
    3    -250.6758697294      1.05E-01
    4    -283.3582709195      4.24E-02
    5    -282.6152504957      4.30E-02
    6    -286.3986290804      1.44E-02
    7    -286.5637908753      1.25E-02
    8    -286.9002156096      3.16E-03
    9    -286.9143591002      2.00E-03
   10    -286.9214002914      2.52E-04
   11    -286.9216110067      1.79E-04
   12    -286.9217064194      6.96E-05
   13    -286.9217546430      3.37E-05
   14    -286.9217776764      1.73E-05
   15    -286.9217882181      6.33E-06
   16    -286.9217907571      3.40E-06
   17    -286.9217916217      1.84E-06
   18    -286.9217918896      1.93E-06
   19    -286.9217920521      1.02E-06
   20    -286.9217921148      3.48E-07
   21    -286.9217921185      7.05E-08
   22    -286.9217921187      1.40E-08
   23    -286.9217921187      6.48E-09 Convergence criterion met
 ---------------------------------------
 <S^2> = 0.7674
 SCF time:  CPU 58.57 s  wall 46.37 s
 SCF   energy in the final basis set = -286.92179212
 Total energy in the final basis set = -286.92179212
 
 --------------------------------------------------------------
 
                    Orbital Energies (a.u.)
 --------------------------------------------------------------
 
 Alpha MOs
 -- Occupied --
-14.321 -10.232 -10.231 -10.214 -10.213 -10.200 -10.200  -0.922
 -0.816  -0.785  -0.690  -0.669  -0.553  -0.536  -0.517  -0.449
 -0.440  -0.416  -0.394  -0.383  -0.352  -0.319  -0.299  -0.250
 -0.159
 -- Virtual --
 -0.075   0.077   0.096   0.097   0.117   0.144   0.181   0.184
  0.194   0.216   0.264   0.321   0.353   0.395   0.407   0.485
  0.497   0.518   0.546   0.575   0.583   0.586   0.589   0.609
  0.620   0.621   0.646   0.659   0.708   0.716   0.831   0.843
  0.848   0.851   0.869   0.872   0.889   0.925   0.951   0.982
  1.019   1.025   1.033   1.127   1.172   1.182   1.290   1.310
  1.324   1.352   1.444   1.462   1.478   1.552   1.568   1.592
  1.686   1.737   1.774   1.828   1.848   1.922   1.926   2.021
  2.046   2.056   2.107   2.133   2.139   2.189   2.249   2.388
  2.394   2.421   2.448   2.548   2.565   2.599   2.603   2.737
  2.752   2.792   3.046   3.225   3.251   4.016   4.043   4.105
  4.194   4.240   4.533   4.579
 
 Beta MOs
 -- Occupied --
-14.313 -10.233 -10.233 -10.212 -10.211 -10.196 -10.196  -0.911
 -0.807  -0.777  -0.679  -0.667  -0.548  -0.534  -0.513  -0.447
 -0.439  -0.413  -0.380  -0.372  -0.351  -0.292  -0.276  -0.241
 -- Virtual --
 -0.076  -0.072   0.079   0.118   0.119   0.124   0.144   0.182
  0.188   0.196   0.222   0.266   0.325   0.356   0.397   0.410
  0.487   0.505   0.521   0.550   0.586   0.587   0.590   0.594
  0.613   0.624   0.625   0.648   0.677   0.710   0.727   0.833
  0.846   0.848   0.870   0.873   0.880   0.891   0.927   0.954
  0.986   1.022   1.027   1.035   1.132   1.175   1.186   1.299
  1.320   1.333   1.360   1.447   1.468   1.489   1.565   1.575
  1.602   1.692   1.740   1.788   1.830   1.851   1.926   1.933
  2.027   2.059   2.066   2.117   2.137   2.141   2.200   2.261
[...]
      6 N                    -0.330690       0.002923
      7 H                     0.139949       0.012410
      8 H                     0.152605      -0.022173
      9 H                     0.166907       0.007326
     10 H                     0.148026       0.026977
     11 H                     0.150204      -0.003019
     12 C                    -0.201830       0.804274
     13 H                     0.151573      -0.029643
  --------------------------------------------------------
  Sum of atomic charges =    -0.000000
  Sum of spin   charges =     1.000000

 -----------------------------------------------------------------
                    Cartesian Multipole Moments
 -----------------------------------------------------------------
    Charge (ESU x 10^10)
                 0.0000
    Dipole Moment (Debye)
         X      -1.4707      Y      -1.8613      Z      -0.0483
       Tot       2.3727
    Quadrupole Moments (Debye-Ang)
        XX     -37.7055     XY      -3.6696     YY     -39.8296
        XZ       0.0160     YZ       0.8857     ZZ     -43.8094
    Octopole Moments (Debye-Ang^2)
       XXX      -7.4959    XXY      -8.9486    XYY     -12.5833
       YYY     -28.2429    XXZ       3.0394    XYZ       3.4782
       YYZ      -1.8980    XZZ      -4.9497    YZZ      -8.1594
       ZZZ       3.0092
    Hexadecapole Moments (Debye-Ang^3)
      XXXX    -249.5317   XXXY      -7.3233   XXYY     -99.8153
      XYYY     -16.1002   YYYY    -317.6833   XXXZ      11.9663
      XXYZ       4.0306   XYYZ       7.4465   YYYZ       9.5836
      XXZZ     -70.7071   XYZZ       1.2635   YYZZ     -77.3356
      XZZZ      10.7700   YZZZ       1.7951   ZZZZ    -147.7543
 -----------------------------------------------------------------
 Calculating analytic gradient of the SCF energy
 Gradient of SCF Energy
            1           2           3           4           5           6
    1  -0.0081134  -0.0328925   0.0200614  -0.0030844  -0.0070540   0.0146517
    2   0.0091543  -0.0084767  -0.0367414   0.0004193   0.0011066   0.0000315
    3   0.0171306   0.0072771  -0.0194019   0.0010917   0.0113508  -0.0078757
            7           8           9          10          11          12
    1   0.0012837   0.0141975   0.0174743  -0.0103436   0.0005369   0.0078561
    2   0.0043335  -0.0079914  -0.0198325   0.0203473   0.0094327   0.0337571
    3  -0.0185192  -0.0010899  -0.0055257   0.0117533   0.0088860   0.0144716
           13
    1  -0.0145735
    2  -0.0055402
    3  -0.0195488
 Max gradient component =       3.674E-02
 RMS gradient           =       1.474E-02
 Gradient time:  CPU 7.70 s  wall 4.00 s
 ----------------------------------------------------------------
             Standard Nuclear Orientation (Angstroms)
    I     Atom           X                Y                Z
 ----------------------------------------------------------------
    1      C       1.2933310740     0.3077124164     0.2311045400
    2      C       0.9725851922    -0.9545034094    -0.4646297447
    3      C      -0.3639152273    -1.1712566338    -0.5541549925
    4      C      -1.1484387238     0.3142748990     0.0361698704
    5      C      -0.4490285464     1.5426975768    -0.4212660486
    6      N       0.8369416592     1.5301840695    -0.3155105097
    7      H       2.3561252932     0.4256801989     0.4554379548
    8      H       1.7779530618    -1.6836182053    -0.6868740060
    9      H      -0.7081738763    -2.1974308711    -0.7762988665
   10      H      -2.2404238413     0.5205087710     0.1840032440
   11      H      -0.9539094979     2.4776208326    -0.6949436471
   12      C      -0.4225554583    -0.1696635930     1.2330480607
   13      H      -0.9815450244    -0.9690158499     1.7483502801
 ----------------------------------------------------------------
 Nuclear Repulsion Energy =   271.5240553934 hartrees
 There are       25 alpha and       24 beta electrons

                       Distance Matrix (Angstroms)
             C (  1)   C (  2)   C (  3)   C (  4)   C (  5)   N (  6)
   C (  2)  1.476521
   C (  3)  2.355939  1.356919
   C (  4)  2.449547  2.521773  1.780664
   C (  5)  2.233068  2.873827  2.718538  1.485747
   N (  6)  1.414750  2.492851  2.965938  2.354538  1.290372
   H (  7)  1.092599  2.160003  3.311813  3.531312  3.144078  2.030322
   H (  8)  2.245649  1.108882  2.206293  3.616371  3.929263  3.369264
   H (  9)  3.361045  2.113518  1.104941  2.676304  3.765868  4.061382
   H ( 10)  3.540470  3.594414  2.632154  1.121079  2.149492  3.277062
   H ( 11)  3.258245  3.942576  3.698949  2.291819  1.097217  2.061251
   C ( 12)  2.043537  2.333345  2.049566  1.481088  2.381100  2.621803
   H ( 13)  3.017802  2.952307  2.392467  2.146218  3.361475  3.716506
             H (  7)   H (  8)   H (  9)   H ( 10)   H ( 11)   C ( 12)
   H (  8)  2.467448
   H (  9)  4.217561  2.540242
   H ( 10)  4.605533  4.665186  3.264532
   H ( 11)  4.060809  4.977856  4.682212  2.501590
   C ( 12)  2.946214  3.289437  2.868953  2.209407  3.317771
   H ( 13)  3.841464  3.749107  2.820920  2.500128  4.224897  1.103164

 
 Applying Cartesian multipole field
    Component          Value
    ---------          -----
     (2,0,0)        1.00000E-11
     (0,2,0)        2.00000E-11
     (0,0,2)       -3.00000E-11
 Nucleus-field energy     =     0.0000000040 hartrees
 Requested basis set is 6-31G(d)
 There are 40 shells and 117 basis functions
 A cutoff of  1.0D-14 yielded    809 shell pairs
 There are      7081 function pairs
 Smallest overlap matrix eigenvalue = 1.50E-03
 Guess MOs from core Hamiltonian diagonalization
 Mixing HOMO and LUMO in initial guess
 Adding  50% of the LUMO to the HOMO
 An unrestricted hybrid HF-DFT SCF calculation will be
 performed using Pulay DIIS extrapolation
 Exchange:     0.2000 Hartree-Fock + 0.0800 Slater + 0.7200 B88
 Correlation:  0.1900 VWN1RPA + 0.8100 LYP
 Using SG-1 standard quadrature grid
 SCF converges when DIIS error is below 1.0E-08
 using 4 threads for integral computing
 -------------------------------------------------------
 OpenMP Integral computing Module                
 Release: version 1.0, May 2013, Q-Chem Inc. Pittsburgh 
 -------------------------------------------------------
 -------------------------------------------------------
 OpenMP BLAS3 based DFT computing Module                
 Release: version 1.0, May 2013, Q-Chem Inc. Pittsburgh 
 -------------------------------------------------------
 ---------------------------------------
  Cycle       Energy         DIIS Error
 ---------------------------------------
    1    -235.3487735542      1.33E-01
    2    -228.8416906698      1.02E-01
    3    -244.7665080258      1.17E-01
    4    -281.5621273969      4.43E-02
    5    -281.9660437704      4.63E-02
    6    -286.3948643505      1.24E-02
    7    -286.5106292947      1.02E-02
    8    -286.6995205286      3.09E-03
    9    -286.7164881887      1.20E-03
   10    -286.7195113040      7.37E-04
   11    -286.7207219871      2.46E-04
   12    -286.7211055375      2.44E-04
   13    -286.7215664515      2.20E-04
   14    -286.7227870394      1.88E-04
   15    -286.7239633160      1.36E-04
   16    -286.7242295925      1.70E-04
   17    -286.7256289124      2.34E-04
   18    -286.7257307760      5.33E-05
   19    -286.7260184408      2.04E-04
   20    -286.7260895667      1.16E-04
   21    -286.7261348359      7.28E-05
   22    -286.7261495233      1.33E-05
   23    -286.7261499069      1.07E-05
   24    -286.7261510560      1.25E-06
   25    -286.7261511358      3.69E-06
   26    -286.7261513490      9.90E-07
   27    -286.7261513691      7.70E-08
   28    -286.7261513705      6.83E-08
   29    -286.7261513708      4.61E-08
   30    -286.7261513709      1.10E-08
   31    -286.7261513709      9.35E-09 Convergence criterion met
 ---------------------------------------
 <S^2> = 0.7968
 SCF time:  CPU 81.04 s  wall 61.41 s
 SCF   energy in the final basis set = -286.72615137
 Total energy in the final basis set = -286.72615137
 
 --------------------------------------------------------------
 
                    Orbital Energies (a.u.)
 --------------------------------------------------------------
 
 Alpha MOs
 -- Occupied --
-14.331 -10.246 -10.236 -10.233 -10.228 -10.204 -10.194  -0.947
 -0.818  -0.760  -0.671  -0.614  -0.565  -0.527  -0.493  -0.451
 -0.435  -0.408  -0.391  -0.373  -0.332  -0.293  -0.264  -0.258
 -0.136
 -- Virtual --
 -0.061  -0.004   0.045   0.080   0.087   0.127   0.157   0.168
  0.179   0.186   0.238   0.248   0.279   0.312   0.370   0.389
  0.499   0.504   0.518   0.555   0.569   0.587   0.604   0.618
  0.629   0.640   0.656   0.676   0.686   0.711   0.748   0.786
  0.807   0.834   0.841   0.851   0.859   0.872   0.895   0.922
  0.962   1.023   1.069   1.082   1.156   1.210   1.260   1.284
  1.359   1.411   1.452   1.494   1.534   1.563   1.630   1.646
  1.666   1.796   1.808   1.855   1.918   1.953   1.986   2.030
  2.109   2.144   2.164   2.181   2.215   2.254   2.274   2.309
  2.397   2.405   2.433   2.454   2.533   2.570   2.605   2.623
  2.699   2.771   2.811   2.916   2.982   3.919   4.127   4.229
  4.256   4.359   4.424   4.569
 
 Beta MOs
 -- Occupied --
-14.330 -10.247 -10.238 -10.233 -10.228 -10.190 -10.188  -0.946
 -0.810  -0.754  -0.666  -0.607  -0.554  -0.524  -0.487  -0.447
 -0.432  -0.404  -0.387  -0.371  -0.316  -0.283  -0.263  -0.246
 -- Virtual --
 -0.053  -0.008   0.003   0.055   0.085   0.090   0.129   0.158
  0.171   0.182   0.190   0.242   0.254   0.281   0.316   0.372
  0.391   0.501   0.516   0.529   0.560   0.575   0.599   0.607
  0.627   0.635   0.643   0.661   0.678   0.698   0.718   0.752
  0.788   0.811   0.836   0.842   0.854   0.866   0.874   0.900
  0.926   0.963   1.034   1.076   1.087   1.162   1.213   1.266
  1.289   1.367   1.421   1.458   1.503   1.535   1.566   1.642
  1.654   1.667   1.805   1.818   1.863   1.922   1.980   1.994
  2.036   2.112   2.150   2.179   2.188   2.218   2.260   2.289
  2.316   2.414   2.417   2.444   2.457   2.539   2.573   2.607
  2.628   2.706   2.773   2.814   2.917   2.983   3.919   4.126
  4.234   4.285   4.362   4.427   4.569
 --------------------------------------------------------------
 
          Ground-State Mulliken Net Atomic Charges

     Atom                 Charge (a.u.)    Spin (a.u.)
  --------------------------------------------------------
      1 C                    -0.035048      -0.136376
      2 C                    -0.080616       0.415187
      3 C                    -0.130450      -0.190732
      4 C                    -0.235215      -0.019043
      5 C                     0.110324      -0.003821
      6 N                    -0.328746       0.013583
      7 H                     0.145316       0.009538
      8 H                     0.151165      -0.023102
      9 H                     0.163059       0.013419
     10 H                     0.149085       0.022399
     11 H                     0.153038       0.000313
     12 C                    -0.210824       0.937375
     13 H                     0.148912      -0.038741
  --------------------------------------------------------
  Sum of atomic charges =    -0.000000
  Sum of spin   charges =     1.000000

 -----------------------------------------------------------------
                    Cartesian Multipole Moments
 -----------------------------------------------------------------
    Charge (ESU x 10^10)
                -0.0000
    Dipole Moment (Debye)
         X      -1.3446      Y      -1.7025      Z      -0.1823
       Tot       2.1771
    Quadrupole Moments (Debye-Ang)
        XX     -37.3586     XY      -3.6145     YY     -39.8122
        XZ       0.2218     YZ       0.5226     ZZ     -44.2367
    Octopole Moments (Debye-Ang^2)
       XXX      -6.9681    XXY      -8.6896    XYY     -12.7719
       YYY     -27.4501    XXZ       2.9981    XYZ       3.6286
       YYZ      -1.8226    XZZ      -4.6444    YZZ      -8.2695
       ZZZ       1.9679
    Hexadecapole Moments (Debye-Ang^3)
      XXXX    -246.1663   XXXY      -7.0292   XXYY     -99.5646
      XYYY     -16.3300   YYYY    -317.8697   XXXZ      11.6526
      XXYZ       3.6322   XYYZ       7.6181   YYYZ       8.5445
      XXZZ     -70.6901   XYZZ       1.5044   YYZZ     -77.9146
      XZZZ      11.6529   YZZZ       0.1285   ZZZZ    -151.5172
 -----------------------------------------------------------------
 Calculating analytic gradient of the SCF energy
 Gradient of SCF Energy
            1           2           3           4           5           6
    1   0.0045398  -0.0249082   0.0180722  -0.0074657  -0.0090049   0.0152314
    2   0.0099614   0.0005990  -0.0344950   0.0087949   0.0010360  -0.0021093
    3   0.0042872   0.0135719  -0.0038524   0.0056323   0.0092774  -0.0034595
            7           8           9          10          11          12
    1   0.0042380   0.0145784   0.0170842  -0.0119340   0.0003517   0.0017125
    2   0.0049514  -0.0075155  -0.0184953   0.0214980   0.0092602   0.0092606
    3  -0.0211044  -0.0016132  -0.0033865   0.0112692   0.0082413  -0.0021721
           13
    1  -0.0224954
    2  -0.0027464
    3  -0.0166911
 Max gradient component =       3.450E-02
 RMS gradient           =       1.264E-02
 Gradient time:  CPU 7.92 s  wall 5.77 s
 E1 = -286.7272601, E2 = -286.7261514, Emax = -286.7265033
 Iteration 5, Curvature = -4.3608620
 Curvature, final (in Hartree/Bohr^2) = -1.2211657
 ----------------------------------------------------------------
             Standard Nuclear Orientation (Angstroms)
    I     Atom           X                Y                Z
 ----------------------------------------------------------------
    1      C       1.2959933395     0.3079617908     0.2284126630
    2      C       0.9742474558    -0.9526995000    -0.4633726007
    3      C      -0.3643822179    -1.1706170969    -0.5505681696
    4      C      -1.1494025400     0.3160651808     0.0370252410
    5      C      -0.4495020046     1.5425895732    -0.4217517563
    6      N       0.8371088617     1.5297680678    -0.3145743612
    7      H       2.3567898889     0.4257649689     0.4551678896
    8      H       1.7778801170    -1.6834181537    -0.6870216423
    9      H      -0.7084319354    -2.1967621336    -0.7759583200
   10      H      -2.2407391498     0.5205135197     0.1838789702
   11      H      -0.9539840771     2.4774560542    -0.6952624120
   12      C      -0.4236114320    -0.1751350123     1.2291813544
   13      H      -0.9829973209    -0.9683087554     1.7492810837
 ----------------------------------------------------------------
 Nuclear Repulsion Energy =   271.5870859342 hartrees
 There are       25 alpha and       24 beta electrons
 Requested basis set is 6-31G(d)
 There are 40 shells and 117 basis functions
 Geometry Optimization Parameters
   NAtoms,    NIC,     NZ,  NCons,   NDum,   NFix, NCnnct, MaxDiis
       13      86       0       0       0       0       0       0


** GEOMETRY OPTIMIZATION IN DELOCALIZED INTERNAL COORDINATES **
   Searching for a Minimum

   Optimization Cycle:   1

                       Coordinates (Angstroms)
     ATOM                X               Y               Z
      1  C         1.2959933395    0.3079617908    0.2284126630
      2  C         0.9742474558   -0.9526995000   -0.4633726007
      3  C        -0.3643822179   -1.1706170969   -0.5505681696
      4  C        -1.1494025400    0.3160651808    0.0370252410
      5  C        -0.4495020046    1.5425895732   -0.4217517563
      6  N         0.8371088617    1.5297680678   -0.3145743612
      7  H         2.3567898889    0.4257649689    0.4551678896
      8  H         1.7778801170   -1.6834181537   -0.6870216423
      9  H        -0.7084319354   -2.1967621336   -0.7759583200
     10  H        -2.2407391498    0.5205135197    0.1838789702
     11  H        -0.9539840771    2.4774560542   -0.6952624120
     12  C        -0.4236114320   -0.1751350123    1.2291813544
     13  H        -0.9829973209   -0.9683087554    1.7492810837
   Point Group: c1    Number of degrees of freedom:    33


   Energy is   -286.726151371


 Attempting to Generate Delocalized Internal Coordinates

 33 Hessian modes will be used to form the next step
  Hessian Eigenvalues:
     0.008212    0.011874    0.012611    0.015986    0.018887    0.020013
     0.025055    0.033762    0.041739    0.089244    0.100311    0.127492
     0.133976    0.146306    0.153983    0.157252    0.158798    0.160000
     0.191288    0.202337    0.212687    0.315647    0.318482    0.327103
     0.330804    0.335548    0.340154    0.340224    0.346127    0.346813
     0.413181    0.507426    0.671092

 Minimum Search - Taking Simple RFO Step
 Searching for Lamda that Minimizes Along All modes
 Value Taken    Lamda =  -0.07886544
 Calculated Step too Large.  Step scaled by  0.433311
 Step Taken.  Stepsize is  0.300000

                             Maximum     Tolerance    Cnvgd?
         Gradient           0.081749      0.000300      NO
         Displacement       0.199843      0.001200      NO
         Energy change     *********      0.000001      NO


 New Cartesian Coordinates Obtained by Inverse Iteration

 Displacement from previous Coordinates is:  0.697420
 ----------------------------------------------------------------
             Standard Nuclear Orientation (Angstroms)
    I     Atom           X                Y                Z
 ----------------------------------------------------------------
    1      C       1.2406094632     0.2863324682     0.2686686569
    2      C       0.9523863634    -0.9417522938    -0.4854569997
    3      C      -0.3891498307    -1.1270410235    -0.5951221964
    4      C      -1.1342559329     0.3010713982     0.0126572130
    5      C      -0.4548074901     1.5275192147    -0.4566152980
    6      N       0.8216888770     1.5199837318    -0.2891935742
    7      H       2.2723659968     0.3848288696     0.6093251203
    8      H       1.7373062250    -1.6839921804    -0.6928451154
    9      H      -0.7842085519    -2.1263648492    -0.8230456654
   10      H      -2.2250103521     0.4572262865     0.1474727752
   11      H      -0.9649133068     2.4493646642    -0.7506802304
   12      C      -0.3408904672    -0.1392700560     1.2001434647
   13      H      -0.7621520085    -0.9347277269     1.8291297891
 ----------------------------------------------------------------
 Nuclear Repulsion Energy =   274.8029206433 hartrees
 There are       25 alpha and       24 beta electrons

































 Eigenvalues after right structure
 -1.2308804 -0.0000000 -0.0000000 -0.0000000 0.0000000 0.0000000 0.0000001 0.0069880 0.0119260 0.0150606 0.0186632 0.0307088 0.0423447 0.0479055 0.0540721 0.0592692 0.0628843 0.0656835 0.0839318 0.0950997 0.1026487 0.1198608 0.1347050 0.1798199 0.2105184 0.2305647 0.2596297 0.4160413 0.4267919 0.5618402 0.6322308 0.7731160 0.8925517 0.9248656 0.9908590 1.0948160 1.2290616 1.4023122 1.6930393
Archival summary:
1\1\c8-89\JobtypUnspecified\ProcedureUnspecified\6-31G*\166(2)\hpark21\WedMar212:48:172022WedMar212:48:172022\0\\#,JobtypUnspecified,ProcedureUnspecified,6-31G*,\\0,2\N\C,1,1.28745\H,2,1.09384,1,120.15\C,1,1.41725,2,110.448,3,171.721,0\H,4,1.09099,1,108.896,2,-167.238,0\C,4,1.46968,1,117.867,2,59.5673,0\H,6,1.10001,4,121.375,1,129.559,0\C,6,1.3587,4,110.426,1,-63.624,0\H,8,1.09848,6,119.729,4,-159.878,0\C,2,1.47853,1,114.174,3,-169.543,0\H,10,1.11009,2,111.925,1,162.319,0\C,10,1.49447,2,104.634,1,33.6428,0\H,12,1.09811,10,117.705,2,169.221,0\\\@

 Total job time:  2791.70s(wall), 4162.23s(cpu) 
 Wed Mar  2 12:48:17 2022

        *************************************************************
        *                                                           *
        *  Thank you very much for using Q-Chem.  Have a nice day.  *
        *                                                           *
        *************************************************************


