
Running Job 1 of 1 qcts1.in
qchem qcts1.in_6821.0 ./qcts1.d/ 1
/home/leeping/opt/qchem/5.0.2-openmp/exe/qcprog.exe_s qcts1.in_6821.0 ./qcts1.d/
Check license passed

                  Welcome to Q-Chem
     A Quantum Leap Into The Future Of Chemistry


 Q-Chem 5.0, Q-Chem, Inc., Pleasanton, CA (2017)

 Yihan Shao,  Zhengting Gan,  E. Epifanovsky,  A. T. B. Gilbert,  M. Wormit,  
 J. Kussmann,  A. W. Lange,  A. Behn,  Jia Deng,  Xintian Feng,  D. Ghosh,  
 M. Goldey,  P. R. Horn,  L. D. Jacobson,  I. Kaliman,  T. Kus,  A. Landau,  
 Jie Liu,  E. I. Proynov,  R. M. Richard,  R. P. Steele,  E. J. Sundstrom,  
 H. L. Woodcock III,  P. M. Zimmerman,  D. Zuev,  B. Albrecht,  E. Alguire,  
 S. A. Baeppler,  D. Barton,  Z. Benda,  Y. A. Bernard,  E. J. Berquist,  
 K. B. Bravaya,  H. Burton,  D. Casanova,  Chun-Min Chang,  Yunqing Chen,  
 A. Chien,  K. D. Closser,  M. P. Coons,  S. Dasgupta,  A. L. Dempwolff,  
 M. Diedenhofen,  Hainam Do,  R. G. Edgar,  Po-Tung Fang,  S. Fatehi,  
 Qingguo Feng,  J. Fosso-Tande,  Qinghui Ge,  A. Ghysels,  G. Gidofalvi,  
 J. Gomes,  J. Gonthier,  A. Gunina,  M. W. D. Hanson-Heine,  
 P. H. P. Harbach,  A. W. Hauser,  J. E. Herr,  E. G. Hohenstein,  
 Z. C. Holden,  Kerwin Hui,  T.-C. Jagau,  Hyunjun Ji,  B. Kaduk,  
 K. Khistyaev,  Jaehoon Kim,  P. Klunzinger,  K. Koh,  D. Kosenkov,  
 L. Koulias,  T. Kowalczyk,  C. M. Krauter,  A. Kunitsa,  Ka Un Lao,  
 A. Laurent,  K. V. Lawler,  Joonho Lee,  D. Lefrancois,  S. Lehtola,  
 D. S. Levine,  Yi-Pei Li,  You-Sheng Lin,  Fenglai Liu,  E. Livshits,  
 A. Luenser,  P. Manohar,  E. Mansoor,  S. F. Manzer,  Shan-Ping Mao,  
 Yuezhi Mao,  N. Mardirossian,  A. V. Marenich,  T. Markovich,  
 L. A. Martinez-Martinez,  S. A. Maurer,  N. J. Mayhall,  S. C. McKenzie,  
 J.-M. Mewes,  A. F. Morrison,  J. W. Mullinax,  K. Nanda,  
 T. S. Nguyen-Beck,  R. Olivares-Amaya,  J. A. Parkhill,  T. M. Perrine,  
 F. Plasser,  S. Prager,  A. Prociuk,  E. Ramos,  D. R. Rehn,  F. Rob,  
 M. Schneider,  N. Sergueev,  S. M. Sharada,  S. Sharma,  D. W. Small,  
 T. Stauch,  T. Stein,  Yu-Chuan Su,  A. J. W. Thom,  A. Tkatchenko,  
 T. Tsuchimochi,  L. Vogt,  O. Vydrov,  M. A. Watson,  J. Wenzel,  
 M. de Wergifosse,  T. A. Wesolowski,  A. White,  J. Witte,  A. Yamada,  
 Jun Yang,  K. Yao,  S. Yeganeh,  S. R. Yost,  Zhi-Qiang You,  A. Zech,  
 Igor Ying Zhang,  Xing Zhang,  Yan Zhao,  Ying Zhu,  B. R. Brooks,  
 G. K. L. Chan,  C. J. Cramer,  M. S. Gordon,  W. J. Hehre,  A. Klamt,  
 M. W. Schmidt,  C. D. Sherrill,  D. G. Truhlar,  A. Aspuru-Guzik,  R. Baer,  
 A. T. Bell,  N. A. Besley,  Jeng-Da Chai,  R. A. DiStasio Jr.,  A. Dreuw,  
 B. D. Dunietz,  T. R. Furlani,  Chao-Ping Hsu,  Yousung Jung,  Jing Kong,  
 D. S. Lambrecht,  WanZhen Liang,  C. Ochsenfeld,  V. A. Rassolov,  
 L. V. Slipchenko,  J. E. Subotnik,  T. Van Voorhis,  J. M. Herbert,  
 A. I. Krylov,  P. M. W. Gill,  M. Head-Gordon

 Contributors to earlier versions of Q-Chem not listed above: 
 R. D. Adamson,  B. Austin,  J. Baker,  G. J. O. Beran,  K. Brandhorst,  
 S. T. Brown,  E. F. C. Byrd,  A. K. Chakraborty,  C.-L. Cheng,  
 Siu Hung Chien,  D. M. Chipman,  D. L. Crittenden,  H. Dachsel,  
 R. J. Doerksen,  A. D. Dutoi,  L. Fusti-Molnar,  W. A. Goddard III,  
 A. Golubeva-Zadorozhnaya,  S. R. Gwaltney,  G. Hawkins,  A. Heyden,  
 S. Hirata,  G. Kedziora,  F. J. Keil,  C. Kelley,  Jihan Kim,  R. A. King,  
 R. Z. Khaliullin,  P. P. Korambath,  W. Kurlancheek,  A. M. Lee,  M. S. Lee,  
 S. V. Levchenko,  Ching Yeh Lin,  D. Liotard,  R. C. Lochan,  I. Lotan,  
 P. E. Maslen,  N. Nair,  D. P. O'Neill,  D. Neuhauser,  E. Neuscamman,  
 C. M. Oana,  R. Olson,  B. Peters,  R. Peverati,  P. A. Pieniazek,  
 Y. M. Rhee,  J. Ritchie,  M. A. Rohrdanz,  E. Rosta,  N. J. Russ,  
 H. F. Schaefer III,  N. E. Schultz,  N. Shenvi,  A. C. Simmonett,  A. Sodt,  
 D. Stuck,  K. S. Thanthiriwatte,  V. Vanovschi,  Tao Wang,  A. Warshel,  
 C. F. Williams,  Q. Wu,  X. Xu,  W. Zhang

 Please cite Q-Chem as follows:
 Y. Shao et al., Mol. Phys. 113, 184-215 (2015)
 DOI: 10.1080/00268976.2014.952696

 Q-Chem 5.0.2 for Intel X86 EM64T Linux

 Parts of Q-Chem use Armadillo 5.200.1 (Boston Tea Smuggler).
 http://arma.sourceforge.net/

 Q-Chem begins on Wed Mar  2 12:49:26 2022  

Host: 
0

     Scratch files written to ./qcts1.d//
 Dec517 15110_ 26548  26544 5633   
Processing $rem in /home/leeping/opt/qchem/5.0.2-openmp/config/preferences.
 MEM_STATIC 2000
 MEM_TOTAL  8000
 SYMMETRY   OFF
 SYM_IGNORE TRUE 

Checking the input file for inconsistencies... 	...done.

--------------------------------------------------------------
User input:
--------------------------------------------------------------
$molecule
0 2
C        1.2406094632    0.2863324682    0.2686686569
C        0.9523863634   -0.9417522938   -0.4854569997
C       -0.3891498307   -1.1270410235   -0.5951221964
C       -1.1342559329    0.3010713982    0.0126572130
C       -0.4548074901    1.5275192147   -0.4566152980
N        0.8216888770    1.5199837318   -0.2891935742
H        2.2723659968    0.3848288696    0.6093251203
H        1.7373062250   -1.6839921804   -0.6928451154
H       -0.7842085519   -2.1263648492   -0.8230456654
H       -2.2250103521    0.4572262865    0.1474727752
H       -0.9649133068    2.4493646642   -0.7506802304
C       -0.3408904672   -0.1392700560    1.2001434647
H       -0.7621520085   -0.9347277269    1.8291297891
$end

$rem
method                b3lyp
basis                 6-31g(d)
unrestricted          true
symmetry              off
sym_ignore            true
incdft                false
incfock               0
scf_convergence       6
thresh                14
jobtype               sp
scf_guess             read
scf_algorithm         diis
max_scf_cycles        100
stability_analysis    true
max_cis_cycles        100
cis_n_roots           4
$end

--------------------------------------------------------------
 ----------------------------------------------------------------
             Standard Nuclear Orientation (Angstroms)
    I     Atom           X                Y                Z
 ----------------------------------------------------------------
    1      C       1.2406094632     0.2863324682     0.2686686569
    2      C       0.9523863634    -0.9417522938    -0.4854569997
    3      C      -0.3891498307    -1.1270410235    -0.5951221964
    4      C      -1.1342559329     0.3010713982     0.0126572130
    5      C      -0.4548074901     1.5275192147    -0.4566152980
    6      N       0.8216888770     1.5199837318    -0.2891935742
    7      H       2.2723659968     0.3848288696     0.6093251203
    8      H       1.7373062250    -1.6839921804    -0.6928451154
    9      H      -0.7842085519    -2.1263648492    -0.8230456654
   10      H      -2.2250103521     0.4572262865     0.1474727752
   11      H      -0.9649133068     2.4493646642    -0.7506802304
   12      C      -0.3408904672    -0.1392700560     1.2001434647
   13      H      -0.7621520085    -0.9347277269     1.8291297891
 ----------------------------------------------------------------
 Nuclear Repulsion Energy =   274.8029206408 hartrees
 There are       25 alpha and       24 beta electrons
 Requested basis set is 6-31G(d)
 There are 40 shells and 117 basis functions

 Total QAlloc Memory Limit   8000 MB
 Mega-Array Size      1956 MB
 MEM_STATIC part      2000 MB

                       Distance Matrix (Angstroms)
             C (  1)   C (  2)   C (  3)   C (  4)   C (  5)   N (  6)
   C (  2)  1.469684
   C (  3)  2.323763  1.358704
   C (  4)  2.388670  2.479275  1.721652
   C (  5)  2.222841  2.842240  2.658982  1.478527
   N (  6)  1.417251  2.473003  2.926852  2.324345  1.287451
   H (  7)  1.090995  2.168112  3.289394  3.459494  3.143159  2.049482
   H (  8)  2.247976  1.100013  2.200354  3.561472  3.895507  3.356598
   H (  9)  3.333592  2.129093  1.098485  2.591019  3.686956  4.019921
   H ( 10)  3.471947  3.528965  2.536086  1.110092  2.155010  3.256149
   H ( 11)  3.253016  3.904620  3.625794  2.286159  1.093838  2.066075
   C ( 12)  1.884124  2.271077  2.049634  1.494474  2.352873  2.514526
   H ( 13)  2.817282  2.880452  2.460307  2.228280  3.373685  3.608525
             H (  7)   H (  8)   H (  9)   H ( 10)   H ( 11)   C ( 12)
   H (  8)  2.502390
   H (  9)  4.207188  2.563334
   H ( 10)  4.521608  4.581583  3.113320
   H ( 11)  4.073316  4.938621  4.579868  2.522526
   C ( 12)  2.729992  3.207565  2.870256  2.239159  3.300931
   H ( 13)  3.526677  3.628918  2.907666  2.627824  4.260119  1.098107

 
 A cutoff of  1.0D-14 yielded    810 shell pairs
 There are      7082 function pairs
 Smallest overlap matrix eigenvalue = 1.32E-03

 Scale SEOQF with 1.000000e-01/1.000000e-01/1.000000e-01

 Standard Electronic Orientation quadrupole field applied
 Nucleus-field energy     =     0.0000000037 hartrees
 Guess MOs from SCF MO coefficient file
 Reading MOs from coefficient file
 Reading MOs from coefficient file
 An unrestricted hybrid HF-DFT SCF calculation will be
 performed using Pulay DIIS extrapolation
 Exchange:     0.2000 Hartree-Fock + 0.0800 Slater + 0.7200 B88
 Correlation:  0.1900 VWN1RPA + 0.8100 LYP
 Using SG-1 standard quadrature grid
 SCF converges when DIIS error is below 1.0E-06
Using Q-Chem read-in guess as SCF_GUESS READ specified.

 -------------------------------------------------------
 OpenMP BLAS3 based DFT computing Module                
 -------------------------------------------------------
 ---------------------------------------
  Cycle       Energy         DIIS Error
 ---------------------------------------
    1    -286.7639704461      1.28E-09
    2    -286.7639704461      1.55E-09 Convergence criterion met
 ---------------------------------------
 <S^2> = 0.7768
 SCF time:  CPU 3.26 s  wall 5.46 s
 SCF   energy in the final basis set = -286.76397045
 Total energy in the final basis set = -286.76397045
 
 Direct TDDFT/TDA calculation will be performed
 Exchange:     0.2000 Hartree-Fock + 0.0800 Slater + 0.7200 B88
 Correlation:  0.1900 VWN1RPA + 0.8100 LYP
 Using SG-1 standard quadrature grid
 CIS energy converged when residual is below 10e- 6
 ---------------------------------------------------
 Iter    Rts Conv    Rts Left    Ttl Dev     Max Dev
 ---------------------------------------------------
   1         0           4      0.005253    0.001543
   2         0           4      0.001815    0.000731
   3         0           4      0.001125    0.000482
   4         0           4      0.000406    0.000180
   5         0           4      0.000193    0.000101
   6         1           3      0.000182    0.000106
   7         1           3      0.000252    0.000201
   8         2           2      0.000088    0.000072
   9         2           2      0.000028    0.000023
  10         3           1      0.000007    0.000005
  11         3           1      0.000002    0.000001
  12         4           0      0.000001    0.000000    Roots Converged
 ---------------------------------------------------
 
 ---------------------------------------------------
         TDDFT/TDA Excitation Energies              
 ---------------------------------------------------

 Excited state   1: excitation energy (eV) =    1.2506
 Total energy for state  1:                  -286.71801278 au
    <S**2>     :  0.7973
    Trans. Mom.: -0.0851 X   0.0103 Y   0.1024 Z
    Strength   :     0.0005460163
    S(  1) --> V(  1) amplitude =  0.9836 alpha

 Excited state   2: excitation energy (eV) =    2.3840
 Total energy for state  2:                  -286.67636111 au
    <S**2>     :  0.8547
    Trans. Mom.: -0.1984 X   0.1586 Y   0.2036 Z
    Strength   :     0.0061893862
    S(  1) --> V(  2) amplitude =  0.9682 alpha

 Excited state   3: excitation energy (eV) =    3.9411
 Total energy for state  3:                  -286.61913824 au
    <S**2>     :  2.4461
    Trans. Mom.: -0.0288 X  -0.0077 Y   0.0546 Z
    Strength   :     0.0003742813
    D( 23) --> V(  1) amplitude =  0.3353 alpha
    D( 24) --> V(  1) amplitude = -0.5054 alpha
    S(  1) --> V(  3) amplitude =  0.3760 alpha
    D( 24) --> S(  1) amplitude =  0.6154 beta

 Excited state   4: excitation energy (eV) =    4.0544
 Total energy for state  4:                  -286.61497336 au
    <S**2>     :  2.1635
    Trans. Mom.: -0.0707 X  -0.0160 Y   0.0390 Z
    Strength   :     0.0006731506
    D( 23) --> V(  1) amplitude = -0.4934 alpha
    D( 23) --> V(  2) amplitude =  0.1722 alpha
    D( 24) --> V(  1) amplitude = -0.2233 alpha
    S(  1) --> V(  3) amplitude =  0.5377 alpha
    D( 22) --> S(  1) amplitude = -0.2387 beta
    D( 23) --> S(  1) amplitude =  0.4803 beta
 
 ---------------------------------------------------

 Stability analysis will be performed
 ---------------------------------------------------
 Iter    Rts Conv    Rts Left    Ttl Dev     Max Dev
 ---------------------------------------------------
   1         0           8      0.005807    0.000861
   2         0           8      0.002920    0.000755
   3         0           8      0.001452    0.000476
   4         1           7      0.000883    0.000387
   5         2           6      0.000494    0.000207
   6         2           6      0.000166    0.000070
   7         3           5      0.000045    0.000021
   8         4           4      0.000013    0.000006
   9         7           1      0.000004    0.000002
  10         8           0      0.000002    0.000001    Roots Converged
 UKS-> UKS   stable,    smallest eigenvalue:      0.0399054
 UKS->CUKS   stable,    smallest eigenvalue:      0.0463211
 ---------------------------------------------------
  SETman timing summary (seconds)
  CPU time                87.90s
  System time              0.00s
  Wall time              105.96s
 
 --------------------------------------------------------------
 
                    Orbital Energies (a.u.)
 --------------------------------------------------------------
 
 Alpha MOs
 -- Occupied --
-14.324 -10.237 -10.226 -10.226 -10.225 -10.205 -10.195  -0.951
 -0.821  -0.755  -0.671  -0.610  -0.571  -0.529  -0.497  -0.456
 -0.435  -0.410  -0.392  -0.377  -0.331  -0.291  -0.272  -0.258
 -0.137
 -- Virtual --
 -0.035  -0.001   0.069   0.090   0.101   0.131   0.160   0.169
  0.178   0.187   0.234   0.252   0.283   0.317   0.372   0.387
  0.492   0.499   0.522   0.551   0.568   0.593   0.604   0.615
  0.622   0.640   0.666   0.677   0.687   0.712   0.749   0.793
  0.819   0.843   0.845   0.848   0.861   0.871   0.898   0.922
  0.955   1.043   1.083   1.103   1.161   1.186   1.254   1.319
  1.367   1.434   1.453   1.499   1.545   1.577   1.625   1.641
  1.664   1.800   1.830   1.868   1.944   1.982   2.012   2.024
  2.110   2.153   2.154   2.201   2.233   2.270   2.297   2.343
  2.395   2.419   2.466   2.477   2.553   2.592   2.617   2.630
  2.698   2.780   2.826   2.923   2.987   3.930   4.147   4.245
  4.249   4.374   4.453   4.602
 
 Beta MOs
 -- Occupied --
-14.324 -10.238 -10.227 -10.226 -10.226 -10.192 -10.190  -0.949
 -0.813  -0.751  -0.664  -0.604  -0.559  -0.525  -0.493  -0.451
 -0.432  -0.406  -0.389  -0.375  -0.318  -0.281  -0.266  -0.248
 -- Virtual --
 -0.029  -0.009   0.012   0.079   0.093   0.103   0.133   0.161
  0.174   0.181   0.191   0.238   0.257   0.284   0.320   0.375
  0.390   0.500   0.512   0.530   0.555   0.571   0.603   0.610
  0.623   0.627   0.642   0.675   0.680   0.701   0.719   0.754
  0.795   0.821   0.846   0.847   0.854   0.865   0.873   0.902
  0.924   0.957   1.053   1.089   1.108   1.166   1.190   1.259
  1.323   1.374   1.443   1.461   1.509   1.547   1.583   1.633
  1.651   1.666   1.808   1.841   1.879   1.950   1.998   2.015
  2.036   2.117   2.160   2.168   2.209   2.238   2.273   2.305
  2.357   2.412   2.428   2.475   2.478   2.564   2.597   2.621
  2.634   2.703   2.782   2.828   2.924   2.988   3.931   4.147
  4.254   4.272   4.377   4.457   4.603
 --------------------------------------------------------------
 
          Ground-State Mulliken Net Atomic Charges

     Atom                 Charge (a.u.)    Spin (a.u.)
  --------------------------------------------------------
      1 C                    -0.060781      -0.075404
      2 C                    -0.077210       0.346676
      3 C                    -0.125503      -0.132536
      4 C                    -0.237004      -0.026107
      5 C                     0.111093      -0.013250
      6 N                    -0.326502       0.013703
      7 H                     0.144062       0.002763
      8 H                     0.150462      -0.018921
      9 H                     0.154142       0.016321
     10 H                     0.146791       0.008954
     11 H                     0.153515       0.000986
     12 C                    -0.181110       0.916095
     13 H                     0.148045      -0.039279
  --------------------------------------------------------
  Sum of atomic charges =    -0.000000
  Sum of spin   charges =     1.000000

 -----------------------------------------------------------------
                    Cartesian Multipole Moments
 -----------------------------------------------------------------
    Charge (ESU x 10^10)
                -0.0000
    Dipole Moment (Debye)
         X      -1.3460      Y      -1.8512      Z      -0.0843
       Tot       2.2904
    Quadrupole Moments (Debye-Ang)
        XX     -37.2999     XY      -3.8428     YY     -40.3786
        XZ       0.6932     YZ      -0.1664     ZZ     -43.6788
    Octopole Moments (Debye-Ang^2)
       XXX      -7.5314    XXY      -9.1219    XYY     -12.6481
       YYY     -27.2208    XXZ       3.3432    XYZ       3.6420
       YYZ      -1.1840    XZZ      -4.3627    YZZ      -8.9337
       ZZZ       3.9179
    Hexadecapole Moments (Debye-Ang^3)
      XXXX    -234.5930   XXXY      -6.7448   XXYY     -95.9564
      XYYY     -16.3778   YYYY    -312.2864   XXXZ       7.4556
      XXYZ       3.4334   XYYZ       6.4164   YYYZ       5.3605
      XXZZ     -67.9098   XYZZ       1.8070   YYZZ     -76.3968
      XZZZ       6.0356   YZZZ      -3.3936   ZZZZ    -152.8958
 -----------------------------------------------------------------
Archival summary:
1\1\c8-89\SP\ProcedureUnspecified\6-31G*\166(2)\hpark21\WedMar212:51:252022WedMar212:51:252022\0\\#,ProcedureUnspecified,6-31G*,\\0,2\N\C,1,1.28745\H,2,1.09384,1,120.15\C,1,1.41725,2,110.448,3,171.721,0\H,4,1.09099,1,108.896,2,-167.238,0\C,4,1.46968,1,117.867,2,59.5673,0\H,6,1.10001,4,121.375,1,129.559,0\C,6,1.3587,4,110.426,1,-63.624,0\H,8,1.09848,6,119.729,4,-159.878,0\C,2,1.47853,1,114.174,3,-169.543,0\H,10,1.11009,2,111.925,1,162.319,0\C,10,1.49447,2,104.634,1,33.6428,0\H,12,1.09811,10,117.705,2,169.221,0\\\@

 Total job time:  118.43s(wall), 91.36s(cpu) 
 Wed Mar  2 12:51:25 2022

        *************************************************************
        *                                                           *
        *  Thank you very much for using Q-Chem.  Have a nice day.  *
        *                                                           *
        *************************************************************


