
Running Job 1 of 1 qcts1.in
qchem qcts1.in_9056.0 ./qcts1.d/ 1
/home/leeping/opt/qchem/5.0.2-openmp/exe/qcprog.exe_s qcts1.in_9056.0 ./qcts1.d/
Check license passed

                  Welcome to Q-Chem
     A Quantum Leap Into The Future Of Chemistry


 Q-Chem 5.0, Q-Chem, Inc., Pleasanton, CA (2017)

 Yihan Shao,  Zhengting Gan,  E. Epifanovsky,  A. T. B. Gilbert,  M. Wormit,  
 J. Kussmann,  A. W. Lange,  A. Behn,  Jia Deng,  Xintian Feng,  D. Ghosh,  
 M. Goldey,  P. R. Horn,  L. D. Jacobson,  I. Kaliman,  T. Kus,  A. Landau,  
 Jie Liu,  E. I. Proynov,  R. M. Richard,  R. P. Steele,  E. J. Sundstrom,  
 H. L. Woodcock III,  P. M. Zimmerman,  D. Zuev,  B. Albrecht,  E. Alguire,  
 S. A. Baeppler,  D. Barton,  Z. Benda,  Y. A. Bernard,  E. J. Berquist,  
 K. B. Bravaya,  H. Burton,  D. Casanova,  Chun-Min Chang,  Yunqing Chen,  
 A. Chien,  K. D. Closser,  M. P. Coons,  S. Dasgupta,  A. L. Dempwolff,  
 M. Diedenhofen,  Hainam Do,  R. G. Edgar,  Po-Tung Fang,  S. Fatehi,  
 Qingguo Feng,  J. Fosso-Tande,  Qinghui Ge,  A. Ghysels,  G. Gidofalvi,  
 J. Gomes,  J. Gonthier,  A. Gunina,  M. W. D. Hanson-Heine,  
 P. H. P. Harbach,  A. W. Hauser,  J. E. Herr,  E. G. Hohenstein,  
 Z. C. Holden,  Kerwin Hui,  T.-C. Jagau,  Hyunjun Ji,  B. Kaduk,  
 K. Khistyaev,  Jaehoon Kim,  P. Klunzinger,  K. Koh,  D. Kosenkov,  
 L. Koulias,  T. Kowalczyk,  C. M. Krauter,  A. Kunitsa,  Ka Un Lao,  
 A. Laurent,  K. V. Lawler,  Joonho Lee,  D. Lefrancois,  S. Lehtola,  
 D. S. Levine,  Yi-Pei Li,  You-Sheng Lin,  Fenglai Liu,  E. Livshits,  
 A. Luenser,  P. Manohar,  E. Mansoor,  S. F. Manzer,  Shan-Ping Mao,  
 Yuezhi Mao,  N. Mardirossian,  A. V. Marenich,  T. Markovich,  
 L. A. Martinez-Martinez,  S. A. Maurer,  N. J. Mayhall,  S. C. McKenzie,  
 J.-M. Mewes,  A. F. Morrison,  J. W. Mullinax,  K. Nanda,  
 T. S. Nguyen-Beck,  R. Olivares-Amaya,  J. A. Parkhill,  T. M. Perrine,  
 F. Plasser,  S. Prager,  A. Prociuk,  E. Ramos,  D. R. Rehn,  F. Rob,  
 M. Schneider,  N. Sergueev,  S. M. Sharada,  S. Sharma,  D. W. Small,  
 T. Stauch,  T. Stein,  Yu-Chuan Su,  A. J. W. Thom,  A. Tkatchenko,  
 T. Tsuchimochi,  L. Vogt,  O. Vydrov,  M. A. Watson,  J. Wenzel,  
 M. de Wergifosse,  T. A. Wesolowski,  A. White,  J. Witte,  A. Yamada,  
 Jun Yang,  K. Yao,  S. Yeganeh,  S. R. Yost,  Zhi-Qiang You,  A. Zech,  
 Igor Ying Zhang,  Xing Zhang,  Yan Zhao,  Ying Zhu,  B. R. Brooks,  
 G. K. L. Chan,  C. J. Cramer,  M. S. Gordon,  W. J. Hehre,  A. Klamt,  
 M. W. Schmidt,  C. D. Sherrill,  D. G. Truhlar,  A. Aspuru-Guzik,  R. Baer,  
 A. T. Bell,  N. A. Besley,  Jeng-Da Chai,  R. A. DiStasio Jr.,  A. Dreuw,  
 B. D. Dunietz,  T. R. Furlani,  Chao-Ping Hsu,  Yousung Jung,  Jing Kong,  
 D. S. Lambrecht,  WanZhen Liang,  C. Ochsenfeld,  V. A. Rassolov,  
 L. V. Slipchenko,  J. E. Subotnik,  T. Van Voorhis,  J. M. Herbert,  
 A. I. Krylov,  P. M. W. Gill,  M. Head-Gordon

 Contributors to earlier versions of Q-Chem not listed above: 
 R. D. Adamson,  B. Austin,  J. Baker,  G. J. O. Beran,  K. Brandhorst,  
 S. T. Brown,  E. F. C. Byrd,  A. K. Chakraborty,  C.-L. Cheng,  
 Siu Hung Chien,  D. M. Chipman,  D. L. Crittenden,  H. Dachsel,  
 R. J. Doerksen,  A. D. Dutoi,  L. Fusti-Molnar,  W. A. Goddard III,  
 A. Golubeva-Zadorozhnaya,  S. R. Gwaltney,  G. Hawkins,  A. Heyden,  
 S. Hirata,  G. Kedziora,  F. J. Keil,  C. Kelley,  Jihan Kim,  R. A. King,  
 R. Z. Khaliullin,  P. P. Korambath,  W. Kurlancheek,  A. M. Lee,  M. S. Lee,  
 S. V. Levchenko,  Ching Yeh Lin,  D. Liotard,  R. C. Lochan,  I. Lotan,  
 P. E. Maslen,  N. Nair,  D. P. O'Neill,  D. Neuhauser,  E. Neuscamman,  
 C. M. Oana,  R. Olson,  B. Peters,  R. Peverati,  P. A. Pieniazek,  
 Y. M. Rhee,  J. Ritchie,  M. A. Rohrdanz,  E. Rosta,  N. J. Russ,  
 H. F. Schaefer III,  N. E. Schultz,  N. Shenvi,  A. C. Simmonett,  A. Sodt,  
 D. Stuck,  K. S. Thanthiriwatte,  V. Vanovschi,  Tao Wang,  A. Warshel,  
 C. F. Williams,  Q. Wu,  X. Xu,  W. Zhang

 Please cite Q-Chem as follows:
 Y. Shao et al., Mol. Phys. 113, 184-215 (2015)
 DOI: 10.1080/00268976.2014.952696

 Q-Chem 5.0.2 for Intel X86 EM64T Linux

 Parts of Q-Chem use Armadillo 5.200.1 (Boston Tea Smuggler).
 http://arma.sourceforge.net/

 Q-Chem begins on Wed Mar  2 13:14:58 2022  

Host: 
0

     Scratch files written to ./qcts1.d//
 Dec517 15110_ 26548  26544 5633   
Processing $rem in /home/leeping/opt/qchem/5.0.2-openmp/config/preferences.
 MEM_STATIC 2000
 MEM_TOTAL  8000
 SYMMETRY   OFF
 SYM_IGNORE TRUE 

Checking the input file for inconsistencies... 	...done.

--------------------------------------------------------------
User input:
--------------------------------------------------------------
$molecule
0 2
C        1.1282310772    0.2062317036    0.4520049939
C        0.9624505696   -0.9148579879   -0.5671201834
C       -0.4329751976   -1.0288820820   -0.5255551631
C       -1.1030832298    0.2387587796    0.0153908199
C       -0.4171782309    1.4856148554   -0.4892121855
N        0.8374042644    1.5085097637   -0.2355968477
H        2.0499252085    0.2457672072    1.0316581108
H        1.6965560349   -1.5039672271   -1.0988552471
H       -1.0403964226   -1.8648458146   -0.8651759640
H       -2.1848401477    0.2021763845    0.1235858354
H       -0.9056730070    2.2694323998   -1.0659230858
C       -0.2049091343   -0.1815734643    1.1348471268
H       -0.4165427996   -0.6891860145    2.0643897293
$end

$rem
method                b3lyp
basis                 6-31g(d)
unrestricted          true
symmetry              off
sym_ignore            true
incdft                false
incfock               0
scf_convergence       6
thresh                14
jobtype               sp
scf_guess             read
scf_algorithm         diis
max_scf_cycles        100
stability_analysis    true
max_cis_cycles        100
cis_n_roots           4
$end

--------------------------------------------------------------
 ----------------------------------------------------------------
             Standard Nuclear Orientation (Angstroms)
    I     Atom           X                Y                Z
 ----------------------------------------------------------------
    1      C       1.1282310772     0.2062317036     0.4520049939
    2      C       0.9624505696    -0.9148579879    -0.5671201834
    3      C      -0.4329751976    -1.0288820820    -0.5255551631
    4      C      -1.1030832298     0.2387587796     0.0153908199
    5      C      -0.4171782309     1.4856148554    -0.4892121855
    6      N       0.8374042644     1.5085097637    -0.2355968477
    7      H       2.0499252085     0.2457672072     1.0316581108
    8      H       1.6965560349    -1.5039672271    -1.0988552471
    9      H      -1.0403964226    -1.8648458146    -0.8651759640
   10      H      -2.1848401477     0.2021763845     0.1235858354
   11      H      -0.9056730070     2.2694323998    -1.0659230858
   12      C      -0.2049091343    -0.1815734643     1.1348471268
   13      H      -0.4165427996    -0.6891860145     2.0643897293
 ----------------------------------------------------------------
 Nuclear Repulsion Energy =   280.6570876677 hartrees
 There are       25 alpha and       24 beta electrons
 Requested basis set is 6-31G(d)
 There are 40 shells and 117 basis functions

 Total QAlloc Memory Limit   8000 MB
 Mega-Array Size      1956 MB
 MEM_STATIC part      2000 MB

                       Distance Matrix (Angstroms)
             C (  1)   C (  2)   C (  3)   C (  4)   C (  5)   N (  6)
   C (  2)  1.524120
   C (  3)  2.217768  1.400693
   C (  4)  2.273863  2.436510  1.532508
   C (  5)  2.216078  2.769786  2.514809  1.509881
   N (  6)  1.501101  2.449134  2.852420  2.332542  1.280165
   H (  7)  1.089532  2.255159  3.196004  3.312750  3.152280  2.161171
   H (  8)  2.377591  1.081066  2.255944  3.480893  3.711757  3.249365
   H (  9)  3.275252  2.236674  1.087722  2.281333  3.428606  3.911781
   H ( 10)  3.329312  3.410320  2.237391  1.087769  2.268780  3.312021
   H ( 11)  3.270729  3.725372  3.375547  2.309079  1.088849  2.075274
   C ( 12)  1.547233  2.190235  1.877999  1.495519  2.337123  2.412657
   H ( 13)  2.405802  2.979496  2.612179  2.351769  3.354198  3.419384
             H (  7)   H (  8)   H (  9)   H ( 10)   H ( 11)   C ( 12)
   H (  8)  2.779483
   H (  9)  4.195564  2.770514
   H ( 10)  4.331251  4.412542  2.561246
   H ( 11)  4.150979  4.583800  4.141341  2.706427
   C ( 12)  2.297291  3.217720  2.744365  2.256112  3.367772
   H ( 13)  2.832691  3.890395  3.217720  2.772746  4.334920  1.080050

 
 A cutoff of  1.0D-14 yielded    813 shell pairs
 There are      7085 function pairs
 Smallest overlap matrix eigenvalue = 1.15E-03

 Scale SEOQF with 1.000000e-01/1.000000e-01/1.000000e-01

 Standard Electronic Orientation quadrupole field applied
 Nucleus-field energy     =     0.0000000028 hartrees
 Guess MOs from SCF MO coefficient file
 Reading MOs from coefficient file
 Reading MOs from coefficient file
 An unrestricted hybrid HF-DFT SCF calculation will be
 performed using Pulay DIIS extrapolation
 Exchange:     0.2000 Hartree-Fock + 0.0800 Slater + 0.7200 B88
 Correlation:  0.1900 VWN1RPA + 0.8100 LYP
 Using SG-1 standard quadrature grid
 SCF converges when DIIS error is below 1.0E-06
Using Q-Chem read-in guess as SCF_GUESS READ specified.

 -------------------------------------------------------
 OpenMP BLAS3 based DFT computing Module                
 -------------------------------------------------------
 ---------------------------------------
  Cycle       Energy         DIIS Error
 ---------------------------------------
    1    -286.8208212109      2.28E-09
    2    -286.8208212109      3.14E-09 Convergence criterion met
 ---------------------------------------
 <S^2> = 0.7842
 SCF time:  CPU 3.25 s  wall 6.37 s
 SCF   energy in the final basis set = -286.82082121
 Total energy in the final basis set = -286.82082121
 
 Direct TDDFT/TDA calculation will be performed
 Exchange:     0.2000 Hartree-Fock + 0.0800 Slater + 0.7200 B88
 Correlation:  0.1900 VWN1RPA + 0.8100 LYP
 Using SG-1 standard quadrature grid
 CIS energy converged when residual is below 10e- 6
 ---------------------------------------------------
 Iter    Rts Conv    Rts Left    Ttl Dev     Max Dev
 ---------------------------------------------------
   1         0           4      0.004904    0.001717
   2         0           4      0.001266    0.000421
   3         0           4      0.000832    0.000493
   4         0           4      0.001252    0.000749
   5         0           4      0.000686    0.000432
   6         0           4      0.000590    0.000421
   7         1           3      0.000440    0.000302
   8         2           2      0.000116    0.000078
   9         2           2      0.000023    0.000015
  10         2           2      0.000006    0.000004
  11         4           0      0.000002    0.000001    Roots Converged
 ---------------------------------------------------
 
 ---------------------------------------------------
         TDDFT/TDA Excitation Energies              
 ---------------------------------------------------

 Excited state   1: excitation energy (eV) =    2.4786
 Total energy for state  1:                  -286.72973503 au
    <S**2>     :  0.7850
    Trans. Mom.:  0.1287 X   0.1357 Y  -0.3225 Z
    Strength   :     0.0084399550
    S(  1) --> V(  1) amplitude =  0.9293 alpha
    S(  1) --> V(  2) amplitude = -0.2991 alpha

 Excited state   2: excitation energy (eV) =    2.9072
 Total energy for state  2:                  -286.71398358 au
    <S**2>     :  0.7873
    Trans. Mom.: -0.1455 X   0.3344 Y   0.1615 Z
    Strength   :     0.0113282371
    S(  1) --> V(  1) amplitude =  0.3343 alpha
    S(  1) --> V(  2) amplitude =  0.9095 alpha

 Excited state   3: excitation energy (eV) =    4.4998
 Total energy for state  3:                  -286.65545704 au
    <S**2>     :  2.4943
    Trans. Mom.: -0.0301 X  -0.0156 Y   0.0682 Z
    Strength   :     0.0006396736
    D( 23) --> V(  1) amplitude =  0.3088 alpha
    D( 23) --> V(  2) amplitude =  0.1548 alpha
    D( 24) --> V(  1) amplitude = -0.4916 alpha
    D( 24) --> V(  2) amplitude = -0.1819 alpha
    D( 23) --> S(  1) amplitude =  0.3412 beta
    D( 23) --> V(  1) amplitude =  0.3433 beta
    D( 24) --> S(  1) amplitude =  0.4342 beta
    D( 24) --> V(  1) amplitude =  0.3504 beta

 Excited state   4: excitation energy (eV) =    4.6047
 Total energy for state  4:                  -286.65160132 au
    <S**2>     :  2.4343
    Trans. Mom.: -0.0473 X  -0.0469 Y   0.1374 Z
    Strength   :     0.0026307240
    D( 22) --> V(  1) amplitude =  0.1856 alpha
    D( 23) --> V(  1) amplitude = -0.4669 alpha
    D( 23) --> V(  2) amplitude = -0.1930 alpha
    D( 24) --> V(  1) amplitude = -0.2357 alpha
    D( 22) --> S(  1) amplitude =  0.3558 beta
    D( 22) --> V(  1) amplitude =  0.3757 beta
    D( 23) --> S(  1) amplitude = -0.2059 beta
    D( 23) --> V(  1) amplitude = -0.1694 beta
    D( 24) --> S(  1) amplitude =  0.4058 beta
    D( 24) --> V(  1) amplitude =  0.2640 beta
 
 ---------------------------------------------------

 Stability analysis will be performed
 ---------------------------------------------------
 Iter    Rts Conv    Rts Left    Ttl Dev     Max Dev
 ---------------------------------------------------
   1         0           8      0.005955    0.000897
   2         0           8      0.002293    0.000449
   3         0           8      0.000884    0.000206
   4         1           7      0.000548    0.000147
   5         2           6      0.000329    0.000133
   6         2           6      0.000114    0.000068
   7         3           5      0.000032    0.000020
   8         6           2      0.000010    0.000006
   9         7           1      0.000005    0.000002
  10         8           0      0.000003    0.000001    Roots Converged
 UKS-> UKS   stable,    smallest eigenvalue:      0.0788782
 UKS->CUKS   stable,    smallest eigenvalue:      0.0903780
 ---------------------------------------------------
  SETman timing summary (seconds)
  CPU time                86.70s
  System time              0.00s
  Wall time              102.53s
 
 --------------------------------------------------------------
 
                    Orbital Energies (a.u.)
 --------------------------------------------------------------
 
 Alpha MOs
 -- Occupied --
-14.318 -10.221 -10.220 -10.217 -10.214 -10.209 -10.186  -0.956
 -0.837  -0.739  -0.679  -0.591  -0.576  -0.536  -0.515  -0.463
 -0.425  -0.408  -0.397  -0.376  -0.340  -0.295  -0.273  -0.252
 -0.140
 -- Virtual --
 -0.001   0.016   0.095   0.141   0.146   0.154   0.158   0.165
  0.177   0.205   0.218   0.261   0.301   0.310   0.362   0.371
  0.486   0.496   0.517   0.543   0.576   0.585   0.603   0.615
  0.622   0.636   0.665   0.682   0.712   0.754   0.768   0.791
  0.812   0.828   0.848   0.856   0.857   0.879   0.896   0.926
  0.961   1.006   1.103   1.127   1.136   1.252   1.265   1.318
  1.391   1.450   1.498   1.520   1.576   1.636   1.669   1.757
  1.768   1.803   1.832   1.897   1.931   1.975   2.015   2.062
  2.071   2.158   2.182   2.226   2.252   2.303   2.333   2.409
  2.424   2.459   2.516   2.539   2.590   2.628   2.634   2.659
  2.724   2.797   2.849   2.918   2.951   3.936   4.162   4.264
  4.308   4.444   4.515   4.665
 
 Beta MOs
 -- Occupied --
-14.318 -10.224 -10.220 -10.216 -10.214 -10.200 -10.176  -0.952
 -0.832  -0.731  -0.668  -0.586  -0.567  -0.534  -0.507  -0.458
 -0.421  -0.403  -0.395  -0.374  -0.335  -0.279  -0.263  -0.248
 -- Virtual --
 -0.023   0.008   0.030   0.098   0.148   0.149   0.157   0.160
  0.167   0.180   0.210   0.224   0.265   0.305   0.314   0.365
  0.376   0.491   0.507   0.523   0.547   0.581   0.598   0.610
  0.619   0.640   0.648   0.675   0.686   0.719   0.758   0.772
  0.792   0.814   0.829   0.851   0.857   0.863   0.881   0.900
  0.930   0.965   1.013   1.109   1.132   1.147   1.255   1.268
  1.327   1.393   1.453   1.511   1.523   1.584   1.641   1.678
  1.765   1.776   1.810   1.836   1.916   1.939   1.977   2.029
  2.071   2.080   2.162   2.191   2.237   2.263   2.309   2.351
  2.418   2.432   2.471   2.519   2.546   2.593   2.631   2.643
  2.665   2.731   2.802   2.853   2.919   2.953   3.938   4.164
  4.274   4.326   4.447   4.519   4.668
 --------------------------------------------------------------
 
          Ground-State Mulliken Net Atomic Charges

     Atom                 Charge (a.u.)    Spin (a.u.)
  --------------------------------------------------------
      1 C                    -0.095313      -0.069587
      2 C                    -0.077534       0.682770
      3 C                    -0.131173      -0.229324
      4 C                    -0.199147       0.005048
      5 C                     0.099449       0.045164
      6 N                    -0.338516      -0.005286
      7 H                     0.139905       0.008204
      8 H                     0.141199      -0.028660
      9 H                     0.148809       0.014356
     10 H                     0.142609       0.003568
     11 H                     0.144841       0.001461
     12 C                    -0.133598       0.603544
     13 H                     0.158469      -0.031257
  --------------------------------------------------------
  Sum of atomic charges =    -0.000000
  Sum of spin   charges =     1.000000

 -----------------------------------------------------------------
                    Cartesian Multipole Moments
 -----------------------------------------------------------------
    Charge (ESU x 10^10)
                 0.0000
    Dipole Moment (Debye)
         X      -1.8890      Y      -1.8712      Z       0.4412
       Tot       2.6953
    Quadrupole Moments (Debye-Ang)
        XX     -38.5294     XY      -3.2084     YY     -42.7166
        XZ       1.5138     YZ       0.2179     ZZ     -39.7525
    Octopole Moments (Debye-Ang^2)
       XXX     -12.8688    XXY     -10.6884    XYY     -12.8930
       YYY     -24.2331    XXZ       1.9483    XYZ       3.7293
       YYZ      -2.8439    XZZ      -3.8435    YZZ      -8.3742
       ZZZ       7.0772
    Hexadecapole Moments (Debye-Ang^3)
      XXXX    -225.5679   XXXY      -6.5594   XXYY     -92.1560
      XYYY     -14.6316   YYYY    -301.8738   XXXZ       2.0209
      XXYZ       5.4008   XYYZ       4.2075   YYYZ       4.0035
      XXZZ     -63.1423   XYZZ      -1.2793   YYZZ     -69.8988
      XZZZ      -0.2965   YZZZ      -1.8979   ZZZZ    -145.8911
 -----------------------------------------------------------------
Archival summary:
1\1\c8-89\SP\ProcedureUnspecified\6-31G*\166(2)\hpark21\WedMar213:16:522022WedMar213:16:522022\0\\#,ProcedureUnspecified,6-31G*,\\0,2\N\C,1,1.28016\H,2,1.08885,1,122.122\C,1,1.5011,2,105.373,3,-174.671,0\H,4,1.08953,1,112.093,2,-159.235,0\C,2,1.50988,1,113.189,3,176.487,0\H,6,1.08777,2,120.849,1,162.73,0\C,6,1.49552,2,102.089,1,25.0461,0\H,8,1.08005,6,131.196,2,148.421,0\C,4,1.52412,1,108.106,2,68.586,0\H,10,1.08107,4,130.985,1,104.133,0\C,10,1.40069,4,98.5342,1,-80.5137,0\H,12,1.08772,10,127.563,4,-161.724,0\\\@

 Total job time:  113.53s(wall), 90.13s(cpu) 
 Wed Mar  2 13:16:52 2022

        *************************************************************
        *                                                           *
        *  Thank you very much for using Q-Chem.  Have a nice day.  *
        *                                                           *
        *************************************************************


