
Running Job 1 of 1 qcts1.in
qchem qcts1.in_7102.0 ./qcts1.d/ 1
/home/leeping/opt/qchem/5.0.2-openmp/exe/qcprog.exe_s qcts1.in_7102.0 ./qcts1.d/
Check license passed

                  Welcome to Q-Chem
     A Quantum Leap Into The Future Of Chemistry


 Q-Chem 5.0, Q-Chem, Inc., Pleasanton, CA (2017)

 Yihan Shao,  Zhengting Gan,  E. Epifanovsky,  A. T. B. Gilbert,  M. Wormit,  
 J. Kussmann,  A. W. Lange,  A. Behn,  Jia Deng,  Xintian Feng,  D. Ghosh,  
 M. Goldey,  P. R. Horn,  L. D. Jacobson,  I. Kaliman,  T. Kus,  A. Landau,  
 Jie Liu,  E. I. Proynov,  R. M. Richard,  R. P. Steele,  E. J. Sundstrom,  
 H. L. Woodcock III,  P. M. Zimmerman,  D. Zuev,  B. Albrecht,  E. Alguire,  
 S. A. Baeppler,  D. Barton,  Z. Benda,  Y. A. Bernard,  E. J. Berquist,  
 K. B. Bravaya,  H. Burton,  D. Casanova,  Chun-Min Chang,  Yunqing Chen,  
 A. Chien,  K. D. Closser,  M. P. Coons,  S. Dasgupta,  A. L. Dempwolff,  
 M. Diedenhofen,  Hainam Do,  R. G. Edgar,  Po-Tung Fang,  S. Fatehi,  
 Qingguo Feng,  J. Fosso-Tande,  Qinghui Ge,  A. Ghysels,  G. Gidofalvi,  
 J. Gomes,  J. Gonthier,  A. Gunina,  M. W. D. Hanson-Heine,  
 P. H. P. Harbach,  A. W. Hauser,  J. E. Herr,  E. G. Hohenstein,  
 Z. C. Holden,  Kerwin Hui,  T.-C. Jagau,  Hyunjun Ji,  B. Kaduk,  
 K. Khistyaev,  Jaehoon Kim,  P. Klunzinger,  K. Koh,  D. Kosenkov,  
 L. Koulias,  T. Kowalczyk,  C. M. Krauter,  A. Kunitsa,  Ka Un Lao,  
 A. Laurent,  K. V. Lawler,  Joonho Lee,  D. Lefrancois,  S. Lehtola,  
 D. S. Levine,  Yi-Pei Li,  You-Sheng Lin,  Fenglai Liu,  E. Livshits,  
 A. Luenser,  P. Manohar,  E. Mansoor,  S. F. Manzer,  Shan-Ping Mao,  
 Yuezhi Mao,  N. Mardirossian,  A. V. Marenich,  T. Markovich,  
 L. A. Martinez-Martinez,  S. A. Maurer,  N. J. Mayhall,  S. C. McKenzie,  
 J.-M. Mewes,  A. F. Morrison,  J. W. Mullinax,  K. Nanda,  
 T. S. Nguyen-Beck,  R. Olivares-Amaya,  J. A. Parkhill,  T. M. Perrine,  
 F. Plasser,  S. Prager,  A. Prociuk,  E. Ramos,  D. R. Rehn,  F. Rob,  
 M. Schneider,  N. Sergueev,  S. M. Sharada,  S. Sharma,  D. W. Small,  
 T. Stauch,  T. Stein,  Yu-Chuan Su,  A. J. W. Thom,  A. Tkatchenko,  
 T. Tsuchimochi,  L. Vogt,  O. Vydrov,  M. A. Watson,  J. Wenzel,  
 M. de Wergifosse,  T. A. Wesolowski,  A. White,  J. Witte,  A. Yamada,  
 Jun Yang,  K. Yao,  S. Yeganeh,  S. R. Yost,  Zhi-Qiang You,  A. Zech,  
 Igor Ying Zhang,  Xing Zhang,  Yan Zhao,  Ying Zhu,  B. R. Brooks,  
 G. K. L. Chan,  C. J. Cramer,  M. S. Gordon,  W. J. Hehre,  A. Klamt,  
 M. W. Schmidt,  C. D. Sherrill,  D. G. Truhlar,  A. Aspuru-Guzik,  R. Baer,  
 A. T. Bell,  N. A. Besley,  Jeng-Da Chai,  R. A. DiStasio Jr.,  A. Dreuw,  
 B. D. Dunietz,  T. R. Furlani,  Chao-Ping Hsu,  Yousung Jung,  Jing Kong,  
 D. S. Lambrecht,  WanZhen Liang,  C. Ochsenfeld,  V. A. Rassolov,  
 L. V. Slipchenko,  J. E. Subotnik,  T. Van Voorhis,  J. M. Herbert,  
 A. I. Krylov,  P. M. W. Gill,  M. Head-Gordon

 Contributors to earlier versions of Q-Chem not listed above: 
 R. D. Adamson,  B. Austin,  J. Baker,  G. J. O. Beran,  K. Brandhorst,  
 S. T. Brown,  E. F. C. Byrd,  A. K. Chakraborty,  C.-L. Cheng,  
 Siu Hung Chien,  D. M. Chipman,  D. L. Crittenden,  H. Dachsel,  
 R. J. Doerksen,  A. D. Dutoi,  L. Fusti-Molnar,  W. A. Goddard III,  
 A. Golubeva-Zadorozhnaya,  S. R. Gwaltney,  G. Hawkins,  A. Heyden,  
 S. Hirata,  G. Kedziora,  F. J. Keil,  C. Kelley,  Jihan Kim,  R. A. King,  
 R. Z. Khaliullin,  P. P. Korambath,  W. Kurlancheek,  A. M. Lee,  M. S. Lee,  
 S. V. Levchenko,  Ching Yeh Lin,  D. Liotard,  R. C. Lochan,  I. Lotan,  
 P. E. Maslen,  N. Nair,  D. P. O'Neill,  D. Neuhauser,  E. Neuscamman,  
 C. M. Oana,  R. Olson,  B. Peters,  R. Peverati,  P. A. Pieniazek,  
 Y. M. Rhee,  J. Ritchie,  M. A. Rohrdanz,  E. Rosta,  N. J. Russ,  
 H. F. Schaefer III,  N. E. Schultz,  N. Shenvi,  A. C. Simmonett,  A. Sodt,  
 D. Stuck,  K. S. Thanthiriwatte,  V. Vanovschi,  Tao Wang,  A. Warshel,  
 C. F. Williams,  Q. Wu,  X. Xu,  W. Zhang

 Please cite Q-Chem as follows:
 Y. Shao et al., Mol. Phys. 113, 184-215 (2015)
 DOI: 10.1080/00268976.2014.952696

 Q-Chem 5.0.2 for Intel X86 EM64T Linux

 Parts of Q-Chem use Armadillo 5.200.1 (Boston Tea Smuggler).
 http://arma.sourceforge.net/

 Q-Chem begins on Wed Mar  2 12:51:53 2022  

Host: 
0

     Scratch files written to ./qcts1.d//
 Dec517 15110_ 26548  26544 5633   
Processing $rem in /home/leeping/opt/qchem/5.0.2-openmp/config/preferences.
 MEM_STATIC 2000
 MEM_TOTAL  8000
 SYMMETRY   OFF
 SYM_IGNORE TRUE 

Checking the input file for inconsistencies... 	...done.

--------------------------------------------------------------
User input:
--------------------------------------------------------------
$molecule
0 2
C        1.2406094632    0.2863324682    0.2686686569
C        0.9523863634   -0.9417522938   -0.4854569997
C       -0.3891498307   -1.1270410235   -0.5951221964
C       -1.1342559329    0.3010713982    0.0126572130
C       -0.4548074901    1.5275192147   -0.4566152980
N        0.8216888770    1.5199837318   -0.2891935742
H        2.2723659968    0.3848288696    0.6093251203
H        1.7373062250   -1.6839921804   -0.6928451154
H       -0.7842085519   -2.1263648492   -0.8230456654
H       -2.2250103521    0.4572262865    0.1474727752
H       -0.9649133068    2.4493646642   -0.7506802304
C       -0.3408904672   -0.1392700560    1.2001434647
H       -0.7621520085   -0.9347277269    1.8291297891
$end

$rem
method                b3lyp
basis                 6-31g(d)
unrestricted          true
symmetry              off
sym_ignore            true
incdft                false
incfock               0
scf_convergence       8
thresh                14
jobtype               freq
scf_guess             read
scf_algorithm         diis
max_scf_cycles        100
$end

--------------------------------------------------------------
 ----------------------------------------------------------------
             Standard Nuclear Orientation (Angstroms)
    I     Atom           X                Y                Z
 ----------------------------------------------------------------
    1      C       1.2406094632     0.2863324682     0.2686686569
    2      C       0.9523863634    -0.9417522938    -0.4854569997
    3      C      -0.3891498307    -1.1270410235    -0.5951221964
    4      C      -1.1342559329     0.3010713982     0.0126572130
    5      C      -0.4548074901     1.5275192147    -0.4566152980
    6      N       0.8216888770     1.5199837318    -0.2891935742
    7      H       2.2723659968     0.3848288696     0.6093251203
    8      H       1.7373062250    -1.6839921804    -0.6928451154
    9      H      -0.7842085519    -2.1263648492    -0.8230456654
   10      H      -2.2250103521     0.4572262865     0.1474727752
   11      H      -0.9649133068     2.4493646642    -0.7506802304
   12      C      -0.3408904672    -0.1392700560     1.2001434647
   13      H      -0.7621520085    -0.9347277269     1.8291297891
 ----------------------------------------------------------------
 Nuclear Repulsion Energy =   274.8029206408 hartrees
 There are       25 alpha and       24 beta electrons
 Requested basis set is 6-31G(d)
 There are 40 shells and 117 basis functions

 Total QAlloc Memory Limit   8000 MB
 Mega-Array Size      1956 MB
 MEM_STATIC part      2000 MB

                       Distance Matrix (Angstroms)
             C (  1)   C (  2)   C (  3)   C (  4)   C (  5)   N (  6)
   C (  2)  1.469684
   C (  3)  2.323763  1.358704
   C (  4)  2.388670  2.479275  1.721652
   C (  5)  2.222841  2.842240  2.658982  1.478527
   N (  6)  1.417251  2.473003  2.926852  2.324345  1.287451
   H (  7)  1.090995  2.168112  3.289394  3.459494  3.143159  2.049482
   H (  8)  2.247976  1.100013  2.200354  3.561472  3.895507  3.356598
   H (  9)  3.333592  2.129093  1.098485  2.591019  3.686956  4.019921
   H ( 10)  3.471947  3.528965  2.536086  1.110092  2.155010  3.256149
   H ( 11)  3.253016  3.904620  3.625794  2.286159  1.093838  2.066075
   C ( 12)  1.884124  2.271077  2.049634  1.494474  2.352873  2.514526
   H ( 13)  2.817282  2.880452  2.460307  2.228280  3.373685  3.608525
             H (  7)   H (  8)   H (  9)   H ( 10)   H ( 11)   C ( 12)
   H (  8)  2.502390
   H (  9)  4.207188  2.563334
   H ( 10)  4.521608  4.581583  3.113320
   H ( 11)  4.073316  4.938621  4.579868  2.522526
   C ( 12)  2.729992  3.207565  2.870256  2.239159  3.300931
   H ( 13)  3.526677  3.628918  2.907666  2.627824  4.260119  1.098107

 
 A cutoff of  1.0D-14 yielded    810 shell pairs
 There are      7082 function pairs
 Smallest overlap matrix eigenvalue = 1.32E-03
 Guess MOs from SCF MO coefficient file
 Reading MOs from coefficient file
 Reading MOs from coefficient file
 An unrestricted hybrid HF-DFT SCF calculation will be
 performed using Pulay DIIS extrapolation
 Exchange:     0.2000 Hartree-Fock + 0.0800 Slater + 0.7200 B88
 Correlation:  0.1900 VWN1RPA + 0.8100 LYP
 Using SG-1 standard quadrature grid
 SCF converges when DIIS error is below 1.0E-08
Using Q-Chem read-in guess as SCF_GUESS READ specified.

 -------------------------------------------------------
 OpenMP BLAS3 based DFT computing Module                
 -------------------------------------------------------
 ---------------------------------------
  Cycle       Energy         DIIS Error
 ---------------------------------------
    1    -286.7639704462      6.53E-10
    2    -286.7639704462      7.87E-10 Convergence criterion met
 ---------------------------------------
 <S^2> = 0.7768
 SCF time:  CPU 3.38 s  wall 7.83 s
 SCF   energy in the final basis set = -286.76397045
 Total energy in the final basis set = -286.76397045
 
 --------------------------------------------------------------
 
                    Orbital Energies (a.u.)
 --------------------------------------------------------------
 
 Alpha MOs
 -- Occupied --
-14.324 -10.237 -10.226 -10.226 -10.225 -10.205 -10.195  -0.951
 -0.821  -0.755  -0.671  -0.610  -0.571  -0.529  -0.497  -0.456
 -0.435  -0.410  -0.392  -0.377  -0.331  -0.291  -0.272  -0.258
 -0.137
 -- Virtual --
 -0.035  -0.001   0.069   0.090   0.101   0.131   0.160   0.169
  0.178   0.187   0.234   0.252   0.283   0.317   0.372   0.387
  0.492   0.499   0.522   0.551   0.568   0.593   0.604   0.615
  0.622   0.640   0.666   0.677   0.687   0.712   0.749   0.793
  0.819   0.843   0.845   0.848   0.861   0.871   0.898   0.922
  0.955   1.043   1.083   1.103   1.161   1.186   1.254   1.319
  1.367   1.434   1.453   1.499   1.545   1.577   1.625   1.641
  1.664   1.800   1.830   1.868   1.944   1.982   2.012   2.024
  2.110   2.153   2.154   2.201   2.233   2.270   2.297   2.343
  2.395   2.419   2.466   2.477   2.553   2.592   2.617   2.630
  2.698   2.780   2.826   2.923   2.987   3.930   4.147   4.245
  4.249   4.374   4.453   4.602
 
 Beta MOs
 -- Occupied --
-14.324 -10.238 -10.227 -10.226 -10.226 -10.192 -10.190  -0.949
 -0.813  -0.751  -0.664  -0.604  -0.559  -0.525  -0.493  -0.451
 -0.432  -0.406  -0.389  -0.375  -0.318  -0.281  -0.266  -0.248
 -- Virtual --
 -0.029  -0.009   0.012   0.079   0.093   0.103   0.133   0.161
  0.174   0.181   0.191   0.238   0.257   0.284   0.320   0.375
  0.390   0.500   0.512   0.530   0.555   0.571   0.603   0.610
  0.623   0.627   0.642   0.675   0.680   0.701   0.719   0.754
  0.795   0.821   0.846   0.847   0.854   0.865   0.873   0.902
  0.924   0.957   1.053   1.089   1.108   1.166   1.190   1.259
  1.323   1.374   1.443   1.461   1.509   1.547   1.583   1.633
  1.651   1.666   1.808   1.841   1.879   1.950   1.998   2.015
  2.036   2.117   2.160   2.168   2.209   2.238   2.273   2.305
  2.357   2.412   2.428   2.475   2.478   2.564   2.597   2.621
  2.634   2.703   2.782   2.828   2.924   2.988   3.931   4.147
  4.254   4.272   4.377   4.457   4.603
 --------------------------------------------------------------
 
          Ground-State Mulliken Net Atomic Charges

     Atom                 Charge (a.u.)    Spin (a.u.)
  --------------------------------------------------------
      1 C                    -0.060781      -0.075404
      2 C                    -0.077210       0.346675
      3 C                    -0.125503      -0.132536
      4 C                    -0.237004      -0.026108
      5 C                     0.111093      -0.013246
      6 N                    -0.326502       0.013699
      7 H                     0.144062       0.002763
      8 H                     0.150462      -0.018921
      9 H                     0.154142       0.016321
     10 H                     0.146791       0.008954
     11 H                     0.153515       0.000986
     12 C                    -0.181110       0.916095
     13 H                     0.148045      -0.039279
  --------------------------------------------------------
  Sum of atomic charges =    -0.000000
  Sum of spin   charges =     1.000000

 -----------------------------------------------------------------
                    Cartesian Multipole Moments
 -----------------------------------------------------------------
    Charge (ESU x 10^10)
                -0.0000
    Dipole Moment (Debye)
         X      -1.3460      Y      -1.8512      Z      -0.0843
       Tot       2.2904
    Quadrupole Moments (Debye-Ang)
        XX     -37.2999     XY      -3.8428     YY     -40.3786
        XZ       0.6932     YZ      -0.1664     ZZ     -43.6788
    Octopole Moments (Debye-Ang^2)
       XXX      -7.5314    XXY      -9.1219    XYY     -12.6481
       YYY     -27.2208    XXZ       3.3432    XYZ       3.6420
       YYZ      -1.1840    XZZ      -4.3627    YZZ      -8.9337
       ZZZ       3.9179
    Hexadecapole Moments (Debye-Ang^3)
      XXXX    -234.5930   XXXY      -6.7448   XXYY     -95.9564
      XYYY     -16.3778   YYYY    -312.2864   XXXZ       7.4556
      XXYZ       3.4334   XYYZ       6.4164   YYYZ       5.3605
      XXZZ     -67.9098   XYZZ       1.8070   YYZZ     -76.3968
      XZZZ       6.0356   YZZZ      -3.3936   ZZZZ    -152.8958
 -----------------------------------------------------------------
 Calculating MO derivatives via CPSCF
   1         3          39      0.280067    0.064233
   2         3          39      0.032750    0.006153
   3         3          39      0.004559    0.001125
   4         3          39      0.000514    0.000111
   5        27          15      0.000040    0.000011
   6        42           0      0.000000    0.000000    Roots Converged
 Time for AOints: 5.8 s (CPU) 7.6 s (wall)
 ------------------------------------------------------------------------------
                     AOints        : Timing summary (seconds)
 ------------------------------------------------------------------------------
     job step          cpu (% of tot)      sys (% of tot)     wall (% of tot)
 ------------------------------------------------------------------------------
  cpscf_lag         0.5577E+02 (28.8)   0.2600E-04 (38.8)   0.5823E+02 (28.4)
  iterzp            0.1319E+03 (68.1)   0.4000E-04 (59.7)   0.1386E+03 (67.7)
  make_fx           0.0000E+00 ( 0.0)   0.0000E+00 ( 0.0)   0.0000E+00 ( 0.0)
  AOints            0.5783E+01 ( 3.0)   0.0000E+00 ( 0.0)   0.7640E+01 ( 3.7)
 ------------------------------------------------------------------------------
   Grand Totals     0.1936E+03          0.6700E-04          0.2049E+03
 ------------------------------------------------------------------------------
 Calculating analytic Hessian of the SCF energy
 Polarizability Matrix (a.u.)
            1           2           3
    1 -70.3709904   2.7232260   2.3271860
    2   2.7232260 -65.2751244  -0.9108675
    3   2.3271860  -0.9108675 -48.8535525
 
 Direct stationary perturbation theory relativistic correction:
 
 rels  =       0.069276231180
 relv  =      -0.339332960564
 rel2e =       0.157085300457
 E_rel =      -0.112971428928
 
 Hessian of the SCF Energy
            1           2           3           4           5           6
    1   0.5540463  -0.0254107   0.2410983  -0.0991481  -0.0409942  -0.0444092
    2  -0.0254107   0.4721783   0.0641791   0.0118593  -0.1755984  -0.0837596
    3   0.2410983   0.0641791   0.2785980  -0.0260139  -0.0830288  -0.1029128
    4  -0.0991481   0.0118593  -0.0260139   0.6767420  -0.0853162   0.0291727
    5  -0.0409942  -0.1755984  -0.0830288  -0.0853162   0.4978622   0.1752158
    6  -0.0444092  -0.0837596  -0.1029128   0.0291727   0.1752158   0.1954825
    7  -0.0016207  -0.0497622  -0.0261842  -0.4019394  -0.0292529  -0.0329017
    8  -0.0371434  -0.0036401  -0.0111996  -0.1044393  -0.1132706  -0.0095863
    9  -0.0234654  -0.0003466   0.0021733  -0.1129510  -0.0302398  -0.0331082
   10  -0.0429252  -0.0043321   0.0009999  -0.0059258   0.0239711  -0.0013640
   11  -0.0041567  -0.0157420   0.0036921  -0.0099879  -0.0061577   0.0085846
   12   0.0022468  -0.0097610  -0.0142609   0.0162801   0.0039951   0.0077795
   13  -0.0369923   0.0432488  -0.0230347  -0.0086409  -0.0042303  -0.0017079
   14   0.0418916  -0.0124038   0.0144623  -0.0025544  -0.0028663   0.0019123
   15  -0.0135821   0.0093492  -0.0100028   0.0058943   0.0033020   0.0026031
   16  -0.0930062   0.0421487  -0.0346078   0.0171607   0.0162909   0.0045869
   17   0.0380492  -0.1749163   0.0472755  -0.0033087  -0.0432478   0.0000860
   18  -0.0400806   0.0532262  -0.0828907   0.0087490  -0.0118774   0.0121771
   19  -0.2984187  -0.0258409  -0.0909638  -0.0024317  -0.0009352  -0.0010403
   20  -0.0333262  -0.0492261  -0.0120934  -0.0277346  -0.0015141  -0.0106572
   21  -0.0734736  -0.0126567  -0.0769301  -0.0197023   0.0010974  -0.0031784
   22   0.0081122  -0.0077118  -0.0009480  -0.1891562   0.1254958   0.0310758
   23   0.0174550  -0.0122305  -0.0007814   0.1240388  -0.1730248  -0.0436033
   24   0.0065796  -0.0111666   0.0029477   0.0319565  -0.0417063  -0.0377573
   25  -0.0064893   0.0000686  -0.0002985  -0.0028614  -0.0282876  -0.0112004
   26  -0.0002086   0.0003151  -0.0013939   0.0059883   0.0002471   0.0005684
   27  -0.0007461  -0.0020912   0.0055207  -0.0207059  -0.0049364   0.0107351
   28  -0.0013161  -0.0009486  -0.0013890   0.0012576  -0.0002194   0.0006541
   29  -0.0005797  -0.0018723   0.0023946  -0.0004624  -0.0051714  -0.0016313
   30  -0.0055121   0.0022173  -0.0027611   0.0028200  -0.0047119  -0.0020713
   31  -0.0049914  -0.0009957  -0.0006911  -0.0000311  -0.0006448  -0.0005989
   32  -0.0003004   0.0032094   0.0027337  -0.0002606   0.0005478  -0.0003461
   33   0.0004358   0.0065078   0.0102690  -0.0001621   0.0020109  -0.0009095
   34   0.0160905   0.0169211  -0.0344770   0.0114583   0.0280285   0.0324706
   35   0.0442421  -0.0306086  -0.0218483   0.1058611   0.0244305  -0.0396424
   36  -0.0441339  -0.0168393  -0.0114199   0.0993313  -0.0029275  -0.0516205
   37   0.0066588   0.0007556  -0.0034902   0.0035159  -0.0039056  -0.0047376
   38   0.0004820   0.0005354  -0.0043920  -0.0136834  -0.0022366   0.0028590
   39  -0.0049576   0.0011413   0.0016697  -0.0146688  -0.0061932   0.0027808
            7           8           9          10          11          12
    1  -0.0016207  -0.0371434  -0.0234654  -0.0429252  -0.0041567   0.0022468
    2  -0.0497622  -0.0036401  -0.0003466  -0.0043321  -0.0157420  -0.0097610
    3  -0.0261842  -0.0111996   0.0021733   0.0009999   0.0036921  -0.0142609
    4  -0.4019394  -0.1044393  -0.1129510  -0.0059258  -0.0099879   0.0162801
    5  -0.0292529  -0.1132706  -0.0302398   0.0239711  -0.0061577   0.0039951
    6  -0.0329017  -0.0095863  -0.0331082  -0.0013640   0.0085846   0.0077795
    7   0.5884663   0.2169412   0.1081606  -0.0687783  -0.0237924  -0.0082323
    8   0.2169412   0.4248616   0.0601531  -0.0119717  -0.0435017   0.0246841
    9   0.1081606   0.0601531   0.0740023   0.0195176  -0.0329000  -0.0071386
   10  -0.0687783  -0.0119717   0.0195176   0.6419065   0.0411179  -0.0079266
   11  -0.0237924  -0.0435017  -0.0329000   0.0411179   0.3020916  -0.1253326
   12  -0.0082323   0.0246841  -0.0071386  -0.0079266  -0.1253326   0.2753264
   13   0.0159286  -0.0068049   0.0017010  -0.1153830  -0.0201310   0.0208702
   14   0.0095024  -0.0267516   0.0055234  -0.0543694  -0.1720251   0.0419966
   15  -0.0119708  -0.0083751   0.0103631   0.0205600   0.0497516  -0.0807536
   16  -0.0196683   0.0076343   0.0021275  -0.0468796  -0.0477831   0.0120530
   17   0.0096408   0.0015260  -0.0005158  -0.0286368   0.0182153   0.0116815
   18   0.0015587   0.0053865  -0.0043101   0.0022023  -0.0036046   0.0238089
   19   0.0007225  -0.0004826  -0.0015287  -0.0015154  -0.0014208   0.0009891
   20   0.0013996  -0.0050344  -0.0040993  -0.0004944  -0.0011899   0.0006016
   21   0.0008469  -0.0049087  -0.0015687   0.0054377   0.0027203  -0.0022938
   22  -0.0122687   0.0205613   0.0061811  -0.0038269  -0.0014178  -0.0011226
   23  -0.0054413   0.0055253  -0.0023700  -0.0015087  -0.0014136  -0.0014311
   24  -0.0032144   0.0049123   0.0080180  -0.0035401  -0.0010089   0.0006773
   25  -0.0882231  -0.0842510  -0.0101333   0.0064082   0.0110388  -0.0015196
   26  -0.1067235  -0.2756494  -0.0586875  -0.0057071  -0.0031808   0.0059562
   27  -0.0108937  -0.0604665  -0.0550467   0.0009068  -0.0069596  -0.0033302
   28   0.0008220  -0.0006991   0.0004310  -0.2837763   0.0242854   0.0312035
   29   0.0143682   0.0030874  -0.0006472   0.0350735  -0.0580469  -0.0019145
   30   0.0090555   0.0040821  -0.0015036   0.0328709   0.0014894  -0.0477042
   31  -0.0004649  -0.0006664   0.0010188   0.0091490  -0.0108680   0.0039174
   32  -0.0006724  -0.0005093   0.0013651   0.0112978  -0.0074341   0.0056563
   33   0.0016160   0.0000357   0.0013212  -0.0046675   0.0069065   0.0062069
   34  -0.0114439  -0.0034335   0.0065824  -0.0931802   0.0284454  -0.0544776
   35  -0.0421228   0.0386415   0.0787375  -0.0007052  -0.0008262   0.0460884
   36  -0.0337311  -0.0023210   0.0249544  -0.0759436   0.0891903  -0.1512110
   37  -0.0015320   0.0047551   0.0023583   0.0047269   0.0146703  -0.0142813
   38   0.0059154  -0.0052845  -0.0159730  -0.0037350  -0.0107890  -0.0022206
   39   0.0058906  -0.0023965  -0.0181565   0.0109465   0.0074709  -0.0071068
           13          14          15          16          17          18
    1  -0.0369923   0.0418916  -0.0135821  -0.0930062   0.0380492  -0.0400806
    2   0.0432488  -0.0124038   0.0093492   0.0421487  -0.1749163   0.0532262
    3  -0.0230347   0.0144623  -0.0100028  -0.0346078   0.0472755  -0.0828907
    4  -0.0086409  -0.0025544   0.0058943   0.0171607  -0.0033087   0.0087490
    5  -0.0042303  -0.0028663   0.0033020   0.0162909  -0.0432478  -0.0118774
    6  -0.0017079   0.0019123   0.0026031   0.0045869   0.0000860   0.0121771
    7   0.0159286   0.0095024  -0.0119708  -0.0196683   0.0096408   0.0015587
    8  -0.0068049  -0.0267516  -0.0083751   0.0076343   0.0015260   0.0053865
    9   0.0017010   0.0055234   0.0103631   0.0021275  -0.0005158  -0.0043101
   10  -0.1153830  -0.0543694   0.0205600  -0.0468796  -0.0286368   0.0022023
   11  -0.0201310  -0.1720251   0.0497516  -0.0477831   0.0182153  -0.0036046
   12   0.0208702   0.0419966  -0.0807536   0.0120530   0.0116815   0.0238089
   13   0.8007140  -0.0902692   0.0837331  -0.5341191   0.0153733  -0.0668485
   14  -0.0902692   0.5992834  -0.1742569  -0.0139360  -0.1055894   0.0140137
   15   0.0837331  -0.1742569   0.2350067  -0.0491999   0.0163961  -0.0682472
   16  -0.5341191  -0.0139360  -0.0491999   0.7131130  -0.0359418   0.0938538
   17   0.0153733  -0.1055894   0.0163961  -0.0359418   0.3393780  -0.1058694
   18  -0.0668485   0.0140137  -0.0682472   0.0938538  -0.1058694   0.1488171
   19   0.0005532   0.0017215  -0.0014430  -0.0085752   0.0035348  -0.0050651
   20   0.0033938  -0.0051832   0.0030586   0.0335506  -0.0039714   0.0167442
   21  -0.0018206   0.0026460  -0.0001319  -0.0168015   0.0056214  -0.0060133
   22  -0.0001207  -0.0009554   0.0005028   0.0001910  -0.0009873  -0.0011095
   23   0.0012380  -0.0000255   0.0002227  -0.0007215  -0.0006020  -0.0032024
   24  -0.0007392  -0.0015481  -0.0002451  -0.0001482   0.0017169  -0.0023965
   25  -0.0022644  -0.0005489   0.0025088   0.0017776   0.0006568  -0.0004775
   26   0.0022216   0.0007133  -0.0019383  -0.0011102   0.0005923   0.0003496
   27   0.0018475   0.0015333   0.0007272  -0.0005861   0.0007067   0.0007079
   28  -0.0120674   0.0034234  -0.0010302  -0.0023278  -0.0013678   0.0008525
   29  -0.0268246   0.0071339   0.0008960  -0.0053307  -0.0043172   0.0010934
   30   0.0124327  -0.0036946  -0.0004379   0.0021352   0.0042572   0.0009969
   31  -0.1048591   0.0942972  -0.0316107  -0.0214178   0.0306057  -0.0130081
   32   0.1000275  -0.2563323   0.0710834   0.0032791   0.0054153  -0.0022056
   33  -0.0299895   0.0689541  -0.0597487  -0.0056057  -0.0034082  -0.0053078
   34   0.0027954   0.0154090  -0.0023936  -0.0102309  -0.0227805   0.0142073
   35  -0.0171272  -0.0245001   0.0258887  -0.0000740  -0.0314881   0.0343222
   36   0.0032857   0.0273609  -0.0294176  -0.0084019   0.0209981  -0.0162900
   37  -0.0055445  -0.0036118  -0.0019688   0.0039828  -0.0048377   0.0051657
   38  -0.0001158  -0.0014534   0.0046221   0.0019936  -0.0009946   0.0016236
   39   0.0002703   0.0010971   0.0002847   0.0005947   0.0010540  -0.0010525
           19          20          21          22          23          24
    1  -0.2984187  -0.0333262  -0.0734736   0.0081122   0.0174550   0.0065796
    2  -0.0258409  -0.0492261  -0.0126567  -0.0077118  -0.0122305  -0.0111666
    3  -0.0909638  -0.0120934  -0.0769301  -0.0009480  -0.0007814   0.0029477
    4  -0.0024317  -0.0277346  -0.0197023  -0.1891562   0.1240388   0.0319565
    5  -0.0009352  -0.0015141   0.0010974   0.1254958  -0.1730248  -0.0417063
    6  -0.0010403  -0.0106572  -0.0031784   0.0310758  -0.0436033  -0.0377573
    7   0.0007225   0.0013996   0.0008469  -0.0122687  -0.0054413  -0.0032144
    8  -0.0004826  -0.0050344  -0.0049087   0.0205613   0.0055253   0.0049123
    9  -0.0015287  -0.0040993  -0.0015687   0.0061811  -0.0023700   0.0080180
   10  -0.0015154  -0.0004944   0.0054377  -0.0038269  -0.0015087  -0.0035401
   11  -0.0014208  -0.0011899   0.0027203  -0.0014178  -0.0014136  -0.0010089
   12   0.0009891   0.0006016  -0.0022938  -0.0011226  -0.0014311   0.0006773
   13   0.0005532   0.0033938  -0.0018206  -0.0001207   0.0012380  -0.0007392
   14   0.0017215  -0.0051832   0.0026460  -0.0009554  -0.0000255  -0.0015481
   15  -0.0014430   0.0030586  -0.0001319   0.0005028   0.0002227  -0.0002451
   16  -0.0085752   0.0335506  -0.0168015   0.0001910  -0.0007215  -0.0001482
   17   0.0035348  -0.0039714   0.0056214  -0.0009873  -0.0006020   0.0017169
   18  -0.0050651   0.0167442  -0.0060133  -0.0011095  -0.0032024  -0.0023965
   19   0.3097340   0.0217587   0.1028431   0.0005964  -0.0005562   0.0003615
   20   0.0217587   0.0648293   0.0075825   0.0003671   0.0007835   0.0004717
   21   0.1028431   0.0075825   0.0771127   0.0003904   0.0008506   0.0005071
   22   0.0005964   0.0003671   0.0003904   0.1955314  -0.1359804  -0.0345744
   23  -0.0005562   0.0007835   0.0008506  -0.1359804   0.1776526   0.0484676
   24   0.0003615   0.0004717   0.0005071  -0.0345744   0.0484676   0.0335528
   25   0.0000080  -0.0015097  -0.0011451   0.0007004   0.0007210  -0.0003484
   26   0.0000816  -0.0000822   0.0001552  -0.0005082   0.0003129   0.0006679
   27  -0.0002619   0.0002997   0.0005848   0.0005695   0.0011913  -0.0035757
   28  -0.0000540   0.0001025   0.0004169   0.0002727  -0.0000067  -0.0003901
   29  -0.0000155   0.0001912  -0.0002340   0.0010662   0.0005564   0.0006817
   30  -0.0005451  -0.0000151   0.0016324   0.0007580   0.0002828   0.0007760
   31  -0.0004022   0.0013683  -0.0007495   0.0001278   0.0001985   0.0000347
   32   0.0001335  -0.0001821  -0.0002213   0.0001635   0.0002727  -0.0000608
   33   0.0001221  -0.0005117   0.0003415   0.0000991   0.0005255   0.0003875
   34   0.0006214   0.0010518   0.0019898  -0.0003321  -0.0001676   0.0039015
   35   0.0024222   0.0007812  -0.0028612  -0.0000474   0.0027358  -0.0015847
   36  -0.0028499  -0.0008872   0.0089741  -0.0018785   0.0004711  -0.0029313
   37  -0.0008383   0.0000724   0.0017678   0.0001727   0.0007311   0.0001210
   38  -0.0004010  -0.0002019   0.0002085  -0.0000456  -0.0005428   0.0001573
   39  -0.0006180  -0.0004944   0.0009637   0.0000563  -0.0006235   0.0000396
           25          26          27          28          29          30
    1  -0.0064893  -0.0002086  -0.0007461  -0.0013161  -0.0005797  -0.0055121
    2   0.0000686   0.0003151  -0.0020912  -0.0009486  -0.0018723   0.0022173
    3  -0.0002985  -0.0013939   0.0055207  -0.0013890   0.0023946  -0.0027611
    4  -0.0028614   0.0059883  -0.0207059   0.0012576  -0.0004624   0.0028200
    5  -0.0282876   0.0002471  -0.0049364  -0.0002194  -0.0051714  -0.0047119
    6  -0.0112004   0.0005684   0.0107351   0.0006541  -0.0016313  -0.0020713
    7  -0.0882231  -0.1067235  -0.0108937   0.0008220   0.0143682   0.0090555
    8  -0.0842510  -0.2756494  -0.0604665  -0.0006991   0.0030874   0.0040821
    9  -0.0101333  -0.0586875  -0.0550467   0.0004310  -0.0006472  -0.0015036
   10   0.0064082  -0.0057071   0.0009068  -0.2837763   0.0350735   0.0328709
   11   0.0110388  -0.0031808  -0.0069596   0.0242854  -0.0580469   0.0014894
   12  -0.0015196   0.0059562  -0.0033302   0.0312035  -0.0019145  -0.0477042
   13  -0.0022644   0.0022216   0.0018475  -0.0120674  -0.0268246   0.0124327
   14  -0.0005489   0.0007133   0.0015333   0.0034234   0.0071339  -0.0036946
   15   0.0025088  -0.0019383   0.0007272  -0.0010302   0.0008960  -0.0004379
   16   0.0017776  -0.0011102  -0.0005861  -0.0023278  -0.0053307   0.0021352
   17   0.0006568   0.0005923   0.0007067  -0.0013678  -0.0043172   0.0042572
   18  -0.0004775   0.0003496   0.0007079   0.0008525   0.0010934   0.0009969
   19   0.0000080   0.0000816  -0.0002619  -0.0000540  -0.0000155  -0.0005451
   20  -0.0015097  -0.0000822   0.0002997   0.0001025   0.0001912  -0.0000151
   21  -0.0011451   0.0001552   0.0005848   0.0004169  -0.0002340   0.0016324
   22   0.0007004  -0.0005082   0.0005695   0.0002727   0.0010662   0.0007580
   23   0.0007210   0.0003129   0.0011913  -0.0000067   0.0005564   0.0002828
   24  -0.0003484   0.0006679  -0.0035757  -0.0003901   0.0006817   0.0007760
   25   0.0933519   0.1057657   0.0246555  -0.0003391   0.0000113  -0.0000527
   26   0.1057657   0.2753419   0.0599062   0.0003176  -0.0005265  -0.0004054
   27   0.0246555   0.0599062   0.0330637   0.0000152  -0.0007995  -0.0000623
   28  -0.0003391   0.0003176   0.0000152   0.3068306  -0.0239288  -0.0297169
   29   0.0000113  -0.0005265  -0.0007995  -0.0239288   0.0552060  -0.0011301
   30  -0.0000527  -0.0004054  -0.0000623  -0.0297169  -0.0011301   0.0477816
   31   0.0003689  -0.0002885  -0.0000181   0.0004641   0.0006074  -0.0004268
   32   0.0003293  -0.0002860   0.0001154  -0.0005061   0.0003696  -0.0001440
   33  -0.0003422   0.0002763   0.0005488   0.0000920  -0.0000914  -0.0004489
   34  -0.0026252   0.0003912   0.0041070  -0.0103656   0.0059342  -0.0246659
   35  -0.0044703   0.0023794   0.0133070  -0.0004869   0.0040007  -0.0024280
   36  -0.0024248  -0.0047027   0.0118908  -0.0008550   0.0024761   0.0031388
   37   0.0001874  -0.0002198   0.0011101   0.0005993   0.0000809   0.0008472
   38   0.0004759  -0.0001770  -0.0018063   0.0000344  -0.0006109   0.0002004
   39   0.0007783  -0.0007520  -0.0017641  -0.0002839  -0.0010938   0.0006635
           31          32          33          34          35          36
    1  -0.0049914  -0.0003004   0.0004358   0.0160905   0.0442421  -0.0441339
    2  -0.0009957   0.0032094   0.0065078   0.0169211  -0.0306086  -0.0168393
    3  -0.0006911   0.0027337   0.0102690  -0.0344770  -0.0218483  -0.0114199
    4  -0.0000311  -0.0002606  -0.0001621   0.0114583   0.1058611   0.0993313
    5  -0.0006448   0.0005478   0.0020109   0.0280285   0.0244305  -0.0029275
    6  -0.0005989  -0.0003461  -0.0009095   0.0324706  -0.0396424  -0.0516205
    7  -0.0004649  -0.0006724   0.0016160  -0.0114439  -0.0421228  -0.0337311
    8  -0.0006664  -0.0005093   0.0000357  -0.0034335   0.0386415  -0.0023210
    9   0.0010188   0.0013651   0.0013212   0.0065824   0.0787375   0.0249544
   10   0.0091490   0.0112978  -0.0046675  -0.0931802  -0.0007052  -0.0759436
   11  -0.0108680  -0.0074341   0.0069065   0.0284454  -0.0008262   0.0891903
   12   0.0039174   0.0056563   0.0062069  -0.0544776   0.0460884  -0.1512110
   13  -0.1048591   0.1000275  -0.0299895   0.0027954  -0.0171272   0.0032857
   14   0.0942972  -0.2563323   0.0689541   0.0154090  -0.0245001   0.0273609
   15  -0.0316107   0.0710834  -0.0597487  -0.0023936   0.0258887  -0.0294176
   16  -0.0214178   0.0032791  -0.0056057  -0.0102309  -0.0000740  -0.0084019
   17   0.0306057   0.0054153  -0.0034082  -0.0227805  -0.0314881   0.0209981
   18  -0.0130081  -0.0022056  -0.0053078   0.0142073   0.0343222  -0.0162900
   19  -0.0004022   0.0001335   0.0001221   0.0006214   0.0024222  -0.0028499
   20   0.0013683  -0.0001821  -0.0005117   0.0010518   0.0007812  -0.0008872
   21  -0.0007495  -0.0002213   0.0003415   0.0019898  -0.0028612   0.0089741
   22   0.0001278   0.0001635   0.0000991  -0.0003321  -0.0000474  -0.0018785
   23   0.0001985   0.0002727   0.0005255  -0.0001676   0.0027358   0.0004711
   24   0.0000347  -0.0000608   0.0003875   0.0039015  -0.0015847  -0.0029313
   25   0.0003689   0.0003293  -0.0003422  -0.0026252  -0.0044703  -0.0024248
   26  -0.0002885  -0.0002860   0.0002763   0.0003912   0.0023794  -0.0047027
   27  -0.0000181   0.0001154   0.0005488   0.0041070   0.0133070   0.0118908
   28   0.0004641  -0.0005061   0.0000920  -0.0103656  -0.0004869  -0.0008550
   29   0.0006074   0.0003696  -0.0000914   0.0059342   0.0040007   0.0024761
   30  -0.0004268  -0.0001440  -0.0004489  -0.0246659  -0.0024280   0.0031388
   31   0.1224556  -0.1119988   0.0409092  -0.0011065  -0.0012853   0.0006722
   32  -0.1119988   0.2579149  -0.0779084  -0.0025260  -0.0027840  -0.0005615
   33   0.0409092  -0.0779084   0.0508768  -0.0027785  -0.0042384  -0.0035756
   34  -0.0011065  -0.0025260  -0.0027785   0.1805847   0.0028548   0.0016019
   35  -0.0012853  -0.0027840  -0.0042384   0.0028548   0.1740703  -0.2745601
   36   0.0006722  -0.0005615  -0.0035756   0.0016019  -0.2745601   0.3280088
   37   0.0007078   0.0010336   0.0002714  -0.0822659  -0.0890613   0.0653276
   38  -0.0003296  -0.0002020   0.0009413  -0.0701283  -0.1568326   0.1623030
   39   0.0005508   0.0004940   0.0000390   0.0539321   0.1488193  -0.1105009
           37          38          39
    1   0.0066588   0.0004820  -0.0049576
    2   0.0007556   0.0005354   0.0011413
    3  -0.0034902  -0.0043920   0.0016697
    4   0.0035159  -0.0136834  -0.0146688
    5  -0.0039056  -0.0022366  -0.0061932
    6  -0.0047376   0.0028590   0.0027808
    7  -0.0015320   0.0059154   0.0058906
    8   0.0047551  -0.0052845  -0.0023965
    9   0.0023583  -0.0159730  -0.0181565
   10   0.0047269  -0.0037350   0.0109465
   11   0.0146703  -0.0107890   0.0074709
   12  -0.0142813  -0.0022206  -0.0071068
   13  -0.0055445  -0.0001158   0.0002703
   14  -0.0036118  -0.0014534   0.0010971
   15  -0.0019688   0.0046221   0.0002847
   16   0.0039828   0.0019936   0.0005947
   17  -0.0048377  -0.0009946   0.0010540
   18   0.0051657   0.0016236  -0.0010525
   19  -0.0008383  -0.0004010  -0.0006180
   20   0.0000724  -0.0002019  -0.0004944
   21   0.0017678   0.0002085   0.0009637
   22   0.0001727  -0.0000456   0.0000563
   23   0.0007311  -0.0005428  -0.0006235
   24   0.0001210   0.0001573   0.0000396
   25   0.0001874   0.0004759   0.0007783
   26  -0.0002198  -0.0001770  -0.0007520
   27   0.0011101  -0.0018063  -0.0017641
   28   0.0005993   0.0000344  -0.0002839
   29   0.0000809  -0.0006109  -0.0010938
   30   0.0008472   0.0002004   0.0006635
   31   0.0007078  -0.0003296   0.0005508
   32   0.0010336  -0.0002020   0.0004940
   33   0.0002714   0.0009413   0.0000390
   34  -0.0822659  -0.0701283   0.0539321
   35  -0.0890613  -0.1568326   0.1488193
   36   0.0653276   0.1623030  -0.1105009
   37   0.0696290   0.0795375  -0.0524912
   38   0.0795375   0.1787900  -0.1485232
   39  -0.0524912  -0.1485232   0.1321399
 Gradient time:  CPU 258.43 s  wall 273.16 s
 **********************************************************************
 **                                                                  **
 **                       VIBRATIONAL ANALYSIS                       **
 **                       --------------------                       **
 **                                                                  **
 **        VIBRATIONAL FREQUENCIES (CM**-1) AND NORMAL MODES         **
 **     FORCE CONSTANTS (mDYN/ANGSTROM) AND REDUCED MASSES (AMU)     **
 **                  INFRARED INTENSITIES (KM/MOL)                   **
 **                                                                  **
 **********************************************************************
 

 Mode:                 1                      2                      3
 Frequency:      -833.50                -245.63                 371.38
 Force Cnst:      1.2767                 0.1617                 0.4851
 Red. Mass:       3.1190                 4.5484                 5.9696
 IR Active:          YES                    YES                    YES
 IR Intens:      103.074                 20.939                  6.626
 Raman Active:       YES                    YES                    YES
               X      Y      Z        X      Y      Z        X      Y      Z
 C         -0.057  0.002  0.035   -0.280 -0.098  0.259   -0.068  0.006 -0.022
 C         -0.119 -0.050  0.070    0.017 -0.003 -0.091    0.129 -0.098  0.038
 C          0.022 -0.083 -0.222   -0.005 -0.039  0.042    0.202 -0.265 -0.146
 C          0.044 -0.081  0.017   -0.023  0.040  0.010   -0.123  0.329  0.250
 C          0.002 -0.008  0.019   -0.006  0.021 -0.050   -0.043  0.167  0.106
 N          0.003  0.011 -0.010   -0.017 -0.007  0.018    0.000 -0.076 -0.163
 H         -0.041 -0.051 -0.003   -0.332 -0.113  0.419   -0.105  0.076  0.067
 H         -0.057 -0.009  0.073    0.070  0.102 -0.239    0.255 -0.020  0.209
 H          0.094 -0.049 -0.476   -0.042 -0.032  0.064    0.264 -0.316 -0.070
 H          0.040 -0.107  0.033   -0.002  0.015  0.158   -0.132  0.321  0.201
 H         -0.022 -0.001  0.077    0.016  0.003 -0.144    0.068  0.206  0.033
 C          0.077  0.261  0.160    0.310  0.063 -0.221   -0.114 -0.065 -0.063
 H          0.316 -0.427 -0.505    0.375  0.317  0.113   -0.142 -0.084 -0.118
 TransDip   0.166 -0.098 -0.261   -0.059 -0.039  0.128    0.025  0.057  0.054

 Mode:                 4                      5                      6
 Frequency:       403.51                 423.99                 493.45
 Force Cnst:      0.3717                 0.1338                 0.4762
 Red. Mass:       3.8752                 1.2633                 3.3190
 IR Active:          YES                    YES                    YES
 IR Intens:        1.745                 12.287                 13.046
 Raman Active:       YES                    YES                    YES
               X      Y      Z        X      Y      Z        X      Y      Z
 C          0.004  0.005  0.159    0.008 -0.017 -0.017   -0.001 -0.006 -0.003
 C          0.020  0.140 -0.017   -0.001 -0.013 -0.036    0.036 -0.134  0.222
 C          0.021  0.224 -0.126    0.023 -0.057 -0.077   -0.011  0.201 -0.081
 C         -0.019  0.016  0.172    0.010 -0.038  0.000    0.031 -0.049 -0.069
 C          0.005 -0.138 -0.099   -0.004 -0.009  0.029   -0.080  0.079  0.132
 N          0.009 -0.169 -0.156   -0.004  0.002  0.033   -0.052 -0.040 -0.146
 H         -0.020  0.061  0.208    0.022 -0.034 -0.052   -0.023  0.152  0.017
 H          0.006  0.197 -0.263    0.030  0.030 -0.081   -0.065 -0.304  0.472
 H          0.035  0.283 -0.386    0.051 -0.037 -0.211   -0.129  0.291 -0.238
 H         -0.017  0.040  0.158    0.008 -0.042 -0.013    0.027 -0.158 -0.010
 H          0.054 -0.237 -0.469   -0.015  0.012  0.106   -0.115  0.149  0.392
 C         -0.036 -0.080  0.141   -0.017  0.080  0.032    0.106 -0.071 -0.101
 H         -0.124  0.019  0.204   -0.267  0.674  0.614    0.058  0.198  0.189
 TransDip   0.012  0.041  0.003   -0.012  0.056  0.097   -0.034  0.033  0.106

 Mode:                 7                      8                      9
 Frequency:       570.04                 676.87                 688.75
 Force Cnst:      0.6065                 1.6216                 0.3846
 Red. Mass:       3.1680                 6.0074                 1.3760
 IR Active:          YES                    YES                    YES
 IR Intens:        0.548                  1.472                 37.870
 Raman Active:       YES                    YES                    YES
               X      Y      Z        X      Y      Z        X      Y      Z
 C         -0.070 -0.074  0.035    0.134 -0.155 -0.078   -0.055  0.010  0.014
 C          0.101  0.024 -0.132    0.186 -0.132 -0.108   -0.010  0.068 -0.105
 C          0.072  0.054  0.129    0.115  0.197 -0.033   -0.007  0.019 -0.081
 C          0.001 -0.075 -0.100   -0.109  0.142  0.018    0.033 -0.042  0.026
 C         -0.005  0.053  0.168   -0.144 -0.051 -0.100    0.023 -0.014  0.029
 N          0.029 -0.116 -0.151   -0.202 -0.191  0.250    0.028  0.003 -0.025
 H         -0.134 -0.016  0.201    0.152  0.004 -0.158   -0.073 -0.056  0.071
 H          0.121  0.137 -0.448    0.018 -0.413  0.267   -0.074 -0.235  0.739
 H         -0.005  0.065  0.229   -0.055  0.189  0.330    0.044 -0.150  0.558
 H         -0.027 -0.180 -0.239   -0.120 -0.012  0.085    0.030 -0.043 -0.022
 H         -0.006  0.176  0.530    0.055  0.024 -0.195   -0.004 -0.042 -0.008
 C         -0.122  0.146  0.070    0.044  0.239  0.004   -0.007 -0.003  0.029
 H         -0.087 -0.105 -0.201    0.072  0.007 -0.252   -0.036  0.033  0.058
 TransDip  -0.008 -0.003 -0.022    0.019 -0.005 -0.033   -0.036 -0.026  0.192

 Mode:                10                     11                     12
 Frequency:       771.87                 881.92                 894.50
 Force Cnst:      1.5626                 0.7096                 1.3760
 Red. Mass:       4.4514                 1.5486                 2.9189
 IR Active:          YES                    YES                    YES
 IR Intens:        8.674                  0.727                 12.713
 Raman Active:       YES                    YES                    YES
               X      Y      Z        X      Y      Z        X      Y      Z
 C         -0.200 -0.070 -0.049    0.016  0.010  0.005   -0.022  0.016 -0.070
 C          0.084 -0.223 -0.084    0.013 -0.086  0.085    0.081 -0.097 -0.064
 C          0.057  0.058  0.031   -0.018  0.051 -0.132    0.025  0.052  0.060
 C          0.257  0.020  0.075   -0.005 -0.017  0.037   -0.166 -0.038  0.082
 C         -0.029  0.127 -0.135    0.006 -0.057  0.026    0.061 -0.174  0.104
 N         -0.049  0.170  0.009    0.019  0.068 -0.006    0.103  0.168 -0.023
 H         -0.256 -0.020  0.069   -0.011  0.022  0.079   -0.165 -0.055  0.336
 H          0.143 -0.155 -0.104    0.044  0.123 -0.554   -0.018 -0.280  0.198
 H         -0.385  0.282 -0.089   -0.049 -0.145  0.747   -0.166  0.256 -0.449
 H          0.209 -0.183 -0.155    0.001  0.039  0.050   -0.172  0.124 -0.076
 H         -0.172 -0.001 -0.296   -0.091 -0.128 -0.017   -0.123 -0.377 -0.175
 C         -0.046 -0.095  0.197   -0.019  0.024 -0.036   -0.061  0.073 -0.069
 H         -0.317 -0.101  0.036   -0.079  0.046 -0.046    0.198 -0.004 -0.017
 TransDip  -0.050 -0.009 -0.079    0.018 -0.018  0.009   -0.084 -0.077 -0.002

 Mode:                13                     14                     15
 Frequency:       910.83                 983.09                1018.69
 Force Cnst:      0.6965                 1.0724                 1.4471
 Red. Mass:       1.4250                 1.8832                 2.3668
 IR Active:          YES                    YES                    YES
 IR Intens:        7.963                  0.580                  7.503
 Raman Active:       YES                    YES                    YES
               X      Y      Z        X      Y      Z        X      Y      Z
 C         -0.026 -0.001 -0.009   -0.062 -0.047 -0.054    0.173 -0.031  0.132
 C          0.012  0.009  0.005    0.027 -0.004  0.040    0.016 -0.054 -0.077
 C          0.005  0.014 -0.003    0.028  0.042 -0.034   -0.042 -0.020 -0.000
 C         -0.008  0.040  0.031   -0.172 -0.035 -0.022   -0.088 -0.102  0.036
 C          0.017 -0.106 -0.144    0.045  0.080 -0.069   -0.031  0.145 -0.097
 N          0.010  0.027  0.009    0.040  0.021  0.014    0.010  0.089 -0.048
 H         -0.076  0.011  0.117   -0.023 -0.110 -0.144    0.066  0.137  0.399
 H          0.008 -0.009  0.052    0.084  0.083 -0.057   -0.326 -0.421 -0.107
 H          0.039  0.007 -0.032    0.137 -0.048  0.151    0.188 -0.121 -0.036
 H          0.014  0.192  0.099   -0.218 -0.071 -0.336   -0.072 -0.301  0.414
 H         -0.121  0.173  0.914    0.216  0.215  0.021    0.072  0.262  0.030
 C          0.009 -0.017  0.017    0.018 -0.057  0.118   -0.027 -0.003  0.007
 H         -0.096 -0.019 -0.039    0.615 -0.093  0.426   -0.082 -0.017 -0.034
 TransDip  -0.011 -0.003  0.090   -0.005 -0.009  0.022    0.015  0.038  0.078

 Mode:                16                     17                     18
 Frequency:      1050.54                1064.22                1101.91
 Force Cnst:      1.3570                 1.0950                 1.0454
 Red. Mass:       2.0870                 1.6409                 1.4613
 IR Active:          YES                    YES                    YES
 IR Intens:       19.246                 23.301                  4.335
 Raman Active:       YES                    YES                    YES
               X      Y      Z        X      Y      Z        X      Y      Z
 C          0.093 -0.003  0.180    0.032  0.137 -0.080   -0.023 -0.093 -0.037
 C          0.000 -0.039 -0.074   -0.018 -0.040 -0.024   -0.033  0.019  0.027
 C         -0.011 -0.061 -0.026   -0.038 -0.033 -0.013    0.038  0.054  0.033
 C          0.001  0.116 -0.089   -0.015  0.032 -0.038   -0.031  0.042 -0.056
 C         -0.052 -0.052  0.037   -0.001 -0.005  0.019   -0.024 -0.016  0.036
 N         -0.033  0.056 -0.056   -0.016 -0.075  0.032    0.000  0.052 -0.021
 H          0.246  0.130 -0.244   -0.294  0.274  0.765   -0.045 -0.181  0.028
 H         -0.137 -0.205 -0.041   -0.055 -0.065 -0.089   -0.237 -0.155 -0.085
 H         -0.263  0.031  0.048   -0.074 -0.031  0.030    0.712 -0.224 -0.043
 H         -0.029  0.334 -0.546   -0.045  0.064 -0.342   -0.021  0.177 -0.101
 H         -0.305 -0.173  0.096    0.174  0.068 -0.050   -0.139 -0.132 -0.120
 C          0.028 -0.031  0.081    0.093 -0.030  0.072    0.084 -0.027  0.060
 H          0.238 -0.062  0.167   -0.116  0.011  0.020   -0.407  0.031 -0.135
 TransDip  -0.034 -0.125  0.054    0.092  0.107 -0.063    0.029 -0.010 -0.059

 Mode:                19                     20                     21
 Frequency:      1121.95                1158.97                1192.91
 Force Cnst:      1.2370                 0.9636                 1.3443
 Red. Mass:       1.6680                 1.2176                 1.6033
 IR Active:          YES                    YES                    YES
 IR Intens:        5.575                  8.855                  3.215
 Raman Active:       YES                    YES                    YES
               X      Y      Z        X      Y      Z        X      Y      Z
 C          0.029 -0.037 -0.029   -0.020 -0.009 -0.025    0.107 -0.142 -0.038
 C         -0.046  0.024  0.015    0.031 -0.002 -0.001    0.012  0.075  0.039
 C         -0.006  0.022  0.015   -0.001 -0.000 -0.007   -0.043 -0.033 -0.020
 C          0.135  0.025  0.106    0.039 -0.024 -0.094    0.001  0.024 -0.020
 C         -0.008  0.007 -0.018    0.006  0.014  0.019   -0.068  0.030 -0.008
 N         -0.035 -0.023  0.014   -0.028 -0.014  0.005   -0.007  0.043 -0.028
 H         -0.084 -0.007  0.264   -0.101  0.107  0.159   -0.067 -0.456  0.499
 H         -0.256 -0.152 -0.119   -0.054 -0.083 -0.042    0.363  0.395  0.210
 H          0.391 -0.140 -0.056    0.083 -0.035  0.000   -0.253  0.049  0.016
 H          0.064 -0.132 -0.441    0.177  0.623  0.562   -0.004 -0.007 -0.003
 H         -0.195 -0.071  0.071   -0.068 -0.060 -0.077   -0.272 -0.086 -0.036
 C         -0.101  0.028 -0.098   -0.055 -0.004  0.034    0.016  0.006  0.022
 H          0.534 -0.008  0.190    0.348 -0.058  0.203    0.038 -0.013  0.016
 TransDip   0.018  0.036  0.064    0.041 -0.018  0.084    0.027 -0.035  0.037

 Mode:                22                     23                     24
 Frequency:      1283.87                1329.70                1378.21
 Force Cnst:      1.4660                 1.4921                 1.9291
 Red. Mass:       1.5096                 1.4323                 1.7238
 IR Active:          YES                    YES                    YES
 IR Intens:       21.649                 10.170                  8.349
 Raman Active:       YES                    YES                    YES
               X      Y      Z        X      Y      Z        X      Y      Z
 C         -0.016  0.048 -0.024    0.014 -0.036 -0.002   -0.016 -0.180 -0.050
 C         -0.055  0.057  0.035    0.015  0.058  0.031    0.013  0.123  0.056
 C          0.155 -0.029 -0.003    0.045 -0.019 -0.002    0.016 -0.049 -0.020
 C         -0.001  0.058 -0.054    0.013 -0.116  0.081   -0.003  0.040 -0.012
 C         -0.042 -0.027  0.001   -0.010  0.010 -0.002    0.044 -0.037  0.019
 N          0.025 -0.006  0.002   -0.074  0.032 -0.022   -0.012  0.046 -0.004
 H         -0.021 -0.503  0.108    0.028 -0.222 -0.001   -0.140  0.835  0.011
 H         -0.479 -0.308 -0.190   -0.183 -0.119 -0.059   -0.239 -0.100 -0.044
 H         -0.344  0.185  0.110   -0.226  0.102  0.022   -0.270  0.066  0.036
 H         -0.004 -0.302  0.237    0.034  0.607 -0.340   -0.023 -0.229  0.040
 H          0.002 -0.002  0.016    0.456  0.266 -0.037    0.118 -0.017 -0.034
 C         -0.006 -0.022  0.011    0.013  0.010 -0.036    0.008  0.002  0.012
 H          0.083  0.002  0.095   -0.144  0.029 -0.111   -0.034  0.003 -0.010
 TransDip  -0.058 -0.136 -0.016    0.070  0.008 -0.074   -0.060 -0.071  0.001

 Mode:                25                     26                     27
 Frequency:      1381.09                1539.41                1649.64
 Force Cnst:      1.8505                 5.0512                11.1057
 Red. Mass:       1.6467                 3.6177                 6.9266
 IR Active:          YES                    YES                    YES
 IR Intens:       19.700                  9.169                 18.101
 Raman Active:       YES                    YES                    YES
               X      Y      Z        X      Y      Z        X      Y      Z
 C          0.016 -0.013  0.025   -0.071  0.052 -0.025    0.051  0.019  0.019
 C         -0.007 -0.041 -0.022    0.339  0.115  0.076   -0.067 -0.033 -0.017
 C         -0.040  0.015  0.004   -0.281 -0.071 -0.051    0.069  0.003  0.008
 C          0.057  0.093 -0.049    0.022  0.039 -0.004   -0.072  0.021 -0.012
 C         -0.031 -0.134  0.052    0.043 -0.006  0.012    0.540  0.055  0.031
 N         -0.070  0.083 -0.043   -0.030 -0.020  0.001   -0.428  0.021 -0.069
 H          0.012 -0.140  0.067    0.016 -0.472 -0.141    0.030 -0.341  0.136
 H          0.162  0.106  0.059   -0.272 -0.501 -0.226    0.045  0.077  0.026
 H          0.207 -0.091 -0.030   -0.036 -0.218 -0.173   -0.050  0.055  0.048
 H          0.058 -0.258  0.152   -0.002 -0.226 -0.031   -0.085 -0.264  0.129
 H          0.789  0.279 -0.017   -0.051 -0.069  0.006   -0.274 -0.381  0.153
 C         -0.031 -0.006  0.014    0.014  0.023  0.043    0.013 -0.019  0.011
 H          0.157 -0.028  0.091   -0.037 -0.035 -0.057   -0.079  0.011 -0.007
 TransDip   0.052 -0.086  0.100   -0.086  0.043  0.010    0.131  0.038  0.004

 Mode:                28                     29                     30
 Frequency:      2973.98                3075.25                3102.73
 Force Cnst:      5.6715                 6.0515                 6.1697
 Red. Mass:       1.0884                 1.0861                 1.0877
 IR Active:          YES                    YES                    YES
 IR Intens:       17.381                  1.362                 11.947
 Raman Active:       YES                    YES                    YES
               X      Y      Z        X      Y      Z        X      Y      Z
 C          0.001 -0.000 -0.000    0.006 -0.001  0.001    0.000  0.000 -0.001
 C          0.001 -0.001  0.000   -0.055  0.053  0.015   -0.006  0.004  0.000
 C          0.002  0.001 -0.000   -0.012 -0.029 -0.005    0.009  0.015  0.003
 C         -0.085  0.007  0.010   -0.001  0.001  0.000   -0.005 -0.001 -0.002
 C          0.002 -0.002  0.000    0.000  0.000  0.000   -0.000 -0.001  0.000
 N          0.000  0.000  0.000    0.000 -0.001  0.000    0.000  0.000 -0.000
 H          0.003  0.001  0.000   -0.076 -0.004 -0.027   -0.003  0.001  0.002
 H         -0.005  0.006  0.001    0.644 -0.613 -0.174    0.053 -0.049 -0.014
 H         -0.008 -0.009 -0.003    0.160  0.363  0.089   -0.082 -0.183 -0.042
 H          0.983 -0.095 -0.112    0.013 -0.003 -0.004    0.032 -0.002  0.001
 H         -0.025  0.037 -0.012   -0.001  0.001 -0.001   -0.008  0.012 -0.002
 C          0.001  0.002 -0.001   -0.000 -0.002 -0.001   -0.025 -0.058  0.054
 H         -0.013 -0.028  0.020    0.003  0.014 -0.008    0.328  0.704 -0.585
 TransDip  -0.133  0.010 -0.009   -0.031  0.021 -0.003   -0.005 -0.042  0.102

 Mode:                31                     32                     33
 Frequency:      3106.12                3139.60                3152.08
 Force Cnst:      6.2533                 6.3488                 6.3773
 Red. Mass:       1.1001                 1.0932                 1.0894
 IR Active:          YES                    YES                    YES
 IR Intens:        9.532                 23.215                 19.357
 Raman Active:       YES                    YES                    YES
               X      Y      Z        X      Y      Z        X      Y      Z
 C         -0.005  0.001 -0.001    0.008  0.002  0.003   -0.078 -0.008 -0.031
 C          0.031 -0.023 -0.006    0.000 -0.000 -0.000   -0.007  0.007  0.002
 C         -0.038 -0.069 -0.017    0.000  0.001  0.000    0.002  0.002  0.001
 C         -0.001  0.001  0.000    0.005  0.002 -0.001    0.002  0.000  0.000
 C          0.001 -0.001  0.001    0.041 -0.073  0.025    0.005 -0.008  0.003
 N         -0.000  0.000 -0.000   -0.002 -0.000  0.000   -0.001  0.000 -0.000
 H          0.058  0.002  0.021   -0.101 -0.010 -0.039    0.920  0.083  0.343
 H         -0.280  0.263  0.072   -0.002  0.002  0.000    0.066 -0.066 -0.018
 H          0.357  0.791  0.182   -0.005 -0.014 -0.004   -0.010 -0.021 -0.004
 H          0.014 -0.006 -0.003   -0.044 -0.001  0.008   -0.006 -0.000  0.003
 H         -0.011  0.020 -0.005   -0.459  0.830 -0.280   -0.050  0.088 -0.031
 C         -0.006 -0.012  0.013   -0.000  0.001 -0.002    0.001  0.000  0.000
 H          0.074  0.156 -0.133   -0.003 -0.012  0.010   -0.005 -0.009  0.008
 TransDip  -0.017 -0.093 -0.030    0.080 -0.118  0.059   -0.130 -0.008 -0.055

 STANDARD THERMODYNAMIC QUANTITIES AT   298.15 K  AND     1.00 ATM

   This Molecule has  2 Imaginary Frequencies
   Zero point vibrational energy:       61.316 kcal/mol

   Atom    1 Element C  Has Mass   12.00000
   Atom    2 Element C  Has Mass   12.00000
   Atom    3 Element C  Has Mass   12.00000
   Atom    4 Element C  Has Mass   12.00000
   Atom    5 Element C  Has Mass   12.00000
   Atom    6 Element N  Has Mass   14.00307
   Atom    7 Element H  Has Mass    1.00783
   Atom    8 Element H  Has Mass    1.00783
   Atom    9 Element H  Has Mass    1.00783
   Atom   10 Element H  Has Mass    1.00783
   Atom   11 Element H  Has Mass    1.00783
   Atom   12 Element C  Has Mass   12.00000
   Atom   13 Element H  Has Mass    1.00783
   Molecular Mass:    92.050050 amu
   Principal axes and moments of inertia in amu*Bohr^2:
                             1           2           3
    Eigenvalues --      387.61043   475.54664   622.60228
          X              -0.01899     0.99395     0.10816
          Y               0.99960     0.01658     0.02310
          Z              -0.02116    -0.10856     0.99386
   Rotational Symmetry Number is   1
   The Molecule is an Asymmetric Top
   Translational Enthalpy:        0.889 kcal/mol
   Rotational Enthalpy:           0.889 kcal/mol
   Vibrational Enthalpy:         62.628 kcal/mol
   gas constant (RT):             0.592 kcal/mol
   Translational Entropy:        39.471  cal/mol.K
   Rotational Entropy:           26.242  cal/mol.K
   Vibrational Entropy:           6.048  cal/mol.K

   Total Enthalpy:               64.998 kcal/mol
   Total Entropy:                71.761  cal/mol.K
Archival summary:
1\1\c8-89\FREQ\ProcedureUnspecified\6-31G*\166(2)\hpark21\WedMar212:56:412022WedMar212:56:412022\0\\#,FREQ,ProcedureUnspecified,6-31G*,\\0,2\N\C,1,1.28745\H,2,1.09384,1,120.15\C,1,1.41725,2,110.448,3,171.721,0\H,4,1.09099,1,108.896,2,-167.238,0\C,4,1.46968,1,117.867,2,59.5673,0\H,6,1.10001,4,121.375,1,129.559,0\C,6,1.3587,4,110.426,1,-63.624,0\H,8,1.09848,6,119.729,4,-159.878,0\C,2,1.47853,1,114.174,3,-169.543,0\H,10,1.11009,2,111.925,1,162.319,0\C,10,1.49447,2,104.634,1,33.6428,0\H,12,1.09811,10,117.705,2,169.221,0\\\@

 Total job time:  287.92s(wall), 262.02s(cpu) 
 Wed Mar  2 12:56:41 2022

        *************************************************************
        *                                                           *
        *  Thank you very much for using Q-Chem.  Have a nice day.  *
        *                                                           *
        *************************************************************


