13
image # 1 Energy = -286.85167
C 1.11872   0.22621   0.47581   
C 0.87171   -0.98097  -0.44248  
C -0.44952  -1.02331  -0.67931  
C -1.07630  0.15622   0.09131   
C -0.44511  1.42779   -0.51150  
N 0.81380   1.49071   -0.31309  
H 2.08968   0.28313   0.96557   
H 1.64337   -1.63483  -0.83362  
H -0.99865  -1.71283  -1.31122  
H -2.15824  0.14372   0.22344   
H -0.98817  2.18860   -1.06966  
C -0.14908  0.08927   1.30921   
H -0.27221  -0.65371  2.09554   
13
image # 2 Energy = -286.84717
C 1.13451   0.23712   0.44218   
C 0.89094   -0.97496  -0.45108  
C -0.43538  -1.04549  -0.65534  
C -1.08827  0.17893   0.08128   
C -0.44453  1.44746   -0.49935  
N 0.81649   1.49580   -0.32635  
H 2.14500   0.30734   0.89239   
H 1.66745   -1.64709  -0.81694  
H -0.96012  -1.79885  -1.24120  
H -2.18799  0.20957   0.21997   
H -0.98797  2.23614   -1.01701  
C -0.17830  0.05427   1.29328   
H -0.37735  -0.71169  2.06474   
13
image # 3 Energy = -286.83841
C 1.15384   0.24325   0.43244   
C 0.90529   -0.97525  -0.46166  
C -0.43112  -1.06258  -0.64886  
C -1.10328  0.18559   0.06562   
C -0.44913  1.46768   -0.49063  
N 0.82027   1.49985   -0.33294  
H 2.17529   0.33172   0.80848   
H 1.68703   -1.65419  -0.79490  
H -0.91607  -1.88426  -1.15623  
H -2.19282  0.27233   0.21012   
H -0.98575  2.28772   -0.95805  
C -0.19132  0.02950   1.29674   
H -0.48228  -0.76116  2.00975   
13
image # 4 Energy = -286.82284
C 1.17002   0.24526   0.39722   
C 0.90956   -0.96862  -0.46250  
C -0.41008  -1.07886  -0.63825  
C -1.10768  0.21091   0.05446   
C -0.44255  1.47389   -0.47484  
N 0.81474   1.50678   -0.33314  
H 2.21263   0.35648   0.72623   
H 1.70684   -1.66188  -0.76999  
H -0.87276  -1.97484  -1.06641  
H -2.19546  0.33102   0.20028   
H -0.98335  2.34369   -0.89479  
C -0.22767  0.00072   1.29024   
H -0.58907  -0.81017  1.94714   
13
image # 5 Energy = -286.80482
C 1.18045   0.25355   0.36192   
C 0.93185   -0.96861  -0.46323  
C -0.40908  -1.10023  -0.63207  
C -1.10344  0.23271   0.04581   
C -0.45449  1.49360   -0.46600  
N 0.82351   1.51080   -0.32706  
H 2.24608   0.37670   0.65256   
H 1.71817   -1.66428  -0.74320  
H -0.82989  -2.04818  -0.97834  
H -2.19688  0.38023   0.19013   
H -0.97464  2.38392   -0.83065  
C -0.26436  -0.02095  1.27664   
H -0.68626  -0.85767  1.88608   
13
image # 6 Energy = -286.78285
C 1.20482   0.27171   0.33208   
C 0.93399   -0.97404  -0.47185  
C -0.39478  -1.12175  -0.62222  
C -1.11245  0.24927   0.03177   
C -0.44406  1.52412   -0.45524  
N 0.81630   1.52004   -0.32506  
H 2.27432   0.39334   0.57759   
H 1.73330   -1.67017  -0.71314  
H -0.78545  -2.11624  -0.88118  
H -2.19610  0.42502   0.17849   
H -0.96474  2.42143   -0.76064  
C -0.30367  -0.04540  1.26496   
H -0.78439  -0.90648  1.81676   
13
image # 7 Energy = -286.75860
C 1.22494   0.28386   0.29281   
C 0.94082   -0.96752  -0.47913  
C -0.38356  -1.14343  -0.60803  
C -1.11862  0.27017   0.01431   
C -0.44652  1.53110   -0.43512  
N 0.83146   1.53603   -0.32120  
H 2.30653   0.40851   0.50715   
H 1.75064   -1.68011  -0.68535  
H -0.74293  -2.17349  -0.78598  
H -2.20132  0.46573   0.16780   
H -0.96026  2.46707   -0.70059  
C -0.35061  -0.07718  1.26209   
H -0.87724  -0.94942  1.74502   
13
image # 8 Energy = -286.72650
C 1.29599   0.30796   0.22841   
C 0.97425   -0.95270  -0.46337  
C -0.36438  -1.17062  -0.55057  
C -1.14940  0.31607   0.03703   
C -0.44950  1.54259   -0.42175  
N 0.83711   1.52977   -0.31457  
H 2.35679   0.42576   0.45517   
H 1.77788   -1.68342  -0.68702  
H -0.70843  -2.19676  -0.77596  
H -2.24074  0.52051   0.18388   
H -0.95398  2.47746   -0.69526  
C -0.42361  -0.17514  1.22918   
H -0.98300  -0.96831  1.74928   
13
image # 9 Energy = -286.74420
C 1.35297   0.31875   0.16696   
C 1.02461   -0.94865  -0.47100  
C -0.34177  -1.17308  -0.47441  
C -1.18327  0.36881   0.05283   
C -0.44687  1.54834   -0.40786  
N 0.83352   1.53403   -0.30349  
H 2.41288   0.44394   0.40796   
H 1.79424   -1.67746  -0.68842  
H -0.67866  -2.21240  -0.74973  
H -2.26960  0.57187   0.19447   
H -0.94577  2.48473   -0.69488  
C -0.50099  -0.29032  1.18328   
H -1.08805  -0.99280  1.75685   
13
image # 10 Energy = -286.79588
C 1.42580   0.32371   0.09889   
C 1.05921   -0.92228  -0.48686  
C -0.32029  -1.15430  -0.35423  
C -1.21089  0.41736   0.07489   
C -0.45461  1.54893   -0.39619  
N 0.83486   1.53200   -0.28132  
H 2.47149   0.46542   0.37843   
H 1.81287   -1.67306  -0.70522  
H -0.66591  -2.17530  -0.72731  
H -2.28898  0.60963   0.19837   
H -0.93522  2.47261   -0.72461  
C -0.58142  -0.44484  1.08693   
H -1.18898  -1.02135  1.80852   
13
image # 11 Energy = -286.81855
C 1.48619   0.33692   0.02893   
C 1.08579   -0.90015  -0.49527  
C -0.27812  -1.17914  -0.26750  
C -1.23767  0.46967   0.11240   
C -0.45941  1.55129   -0.37801  
N 0.84371   1.52728   -0.25017  
H 2.52755   0.48395   0.34969   
H 1.82495   -1.66680  -0.72925  
H -0.64968  -2.14655  -0.69236  
H -2.31398  0.64918   0.20080   
H -0.92287  2.45910   -0.74748  
C -0.68165  -0.55676  1.01329   
H -1.27000  -1.04823  1.82431   
13
image # 12 Energy = -286.84629
C 1.53586   0.37167   -0.02077  
C 1.10383   -0.89987  -0.48688  
C -0.19905  -1.24278  -0.20376  
C -1.27783  0.53073   0.17875   
C -0.46354  1.52752   -0.35213  
N 0.86528   1.51270   -0.21445  
H 2.56999   0.49720   0.33160   
H 1.82722   -1.64986  -0.77999  
H -0.65042  -2.12024  -0.68502  
H -2.35068  0.68557   0.19422   
H -0.90692  2.43269   -0.78240  
C -0.78729  -0.59455  0.95840   
H -1.31346  -1.06879  1.83151   
13
image # 13 Energy = -286.85636
C 1.52400   0.38463   -0.01597  
C 1.09984   -0.92630  -0.46587  
C -0.19569  -1.30545  -0.21491  
C -1.28876  0.57595   0.18253   
C -0.46233  1.56108   -0.33359  
N 0.87714   1.53083   -0.18652  
H 2.56826   0.49279   0.28240   
H 1.83434   -1.65822  -0.78371  
H -0.56382  -2.27103  -0.60184  
H -2.35728  0.75705   0.23395   
H -0.91048  2.49012   -0.71389  
C -0.79165  -0.56344  0.90332   
H -1.38139  -1.08261  1.68345   
13
image # 14 Energy = -286.86426
C 1.53004   0.39526   -0.04695  
C 1.10610   -0.93128  -0.45179  
C -0.17167  -1.35126  -0.20945  
C -1.30120  0.59863   0.19912   
C -0.46784  1.58636   -0.31323  
N 0.89676   1.53946   -0.18565  
H 2.58847   0.50454   0.19775   
H 1.85533   -1.66824  -0.74034  
H -0.50412  -2.34134  -0.54120  
H -2.36398  0.80678   0.25175   
H -0.90535  2.52543   -0.64492  
C -0.83974  -0.56655  0.88132   
H -1.47053  -1.10842  1.57416   
13
image # 15 Energy = -286.87528
C 1.54300   0.40671   -0.08745  
C 1.11572   -0.93646  -0.43956  
C -0.15045  -1.37329  -0.17793  
C -1.30207  0.62094   0.21647   
C -0.45833  1.58766   -0.28321  
N 0.89927   1.54739   -0.19430  
H 2.61407   0.51970   0.10785   
H 1.87777   -1.67291  -0.68999  
H -0.45169  -2.38733  -0.48466  
H -2.37176  0.85017   0.26870   
H -0.90084  2.56018   -0.58382  
C -0.89199  -0.59130  0.83017   
H -1.56706  -1.13865  1.48971   
13
image # 16 Energy = -286.88532
C 1.55740   0.41832   -0.13113  
C 1.13490   -0.93903  -0.42116  
C -0.13382  -1.40153  -0.14350  
C -1.31709  0.64059   0.23627   
C -0.45995  1.61229   -0.25996  
N 0.90787   1.54661   -0.20971  
H 2.63502   0.53503   0.00773   
H 1.90071   -1.67276  -0.63228  
H -0.39716  -2.42459  -0.42361  
H -2.36796  0.89111   0.28688   
H -0.88690  2.57897   -0.50991  
C -0.94708  -0.61931  0.77163   
H -1.66483  -1.16860  1.40095   
13
image # 17 Energy = -286.89359
C 1.57102   0.41675   -0.17556  
C 1.13909   -0.94074  -0.38720  
C -0.11018  -1.41366  -0.11294  
C -1.32059  0.66815   0.24192   
C -0.47120  1.61485   -0.22806  
N 0.91384   1.55210   -0.23423  
H 2.65001   0.54974   -0.09491  
H 1.92919   -1.67140  -0.57474  
H -0.34478  -2.46030  -0.36126  
H -2.36674  0.93032   0.30928   
H -0.87048  2.60289   -0.43304  
C -1.00357  -0.65992  0.72142   
H -1.74744  -1.18771  1.30306   
13
image # 18 Energy = -286.89912
C 1.56801   0.42642   -0.21476  
C 1.16050   -0.94606  -0.35469  
C -0.11205  -1.43174  -0.08788  
C -1.32478  0.65880   0.24851   
C -0.46121  1.61933   -0.19469  
N 0.91970   1.55071   -0.26435  
H 2.65935   0.56075   -0.19824  
H 1.95374   -1.66452  -0.51581  
H -0.29098  -2.48918  -0.28653  
H -2.36977  0.96733   0.33168   
H -0.85410  2.63372   -0.35320  
C -1.04543  -0.67325  0.67062   
H -1.82836  -1.20947  1.19642   
13
image # 19 Energy = -286.90372
C 1.58069   0.42836   -0.24572  
C 1.16608   -0.95107  -0.31990  
C -0.10061  -1.43791  -0.06661  
C -1.34251  0.66579   0.23973   
C -0.45003  1.63597   -0.15581  
N 0.91651   1.55792   -0.29658  
H 2.65549   0.56759   -0.29972  
H 1.98180   -1.66004  -0.46714  
H -0.24098  -2.51890  -0.19601  
H -2.36679  0.99915   0.35933   
H -0.83164  2.64609   -0.27462  
C -1.07735  -0.69455  0.62248   
H -1.91000  -1.23393  1.08171   
13
image # 20 Energy = -286.91097
C 1.57714   0.43077   -0.27970  
C 1.18786   -0.94408  -0.29761  
C -0.09213  -1.44962  -0.02592  
C -1.34289  0.68159   0.24337   
C -0.45229  1.63595   -0.12249  
N 0.92590   1.55527   -0.30976  
H 2.66009   0.57158   -0.37912  
H 1.99654   -1.65493  -0.43720  
H -0.20545  -2.53270  -0.11357  
H -2.36855  1.02310   0.38444   
H -0.81649  2.65432   -0.21770  
C -1.11689  -0.71348  0.55918   
H -1.96683  -1.25244  0.98144   
13
image # 21 Energy = -286.91643
C 1.58986   0.40916   -0.31554  
C 1.21019   -0.92681  -0.26692  
C -0.08370  -1.46248  0.01222   
C -1.35496  0.68082   0.24701   
C -0.42882  1.63959   -0.09269  
N 0.90741   1.56924   -0.32162  
H 2.65216   0.57259   -0.47455  
H 2.01362   -1.65146  -0.40668  
H -0.16699  -2.54492  -0.00866  
H -2.36721  1.04609   0.41670   
H -0.79898  2.66664   -0.14772  
C -1.15893  -0.72380  0.50070   
H -2.02235  -1.26981  0.84935   
13
image # 22 Energy = -286.92179
C 1.59404   0.40515   -0.35958  
C 1.22243   -0.92024  -0.24211  
C -0.06897  -1.46688  0.06436   
C -1.36092  0.68404   0.26046   
C -0.41857  1.64253   -0.05885  
N 0.90618   1.57091   -0.32553  
H 2.64759   0.57000   -0.56661  
H 2.02507   -1.64815  -0.37978  
H -0.13760  -2.54266  0.10411   
H -2.36557  1.06195   0.44794   
H -0.78456  2.67052   -0.08309  
C -1.19341  -0.73395  0.42088   
H -2.06963  -1.29014  0.71474   
13
image # 23 Energy = -286.92435
C 1.59159   0.40390   -0.40139  
C 1.23277   -0.91844  -0.21933  
C -0.06214  -1.45094  0.12069   
C -1.36659  0.68648   0.26877   
C -0.41002  1.63985   -0.02524  
N 0.90734   1.56951   -0.32884  
H 2.64159   0.56256   -0.65714  
H 2.03119   -1.64482  -0.35080  
H -0.11979  -2.53360  0.21350   
H -2.36377  1.06842   0.47394   
H -0.77223  2.67027   -0.01616  
C -1.20727  -0.74384  0.33594   
H -2.10267  -1.30934  0.58606   
