13   
From qcfsm.out: Frame 60 / 60, Energy=       0.0000000000
C        1.2406094632    0.2863324682    0.2686686569
C        0.9523863634   -0.9417522938   -0.4854569997
C       -0.3891498307   -1.1270410235   -0.5951221964
C       -1.1342559329    0.3010713982    0.0126572130
C       -0.4548074901    1.5275192147   -0.4566152980
N        0.8216888770    1.5199837318   -0.2891935742
H        2.2723659968    0.3848288696    0.6093251203
H        1.7373062250   -1.6839921804   -0.6928451154
H       -0.7842085519   -2.1263648492   -0.8230456654
H       -2.2250103521    0.4572262865    0.1474727752
H       -0.9649133068    2.4493646642   -0.7506802304
C       -0.3408904672   -0.1392700560    1.2001434647
H       -0.7621520085   -0.9347277269    1.8291297891
