
Running Job 1 of 1 optimize.in
qchem optimize.in_35917.0 ./optimize.d/ 1
/home/leeping/opt/qchem/5.0.2-openmp/exe/qcprog.exe_s optimize.in_35917.0 ./optimize.d/
Check license passed

                  Welcome to Q-Chem
     A Quantum Leap Into The Future Of Chemistry


 Q-Chem 5.0, Q-Chem, Inc., Pleasanton, CA (2017)

 Yihan Shao,  Zhengting Gan,  E. Epifanovsky,  A. T. B. Gilbert,  M. Wormit,  
 J. Kussmann,  A. W. Lange,  A. Behn,  Jia Deng,  Xintian Feng,  D. Ghosh,  
 M. Goldey,  P. R. Horn,  L. D. Jacobson,  I. Kaliman,  T. Kus,  A. Landau,  
 Jie Liu,  E. I. Proynov,  R. M. Richard,  R. P. Steele,  E. J. Sundstrom,  
 H. L. Woodcock III,  P. M. Zimmerman,  D. Zuev,  B. Albrecht,  E. Alguire,  
 S. A. Baeppler,  D. Barton,  Z. Benda,  Y. A. Bernard,  E. J. Berquist,  
 K. B. Bravaya,  H. Burton,  D. Casanova,  Chun-Min Chang,  Yunqing Chen,  
 A. Chien,  K. D. Closser,  M. P. Coons,  S. Dasgupta,  A. L. Dempwolff,  
 M. Diedenhofen,  Hainam Do,  R. G. Edgar,  Po-Tung Fang,  S. Fatehi,  
 Qingguo Feng,  J. Fosso-Tande,  Qinghui Ge,  A. Ghysels,  G. Gidofalvi,  
 J. Gomes,  J. Gonthier,  A. Gunina,  M. W. D. Hanson-Heine,  
 P. H. P. Harbach,  A. W. Hauser,  J. E. Herr,  E. G. Hohenstein,  
 Z. C. Holden,  Kerwin Hui,  T.-C. Jagau,  Hyunjun Ji,  B. Kaduk,  
 K. Khistyaev,  Jaehoon Kim,  P. Klunzinger,  K. Koh,  D. Kosenkov,  
 L. Koulias,  T. Kowalczyk,  C. M. Krauter,  A. Kunitsa,  Ka Un Lao,  
 A. Laurent,  K. V. Lawler,  Joonho Lee,  D. Lefrancois,  S. Lehtola,  
 D. S. Levine,  Yi-Pei Li,  You-Sheng Lin,  Fenglai Liu,  E. Livshits,  
 A. Luenser,  P. Manohar,  E. Mansoor,  S. F. Manzer,  Shan-Ping Mao,  
 Yuezhi Mao,  N. Mardirossian,  A. V. Marenich,  T. Markovich,  
 L. A. Martinez-Martinez,  S. A. Maurer,  N. J. Mayhall,  S. C. McKenzie,  
 J.-M. Mewes,  A. F. Morrison,  J. W. Mullinax,  K. Nanda,  
 T. S. Nguyen-Beck,  R. Olivares-Amaya,  J. A. Parkhill,  T. M. Perrine,  
 F. Plasser,  S. Prager,  A. Prociuk,  E. Ramos,  D. R. Rehn,  F. Rob,  
 M. Schneider,  N. Sergueev,  S. M. Sharada,  S. Sharma,  D. W. Small,  
 T. Stauch,  T. Stein,  Yu-Chuan Su,  A. J. W. Thom,  A. Tkatchenko,  
 T. Tsuchimochi,  L. Vogt,  O. Vydrov,  M. A. Watson,  J. Wenzel,  
 M. de Wergifosse,  T. A. Wesolowski,  A. White,  J. Witte,  A. Yamada,  
 Jun Yang,  K. Yao,  S. Yeganeh,  S. R. Yost,  Zhi-Qiang You,  A. Zech,  
 Igor Ying Zhang,  Xing Zhang,  Yan Zhao,  Ying Zhu,  B. R. Brooks,  
 G. K. L. Chan,  C. J. Cramer,  M. S. Gordon,  W. J. Hehre,  A. Klamt,  
 M. W. Schmidt,  C. D. Sherrill,  D. G. Truhlar,  A. Aspuru-Guzik,  R. Baer,  
 A. T. Bell,  N. A. Besley,  Jeng-Da Chai,  R. A. DiStasio Jr.,  A. Dreuw,  
 B. D. Dunietz,  T. R. Furlani,  Chao-Ping Hsu,  Yousung Jung,  Jing Kong,  
 D. S. Lambrecht,  WanZhen Liang,  C. Ochsenfeld,  V. A. Rassolov,  
 L. V. Slipchenko,  J. E. Subotnik,  T. Van Voorhis,  J. M. Herbert,  
 A. I. Krylov,  P. M. W. Gill,  M. Head-Gordon

 Contributors to earlier versions of Q-Chem not listed above: 
 R. D. Adamson,  B. Austin,  J. Baker,  G. J. O. Beran,  K. Brandhorst,  
 S. T. Brown,  E. F. C. Byrd,  A. K. Chakraborty,  C.-L. Cheng,  
 Siu Hung Chien,  D. M. Chipman,  D. L. Crittenden,  H. Dachsel,  
 R. J. Doerksen,  A. D. Dutoi,  L. Fusti-Molnar,  W. A. Goddard III,  
 A. Golubeva-Zadorozhnaya,  S. R. Gwaltney,  G. Hawkins,  A. Heyden,  
 S. Hirata,  G. Kedziora,  F. J. Keil,  C. Kelley,  Jihan Kim,  R. A. King,  
 R. Z. Khaliullin,  P. P. Korambath,  W. Kurlancheek,  A. M. Lee,  M. S. Lee,  
 S. V. Levchenko,  Ching Yeh Lin,  D. Liotard,  R. C. Lochan,  I. Lotan,  
 P. E. Maslen,  N. Nair,  D. P. O'Neill,  D. Neuhauser,  E. Neuscamman,  
 C. M. Oana,  R. Olson,  B. Peters,  R. Peverati,  P. A. Pieniazek,  
 Y. M. Rhee,  J. Ritchie,  M. A. Rohrdanz,  E. Rosta,  N. J. Russ,  
 H. F. Schaefer III,  N. E. Schultz,  N. Shenvi,  A. C. Simmonett,  A. Sodt,  
 D. Stuck,  K. S. Thanthiriwatte,  V. Vanovschi,  Tao Wang,  A. Warshel,  
 C. F. Williams,  Q. Wu,  X. Xu,  W. Zhang

 Please cite Q-Chem as follows:
 Y. Shao et al., Mol. Phys. 113, 184-215 (2015)
 DOI: 10.1080/00268976.2014.952696

 Q-Chem 5.0.2 for Intel X86 EM64T Linux

 Parts of Q-Chem use Armadillo 5.200.1 (Boston Tea Smuggler).
 http://arma.sourceforge.net/

 Q-Chem begins on Tue Mar  1 12:22:25 2022  

Host: 
0

     Scratch files written to ./optimize.d//
 Dec517 15110_ 26548  26544 5633   
Processing $rem in /home/leeping/opt/qchem/5.0.2-openmp/config/preferences.
 MEM_STATIC 2000
 MEM_TOTAL  8000
 SYMMETRY   OFF
 SYM_IGNORE TRUE 

Checking the input file for inconsistencies... 	...done.

--------------------------------------------------------------
User input:
--------------------------------------------------------------
$molecule
0 2
C        1.2625624710    0.1812656929   -1.0995116696
C        0.4717282804   -1.1722486406   -1.0683553808
C       -0.8315019382   -0.5947928336   -2.2608565023
C       -1.1739242036   -0.0377968641   -0.4279738682
C       -0.6681825465    0.8877224071   -1.8403004471
N        0.9144030829    1.3247088567   -1.5144951787
H        2.0634561620    0.1050561221   -0.3162890075
H        1.1960142664   -2.0360153149   -1.0594182242
H       -1.2431354415   -1.6057855520   -2.2817441497
H       -2.0306399820    0.1896045413    0.1935550601
H       -1.4336796137    1.6040551649   -2.2545408615
C       -0.0611378711   -0.6701134968    0.2918226591
H        0.3573401161   -0.5356916704    1.2274001805
$end

$rem
method                b3lyp
basis                 6-31g(d)
unrestricted          true
symmetry              off
sym_ignore            true
incdft                false
incfock               0
scf_convergence       8
thresh                14
jobtype               opt
scf_guess             read
scf_algorithm         diis
max_scf_cycles        100
geom_opt_tol_gradient 600
geom_opt_tol_displacement 2400
geom_opt_tol_energy   200
geom_opt_max_cycles   100
$end

--------------------------------------------------------------
 ----------------------------------------------------------------
             Standard Nuclear Orientation (Angstroms)
    I     Atom           X                Y                Z
 ----------------------------------------------------------------
    1      C       1.2625624710     0.1812656929    -1.0995116696
    2      C       0.4717282804    -1.1722486406    -1.0683553808
    3      C      -0.8315019382    -0.5947928336    -2.2608565023
    4      C      -1.1739242036    -0.0377968641    -0.4279738682
    5      C      -0.6681825465     0.8877224071    -1.8403004471
    6      N       0.9144030829     1.3247088567    -1.5144951787
    7      H       2.0634561620     0.1050561221    -0.3162890075
    8      H       1.1960142664    -2.0360153149    -1.0594182242
    9      H      -1.2431354415    -1.6057855520    -2.2817441497
   10      H      -2.0306399820     0.1896045413     0.1935550601
   11      H      -1.4336796137     1.6040551649    -2.2545408615
   12      C      -0.0611378711    -0.6701134968     0.2918226591
   13      H       0.3573401161    -0.5356916704     1.2274001805
 ----------------------------------------------------------------
 Nuclear Repulsion Energy =   269.7464902061 hartrees
 There are       25 alpha and       24 beta electrons
 Requested basis set is 6-31G(d)
 There are 40 shells and 117 basis functions

 Total QAlloc Memory Limit   8000 MB
 Mega-Array Size      1956 MB
 MEM_STATIC part      2000 MB
 A cutoff of  1.0D-14 yielded    811 shell pairs
 There are      7083 function pairs
 
 -------------------------------------------------------
 OpenMP Integral Computing Module                       
 Release: version 1.0, May 2013, Q-Chem Inc. Pittsburgh 
 -------------------------------------------------------
 Integral Job Info:
 Integral job number is                      11
 Integral operator is                         1
 short-range coefficients                     0
 long-range coefficients              100000000
 Omega coefficients                           0
 if combine SR and LR in K                    0
 Integral screening is                        0
 Integral computing path is                   2
 max size of driver memory is            800000
 size of driver memory is                593474
 size of scratch memory is              2361544
 max col of scratch BK array               1296
 max len of scratch array in speh3          155
 max len of scratch index in speh4           18
 max int batch size is                      520
 min int batch size is                       52
 fixed nKL is                                52
 max L of basis functions is                  2
 order of int derivative is                   0
 number of shells is                         40
 number of basis is                         117
 number of cartesian basis is               117
 number of contracted shell pairs           811
 number of primitive shell pairs           3578
 maxK2 (contraction) of shell pair           36
 max number of K2 of shell pair               1
 max number of CS2 of shell pair             84
 max number of PS2 of shell pair            414
 mem total for path MDJ                  535308
 -------------------------------------------------------
 Smallest overlap matrix eigenvalue = 3.13E-03

 Scale SEOQF with 1.000000e-01/1.000000e-01/1.000000e-01

 Standard Electronic Orientation quadrupole field applied
 Nucleus-field energy     =    -0.0000000058 hartrees
 Guess MOs from SCF MO coefficient file
 Reading MOs from coefficient file
 Reading MOs from coefficient file
 An unrestricted hybrid HF-DFT SCF calculation will be
 performed using Pulay DIIS extrapolation
 Exchange:     0.2000 Hartree-Fock + 0.0800 Slater + 0.7200 B88
 Correlation:  0.1900 VWN1RPA + 0.8100 LYP
 Using SG-1 standard quadrature grid
 SCF converges when DIIS error is below 1.0E-08
Using Q-Chem read-in guess as SCF_GUESS READ specified.

 using 4 threads for integral computing
 -------------------------------------------------------
 OpenMP Integral computing Module                
 Release: version 1.0, May 2013, Q-Chem Inc. Pittsburgh 
 -------------------------------------------------------
 -------------------------------------------------------
 OpenMP BLAS3 based DFT computing Module                
 Release: version 1.0, May 2013, Q-Chem Inc. Pittsburgh 
 -------------------------------------------------------
 ---------------------------------------
  Cycle       Energy         DIIS Error
 ---------------------------------------
    1    -286.6392649246      9.96E-10
    2    -286.6392649246      2.35E-09 Convergence criterion met
 ---------------------------------------
 <S^2> = 0.7825
 SCF time:  CPU 5.81 s  wall 4.25 s
 SCF   energy in the final basis set = -286.63926492
 Total energy in the final basis set = -286.63926492
 
 --------------------------------------------------------------
 
                    Orbital Energies (a.u.)
 --------------------------------------------------------------
 
 Alpha MOs
 -- Occupied --
-14.335 -10.278 -10.253 -10.231 -10.228 -10.226 -10.213  -0.927
 -0.821  -0.744  -0.668  -0.592  -0.559  -0.540  -0.508  -0.457
 -0.428  -0.401  -0.371  -0.349  -0.322  -0.292  -0.282  -0.226
 -0.179
 -- Virtual --
 -0.020   0.020   0.028   0.072   0.102   0.108   0.117   0.142
  0.150   0.164   0.189   0.226   0.247   0.265   0.285   0.364
  0.485   0.499   0.511   0.529   0.565   0.574   0.590   0.601
  0.623   0.642   0.653   0.681   0.703   0.716   0.762   0.796
  0.800   0.822   0.827   0.836   0.856   0.879   0.900   0.940
  0.947   0.996   1.079   1.118   1.195   1.216   1.234   1.314
  1.348   1.404   1.448   1.475   1.513   1.536   1.632   1.651
  1.709   1.765   1.781   1.796   1.848   1.873   1.934   1.976
  2.035   2.051   2.135   2.168   2.212   2.246   2.258   2.317
  2.354   2.377   2.427   2.444   2.448   2.502   2.543   2.601
  2.671   2.674   2.735   2.850   2.902   3.824   4.147   4.230
  4.254   4.414   4.440   4.516
 
 Beta MOs
 -- Occupied --
-14.332 -10.275 -10.249 -10.232 -10.232 -10.225 -10.203  -0.922
 -0.814  -0.735  -0.662  -0.587  -0.549  -0.535  -0.505  -0.453
 -0.423  -0.389  -0.366  -0.344  -0.315  -0.286  -0.268  -0.218
 -- Virtual --
 -0.082  -0.012   0.025   0.049   0.076   0.108   0.118   0.125
  0.143   0.155   0.168   0.191   0.230   0.249   0.269   0.294
  0.367   0.494   0.513   0.515   0.536   0.570   0.575   0.596
  0.603   0.635   0.647   0.666   0.685   0.710   0.721   0.765
  0.798   0.804   0.827   0.829   0.842   0.860   0.883   0.900
  0.947   0.950   0.998   1.084   1.124   1.202   1.224   1.241
  1.320   1.354   1.409   1.457   1.482   1.520   1.548   1.639
  1.656   1.716   1.771   1.783   1.799   1.859   1.879   1.937
  1.983   2.049   2.063   2.141   2.188   2.218   2.254   2.265
  2.325   2.366   2.384   2.432   2.446   2.454   2.506   2.551
  2.609   2.678   2.683   2.740   2.852   2.904   3.829   4.155
  4.234   4.259   4.421   4.445   4.521
 --------------------------------------------------------------
 
          Ground-State Mulliken Net Atomic Charges

     Atom                 Charge (a.u.)    Spin (a.u.)
  --------------------------------------------------------
      1 C                     0.089282       0.016737
      2 C                    -0.261619      -0.058219
      3 C                    -0.140796       0.271153
      4 C                    -0.202635      -0.226291
      5 C                    -0.089741       0.163928
      6 N                    -0.321777       0.137144
      7 H                     0.128469       0.003789
      8 H                     0.151262       0.016070
      9 H                     0.229647      -0.017287
     10 H                     0.146187       0.008067
     11 H                     0.174558      -0.003370
     12 C                    -0.070111       0.718159
     13 H                     0.167275      -0.029880
  --------------------------------------------------------
  Sum of atomic charges =    -0.000000
  Sum of spin   charges =     1.000000

 -----------------------------------------------------------------
                    Cartesian Multipole Moments
 -----------------------------------------------------------------
    Charge (ESU x 10^10)
                 0.0000
    Dipole Moment (Debye)
         X      -1.1730      Y      -2.1098      Z       1.0601
       Tot       2.6365
    Quadrupole Moments (Debye-Ang)
        XX     -40.1630     XY      -4.0741     YY     -43.0781
        XZ       4.0663     YZ       2.7931     ZZ     -42.0965
    Octopole Moments (Debye-Ang^2)
       XXX       2.1879    XXY      -0.1308    XYY      -4.9314
       YYY      -4.5667    XXZ      46.7885    XYZ       5.1660
       YYZ      43.8433    XZZ      -7.2164    YZZ      -1.3698
       ZZZ     144.0404
    Hexadecapole Moments (Debye-Ang^3)
      XXXX    -263.0517   XXXY     -16.3894   XXYY     -81.4106
      XYYY     -20.8183   YYYY    -239.2222   XXXZ     -10.4529
      XXYZ       9.7292   XYYZ      11.4993   YYYZ      36.4419
      XXZZ    -131.8695   XYZZ     -12.8241   YYZZ    -121.9953
      XZZZ       3.1028   YZZZ      20.7716   ZZZZ    -549.5781
 -----------------------------------------------------------------
 Calculating analytic gradient of the SCF energy
 Gradient of SCF Energy
            1           2           3           4           5           6
    1  -0.0573301  -0.0467631  -0.0499333  -0.0172572   0.0115932   0.0788570
    2   0.0411010  -0.0604562   0.0197890  -0.0350326   0.0365353   0.0163692
    3  -0.0372947  -0.0005624  -0.1233763   0.0129196  -0.0333878   0.0249710
            7           8           9          10          11          12
    1  -0.0082838   0.0210409   0.0241970   0.0185389  -0.0230684   0.0604125
    2  -0.0079082  -0.0088494  -0.0188465  -0.0101051   0.0104072   0.0176683
    3   0.0254723   0.0134109   0.0257516   0.0195047  -0.0099830   0.1194673
           13
    1  -0.0120035
    2  -0.0006721
    3  -0.0368931
 Max gradient component =       1.234E-01
 RMS gradient           =       4.117E-02
 Gradient time:  CPU 7.95 s  wall 2.23 s
 Geometry Optimization Parameters
   NAtoms,    NIC,     NZ,  NCons,   NDum,   NFix, NCnnct, MaxDiis
       13     128       0       0       0       0       0       0


** GEOMETRY OPTIMIZATION IN DELOCALIZED INTERNAL COORDINATES **
   Searching for a Minimum

   Optimization Cycle:   1

                       Coordinates (Angstroms)
     ATOM                X               Y               Z
      1  C         1.2625624710    0.1812656929   -1.0995116696
      2  C         0.4717282804   -1.1722486406   -1.0683553808
      3  C        -0.8315019382   -0.5947928336   -2.2608565023
      4  C        -1.1739242036   -0.0377968641   -0.4279738682
      5  C        -0.6681825465    0.8877224071   -1.8403004471
      6  N         0.9144030829    1.3247088567   -1.5144951787
      7  H         2.0634561620    0.1050561221   -0.3162890075
      8  H         1.1960142664   -2.0360153149   -1.0594182242
      9  H        -1.2431354415   -1.6057855520   -2.2817441497
     10  H        -2.0306399820    0.1896045413    0.1935550601
     11  H        -1.4336796137    1.6040551649   -2.2545408615
     12  C        -0.0611378711   -0.6701134968    0.2918226591
     13  H         0.3573401161   -0.5356916704    1.2274001805
   Point Group: c1    Number of degrees of freedom:    33


   Energy is   -286.639264925


 Attempting to Generate Delocalized Internal Coordinates

 33 Hessian modes will be used to form the next step
  Hessian Eigenvalues:
     0.008244    0.008701    0.009921    0.013000    0.013439    0.018147
     0.021771    0.023832    0.044410    0.060475    0.064023    0.073536
     0.078785    0.083035    0.106510    0.118896    0.126497    0.135929
     0.148836    0.154425    0.164575    0.203486    0.218040    0.249749
     0.254403    0.308368    0.308389    0.312817    0.315870    0.346077
     0.356848    0.422250    0.683781

 Minimum Search - Taking Simple RFO Step
 Searching for Lamda that Minimizes Along All modes
 Value Taken    Lamda =  -0.10499644
 Calculated Step too Large.  Step scaled by  0.436252
 Step Taken.  Stepsize is  0.300000

                             Maximum     Tolerance    Cnvgd?
         Gradient           0.065505      0.000600      NO
         Displacement       0.101197      0.002400      NO
         Energy change     *********      0.000002      NO


 New Cartesian Coordinates Obtained by Inverse Iteration

 Displacement from previous Coordinates is:  0.332742
 ----------------------------------------------------------------
             Standard Nuclear Orientation (Angstroms)
    I     Atom           X                Y                Z
 ----------------------------------------------------------------
    1      C       1.2988966065     0.1745754115    -1.0994261539
    2      C       0.4903542826    -1.1554718292    -1.0676457731
    3      C      -0.8207922707    -0.5969040156    -2.2154515499
    4      C      -1.1933428084    -0.0250817647    -0.4366018875
    5      C      -0.6664182391     0.8675896323    -1.8038209111
    6      N       0.8881879799     1.3003067004    -1.5146099462
    7      H       2.1404492998     0.1282734700    -0.3679984395
    8      H       1.1996387972    -2.0166895288    -1.0880792325
    9      H      -1.2403043872    -1.6001925343    -2.2410666702
   10      H      -2.0750052068     0.2141983202     0.1494459652
   11      H      -1.4116107744     1.5809843280    -2.2209709166
   12      C      -0.0973499531    -0.6770228676     0.2676366968
   13      H       0.3105994559    -0.5545969095     1.2278814285
 ----------------------------------------------------------------
 Nuclear Repulsion Energy =   271.7765622282 hartrees
 There are       25 alpha and       24 beta electrons
 Applying Cartesian multipole field
    Component          Value
    ---------          -----
     (2,0,0)        1.00000E-11
     (0,2,0)        2.00000E-11
     (0,0,2)       -3.00000E-11
 Nucleus-field energy     =    -0.0000000056 hartrees
 Requested basis set is 6-31G(d)
 There are 40 shells and 117 basis functions
 A cutoff of  1.0D-14 yielded    811 shell pairs
 There are      7083 function pairs
 Smallest overlap matrix eigenvalue = 2.65E-03
 Guess MOs from SCF MO coefficient file
 Reading MOs from coefficient file
 Reading MOs from coefficient file
 An unrestricted hybrid HF-DFT SCF calculation will be
 performed using Pulay DIIS extrapolation
 Exchange:     0.2000 Hartree-Fock + 0.0800 Slater + 0.7200 B88
 Correlation:  0.1900 VWN1RPA + 0.8100 LYP
 Using SG-1 standard quadrature grid
 SCF converges when DIIS error is below 1.0E-08
 Geometry optimization detected.  Setting ReadMinima to 0
 Setting SaveMinima to 0
Using Q-Chem read-in guess as SCF_GUESS READ specified.

 using 4 threads for integral computing
 -------------------------------------------------------
 OpenMP Integral computing Module                
 Release: version 1.0, May 2013, Q-Chem Inc. Pittsburgh 
 -------------------------------------------------------
 -------------------------------------------------------
 OpenMP BLAS3 based DFT computing Module                
 Release: version 1.0, May 2013, Q-Chem Inc. Pittsburgh 
 -------------------------------------------------------
 ---------------------------------------
  Cycle       Energy         DIIS Error
 ---------------------------------------
    1    -286.7358828421      2.32E-03
    2    -286.6795434716      1.04E-03
    3    -286.6785013880      1.37E-03
    4    -286.6814084078      3.17E-04
    5    -286.6815766639      8.95E-05
    6    -286.6815908347      3.77E-05
    7    -286.6815938921      1.30E-05
    8    -286.6815944319      5.14E-06
    9    -286.6815946993      1.60E-06
   10    -286.6815947959      8.36E-07
   11    -286.6815948751      4.78E-07
   12    -286.6815949238      2.55E-07
   13    -286.6815949378      1.47E-07
   14    -286.6815949409      5.20E-08
   15    -286.6815949413      1.47E-08
   16    -286.6815949414      6.33E-09 Convergence criterion met
 ---------------------------------------
 <S^2> = 0.7762
 SCF time:  CPU 42.27 s  wall 27.89 s
 SCF   energy in the final basis set = -286.68159494
 Total energy in the final basis set = -286.68159494
 
 --------------------------------------------------------------
 
                    Orbital Energies (a.u.)
 --------------------------------------------------------------
 
 Alpha MOs
 -- Occupied --
-14.331 -10.271 -10.247 -10.226 -10.225 -10.224 -10.211  -0.931
 -0.822  -0.747  -0.670  -0.593  -0.559  -0.539  -0.511  -0.457
 -0.431  -0.404  -0.378  -0.355  -0.319  -0.295  -0.280  -0.233
 -0.176
 -- Virtual --
 -0.010   0.024   0.034   0.083   0.110   0.121   0.127   0.146
  0.152   0.167   0.193   0.232   0.252   0.276   0.296   0.363
  0.487   0.503   0.511   0.532   0.563   0.576   0.587   0.606
  0.624   0.645   0.646   0.683   0.703   0.715   0.766   0.796
  0.803   0.823   0.831   0.831   0.857   0.882   0.905   0.929
  0.949   0.994   1.072   1.133   1.197   1.225   1.235   1.312
  1.365   1.416   1.452   1.486   1.528   1.554   1.646   1.669
  1.720   1.757   1.792   1.803   1.856   1.871   1.944   1.997
  2.035   2.062   2.162   2.176   2.223   2.259   2.277   2.311
  2.353   2.395   2.441   2.469   2.497   2.519   2.534   2.609
  2.678   2.693   2.759   2.873   2.894   3.837   4.157   4.238
  4.261   4.418   4.459   4.540
 
 Beta MOs
 -- Occupied --
-14.329 -10.269 -10.244 -10.228 -10.226 -10.223 -10.201  -0.926
 -0.816  -0.738  -0.663  -0.587  -0.552  -0.532  -0.508  -0.453
 -0.425  -0.392  -0.374  -0.349  -0.310  -0.289  -0.266  -0.224
 -- Virtual --
 -0.078  -0.002   0.035   0.048   0.087   0.113   0.129   0.135
  0.148   0.158   0.171   0.196   0.236   0.254   0.280   0.305
  0.365   0.497   0.514   0.517   0.540   0.567   0.578   0.592
  0.608   0.636   0.650   0.659   0.686   0.710   0.721   0.770
  0.799   0.805   0.828   0.832   0.839   0.860   0.886   0.906
  0.934   0.952   0.996   1.077   1.140   1.205   1.231   1.241
  1.320   1.372   1.421   1.462   1.491   1.535   1.566   1.652
  1.672   1.728   1.763   1.795   1.806   1.863   1.881   1.948
  2.003   2.050   2.072   2.169   2.197   2.228   2.270   2.285
  2.319   2.363   2.403   2.445   2.475   2.501   2.523   2.542
  2.616   2.687   2.700   2.764   2.875   2.896   3.842   4.165
  4.241   4.269   4.426   4.463   4.544
 --------------------------------------------------------------
 
          Ground-State Mulliken Net Atomic Charges

     Atom                 Charge (a.u.)    Spin (a.u.)
  --------------------------------------------------------
      1 C                     0.083702       0.017014
      2 C                    -0.270098      -0.060750
      3 C                    -0.132426       0.262747
      4 C                    -0.200998      -0.201664
      5 C                    -0.086043       0.143058
      6 N                    -0.324655       0.130998
      7 H                     0.133842       0.004675
      8 H                     0.149315       0.018243
      9 H                     0.224430      -0.016767
     10 H                     0.146837       0.008667
     11 H                     0.172404      -0.001501
     12 C                    -0.058230       0.724098
     13 H                     0.161920      -0.028817
  --------------------------------------------------------
  Sum of atomic charges =    -0.000000
  Sum of spin   charges =     1.000000

 -----------------------------------------------------------------
                    Cartesian Multipole Moments
 -----------------------------------------------------------------
    Charge (ESU x 10^10)
                -0.0000
    Dipole Moment (Debye)
         X      -1.1076      Y      -2.0811      Z       1.0384
       Tot       2.5760
    Quadrupole Moments (Debye-Ang)
        XX     -39.5084     XY      -4.0413     YY     -43.1068
        XZ       3.7875     YZ       2.9008     ZZ     -42.3160
    Octopole Moments (Debye-Ang^2)
       XXX       2.8614    XXY       0.1748    XYY      -4.6766
       YYY      -3.9590    XXZ      46.0337    XYZ       5.1476
       YYZ      43.7385    XZZ      -6.4786    YZZ      -1.4777
       ZZZ     143.5827
    Hexadecapole Moments (Debye-Ang^3)
      XXXX    -262.5326   XXXY     -15.5110   XXYY     -81.3721
      XYYY     -19.8224   YYYY    -234.6260   XXXZ      -8.6811
      XXYZ       9.5207   XYYZ      11.3580   YYYZ      35.3062
      XXZZ    -130.6202   XYZZ     -12.6081   YYZZ    -119.7802
      XZZZ       3.2741   YZZZ      19.8260   ZZZZ    -538.3542
 -----------------------------------------------------------------
 Calculating analytic gradient of the SCF energy
 Gradient of SCF Energy
            1           2           3           4           5           6
    1  -0.0418836  -0.0368900  -0.0513014  -0.0175490   0.0041822   0.0721564
    2   0.0310012  -0.0584104   0.0263204  -0.0325166   0.0296163   0.0132637
    3  -0.0268697   0.0011291  -0.1181089   0.0182321  -0.0312400   0.0197458
            7           8           9          10          11          12
    1  -0.0053203   0.0187586   0.0251753   0.0132043  -0.0176366   0.0431106
    2  -0.0054404  -0.0034477  -0.0166006  -0.0082288   0.0051938   0.0177341
    3   0.0217841   0.0096824   0.0265128   0.0180649  -0.0067216   0.0919291
           13
    1  -0.0060065
    2   0.0015148
    3  -0.0241400
 Max gradient component =       1.181E-01
 RMS gradient           =       3.567E-02
 Gradient time:  CPU 7.60 s  wall 3.02 s
 Geometry Optimization Parameters
   NAtoms,    NIC,     NZ,  NCons,   NDum,   NFix, NCnnct, MaxDiis
       13     128       0       0       0       0       0       0

 Cartesian Hessian Update
 Hessian Updated using BFGS Update


** GEOMETRY OPTIMIZATION IN DELOCALIZED INTERNAL COORDINATES **
   Searching for a Minimum

   Optimization Cycle:   2

                       Coordinates (Angstroms)
     ATOM                X               Y               Z
      1  C         1.2988966065    0.1745754115   -1.0994261539
      2  C         0.4903542826   -1.1554718292   -1.0676457731
      3  C        -0.8207922707   -0.5969040156   -2.2154515499
      4  C        -1.1933428084   -0.0250817647   -0.4366018875
      5  C        -0.6664182391    0.8675896323   -1.8038209111
      6  N         0.8881879799    1.3003067004   -1.5146099462
      7  H         2.1404492998    0.1282734700   -0.3679984395
      8  H         1.1996387972   -2.0166895288   -1.0880792325
      9  H        -1.2403043872   -1.6001925343   -2.2410666702
     10  H        -2.0750052068    0.2141983202    0.1494459652
     11  H        -1.4116107744    1.5809843280   -2.2209709166
     12  C        -0.0973499531   -0.6770228676    0.2676366968
     13  H         0.3105994559   -0.5545969095    1.2278814285
   Point Group: c1    Number of degrees of freedom:    33


   Energy is   -286.681594941

 Hessian Updated using BFGS Update

 33 Hessian modes will be used to form the next step
  Hessian Eigenvalues:
     0.008103    0.008702    0.010034    0.012972    0.013815    0.017763
     0.020881    0.023837    0.044401    0.056710    0.064048    0.071185
     0.078002    0.080374    0.088207    0.109797    0.119764    0.130467
     0.150427    0.156595    0.180042    0.188798    0.227514    0.249773
     0.255269    0.308336    0.312036    0.312971    0.318729    0.346770
     0.357935    0.438522    0.682923

 Minimum Search - Taking Simple RFO Step
 Searching for Lamda that Minimizes Along All modes
 Value Taken    Lamda =  -0.10311962
 Calculated Step too Large.  Step scaled by  0.378369
 Step Taken.  Stepsize is  0.300000

                             Maximum     Tolerance    Cnvgd?
         Gradient           0.054011      0.000600      NO
         Displacement       0.100308      0.002400      NO
         Energy change     -0.042330      0.000002      NO


 New Cartesian Coordinates Obtained by Inverse Iteration

 Displacement from previous Coordinates is:  0.301561
 ----------------------------------------------------------------
             Standard Nuclear Orientation (Angstroms)
    I     Atom           X                Y                Z
 ----------------------------------------------------------------
    1      C       1.3182943740     0.1710639731    -1.1010518665
    2      C       0.5022376871    -1.1405864961    -1.0687471721
    3      C      -0.8020209383    -0.6033815184    -2.1662981357
    4      C      -1.1984016953    -0.0116898451    -0.4517837485
    5      C      -0.6566405617     0.8483272432    -1.7653602845
    6      N       0.8463669498     1.2791161180    -1.5110962281
    7      H       2.1830745947     0.1562106754    -0.4089157487
    8      H       1.1927639130    -2.0041716104    -1.1144826218
    9      H      -1.2337860308    -1.5986314156    -2.1930444253
   10      H      -2.1002372757     0.2426709437     0.0974410591
   11      H      -1.3822448174     1.5633342547    -2.1858254914
   12      C      -0.1224385610    -0.6850344352     0.2402899334
   13      H       0.2763351437    -0.5772594746     1.2181673400
 ----------------------------------------------------------------
 Nuclear Repulsion Energy =   275.0066690752 hartrees
 There are       25 alpha and       24 beta electrons
 Applying Cartesian multipole field
    Component          Value
    ---------          -----
     (2,0,0)        1.00000E-11
     (0,2,0)        2.00000E-11
     (0,0,2)       -3.00000E-11
 Nucleus-field energy     =    -0.0000000054 hartrees
 Requested basis set is 6-31G(d)
 There are 40 shells and 117 basis functions
 A cutoff of  1.0D-14 yielded    811 shell pairs
 There are      7083 function pairs
 Smallest overlap matrix eigenvalue = 2.19E-03
 Guess MOs from SCF MO coefficient file
 Reading MOs from coefficient file
 Reading MOs from coefficient file
 An unrestricted hybrid HF-DFT SCF calculation will be
 performed using Pulay DIIS extrapolation
 Exchange:     0.2000 Hartree-Fock + 0.0800 Slater + 0.7200 B88
 Correlation:  0.1900 VWN1RPA + 0.8100 LYP
 Using SG-1 standard quadrature grid
 SCF converges when DIIS error is below 1.0E-08
 Geometry optimization detected.  Setting ReadMinima to 0
 Setting SaveMinima to 0
Using Q-Chem read-in guess as SCF_GUESS READ specified.

 using 4 threads for integral computing
 -------------------------------------------------------
 OpenMP Integral computing Module                
 Release: version 1.0, May 2013, Q-Chem Inc. Pittsburgh 
 -------------------------------------------------------
 -------------------------------------------------------
 OpenMP BLAS3 based DFT computing Module                
 Release: version 1.0, May 2013, Q-Chem Inc. Pittsburgh 
 -------------------------------------------------------
 ---------------------------------------
  Cycle       Energy         DIIS Error
 ---------------------------------------
    1    -286.7815319954      2.62E-03
    2    -286.7158075972      9.59E-04
    3    -286.7148582433      1.26E-03
    4    -286.7174363723      2.13E-04
    5    -286.7175022682      8.56E-05
    6    -286.7175152518      2.78E-05
    7    -286.7175171829      7.98E-06
    8    -286.7175176061      4.95E-06
    9    -286.7175177920      1.63E-06
   10    -286.7175178896      7.82E-07
   11    -286.7175179624      4.20E-07
   12    -286.7175179960      1.82E-07
   13    -286.7175180024      1.11E-07
   14    -286.7175180036      3.12E-08
   15    -286.7175180038      7.26E-09 Convergence criterion met
 ---------------------------------------
 <S^2> = 0.7711
 SCF time:  CPU 39.83 s  wall 26.73 s
 SCF   energy in the final basis set = -286.71751800
 Total energy in the final basis set = -286.71751800
 
 --------------------------------------------------------------
 
                    Orbital Energies (a.u.)
 --------------------------------------------------------------
 
 Alpha MOs
 -- Occupied --
-14.327 -10.264 -10.241 -10.222 -10.220 -10.220 -10.209  -0.940
 -0.827  -0.751  -0.672  -0.594  -0.565  -0.536  -0.516  -0.458
 -0.433  -0.408  -0.386  -0.359  -0.316  -0.298  -0.279  -0.237
 -0.175
 -- Virtual --
  0.001   0.022   0.049   0.093   0.113   0.134   0.139   0.150
  0.160   0.173   0.200   0.241   0.257   0.288   0.307   0.364
  0.490   0.505   0.509   0.536   0.561   0.579   0.583   0.612
  0.624   0.641   0.650   0.682   0.703   0.719   0.770   0.794
  0.806   0.821   0.826   0.833   0.860   0.884   0.908   0.929
  0.952   0.994   1.064   1.151   1.197   1.220   1.248   1.321
  1.379   1.424   1.456   1.501   1.547   1.568   1.665   1.702
  1.713   1.788   1.802   1.828   1.862   1.890   1.958   2.013
  2.044   2.078   2.181   2.196   2.232   2.264   2.302   2.319
  2.370   2.422   2.450   2.500   2.530   2.542   2.552   2.617
  2.689   2.720   2.786   2.885   2.910   3.860   4.171   4.249
  4.268   4.425   4.486   4.574
 
 Beta MOs
 -- Occupied --
-14.324 -10.262 -10.237 -10.223 -10.222 -10.221 -10.199  -0.935
 -0.821  -0.743  -0.664  -0.589  -0.559  -0.528  -0.513  -0.454
 -0.427  -0.397  -0.382  -0.353  -0.307  -0.292  -0.264  -0.229
 -- Virtual --
 -0.076   0.010   0.041   0.054   0.097   0.116   0.141   0.145
  0.153   0.164   0.179   0.204   0.247   0.259   0.292   0.316
  0.367   0.501   0.510   0.520   0.545   0.565   0.581   0.588
  0.615   0.636   0.651   0.658   0.685   0.711   0.724   0.775
  0.798   0.808   0.826   0.833   0.835   0.862   0.889   0.911
  0.932   0.955   0.996   1.069   1.158   1.204   1.227   1.253
  1.328   1.386   1.429   1.466   1.505   1.554   1.582   1.671
  1.706   1.720   1.794   1.803   1.834   1.868   1.903   1.962
  2.019   2.057   2.088   2.192   2.212   2.238   2.280   2.306
  2.325   2.378   2.429   2.455   2.508   2.537   2.545   2.558
  2.624   2.697   2.727   2.791   2.887   2.912   3.865   4.179
  4.251   4.279   4.432   4.490   4.577
 --------------------------------------------------------------
 
          Ground-State Mulliken Net Atomic Charges

     Atom                 Charge (a.u.)    Spin (a.u.)
  --------------------------------------------------------
      1 C                     0.078524       0.020001
      2 C                    -0.277542      -0.062261
      3 C                    -0.124034       0.250008
      4 C                    -0.197567      -0.176843
      5 C                    -0.078738       0.120219
      6 N                    -0.327140       0.127357
      7 H                     0.136981       0.004892
      8 H                     0.147860       0.020374
      9 H                     0.217707      -0.015878
     10 H                     0.147076       0.009045
     11 H                     0.169041       0.000471
     12 C                    -0.048784       0.729924
     13 H                     0.156615      -0.027311
  --------------------------------------------------------
  Sum of atomic charges =    -0.000000
  Sum of spin   charges =     1.000000

 -----------------------------------------------------------------
                    Cartesian Multipole Moments
 -----------------------------------------------------------------
    Charge (ESU x 10^10)
                -0.0000
    Dipole Moment (Debye)
         X      -1.0396      Y      -2.0514      Z       1.0396
       Tot       2.5238
    Quadrupole Moments (Debye-Ang)
        XX     -39.0333     XY      -3.9601     YY     -43.0246
        XZ       3.4713     YZ       2.9435     ZZ     -42.5765
    Octopole Moments (Debye-Ang^2)
       XXX       3.3861    XXY       0.5790    XYY      -4.3881
       YYY      -3.4239    XXZ      45.3931    XYZ       5.0533
       YYZ      43.6462    XZZ      -5.5442    YZZ      -1.4214
       ZZZ     143.2340
    Hexadecapole Moments (Debye-Ang^3)
      XXXX    -258.0308   XXXY     -14.2218   XXYY     -80.4966
      XYYY     -18.5874   YYYY    -230.6712   XXXZ      -7.3910
      XXYZ       9.0530   XYYZ      10.8989   YYYZ      33.8495
      XXZZ    -128.5383   XYZZ     -12.2220   YYZZ    -117.6092
      XZZZ       2.5916   YZZZ      18.3698   ZZZZ    -526.5046
 -----------------------------------------------------------------
 Calculating analytic gradient of the SCF energy
 Gradient of SCF Energy
            1           2           3           4           5           6
    1  -0.0319875  -0.0303000  -0.0493962  -0.0132985   0.0017344   0.0608610
    2   0.0209129  -0.0533825   0.0339365  -0.0296465   0.0183546   0.0111218
    3  -0.0192985   0.0046449  -0.1100860   0.0195746  -0.0243621   0.0147830
            7           8           9          10          11          12
    1  -0.0055854   0.0161116   0.0264261   0.0097845  -0.0124247   0.0305127
    2  -0.0036922   0.0007389  -0.0152089  -0.0060299   0.0019539   0.0181162
    3   0.0183683   0.0071401   0.0279178   0.0156501  -0.0037730   0.0660715
           13
    1  -0.0024382
    2   0.0028253
    3  -0.0166307
 Max gradient component =       1.101E-01
 RMS gradient           =       3.064E-02
 Gradient time:  CPU 7.65 s  wall 3.59 s
 Geometry Optimization Parameters
   NAtoms,    NIC,     NZ,  NCons,   NDum,   NFix, NCnnct, MaxDiis
       13     128       0       0       0       0       0       0

 Cartesian Hessian Update
 Hessian Updated using BFGS Update


** GEOMETRY OPTIMIZATION IN DELOCALIZED INTERNAL COORDINATES **
   Searching for a Minimum

   Optimization Cycle:   3

                       Coordinates (Angstroms)
     ATOM                X               Y               Z
      1  C         1.3182943740    0.1710639731   -1.1010518665
      2  C         0.5022376871   -1.1405864961   -1.0687471721
      3  C        -0.8020209383   -0.6033815184   -2.1662981357
      4  C        -1.1984016953   -0.0116898451   -0.4517837485
      5  C        -0.6566405617    0.8483272432   -1.7653602845
      6  N         0.8463669498    1.2791161180   -1.5110962281
      7  H         2.1830745947    0.1562106754   -0.4089157487
      8  H         1.1927639130   -2.0041716104   -1.1144826218
      9  H        -1.2337860308   -1.5986314156   -2.1930444253
     10  H        -2.1002372757    0.2426709437    0.0974410591
     11  H        -1.3822448174    1.5633342547   -2.1858254914
     12  C        -0.1224385610   -0.6850344352    0.2402899334
     13  H         0.2763351437   -0.5772594746    1.2181673400
   Point Group: c1    Number of degrees of freedom:    33


   Energy is   -286.717518004

 Hessian Updated using BFGS Update

 33 Hessian modes will be used to form the next step
  Hessian Eigenvalues:
     0.007999    0.008712    0.010017    0.012996    0.013788    0.017916
     0.021060    0.023842    0.044843    0.057088    0.063905    0.070896
     0.078364    0.080994    0.090973    0.110809    0.120049    0.131372
     0.150453    0.156545    0.179302    0.185297    0.234561    0.253069
     0.255626    0.308351    0.312404    0.312677    0.334191    0.348447
     0.358667    0.443755    0.682198

 Minimum Search - Taking Simple RFO Step
 Searching for Lamda that Minimizes Along All modes
 Value Taken    Lamda =  -0.08121493
 Calculated Step too Large.  Step scaled by  0.387905
 Step Taken.  Stepsize is  0.300000

                             Maximum     Tolerance    Cnvgd?
         Gradient           0.040941      0.000600      NO
         Displacement       0.099783      0.002400      NO
         Energy change     -0.035923      0.000002      NO


 New Cartesian Coordinates Obtained by Inverse Iteration

 Displacement from previous Coordinates is:  0.302717
 ----------------------------------------------------------------
             Standard Nuclear Orientation (Angstroms)
    I     Atom           X                Y                Z
 ----------------------------------------------------------------
    1      C       1.3383552644     0.1740080098    -1.1053436498
    2      C       0.5137302508    -1.1251729288    -1.0675731513
    3      C      -0.7826703335    -0.6139165088    -2.1166668837
    4      C      -1.2027204920     0.0000618726    -0.4667552688
    5      C      -0.6450579017     0.8349958466    -1.7293528837
    6      N       0.8062865734     1.2633057479    -1.5065230514
    7      H       2.2299015421     0.1887846406    -0.4579702196
    8      H       1.1840543227    -1.9957699923    -1.1376190782
    9      H      -1.2336606760    -1.5995013142    -2.1444757604
   10      H      -2.1242573350     0.2671332216     0.0428009982
   11      H      -1.3531438951     1.5528282370    -2.1591683271
   12      C      -0.1459023516    -0.6975340930     0.2218476093
   13      H       0.2383878137    -0.6092543265     1.2160922765
 ----------------------------------------------------------------
 Nuclear Repulsion Energy =   277.7322705321 hartrees
 There are       25 alpha and       24 beta electrons
 Applying Cartesian multipole field
    Component          Value
    ---------          -----
     (2,0,0)        1.00000E-11
     (0,2,0)        2.00000E-11
     (0,0,2)       -3.00000E-11
 Nucleus-field energy     =    -0.0000000052 hartrees
 Requested basis set is 6-31G(d)
 There are 40 shells and 117 basis functions
 A cutoff of  1.0D-14 yielded    811 shell pairs
 There are      7083 function pairs
 Smallest overlap matrix eigenvalue = 1.85E-03
 Guess MOs from SCF MO coefficient file
 Reading MOs from coefficient file
 Reading MOs from coefficient file
 An unrestricted hybrid HF-DFT SCF calculation will be
 performed using Pulay DIIS extrapolation
 Exchange:     0.2000 Hartree-Fock + 0.0800 Slater + 0.7200 B88
 Correlation:  0.1900 VWN1RPA + 0.8100 LYP
 Using SG-1 standard quadrature grid
 SCF converges when DIIS error is below 1.0E-08
 Geometry optimization detected.  Setting ReadMinima to 0
 Setting SaveMinima to 0
Using Q-Chem read-in guess as SCF_GUESS READ specified.

 using 4 threads for integral computing
 -------------------------------------------------------
 OpenMP Integral computing Module                
 Release: version 1.0, May 2013, Q-Chem Inc. Pittsburgh 
 -------------------------------------------------------
 -------------------------------------------------------
 OpenMP BLAS3 based DFT computing Module                
 Release: version 1.0, May 2013, Q-Chem Inc. Pittsburgh 
 -------------------------------------------------------
 ---------------------------------------
  Cycle       Energy         DIIS Error
 ---------------------------------------
    1    -286.7998829947      2.67E-03
    2    -286.7447945055      8.25E-04
    3    -286.7442000696      1.05E-03
    4    -286.7460331727      1.18E-04
    5    -286.7460514508      6.19E-05
    6    -286.7460580765      2.16E-05
    7    -286.7460592677      7.95E-06
    8    -286.7460596506      2.44E-06
    9    -286.7460597492      8.41E-07
   10    -286.7460598215      3.60E-07
   11    -286.7460598443      3.01E-07
   12    -286.7460598507      1.20E-07
   13    -286.7460598527      1.02E-07
   14    -286.7460598533      2.27E-08
   15    -286.7460598533      5.16E-09 Convergence criterion met
 ---------------------------------------
 <S^2> = 0.7675
 SCF time:  CPU 39.72 s  wall 25.85 s
 SCF   energy in the final basis set = -286.74605985
 Total energy in the final basis set = -286.74605985
 
 --------------------------------------------------------------
 
                    Orbital Energies (a.u.)
 --------------------------------------------------------------
 
 Alpha MOs
 -- Occupied --
-14.323 -10.257 -10.235 -10.222 -10.216 -10.216 -10.207  -0.949
 -0.832  -0.754  -0.672  -0.595  -0.573  -0.532  -0.520  -0.459
 -0.435  -0.411  -0.393  -0.361  -0.314  -0.301  -0.277  -0.242
 -0.175
 -- Virtual --
  0.012   0.018   0.065   0.101   0.116   0.138   0.150   0.154
  0.165   0.185   0.207   0.249   0.263   0.297   0.316   0.367
  0.494   0.503   0.514   0.540   0.560   0.579   0.582   0.617
  0.624   0.637   0.656   0.680   0.704   0.722   0.774   0.793
  0.807   0.814   0.825   0.833   0.860   0.884   0.907   0.932
  0.955   0.993   1.056   1.163   1.202   1.219   1.261   1.326
  1.388   1.429   1.460   1.513   1.563   1.582   1.683   1.695
  1.743   1.806   1.823   1.853   1.869   1.919   1.968   2.025
  2.047   2.091   2.188   2.210   2.235   2.267   2.308   2.336
  2.393   2.444   2.459   2.524   2.527   2.566   2.595   2.623
  2.695   2.746   2.806   2.889   2.931   3.887   4.182   4.255
  4.273   4.430   4.508   4.610
 
 Beta MOs
 -- Occupied --
-14.321 -10.255 -10.231 -10.221 -10.218 -10.217 -10.197  -0.944
 -0.826  -0.746  -0.663  -0.590  -0.567  -0.523  -0.517  -0.454
 -0.429  -0.400  -0.389  -0.355  -0.307  -0.294  -0.262  -0.233
 -- Virtual --
 -0.075   0.022   0.038   0.069   0.105   0.119   0.145   0.153
  0.158   0.167   0.193   0.211   0.254   0.265   0.301   0.325
  0.370   0.505   0.507   0.524   0.550   0.563   0.582   0.587
  0.620   0.637   0.647   0.662   0.682   0.711   0.728   0.780
  0.796   0.810   0.819   0.832   0.835   0.862   0.889   0.911
  0.934   0.959   0.995   1.060   1.171   1.207   1.226   1.265
  1.333   1.395   1.434   1.468   1.517   1.572   1.595   1.689
  1.702   1.745   1.807   1.828   1.859   1.875   1.933   1.973
  2.031   2.060   2.102   2.200   2.222   2.244   2.285   2.312
  2.341   2.400   2.451   2.465   2.533   2.535   2.570   2.600
  2.630   2.702   2.752   2.812   2.891   2.933   3.891   4.190
  4.256   4.286   4.437   4.512   4.614
 --------------------------------------------------------------
 
          Ground-State Mulliken Net Atomic Charges

     Atom                 Charge (a.u.)    Spin (a.u.)
  --------------------------------------------------------
      1 C                     0.075698       0.025794
      2 C                    -0.282207      -0.064375
      3 C                    -0.118974       0.238488
      4 C                    -0.192012      -0.157661
      5 C                    -0.068292       0.100266
      6 N                    -0.329002       0.117371
      7 H                     0.139776       0.004866
      8 H                     0.146011       0.022080
      9 H                     0.210089      -0.014884
     10 H                     0.147403       0.009098
     11 H                     0.165466       0.002315
     12 C                    -0.045176       0.742020
     13 H                     0.151219      -0.025379
  --------------------------------------------------------
  Sum of atomic charges =    -0.000000
  Sum of spin   charges =     1.000000

 -----------------------------------------------------------------
                    Cartesian Multipole Moments
 -----------------------------------------------------------------
    Charge (ESU x 10^10)
                -0.0000
    Dipole Moment (Debye)
         X      -0.9618      Y      -2.0030      Z       1.0331
       Tot       2.4503
    Quadrupole Moments (Debye-Ang)
        XX     -38.5613     XY      -3.8318     YY     -42.9476
        XZ       3.1578     YZ       2.9233     ZZ     -42.8257
    Octopole Moments (Debye-Ang^2)
       XXX       3.8948    XXY       0.9803    XYY      -4.1530
       YYY      -2.9413    XXZ      44.6437    XYZ       4.9094
       YYZ      43.5283    XZZ      -4.7022    YZZ      -1.2887
       ZZZ     142.8112
    Hexadecapole Moments (Debye-Ang^3)
      XXXX    -253.8402   XXXY     -13.0677   XXYY     -79.8998
      XYYY     -17.7104   YYYY    -228.3829   XXXZ      -6.0919
      XXYZ       8.7147   XYYZ      10.5876   YYYZ      32.8399
      XXZZ    -126.5357   XYZZ     -11.8965   YYZZ    -115.8140
      XZZZ       2.2566   YZZZ      17.2332   ZZZZ    -515.4692
 -----------------------------------------------------------------
 Calculating analytic gradient of the SCF energy
 Gradient of SCF Energy
            1           2           3           4           5           6
    1  -0.0216665  -0.0258206  -0.0461346  -0.0108009   0.0042500   0.0442735
    2   0.0124027  -0.0474024   0.0380154  -0.0241040   0.0082172   0.0093804
    3  -0.0126825   0.0066513  -0.1008147   0.0159784  -0.0134187   0.0089933
            7           8           9          10          11          12
    1  -0.0051056   0.0140738   0.0265467   0.0071950  -0.0084045   0.0218361
    2  -0.0023679   0.0031209  -0.0145688  -0.0037780   0.0008123   0.0167871
    3   0.0155613   0.0048966   0.0291280   0.0129794  -0.0019129   0.0462202
           13
    1  -0.0002425
    2   0.0034849
    3  -0.0115798
 Max gradient component =       1.008E-01
 RMS gradient           =       2.604E-02
 Gradient time:  CPU 7.94 s  wall 2.19 s
 Geometry Optimization Parameters
   NAtoms,    NIC,     NZ,  NCons,   NDum,   NFix, NCnnct, MaxDiis
       13     128       0       0       0       0       0       0

 Cartesian Hessian Update
 Hessian Updated using BFGS Update


** GEOMETRY OPTIMIZATION IN DELOCALIZED INTERNAL COORDINATES **
   Searching for a Minimum

   Optimization Cycle:   4

                       Coordinates (Angstroms)
     ATOM                X               Y               Z
      1  C         1.3383552644    0.1740080098   -1.1053436498
      2  C         0.5137302508   -1.1251729288   -1.0675731513
      3  C        -0.7826703335   -0.6139165088   -2.1166668837
      4  C        -1.2027204920    0.0000618726   -0.4667552688
      5  C        -0.6450579017    0.8349958466   -1.7293528837
      6  N         0.8062865734    1.2633057479   -1.5065230514
      7  H         2.2299015421    0.1887846406   -0.4579702196
      8  H         1.1840543227   -1.9957699923   -1.1376190782
      9  H        -1.2336606760   -1.5995013142   -2.1444757604
     10  H        -2.1242573350    0.2671332216    0.0428009982
     11  H        -1.3531438951    1.5528282370   -2.1591683271
     12  C        -0.1459023516   -0.6975340930    0.2218476093
     13  H         0.2383878137   -0.6092543265    1.2160922765
   Point Group: c1    Number of degrees of freedom:    33


   Energy is   -286.746059853

 Hessian Updated using BFGS Update

 33 Hessian modes will be used to form the next step
  Hessian Eigenvalues:
     0.007932    0.008715    0.010020    0.013005    0.013788    0.018108
     0.021295    0.023837    0.044869    0.057839    0.063936    0.071800
     0.078798    0.082737    0.095809    0.112238    0.121564    0.135174
     0.150491    0.156669    0.181000    0.185002    0.237185    0.254672
     0.257164    0.308350    0.312080    0.312673    0.338829    0.350136
     0.359406    0.444732    0.682538

 Minimum Search - Taking Simple RFO Step
 Searching for Lamda that Minimizes Along All modes
 Value Taken    Lamda =  -0.05933758
 Calculated Step too Large.  Step scaled by  0.402776
 Step Taken.  Stepsize is  0.300000

                             Maximum     Tolerance    Cnvgd?
         Gradient           0.028655      0.000600      NO
         Displacement       0.137392      0.002400      NO
         Energy change     -0.028542      0.000002      NO


 New Cartesian Coordinates Obtained by Inverse Iteration

 Displacement from previous Coordinates is:  0.294565
 ----------------------------------------------------------------
             Standard Nuclear Orientation (Angstroms)
    I     Atom           X                Y                Z
 ----------------------------------------------------------------
    1      C       1.3592738810     0.1825852491    -1.1126708323
    2      C       0.5261278808    -1.1073068287    -1.0642372180
    3      C      -0.7627762882    -0.6266581730    -2.0673297422
    4      C      -1.2061154604     0.0085945357    -0.4780906584
    5      C      -0.6339774198     0.8270115320    -1.6990805329
    6      N       0.7769396078     1.2546604446    -1.5013103305
    7      H       2.2775546325     0.2222209780    -0.5133122005
    8      H       1.1734291380    -1.9886005187    -1.1559611551
    9      H      -1.2416629833    -1.5986821346    -2.0976452371
   10      H      -2.1469432727     0.2839480825    -0.0097417171
   11      H      -1.3269124818     1.5449573702    -2.1439231600
   12      C      -0.1684377970    -0.7135252868     0.2113887349
   13      H       0.1968033451    -0.6492368377     1.2212066594
 ----------------------------------------------------------------
 Nuclear Repulsion Energy =   279.7833362229 hartrees
 There are       25 alpha and       24 beta electrons
 Applying Cartesian multipole field
    Component          Value
    ---------          -----
     (2,0,0)        1.00000E-11
     (0,2,0)        2.00000E-11
     (0,0,2)       -3.00000E-11
 Nucleus-field energy     =    -0.0000000050 hartrees
 Requested basis set is 6-31G(d)
 There are 40 shells and 117 basis functions
 A cutoff of  1.0D-14 yielded    812 shell pairs
 There are      7084 function pairs
 Smallest overlap matrix eigenvalue = 1.62E-03
 Guess MOs from SCF MO coefficient file
 Reading MOs from coefficient file
 Reading MOs from coefficient file
 An unrestricted hybrid HF-DFT SCF calculation will be
 performed using Pulay DIIS extrapolation
 Exchange:     0.2000 Hartree-Fock + 0.0800 Slater + 0.7200 B88
 Correlation:  0.1900 VWN1RPA + 0.8100 LYP
 Using SG-1 standard quadrature grid
 SCF converges when DIIS error is below 1.0E-08
 Geometry optimization detected.  Setting ReadMinima to 0
 Setting SaveMinima to 0
Using Q-Chem read-in guess as SCF_GUESS READ specified.

 using 4 threads for integral computing
 -------------------------------------------------------
 OpenMP Integral computing Module                
 Release: version 1.0, May 2013, Q-Chem Inc. Pittsburgh 
 -------------------------------------------------------
 -------------------------------------------------------
 OpenMP BLAS3 based DFT computing Module                
 Release: version 1.0, May 2013, Q-Chem Inc. Pittsburgh 
 -------------------------------------------------------
 ---------------------------------------
  Cycle       Energy         DIIS Error
 ---------------------------------------
    1    -286.8114062721      2.40E-03
    2    -286.7666014140      6.72E-04
    3    -286.7662863138      8.31E-04
    4    -286.7674449790      8.11E-05
    5    -286.7674555928      3.85E-05
    6    -286.7674587307      1.36E-05
    7    -286.7674593205      8.78E-06
    8    -286.7674596215      1.88E-06
    9    -286.7674597083      9.77E-07
   10    -286.7674597643      4.07E-07
   11    -286.7674597832      2.31E-07
   12    -286.7674597882      1.28E-07
   13    -286.7674597902      4.00E-08
   14    -286.7674597903      3.67E-08
   15    -286.7674597903      7.69E-09 Convergence criterion met
 ---------------------------------------
 <S^2> = 0.7651
 SCF time:  CPU 39.89 s  wall 25.61 s
 SCF   energy in the final basis set = -286.76745979
 Total energy in the final basis set = -286.76745979
 
 --------------------------------------------------------------
 
                    Orbital Energies (a.u.)
 --------------------------------------------------------------
 
 Alpha MOs
 -- Occupied --
-14.321 -10.252 -10.229 -10.222 -10.213 -10.213 -10.206  -0.957
 -0.837  -0.754  -0.672  -0.597  -0.579  -0.529  -0.522  -0.459
 -0.436  -0.412  -0.398  -0.362  -0.315  -0.302  -0.276  -0.246
 -0.175
 -- Virtual --
  0.011   0.025   0.080   0.107   0.119   0.140   0.152   0.160
  0.166   0.197   0.212   0.252   0.272   0.304   0.322   0.372
  0.497   0.501   0.520   0.544   0.560   0.576   0.585   0.618
  0.625   0.634   0.663   0.678   0.705   0.724   0.776   0.792
  0.804   0.811   0.826   0.833   0.858   0.881   0.905   0.935
  0.959   0.992   1.048   1.163   1.207   1.228   1.274   1.325
  1.393   1.435   1.463   1.518   1.572   1.599   1.685   1.701
  1.764   1.813   1.845   1.860   1.888   1.951   1.975   2.036
  2.043   2.104   2.191   2.212   2.239   2.273   2.310   2.354
  2.414   2.459   2.468   2.525   2.544   2.586   2.624   2.628
  2.698   2.768   2.822   2.897   2.947   3.913   4.191   4.255
  4.278   4.433   4.521   4.642
 
 Beta MOs
 -- Occupied --
-14.319 -10.250 -10.226 -10.221 -10.215 -10.214 -10.195  -0.953
 -0.831  -0.747  -0.662  -0.593  -0.573  -0.521  -0.519  -0.454
 -0.430  -0.403  -0.395  -0.356  -0.311  -0.293  -0.261  -0.237
 -- Virtual --
 -0.073   0.032   0.033   0.083   0.112   0.122   0.148   0.155
  0.163   0.168   0.206   0.215   0.257   0.275   0.308   0.332
  0.375   0.504   0.509   0.528   0.555   0.562   0.580   0.591
  0.623   0.639   0.642   0.667   0.680   0.712   0.731   0.784
  0.795   0.809   0.814   0.832   0.835   0.860   0.887   0.910
  0.937   0.962   0.994   1.053   1.170   1.215   1.233   1.278
  1.332   1.399   1.441   1.469   1.522   1.583   1.612   1.692
  1.707   1.766   1.815   1.852   1.865   1.896   1.964   1.981
  2.042   2.055   2.114   2.203   2.224   2.247   2.291   2.315
  2.359   2.421   2.465   2.474   2.531   2.554   2.590   2.629
  2.633   2.705   2.775   2.827   2.899   2.949   3.917   4.199
  4.257   4.292   4.440   4.525   4.645
 --------------------------------------------------------------
 
          Ground-State Mulliken Net Atomic Charges

     Atom                 Charge (a.u.)    Spin (a.u.)
  --------------------------------------------------------
      1 C                     0.076203       0.033226
      2 C                    -0.283292      -0.066346
      3 C                    -0.116782       0.230028
      4 C                    -0.185128      -0.143764
      5 C                    -0.057614       0.085098
      6 N                    -0.330615       0.101253
      7 H                     0.141969       0.004643
      8 H                     0.144040       0.023280
      9 H                     0.202264      -0.013935
     10 H                     0.147746       0.008976
     11 H                     0.162188       0.003910
     12 C                    -0.047027       0.756428
     13 H                     0.146047      -0.022797
  --------------------------------------------------------
  Sum of atomic charges =    -0.000000
  Sum of spin   charges =     1.000000

 -----------------------------------------------------------------
                    Cartesian Multipole Moments
 -----------------------------------------------------------------
    Charge (ESU x 10^10)
                -0.0000
    Dipole Moment (Debye)
         X      -0.8989      Y      -1.9477      Z       1.0025
       Tot       2.3678
    Quadrupole Moments (Debye-Ang)
        XX     -38.1051     XY      -3.6739     YY     -42.9074
        XZ       2.8932     YZ       2.8600     ZZ     -43.0001
    Octopole Moments (Debye-Ang^2)
       XXX       4.1562    XXY       1.2906    XYY      -4.0318
       YYY      -2.6015    XXZ      43.7835    XYZ       4.7440
       YYZ      43.4114    XZZ      -4.1061    YZZ      -1.1327
       ZZZ     142.1627
    Hexadecapole Moments (Debye-Ang^3)
      XXXX    -250.5972   XXXY     -12.2886   XXYY     -79.6871
      XYYY     -17.4371   YYYY    -227.5280   XXXZ      -4.4429
      XXYZ       8.6217   XYYZ      10.5777   YYYZ      32.4716
      XXZZ    -124.6615   XYZZ     -11.7390   YYZZ    -114.4099
      XZZZ       2.7551   YZZZ      16.6539   ZZZZ    -505.1716
 -----------------------------------------------------------------
 Calculating analytic gradient of the SCF energy
 Gradient of SCF Energy
            1           2           3           4           5           6
    1  -0.0122491  -0.0225067  -0.0417458  -0.0091230   0.0091900   0.0270662
    2   0.0069549  -0.0403854   0.0379310  -0.0180791   0.0010912   0.0070982
    3  -0.0078733   0.0070806  -0.0902998   0.0097397  -0.0013865   0.0040625
            7           8           9          10          11          12
    1  -0.0046625   0.0120881   0.0252594   0.0052957  -0.0050546   0.0153488
    2  -0.0013371   0.0042885  -0.0142026  -0.0017245   0.0005716   0.0140837
    3   0.0130381   0.0029978   0.0300624   0.0103361  -0.0009521   0.0310757
           13
    1   0.0010935
    2   0.0037096
    3  -0.0078812
 Max gradient component =       9.030E-02
 RMS gradient           =       2.203E-02
 Gradient time:  CPU 8.07 s  wall 3.10 s
 Geometry Optimization Parameters
   NAtoms,    NIC,     NZ,  NCons,   NDum,   NFix, NCnnct, MaxDiis
       13     128       0       0       0       0       0       0

 Cartesian Hessian Update
 Hessian Updated using BFGS Update


** GEOMETRY OPTIMIZATION IN DELOCALIZED INTERNAL COORDINATES **
   Searching for a Minimum

   Optimization Cycle:   5

                       Coordinates (Angstroms)
     ATOM                X               Y               Z
      1  C         1.3592738810    0.1825852491   -1.1126708323
      2  C         0.5261278808   -1.1073068287   -1.0642372180
      3  C        -0.7627762882   -0.6266581730   -2.0673297422
      4  C        -1.2061154604    0.0085945357   -0.4780906584
      5  C        -0.6339774198    0.8270115320   -1.6990805329
      6  N         0.7769396078    1.2546604446   -1.5013103305
      7  H         2.2775546325    0.2222209780   -0.5133122005
      8  H         1.1734291380   -1.9886005187   -1.1559611551
      9  H        -1.2416629833   -1.5986821346   -2.0976452371
     10  H        -2.1469432727    0.2839480825   -0.0097417171
     11  H        -1.3269124818    1.5449573702   -2.1439231600
     12  C        -0.1684377970   -0.7135252868    0.2113887349
     13  H         0.1968033451   -0.6492368377    1.2212066594
   Point Group: c1    Number of degrees of freedom:    33


   Energy is   -286.767459790

 Hessian Updated using BFGS Update

 33 Hessian modes will be used to form the next step
  Hessian Eigenvalues:
     0.007712    0.008719    0.010016    0.013003    0.013776    0.018257
     0.021498    0.023833    0.044840    0.056542    0.064007    0.072283
     0.078938    0.084555    0.099218    0.113223    0.123611    0.142931
     0.150554    0.157007    0.181811    0.191731    0.239631    0.254781
     0.259178    0.308354    0.311870    0.312685    0.340861    0.351533
     0.360117    0.444948    0.683179

 Minimum Search - Taking Simple RFO Step
 Searching for Lamda that Minimizes Along All modes
 Value Taken    Lamda =  -0.04300809
 Calculated Step too Large.  Step scaled by  0.399201
 Step Taken.  Stepsize is  0.300000

                             Maximum     Tolerance    Cnvgd?
         Gradient           0.021970      0.000600      NO
         Displacement       0.181497      0.002400      NO
         Energy change     -0.021400      0.000002      NO


 New Cartesian Coordinates Obtained by Inverse Iteration

 Displacement from previous Coordinates is:  0.269617
 ----------------------------------------------------------------
             Standard Nuclear Orientation (Angstroms)
    I     Atom           X                Y                Z
 ----------------------------------------------------------------
    1      C       1.3800698099     0.1939566818    -1.1211873742
    2      C       0.5403391258    -1.0883947948    -1.0578974484
    3      C      -0.7422706464    -0.6388104529    -2.0218718831
    4      C      -1.2086539078     0.0134119073    -0.4836244942
    5      C      -0.6265097714     0.8231954106    -1.6771310457
    6      N       0.7612792709     1.2530684535    -1.4963127661
    7      H       2.3239397454     0.2515980673    -0.5707757088
    8      H       1.1629756764    -1.9827989352    -1.1661205866
    9      H      -1.2584219302    -1.5913697849    -2.0604517454
   10      H      -2.1674907851     0.2912858765    -0.0549399284
   11      H      -1.3083280574     1.5369473263    -2.1403960832
   12      C      -0.1884803938    -0.7302205025     0.2082669547
   13      H       0.1548546459    -0.6919008405     1.2317347196
 ----------------------------------------------------------------
 Nuclear Repulsion Energy =   281.0066423097 hartrees
 There are       25 alpha and       24 beta electrons
 Applying Cartesian multipole field
    Component          Value
    ---------          -----
     (2,0,0)        1.00000E-11
     (0,2,0)        2.00000E-11
     (0,0,2)       -3.00000E-11
 Nucleus-field energy     =    -0.0000000048 hartrees
 Requested basis set is 6-31G(d)
 There are 40 shells and 117 basis functions
 A cutoff of  1.0D-14 yielded    813 shell pairs
 There are      7085 function pairs
 Smallest overlap matrix eigenvalue = 1.50E-03
 Guess MOs from SCF MO coefficient file
 Reading MOs from coefficient file
 Reading MOs from coefficient file
 An unrestricted hybrid HF-DFT SCF calculation will be
 performed using Pulay DIIS extrapolation
 Exchange:     0.2000 Hartree-Fock + 0.0800 Slater + 0.7200 B88
 Correlation:  0.1900 VWN1RPA + 0.8100 LYP
 Using SG-1 standard quadrature grid
 SCF converges when DIIS error is below 1.0E-08
 Geometry optimization detected.  Setting ReadMinima to 0
 Setting SaveMinima to 0
Using Q-Chem read-in guess as SCF_GUESS READ specified.

 using 4 threads for integral computing
 -------------------------------------------------------
 OpenMP Integral computing Module                
 Release: version 1.0, May 2013, Q-Chem Inc. Pittsburgh 
 -------------------------------------------------------
 -------------------------------------------------------
 OpenMP BLAS3 based DFT computing Module                
 Release: version 1.0, May 2013, Q-Chem Inc. Pittsburgh 
 -------------------------------------------------------
 ---------------------------------------
  Cycle       Energy         DIIS Error
 ---------------------------------------
    1    -286.8142129341      1.89E-03
    2    -286.7824766472      5.10E-04
    3    -286.7823252986      6.22E-04
    4    -286.7829811669      7.48E-05
    5    -286.7829897697      3.84E-05
    6    -286.7829930770      1.27E-05
    7    -286.7829936886      6.32E-06
    8    -286.7829939081      1.89E-06
    9    -286.7829939779      1.40E-06
   10    -286.7829940226      4.74E-07
   11    -286.7829940406      3.21E-07
   12    -286.7829940497      1.26E-07
   13    -286.7829940526      6.60E-08
   14    -286.7829940530      1.81E-08
   15    -286.7829940531      5.87E-09 Convergence criterion met
 ---------------------------------------
 <S^2> = 0.7635
 SCF time:  CPU 39.98 s  wall 25.45 s
 SCF   energy in the final basis set = -286.78299405
 Total energy in the final basis set = -286.78299405
 
 --------------------------------------------------------------
 
                    Orbital Energies (a.u.)
 --------------------------------------------------------------
 
 Alpha MOs
 -- Occupied --
-14.320 -10.248 -10.225 -10.222 -10.211 -10.211 -10.204  -0.963
 -0.842  -0.754  -0.670  -0.599  -0.583  -0.529  -0.522  -0.460
 -0.436  -0.413  -0.402  -0.361  -0.321  -0.300  -0.275  -0.250
 -0.174
 -- Virtual --
  0.008   0.033   0.093   0.112   0.122   0.143   0.152   0.163
  0.166   0.205   0.212   0.254   0.280   0.307   0.327   0.376
  0.499   0.502   0.523   0.547   0.559   0.576   0.586   0.615
  0.628   0.636   0.667   0.676   0.706   0.724   0.775   0.790
  0.802   0.810   0.829   0.834   0.856   0.879   0.904   0.937
  0.963   0.990   1.043   1.159   1.199   1.249   1.285   1.323
  1.393   1.442   1.463   1.517   1.581   1.610   1.689   1.708
  1.771   1.819   1.857   1.864   1.905   1.976   1.978   2.027
  2.047   2.118   2.192   2.205   2.242   2.282   2.310   2.365
  2.427   2.465   2.478   2.522   2.559   2.598   2.631   2.643
  2.698   2.784   2.831   2.904   2.957   3.931   4.198   4.252
  4.283   4.436   4.525   4.662
 
 Beta MOs
 -- Occupied --
-14.319 -10.246 -10.222 -10.221 -10.213 -10.212 -10.194  -0.958
 -0.836  -0.747  -0.660  -0.595  -0.577  -0.524  -0.515  -0.455
 -0.431  -0.404  -0.398  -0.355  -0.317  -0.291  -0.261  -0.241
 -- Virtual --
 -0.071   0.028   0.042   0.095   0.116   0.126   0.150   0.156
  0.165   0.169   0.213   0.215   0.259   0.283   0.310   0.337
  0.379   0.503   0.513   0.530   0.559   0.561   0.581   0.594
  0.623   0.637   0.644   0.671   0.678   0.713   0.732   0.784
  0.794   0.806   0.812   0.834   0.836   0.858   0.885   0.908
  0.939   0.966   0.991   1.048   1.166   1.210   1.253   1.290
  1.329   1.398   1.448   1.469   1.522   1.592   1.622   1.694
  1.715   1.773   1.823   1.862   1.869   1.914   1.983   1.991
  2.039   2.053   2.128   2.203   2.217   2.249   2.298   2.316
  2.371   2.435   2.472   2.484   2.528   2.569   2.602   2.636
  2.647   2.705   2.791   2.836   2.906   2.958   3.934   4.206
  4.255   4.297   4.442   4.529   4.665
 --------------------------------------------------------------
 
          Ground-State Mulliken Net Atomic Charges

     Atom                 Charge (a.u.)    Spin (a.u.)
  --------------------------------------------------------
      1 C                     0.079285       0.039200
      2 C                    -0.281059      -0.067440
      3 C                    -0.116110       0.224118
      4 C                    -0.178320      -0.134356
      5 C                    -0.049006       0.074964
      6 N                    -0.332776       0.083957
      7 H                     0.143541       0.004325
      8 H                     0.142313       0.023920
      9 H                     0.195175      -0.013042
     10 H                     0.148018       0.008825
     11 H                     0.159812       0.005177
     12 C                    -0.052480       0.770134
     13 H                     0.141607      -0.019782
  --------------------------------------------------------
  Sum of atomic charges =    -0.000000
  Sum of spin   charges =     1.000000

 -----------------------------------------------------------------
                    Cartesian Multipole Moments
 -----------------------------------------------------------------
    Charge (ESU x 10^10)
                -0.0000
    Dipole Moment (Debye)
         X      -0.8709      Y      -1.9000      Z       0.9403
       Tot       2.2918
    Quadrupole Moments (Debye-Ang)
        XX     -37.6820     XY      -3.5238     YY     -42.9309
        XZ       2.7336     YZ       2.7836     ZZ     -43.0491
    Octopole Moments (Debye-Ang^2)
       XXX       4.0763    XXY       1.4583    XYY      -4.0527
       YYY      -2.4413    XXZ      42.8389    XYZ       4.5921
       YYZ      43.3162    XZZ      -3.9013    YZZ      -1.0247
       ZZZ     141.1901
    Hexadecapole Moments (Debye-Ang^3)
      XXXX    -248.6202   XXXY     -11.8615   XXYY     -79.8457
      XYYY     -17.7214   YYYY    -227.7962   XXXZ      -2.4371
      XXYZ       8.8088   XYYZ      10.9178   YYYZ      32.7671
      XXZZ    -122.9599   XYZZ     -11.7179   YYZZ    -113.3924
      XZZZ       4.2923   YZZZ      16.7964   ZZZZ    -495.8187
 -----------------------------------------------------------------
 Calculating analytic gradient of the SCF energy
 Gradient of SCF Energy
            1           2           3           4           5           6
    1  -0.0046067  -0.0193936  -0.0361276  -0.0080943   0.0119392   0.0147296
    2   0.0038207  -0.0325827   0.0346968  -0.0137764  -0.0023806   0.0053523
    3  -0.0049155   0.0062315  -0.0793238   0.0040416   0.0076572   0.0010064
            7           8           9          10          11          12
    1  -0.0040937   0.0100798   0.0223531   0.0039693  -0.0026684   0.0101525
    2  -0.0006143   0.0044622  -0.0138851   0.0000015   0.0006073   0.0106914
    3   0.0109298   0.0015383   0.0304840   0.0079700  -0.0007839   0.0204667
           13
    1   0.0017609
    2   0.0036070
    3  -0.0053024
 Max gradient component =       7.932E-02
 RMS gradient           =       1.875E-02
 Gradient time:  CPU 7.82 s  wall 3.91 s
 Geometry Optimization Parameters
   NAtoms,    NIC,     NZ,  NCons,   NDum,   NFix, NCnnct, MaxDiis
       13     128       0       0       0       0       0       0

 Cartesian Hessian Update
 Hessian Updated using BFGS Update


** GEOMETRY OPTIMIZATION IN DELOCALIZED INTERNAL COORDINATES **
   Searching for a Minimum

   Optimization Cycle:   6

                       Coordinates (Angstroms)
     ATOM                X               Y               Z
      1  C         1.3800698099    0.1939566818   -1.1211873742
      2  C         0.5403391258   -1.0883947948   -1.0578974484
      3  C        -0.7422706464   -0.6388104529   -2.0218718831
      4  C        -1.2086539078    0.0134119073   -0.4836244942
      5  C        -0.6265097714    0.8231954106   -1.6771310457
      6  N         0.7612792709    1.2530684535   -1.4963127661
      7  H         2.3239397454    0.2515980673   -0.5707757088
      8  H         1.1629756764   -1.9827989352   -1.1661205866
      9  H        -1.2584219302   -1.5913697849   -2.0604517454
     10  H        -2.1674907851    0.2912858765   -0.0549399284
     11  H        -1.3083280574    1.5369473263   -2.1403960832
     12  C        -0.1884803938   -0.7302205025    0.2082669547
     13  H         0.1548546459   -0.6919008405    1.2317347196
   Point Group: c1    Number of degrees of freedom:    33


   Energy is   -286.782994053

 Hessian Updated using BFGS Update

 33 Hessian modes will be used to form the next step
  Hessian Eigenvalues:
     0.007086    0.008723    0.010014    0.013001    0.013770    0.018362
     0.022202    0.023837    0.044808    0.054556    0.064087    0.073421
     0.078957    0.086712    0.101351    0.113766    0.124696    0.148234
     0.150975    0.157270    0.181425    0.200057    0.245710    0.254715
     0.260195    0.308372    0.311705    0.312704    0.342392    0.352810
     0.361105    0.445555    0.684188

 Minimum Search - Taking Simple RFO Step
 Searching for Lamda that Minimizes Along All modes
 Value Taken    Lamda =  -0.03330964
 Calculated Step too Large.  Step scaled by  0.380415
 Step Taken.  Stepsize is  0.300000

                             Maximum     Tolerance    Cnvgd?
         Gradient           0.021857      0.000600      NO
         Displacement       0.218070      0.002400      NO
         Energy change     -0.015534      0.000002      NO


 New Cartesian Coordinates Obtained by Inverse Iteration

 Displacement from previous Coordinates is:  0.232761
 ----------------------------------------------------------------
             Standard Nuclear Orientation (Angstroms)
    I     Atom           X                Y                Z
 ----------------------------------------------------------------
    1      C       1.3970022468     0.2044580910    -1.1289568008
    2      C       0.5553953594    -1.0723208352    -1.0482677023
    3      C      -0.7203203469    -0.6488153449    -1.9826178852
    4      C      -1.2092604678     0.0153832684    -0.4839242220
    5      C      -0.6226270866     0.8208762945    -1.6623201080
    6      N       0.7529369846     1.2544683054    -1.4923619773
    7      H       2.3634131132     0.2756668034    -0.6253816611
    8      H       1.1548382326    -1.9795254882    -1.1674312777
    9      H      -1.2819938292    -1.5741776251    -2.0407508591
   10      H      -2.1839624226     0.2915187932    -0.0912724305
   11      H      -1.2970435530     1.5272100511    -2.1438645225
   12      C      -0.2033947519    -0.7447177522     0.2109721187
   13      H       0.1183193036    -0.7300561488     1.2454699379
 ----------------------------------------------------------------
 Nuclear Repulsion Energy =   281.7091254499 hartrees
 There are       25 alpha and       24 beta electrons
 Applying Cartesian multipole field
    Component          Value
    ---------          -----
     (2,0,0)        1.00000E-11
     (0,2,0)        2.00000E-11
     (0,0,2)       -3.00000E-11
 Nucleus-field energy     =    -0.0000000046 hartrees
 Requested basis set is 6-31G(d)
 There are 40 shells and 117 basis functions
 A cutoff of  1.0D-14 yielded    813 shell pairs
 There are      7085 function pairs
 Smallest overlap matrix eigenvalue = 1.45E-03
 Guess MOs from SCF MO coefficient file
 Reading MOs from coefficient file
 Reading MOs from coefficient file
 An unrestricted hybrid HF-DFT SCF calculation will be
 performed using Pulay DIIS extrapolation
 Exchange:     0.2000 Hartree-Fock + 0.0800 Slater + 0.7200 B88
 Correlation:  0.1900 VWN1RPA + 0.8100 LYP
 Using SG-1 standard quadrature grid
 SCF converges when DIIS error is below 1.0E-08
 Geometry optimization detected.  Setting ReadMinima to 0
 Setting SaveMinima to 0
Using Q-Chem read-in guess as SCF_GUESS READ specified.

 using 4 threads for integral computing
 -------------------------------------------------------
 OpenMP Integral computing Module                
 Release: version 1.0, May 2013, Q-Chem Inc. Pittsburgh 
 -------------------------------------------------------
 -------------------------------------------------------
 OpenMP BLAS3 based DFT computing Module                
 Release: version 1.0, May 2013, Q-Chem Inc. Pittsburgh 
 -------------------------------------------------------
 ---------------------------------------
  Cycle       Energy         DIIS Error
 ---------------------------------------
    1    -286.8165142574      1.47E-03
    2    -286.7943572105      4.06E-04
    3    -286.7942258472      5.14E-04
    4    -286.7946809678      8.38E-05
    5    -286.7946922866      3.00E-05
    6    -286.7946944262      8.68E-06
    7    -286.7946947664      5.30E-06
    8    -286.7946949019      2.09E-06
    9    -286.7946949410      8.26E-07
   10    -286.7946949705      4.20E-07
   11    -286.7946949806      1.98E-07
   12    -286.7946949861      9.50E-08
   13    -286.7946949880      4.42E-08
   14    -286.7946949883      1.46E-08
   15    -286.7946949883      4.51E-09 Convergence criterion met
 ---------------------------------------
 <S^2> = 0.7624
 SCF time:  CPU 39.93 s  wall 29.39 s
 SCF   energy in the final basis set = -286.79469499
 Total energy in the final basis set = -286.79469499
 
 --------------------------------------------------------------
 
                    Orbital Energies (a.u.)
 --------------------------------------------------------------
 
 Alpha MOs
 -- Occupied --
-14.320 -10.245 -10.222 -10.222 -10.210 -10.209 -10.203  -0.966
 -0.845  -0.753  -0.669  -0.601  -0.584  -0.530  -0.520  -0.460
 -0.437  -0.413  -0.403  -0.361  -0.328  -0.297  -0.274  -0.254
 -0.173
 -- Virtual --
  0.005   0.040   0.101   0.116   0.125   0.146   0.153   0.164
  0.166   0.207   0.212   0.257   0.286   0.307   0.329   0.379
[...]
     0.091540    0.102548    0.118015    0.127434    0.146356    0.150192
     0.157950    0.178588    0.226192    0.237565    0.257602    0.259352
     0.283285    0.308369    0.310370    0.312789    0.343158    0.351145
     0.359878    0.447228    0.711279

 Minimum Search - Taking Simple RFO Step
 Searching for Lamda that Minimizes Along All modes
 Value Taken    Lamda =  -0.00000336
 Step Taken.  Stepsize is  0.015266

                             Maximum     Tolerance    Cnvgd?
         Gradient           0.000238      0.000600     YES
         Displacement       0.009448      0.002400      NO
         Energy change     -0.000010      0.000002      NO


 New Cartesian Coordinates Obtained by Inverse Iteration

 Displacement from previous Coordinates is:  0.009805
 ----------------------------------------------------------------
             Standard Nuclear Orientation (Angstroms)
    I     Atom           X                Y                Z
 ----------------------------------------------------------------
    1      C       1.4341905337     0.2101864773    -1.1642312732
    2      C       0.5929845999    -1.0403547495    -0.9383208052
    3      C      -0.7168317616    -0.6866543808    -1.7308624621
    4      C      -1.2538106801    -0.0572377034    -0.4312986677
    5      C      -0.6178092092     0.7923539317    -1.6231573991
    6      N       0.7461097510     1.2417752766    -1.4949586695
    7      H       2.4970907451     0.2797327118    -0.9381625235
    8      H       1.0844082014    -2.0104120694    -1.0401910624
    9      H      -1.2334998658    -1.2811630966    -2.4782968235
   10      H      -2.2710176807     0.1724542087    -0.1297424028
   11      H      -1.3162055934     1.4493765833    -2.1313812353
   12      C      -0.2145908640    -0.7434959464     0.3240890924
   13      H       0.0922846059    -0.6865928308     1.3658068419
 ----------------------------------------------------------------
 Nuclear Repulsion Energy =   282.1791529681 hartrees
 There are       25 alpha and       24 beta electrons
 Applying Cartesian multipole field
    Component          Value
    ---------          -----
     (2,0,0)        1.00000E-11
     (0,2,0)        2.00000E-11
     (0,0,2)       -3.00000E-11
 Nucleus-field energy     =    -0.0000000042 hartrees
 Requested basis set is 6-31G(d)
 There are 40 shells and 117 basis functions
 A cutoff of  1.0D-14 yielded    812 shell pairs
 There are      7084 function pairs
 Smallest overlap matrix eigenvalue = 1.65E-03
 Guess MOs from SCF MO coefficient file
 Reading MOs from coefficient file
 Reading MOs from coefficient file
 An unrestricted hybrid HF-DFT SCF calculation will be
 performed using Pulay DIIS extrapolation
 Exchange:     0.2000 Hartree-Fock + 0.0800 Slater + 0.7200 B88
 Correlation:  0.1900 VWN1RPA + 0.8100 LYP
 Using SG-1 standard quadrature grid
 SCF converges when DIIS error is below 1.0E-08
 Geometry optimization detected.  Setting ReadMinima to 0
 Setting SaveMinima to 0
Using Q-Chem read-in guess as SCF_GUESS READ specified.

 using 4 threads for integral computing
 -------------------------------------------------------
 OpenMP Integral computing Module                
 Release: version 1.0, May 2013, Q-Chem Inc. Pittsburgh 
 -------------------------------------------------------
 -------------------------------------------------------
 OpenMP BLAS3 based DFT computing Module                
 Release: version 1.0, May 2013, Q-Chem Inc. Pittsburgh 
 -------------------------------------------------------
 ---------------------------------------
  Cycle       Energy         DIIS Error
 ---------------------------------------
    1    -286.8377272069      6.21E-05
    2    -286.8383743293      1.09E-05
    3    -286.8383742475      1.52E-05
    4    -286.8383746247      3.27E-06
    5    -286.8383746412      1.40E-06
    6    -286.8383746458      3.83E-07
    7    -286.8383746464      2.00E-07
    8    -286.8383746466      3.82E-08
    9    -286.8383746466      1.82E-08
   10    -286.8383746466      6.88E-09 Convergence criterion met
 ---------------------------------------
 <S^2> = 0.7566
 SCF time:  CPU 26.49 s  wall 20.81 s
 SCF   energy in the final basis set = -286.83837465
 Total energy in the final basis set = -286.83837465
 
 --------------------------------------------------------------
 
                    Orbital Energies (a.u.)
 --------------------------------------------------------------
 
 Alpha MOs
 -- Occupied --
-14.320 -10.224 -10.220 -10.210 -10.209 -10.208 -10.206  -0.968
 -0.856  -0.749  -0.664  -0.606  -0.571  -0.535  -0.517  -0.467
 -0.439  -0.405  -0.400  -0.356  -0.336  -0.298  -0.273  -0.256
 -0.182
 -- Virtual --
  0.004   0.100   0.114   0.128   0.150   0.150   0.153   0.163
  0.177   0.200   0.221   0.262   0.280   0.296   0.348   0.391
  0.494   0.513   0.524   0.543   0.558   0.573   0.601   0.604
  0.605   0.659   0.675   0.677   0.720   0.741   0.770   0.777
  0.805   0.806   0.822   0.842   0.854   0.877   0.889   0.936
  0.954   0.973   1.043   1.096   1.206   1.237   1.328   1.390
  1.446   1.475   1.504   1.517   1.587   1.632   1.672   1.713
  1.743   1.828   1.873   1.881   1.932   1.954   1.988   2.026
  2.060   2.168   2.207   2.218   2.232   2.253   2.363   2.380
  2.456   2.490   2.502   2.541   2.590   2.626   2.664   2.676
  2.718   2.808   2.841   2.914   2.963   3.958   4.194   4.239
  4.362   4.433   4.508   4.640
 
 Beta MOs
 -- Occupied --
-14.319 -10.222 -10.219 -10.211 -10.209 -10.207 -10.193  -0.964
 -0.850  -0.741  -0.652  -0.601  -0.567  -0.528  -0.511  -0.461
 -0.434  -0.402  -0.394  -0.348  -0.332  -0.291  -0.262  -0.251
 -- Virtual --
 -0.062   0.019   0.102   0.118   0.134   0.151   0.156   0.157
  0.165   0.181   0.204   0.227   0.267   0.284   0.298   0.360
  0.394   0.497   0.518   0.532   0.553   0.561   0.578   0.607
  0.610   0.622   0.669   0.679   0.683   0.729   0.745   0.775
  0.787   0.808   0.809   0.824   0.844   0.858   0.882   0.892
  0.940   0.958   0.976   1.047   1.108   1.208   1.243   1.334
  1.392   1.449   1.481   1.514   1.525   1.594   1.640   1.677
  1.716   1.751   1.835   1.878   1.894   1.940   1.970   1.995
  2.035   2.068   2.172   2.222   2.226   2.242   2.270   2.368
  2.390   2.463   2.497   2.510   2.546   2.594   2.633   2.666
  2.684   2.725   2.813   2.845   2.917   2.964   3.960   4.208
  4.245   4.368   4.438   4.511   4.644
 --------------------------------------------------------------
 
          Ground-State Mulliken Net Atomic Charges

     Atom                 Charge (a.u.)    Spin (a.u.)
  --------------------------------------------------------
      1 C                     0.088923       0.046894
      2 C                    -0.258754      -0.065718
      3 C                    -0.107837       0.077997
      4 C                    -0.163766      -0.095839
      5 C                    -0.019083       0.096769
      6 N                    -0.342329       0.039124
      7 H                     0.143043       0.001380
      8 H                     0.142867       0.022621
      9 H                     0.148127      -0.000778
     10 H                     0.147248       0.005283
     11 H                     0.151385       0.002865
     12 C                    -0.066059       0.888717
     13 H                     0.136236      -0.019314
  --------------------------------------------------------
  Sum of atomic charges =    -0.000000
  Sum of spin   charges =     1.000000

 -----------------------------------------------------------------
                    Cartesian Multipole Moments
 -----------------------------------------------------------------
    Charge (ESU x 10^10)
                 0.0000
    Dipole Moment (Debye)
         X      -0.7647      Y      -1.8871      Z       0.2394
       Tot       2.0502
    Quadrupole Moments (Debye-Ang)
        XX     -36.8328     XY      -3.4573     YY     -43.8291
        XZ       2.8255     YZ       3.2243     ZZ     -40.2913
    Octopole Moments (Debye-Ang^2)
       XXX       3.9704    XXY       2.5199    XYY      -2.5823
       YYY       0.1643    XXZ      37.0353    XYZ       4.0601
       YYZ      42.0170    XZZ      -6.4355    YZZ      -3.2660
       ZZZ     122.7169
    Hexadecapole Moments (Debye-Ang^3)
      XXXX    -249.5578   XXXY     -12.6434   XXYY     -83.4386
      XYYY     -22.4165   YYYY    -224.4569   XXXZ       3.4787
      XXYZ       9.6787   XYYZ      11.5599   YYYZ      35.9187
      XXZZ    -112.9625   XYZZ      -9.5698   YYZZ    -107.8213
      XZZZ      22.9682   YZZZ      32.5204   ZZZZ    -425.0578
 -----------------------------------------------------------------
 Calculating analytic gradient of the SCF energy
 Gradient of SCF Energy
            1           2           3           4           5           6
    1   0.0001311   0.0000910  -0.0001724  -0.0000206  -0.0001000   0.0001663
    2  -0.0000195   0.0001445  -0.0001493   0.0000222  -0.0000649   0.0001096
    3  -0.0000656  -0.0000799   0.0000732  -0.0000602   0.0000307   0.0000983
            7           8           9          10          11          12
    1   0.0000041  -0.0000286  -0.0000389   0.0000239  -0.0000443   0.0000054
    2   0.0000035  -0.0000248   0.0000592  -0.0000006   0.0000031  -0.0000444
    3  -0.0000059   0.0000175  -0.0000134   0.0000761   0.0000234  -0.0000604
           13
    1  -0.0000170
    2  -0.0000388
    3  -0.0000339
 Max gradient component =       1.724E-04
 RMS gradient           =       7.308E-05
 Gradient time:  CPU 8.04 s  wall 3.60 s
 Geometry Optimization Parameters
   NAtoms,    NIC,     NZ,  NCons,   NDum,   NFix, NCnnct, MaxDiis
       13     128       0       0       0       0       0       0

 Cartesian Hessian Update
 Hessian Updated using BFGS Update


** GEOMETRY OPTIMIZATION IN DELOCALIZED INTERNAL COORDINATES **
   Searching for a Minimum

   Optimization Cycle:  23

                       Coordinates (Angstroms)
     ATOM                X               Y               Z
      1  C         1.4341905337    0.2101864773   -1.1642312732
      2  C         0.5929845999   -1.0403547495   -0.9383208052
      3  C        -0.7168317616   -0.6866543808   -1.7308624621
      4  C        -1.2538106801   -0.0572377034   -0.4312986677
      5  C        -0.6178092092    0.7923539317   -1.6231573991
      6  N         0.7461097510    1.2417752766   -1.4949586695
      7  H         2.4970907451    0.2797327118   -0.9381625235
      8  H         1.0844082014   -2.0104120694   -1.0401910624
      9  H        -1.2334998658   -1.2811630966   -2.4782968235
     10  H        -2.2710176807    0.1724542087   -0.1297424028
     11  H        -1.3162055934    1.4493765833   -2.1313812353
     12  C        -0.2145908640   -0.7434959464    0.3240890924
     13  H         0.0922846059   -0.6865928308    1.3658068419
   Point Group: c1    Number of degrees of freedom:    33


   Energy is   -286.838374647

 Hessian Updated using BFGS Update

 33 Hessian modes will be used to form the next step
  Hessian Eigenvalues:
     0.004296    0.009406    0.013427    0.016457    0.020073    0.022968
     0.029256    0.036199    0.052436    0.060408    0.073926    0.076919
     0.095396    0.101744    0.117955    0.126229    0.144554    0.150803
     0.158243    0.177295    0.230056    0.244648    0.257293    0.274164
     0.303064    0.308681    0.310535    0.313482    0.343046    0.350338
     0.359565    0.447397    0.708725

 Minimum Search - Taking Simple RFO Step
 Searching for Lamda that Minimizes Along All modes
 Value Taken    Lamda =   0.00000000
 Step Taken.  Stepsize is  0.006677

                             Maximum     Tolerance    Cnvgd?
         Gradient           0.000181      0.000600     YES
         Displacement       0.003472      0.002400      NO
         Energy change     -0.000001      0.000002     YES


                       Distance Matrix (Angstroms)
             C (  1)   C (  2)   C (  3)   C (  4)   C (  5)   N (  6)
   C (  2)  1.523980
   C (  3)  2.398393  1.571256
   C (  4)  2.798938  2.152729  1.540577
   C (  5)  2.181796  2.300835  1.486227  1.595879
   N (  6)  1.283359  2.354020  2.432013  2.611224  1.441766
   H (  7)  1.088899  2.316949  3.448416  3.799963  3.230263  2.074002
   H (  8)  2.251398  1.092193  2.339621  3.106913  3.330599  3.301209
   H (  9)  3.326780  2.401158  1.085838  2.385080  2.325900  3.354255
   H ( 10)  3.847097  3.213598  2.391056  1.085543  2.312501  3.479989
   H ( 11)  3.167909  3.356659  2.254394  2.272457  1.085232  2.168243
   C ( 12)  2.417248  1.527738  2.116200  1.456550  2.512606  2.858878
   H ( 13)  3.001003  2.384293  3.200630  2.331877  3.409608  3.511420
             H (  7)   H (  8)   H (  9)   H ( 10)   H ( 11)   C ( 12)
   H (  8)  2.692739
   H (  9)  4.327322  2.823588
   H ( 10)  4.837345  4.105205  2.950450
   H ( 11)  4.163300  4.350147  2.753732  2.559054
   C ( 12)  3.161249  2.270184  3.029955  2.296480  3.471538
   H ( 13)  3.467730  2.919869  4.109544  2.925718  4.333190  1.087468

 
 Final energy is   -286.838374646605     


 ******************************
 **  OPTIMIZATION CONVERGED  **
 ******************************

                       Coordinates (Angstroms)
     ATOM                X               Y               Z
      1  C         1.4341905337    0.2101864773   -1.1642312732
      2  C         0.5929845999   -1.0403547495   -0.9383208052
      3  C        -0.7168317616   -0.6866543808   -1.7308624621
      4  C        -1.2538106801   -0.0572377034   -0.4312986677
      5  C        -0.6178092092    0.7923539317   -1.6231573991
      6  N         0.7461097510    1.2417752766   -1.4949586695
      7  H         2.4970907451    0.2797327118   -0.9381625235
      8  H         1.0844082014   -2.0104120694   -1.0401910624
      9  H        -1.2334998658   -1.2811630966   -2.4782968235
     10  H        -2.2710176807    0.1724542087   -0.1297424028
     11  H        -1.3162055934    1.4493765833   -2.1313812353
     12  C        -0.2145908640   -0.7434959464    0.3240890924
     13  H         0.0922846059   -0.6865928308    1.3658068419

Z-matrix Print:
$molecule
0 2
N 
C  1 1.283359
H  2 1.088899 1 121.703165
C  1 1.441766 2 106.233825 3 -176.004621 0
H  4 1.085232 1 117.498129 2 -165.172205 0
C  4 1.486227 1 112.313545 2 -16.499673 0
H  6 1.085838 4 128.787832 1 -128.020957 0
C  2 1.523980 1 113.693799 3 172.067856 0
H  8 1.092193 2 117.815682 1 156.658998 0
C  8 1.527738 2 104.763226 1 -68.184327 0
H  10 1.087468 8 130.734949 2 -72.282035 0
C  10 1.456550 8 92.301518 2 85.256445 0
H  12 1.085543 10 128.622784 8 161.645559 0
$end

 
 --------------------------------------------------------------
 
                    Orbital Energies (a.u.)
 --------------------------------------------------------------
 
 Alpha MOs
 -- Occupied --
-14.320 -10.224 -10.220 -10.210 -10.209 -10.208 -10.206  -0.968
 -0.856  -0.749  -0.664  -0.606  -0.571  -0.535  -0.517  -0.467
 -0.439  -0.405  -0.400  -0.356  -0.336  -0.298  -0.273  -0.256
 -0.182
 -- Virtual --
  0.004   0.100   0.114   0.128   0.150   0.150   0.153   0.163
  0.177   0.200   0.221   0.262   0.280   0.296   0.348   0.391
  0.494   0.513   0.524   0.543   0.558   0.573   0.601   0.604
  0.605   0.659   0.675   0.677   0.720   0.741   0.770   0.777
  0.805   0.806   0.822   0.842   0.854   0.877   0.889   0.936
  0.954   0.973   1.043   1.096   1.206   1.237   1.328   1.390
  1.446   1.475   1.504   1.517   1.587   1.632   1.672   1.713
  1.743   1.828   1.873   1.881   1.932   1.954   1.988   2.026
  2.060   2.168   2.207   2.218   2.232   2.253   2.363   2.380
  2.456   2.490   2.502   2.541   2.590   2.626   2.664   2.676
  2.718   2.808   2.841   2.914   2.963   3.958   4.194   4.239
  4.362   4.433   4.508   4.640
 
 Beta MOs
 -- Occupied --
-14.319 -10.222 -10.219 -10.211 -10.209 -10.207 -10.193  -0.964
 -0.850  -0.741  -0.652  -0.601  -0.567  -0.528  -0.511  -0.461
 -0.434  -0.402  -0.394  -0.348  -0.332  -0.291  -0.262  -0.251
 -- Virtual --
 -0.062   0.019   0.102   0.118   0.134   0.151   0.156   0.157
  0.165   0.181   0.204   0.227   0.267   0.284   0.298   0.360
  0.394   0.497   0.518   0.532   0.553   0.561   0.578   0.607
  0.610   0.622   0.669   0.679   0.683   0.729   0.745   0.775
  0.787   0.808   0.809   0.824   0.844   0.858   0.882   0.892
  0.940   0.958   0.976   1.047   1.108   1.208   1.243   1.334
  1.392   1.449   1.481   1.514   1.525   1.594   1.640   1.677
  1.716   1.751   1.835   1.878   1.894   1.940   1.970   1.995
  2.035   2.068   2.172   2.222   2.226   2.242   2.270   2.368
  2.390   2.463   2.497   2.510   2.546   2.594   2.633   2.666
  2.684   2.725   2.813   2.845   2.917   2.964   3.960   4.208
  4.245   4.368   4.438   4.511   4.644
 --------------------------------------------------------------
 
          Ground-State Mulliken Net Atomic Charges

     Atom                 Charge (a.u.)    Spin (a.u.)
  --------------------------------------------------------
      1 C                     0.088923       0.046894
      2 C                    -0.258754      -0.065718
      3 C                    -0.107837       0.077997
      4 C                    -0.163766      -0.095839
      5 C                    -0.019083       0.096769
      6 N                    -0.342329       0.039124
      7 H                     0.143043       0.001380
      8 H                     0.142867       0.022621
      9 H                     0.148127      -0.000778
     10 H                     0.147248       0.005283
     11 H                     0.151385       0.002865
     12 C                    -0.066059       0.888717
     13 H                     0.136236      -0.019314
  --------------------------------------------------------
  Sum of atomic charges =    -0.000000
  Sum of spin   charges =     1.000000

 -----------------------------------------------------------------
                    Cartesian Multipole Moments
 -----------------------------------------------------------------
    Charge (ESU x 10^10)
                 0.0000
    Dipole Moment (Debye)
         X      -0.7647      Y      -1.8871      Z       0.2394
       Tot       2.0502
    Quadrupole Moments (Debye-Ang)
        XX     -36.8328     XY      -3.4573     YY     -43.8291
        XZ       2.8255     YZ       3.2243     ZZ     -40.2913
    Octopole Moments (Debye-Ang^2)
       XXX       3.9704    XXY       2.5199    XYY      -2.5823
       YYY       0.1643    XXZ      37.0353    XYZ       4.0601
       YYZ      42.0170    XZZ      -6.4355    YZZ      -3.2660
       ZZZ     122.7169
    Hexadecapole Moments (Debye-Ang^3)
      XXXX    -249.5578   XXXY     -12.6434   XXYY     -83.4386
      XYYY     -22.4165   YYYY    -224.4569   XXXZ       3.4787
      XXYZ       9.6787   XYYZ      11.5599   YYYZ      35.9187
      XXZZ    -112.9625   XYZZ      -9.5698   YYZZ    -107.8213
      XZZZ      22.9682   YZZZ      32.5204   ZZZZ    -425.0578
 -----------------------------------------------------------------
Archival summary:
1\1\c8-66\OPT\ProcedureUnspecified\6-31G*\166(2)\hpark21\TueMar112:34:272022TueMar112:34:272022\0\\#,OPT,ProcedureUnspecified,6-31G*,\\0,2\N\C,1,1.28336\H,2,1.0889,1,121.703\C,1,1.44177,2,106.234,3,-176.005,0\H,4,1.08523,1,117.498,2,-165.172,0\C,4,1.48623,1,112.314,2,-16.4997,0\H,6,1.08584,4,128.788,1,-128.021,0\C,2,1.52398,1,113.694,3,172.068,0\H,8,1.09219,2,117.816,1,156.659,0\C,8,1.52774,2,104.763,1,-68.1843,0\H,10,1.08747,8,130.735,2,-72.282,0\C,10,1.45655,8,92.3015,2,85.2564,0\H,12,1.08554,10,128.623,8,161.646,0\\\@

 Total job time:  722.00s(wall), 1009.71s(cpu) 
 Tue Mar  1 12:34:27 2022

        *************************************************************
        *                                                           *
        *  Thank you very much for using Q-Chem.  Have a nice day.  *
        *                                                           *
        *************************************************************


