13   
From optimize.out: Frame 1 / 23, Energy=    -286.6392649246
C        0.0892820000    0.0167370000   -0.0000000000
C       -0.2616190000   -0.0582190000   -0.0000000000
C       -0.1407960000    0.2711530000   -0.0000000000
C       -0.2026350000   -0.2262910000   -0.0000000000
C       -0.0897410000    0.1639280000   -0.0000000000
N       -0.3217770000    0.1371440000   -0.0000000000
H        0.1284690000    0.0037890000   -0.0000000000
H        0.1512620000    0.0160700000   -0.0000000000
H        0.2296470000   -0.0172870000   -0.0000000000
H        0.1461870000    0.0080670000    0.0000000000
H        0.1745580000   -0.0033700000   -0.0000000000
C       -0.0701110000    0.7181590000    0.0000000000
H        0.1672750000   -0.0298800000    0.0000000000
13   
From optimize.out: Frame 2 / 23, Energy=    -286.6815949414
C        0.0837020000    0.0170140000   -0.0000000000
C       -0.2700980000   -0.0607500000   -0.0000000000
C       -0.1324260000    0.2627470000   -0.0000000000
C       -0.2009980000   -0.2016640000   -0.0000000000
C       -0.0860430000    0.1430580000   -0.0000000000
N       -0.3246550000    0.1309980000   -0.0000000000
H        0.1338420000    0.0046750000   -0.0000000000
H        0.1493150000    0.0182430000   -0.0000000000
H        0.2244300000   -0.0167670000   -0.0000000000
H        0.1468370000    0.0086670000    0.0000000000
H        0.1724040000   -0.0015010000   -0.0000000000
C       -0.0582300000    0.7240980000    0.0000000000
H        0.1619200000   -0.0288170000    0.0000000000
13   
From optimize.out: Frame 3 / 23, Energy=    -286.7175180038
C        0.0785240000    0.0200010000   -0.0000000000
C       -0.2775420000   -0.0622610000   -0.0000000000
C       -0.1240340000    0.2500080000   -0.0000000000
C       -0.1975670000   -0.1768430000   -0.0000000000
C       -0.0787380000    0.1202190000   -0.0000000000
N       -0.3271400000    0.1273570000   -0.0000000000
H        0.1369810000    0.0048920000   -0.0000000000
H        0.1478600000    0.0203740000   -0.0000000000
H        0.2177070000   -0.0158780000   -0.0000000000
H        0.1470760000    0.0090450000    0.0000000000
H        0.1690410000    0.0004710000   -0.0000000000
C       -0.0487840000    0.7299240000    0.0000000000
H        0.1566150000   -0.0273110000    0.0000000000
13   
From optimize.out: Frame 4 / 23, Energy=    -286.7460598533
C        0.0756980000    0.0257940000   -0.0000000000
C       -0.2822070000   -0.0643750000   -0.0000000000
C       -0.1189740000    0.2384880000   -0.0000000000
C       -0.1920120000   -0.1576610000   -0.0000000000
C       -0.0682920000    0.1002660000   -0.0000000000
N       -0.3290020000    0.1173710000   -0.0000000000
H        0.1397760000    0.0048660000   -0.0000000000
H        0.1460110000    0.0220800000   -0.0000000000
H        0.2100890000   -0.0148840000   -0.0000000000
H        0.1474030000    0.0090980000    0.0000000000
H        0.1654660000    0.0023150000   -0.0000000000
C       -0.0451760000    0.7420200000    0.0000000000
H        0.1512190000   -0.0253790000    0.0000000000
13   
From optimize.out: Frame 5 / 23, Energy=    -286.7674597903
C        0.0762030000    0.0332260000   -0.0000000000
C       -0.2832920000   -0.0663460000   -0.0000000000
C       -0.1167820000    0.2300280000   -0.0000000000
C       -0.1851280000   -0.1437640000   -0.0000000000
C       -0.0576140000    0.0850980000   -0.0000000000
N       -0.3306150000    0.1012530000   -0.0000000000
H        0.1419690000    0.0046430000   -0.0000000000
H        0.1440400000    0.0232800000   -0.0000000000
H        0.2022640000   -0.0139350000   -0.0000000000
H        0.1477460000    0.0089760000   -0.0000000000
H        0.1621880000    0.0039100000   -0.0000000000
C       -0.0470270000    0.7564280000    0.0000000000
H        0.1460470000   -0.0227970000    0.0000000000
13   
From optimize.out: Frame 6 / 23, Energy=    -286.7829940531
C        0.0792850000    0.0392000000   -0.0000000000
C       -0.2810590000   -0.0674400000   -0.0000000000
C       -0.1161100000    0.2241180000   -0.0000000000
C       -0.1783200000   -0.1343560000   -0.0000000000
C       -0.0490060000    0.0749640000   -0.0000000000
N       -0.3327760000    0.0839570000   -0.0000000000
H        0.1435410000    0.0043250000   -0.0000000000
H        0.1423130000    0.0239200000   -0.0000000000
H        0.1951750000   -0.0130420000   -0.0000000000
H        0.1480180000    0.0088250000   -0.0000000000
H        0.1598120000    0.0051770000   -0.0000000000
C       -0.0524800000    0.7701340000    0.0000000000
H        0.1416070000   -0.0197820000    0.0000000000
13   
From optimize.out: Frame 7 / 23, Energy=    -286.7946949883
C        0.0826550000    0.0424130000   -0.0000000000
C       -0.2773050000   -0.0674700000   -0.0000000000
C       -0.1155100000    0.2191680000   -0.0000000000
C       -0.1730500000   -0.1278080000   -0.0000000000
C       -0.0424290000    0.0684030000   -0.0000000000
N       -0.3350940000    0.0702720000   -0.0000000000
H        0.1444280000    0.0040030000   -0.0000000000
H        0.1413040000    0.0240710000   -0.0000000000
H        0.1889720000   -0.0122260000   -0.0000000000
H        0.1481110000    0.0087080000   -0.0000000000
H        0.1582370000    0.0061020000   -0.0000000000
C       -0.0586520000    0.7812000000    0.0000000000
H        0.1383330000   -0.0168360000    0.0000000000
13   
From optimize.out: Frame 8 / 23, Energy=    -286.8040540114
C        0.0850000000    0.0436080000   -0.0000000000
C       -0.2736320000   -0.0669130000   -0.0000000000
C       -0.1144000000    0.2136410000   -0.0000000000
C       -0.1698860000   -0.1226270000   -0.0000000000
C       -0.0370060000    0.0643440000   -0.0000000000
N       -0.3370780000    0.0609230000   -0.0000000000
H        0.1448400000    0.0037240000   -0.0000000000
H        0.1410510000    0.0239230000   -0.0000000000
H        0.1835780000   -0.0115600000   -0.0000000000
H        0.1480320000    0.0086010000   -0.0000000000
H        0.1571100000    0.0067200000   -0.0000000000
C       -0.0637200000    0.7899230000    0.0000000000
H        0.1361100000   -0.0143080000    0.0000000000
13   
From optimize.out: Frame 9 / 23, Energy=    -286.8118048972
C        0.0862160000    0.0439060000   -0.0000000000
C       -0.2708660000   -0.0662370000   -0.0000000000
C       -0.1126020000    0.2059280000   -0.0000000000
C       -0.1686770000   -0.1176370000   -0.0000000000
C       -0.0323010000    0.0624910000   -0.0000000000
N       -0.3385300000    0.0547840000   -0.0000000000
H        0.1449470000    0.0034770000   -0.0000000000
H        0.1413370000    0.0236400000   -0.0000000000
H        0.1789210000   -0.0110180000   -0.0000000000
H        0.1478080000    0.0084530000   -0.0000000000
H        0.1562030000    0.0070520000   -0.0000000000
C       -0.0670850000    0.7974950000    0.0000000000
H        0.1346280000   -0.0123350000    0.0000000000
13   
From optimize.out: Frame 10 / 23, Energy=    -286.8182096327
C        0.0866220000    0.0439650000   -0.0000000000
C       -0.2691850000   -0.0656930000   -0.0000000000
C       -0.1101550000    0.1945090000   -0.0000000000
C       -0.1690100000   -0.1120660000   -0.0000000000
C       -0.0281330000    0.0626840000   -0.0000000000
N       -0.3394270000    0.0508110000   -0.0000000000
H        0.1448420000    0.0032330000   -0.0000000000
H        0.1418970000    0.0233310000   -0.0000000000
H        0.1747400000   -0.0104390000   -0.0000000000
H        0.1474780000    0.0082040000   -0.0000000000
H        0.1553980000    0.0070950000   -0.0000000000
C       -0.0687370000    0.8054270000    0.0000000000
H        0.1336690000   -0.0110610000    0.0000000000
13   
From optimize.out: Frame 11 / 23, Energy=    -286.8233987493
C        0.0867610000    0.0440900000   -0.0000000000
C       -0.2680970000   -0.0653610000   -0.0000000000
C       -0.1076570000    0.1788200000   -0.0000000000
C       -0.1701640000   -0.1058330000   -0.0000000000
C       -0.0244890000    0.0646500000   -0.0000000000
N       -0.3399360000    0.0480260000   -0.0000000000
H        0.1446110000    0.0029690000   -0.0000000000
H        0.1424620000    0.0230430000   -0.0000000000
H        0.1707480000   -0.0096060000   -0.0000000000
H        0.1471200000    0.0078210000   -0.0000000000
H        0.1546490000    0.0068640000   -0.0000000000
C       -0.0691350000    0.8151490000    0.0000000000
H        0.1331270000   -0.0106340000    0.0000000000
13   
From optimize.out: Frame 12 / 23, Energy=    -286.8275404541
C        0.0869730000    0.0443130000   -0.0000000000
C       -0.2668730000   -0.0652180000   -0.0000000000
C       -0.1060230000    0.1601270000   -0.0000000000
C       -0.1712380000   -0.0998110000   -0.0000000000
C       -0.0214010000    0.0679090000   -0.0000000000
N       -0.3402460000    0.0457580000   -0.0000000000
H        0.1443090000    0.0026890000   -0.0000000000
H        0.1428780000    0.0227920000   -0.0000000000
H        0.1667380000   -0.0083950000   -0.0000000000
H        0.1468300000    0.0073390000   -0.0000000000
H        0.1539540000    0.0064100000   -0.0000000000
C       -0.0689100000    0.8272160000    0.0000000000
H        0.1330080000   -0.0111310000    0.0000000000
13   
From optimize.out: Frame 13 / 23, Energy=    -286.8308410056
C        0.0875750000    0.0445000000   -0.0000000000
C       -0.2651960000   -0.0652280000   -0.0000000000
C       -0.1056330000    0.1411080000   -0.0000000000
C       -0.1714850000   -0.0951840000   -0.0000000000
C       -0.0190750000    0.0717690000   -0.0000000000
N       -0.3405680000    0.0436070000   -0.0000000000
H        0.1439890000    0.0024110000   -0.0000000000
H        0.1430510000    0.0225760000   -0.0000000000
H        0.1626890000   -0.0068680000   -0.0000000000
H        0.1466670000    0.0068400000   -0.0000000000
H        0.1533350000    0.0058310000   -0.0000000000
C       -0.0686500000    0.8411390000    0.0000000000
H        0.1333000000   -0.0125010000    0.0000000000
13   
From optimize.out: Frame 14 / 23, Energy=    -286.8335252334
C        0.0887250000    0.0442750000   -0.0000000000
C       -0.2631840000   -0.0653970000   -0.0000000000
C       -0.1064560000    0.1244130000   -0.0000000000
C       -0.1705180000   -0.0925800000   -0.0000000000
C       -0.0175880000    0.0753570000   -0.0000000000
N       -0.3410320000    0.0417030000   -0.0000000000
H        0.1436480000    0.0021740000   -0.0000000000
H        0.1429040000    0.0223900000   -0.0000000000
H        0.1587530000   -0.0052370000   -0.0000000000
H        0.1466290000    0.0063980000   -0.0000000000
H        0.1528080000    0.0052350000   -0.0000000000
C       -0.0685990000    0.8558770000    0.0000000000
H        0.1339100000   -0.0146080000    0.0000000000
13   
From optimize.out: Frame 15 / 23, Energy=    -286.8357385311
C        0.0899950000    0.0434280000   -0.0000000000
C       -0.2611580000   -0.0656990000   -0.0000000000
C       -0.1078360000    0.1107520000   -0.0000000000
C       -0.1685750000   -0.0916790000   -0.0000000000
C       -0.0167970000    0.0783050000   -0.0000000000
N       -0.3416020000    0.0405870000   -0.0000000000
H        0.1433180000    0.0020100000   -0.0000000000
H        0.1424950000    0.0222440000   -0.0000000000
H        0.1550910000   -0.0036910000   -0.0000000000
H        0.1467380000    0.0060150000   -0.0000000000
H        0.1523240000    0.0047030000   -0.0000000000
C       -0.0686590000    0.8701080000    0.0000000000
H        0.1346650000   -0.0170820000    0.0000000000
13   
From optimize.out: Frame 16 / 23, Energy=    -286.8373576279
C        0.0900680000    0.0430170000   -0.0000000000
C       -0.2594590000   -0.0661090000   -0.0000000000
C       -0.1087150000    0.0987000000   -0.0000000000
C       -0.1663060000   -0.0921250000   -0.0000000000
C       -0.0165990000    0.0818810000   -0.0000000000
N       -0.3420530000    0.0402640000   -0.0000000000
H        0.1430440000    0.0018960000   -0.0000000000
H        0.1422050000    0.0221530000   -0.0000000000
H        0.1517940000   -0.0022930000   -0.0000000000
H        0.1469930000    0.0056750000   -0.0000000000
H        0.1518160000    0.0041700000   -0.0000000000
C       -0.0682820000    0.8820880000    0.0000000000
H        0.1354950000   -0.0193170000    0.0000000000
13   
From optimize.out: Frame 17 / 23, Energy=    -286.8381907666
C        0.0902180000    0.0435340000   -0.0000000000
C       -0.2588490000   -0.0664670000   -0.0000000000
C       -0.1086540000    0.0880230000   -0.0000000000
C       -0.1635280000   -0.0937990000   -0.0000000000
C       -0.0176770000    0.0872170000   -0.0000000000
N       -0.3426330000    0.0398220000   -0.0000000000
H        0.1429380000    0.0017140000   -0.0000000000
H        0.1420840000    0.0220980000   -0.0000000000
H        0.1491710000   -0.0011120000   -0.0000000000
H        0.1471670000    0.0053660000   -0.0000000000
H        0.1512910000    0.0035740000   -0.0000000000
C       -0.0677610000    0.8910870000    0.0000000000
H        0.1362340000   -0.0210560000    0.0000000000
13   
From optimize.out: Frame 18 / 23, Energy=    -286.8382474373
C        0.0871120000    0.0470750000   -0.0000000000
C       -0.2580700000   -0.0663690000   -0.0000000000
C       -0.1081720000    0.0810180000   -0.0000000000
C       -0.1636130000   -0.0957940000   -0.0000000000
C       -0.0178740000    0.0935070000   -0.0000000000
N       -0.3421440000    0.0393330000   -0.0000000000
H        0.1429270000    0.0014610000   -0.0000000000
H        0.1428840000    0.0222670000   -0.0000000000
H        0.1480690000   -0.0005520000   -0.0000000000
H        0.1473830000    0.0052330000   -0.0000000000
H        0.1509900000    0.0030260000   -0.0000000000
C       -0.0663920000    0.8905350000    0.0000000000
H        0.1369010000   -0.0207410000    0.0000000000
13   
From optimize.out: Frame 19 / 23, Energy=    -286.8382628305
C        0.0901190000    0.0455380000   -0.0000000000
C       -0.2593770000   -0.0662310000   -0.0000000000
C       -0.1085340000    0.0800000000   -0.0000000000
C       -0.1619270000   -0.0965550000   -0.0000000000
C       -0.0191060000    0.0953510000   -0.0000000000
N       -0.3431340000    0.0395940000   -0.0000000000
H        0.1430670000    0.0013690000   -0.0000000000
H        0.1424430000    0.0223000000   -0.0000000000
H        0.1478840000   -0.0005590000   -0.0000000000
H        0.1470840000    0.0051800000   -0.0000000000
H        0.1510920000    0.0028730000   -0.0000000000
C       -0.0662380000    0.8921640000    0.0000000000
H        0.1366300000   -0.0210250000    0.0000000000
13   
From optimize.out: Frame 20 / 23, Energy=    -286.8383585682
C        0.0895670000    0.0460240000   -0.0000000000
C       -0.2589690000   -0.0659420000   -0.0000000000
C       -0.1079020000    0.0810940000   -0.0000000000
C       -0.1634890000   -0.0955700000   -0.0000000000
C       -0.0188190000    0.0942820000   -0.0000000000
N       -0.3426550000    0.0393600000   -0.0000000000
H        0.1430940000    0.0014090000   -0.0000000000
H        0.1426110000    0.0223980000   -0.0000000000
H        0.1484050000   -0.0007490000   -0.0000000000
H        0.1472150000    0.0052180000   -0.0000000000
H        0.1511520000    0.0030430000   -0.0000000000
C       -0.0665130000    0.8894350000    0.0000000000
H        0.1363050000   -0.0200040000    0.0000000000
13   
From optimize.out: Frame 21 / 23, Energy=    -286.8383636688
C        0.0884680000    0.0467770000   -0.0000000000
C       -0.2587320000   -0.0660330000   -0.0000000000
C       -0.1082910000    0.0797900000   -0.0000000000
C       -0.1636330000   -0.0958830000   -0.0000000000
C       -0.0185740000    0.0953650000   -0.0000000000
N       -0.3422950000    0.0392850000   -0.0000000000
H        0.1429100000    0.0014310000   -0.0000000000
H        0.1427600000    0.0225290000   -0.0000000000
H        0.1482340000   -0.0008010000   -0.0000000000
H        0.1471780000    0.0053190000   -0.0000000000
H        0.1513390000    0.0029220000   -0.0000000000
C       -0.0657940000    0.8891490000    0.0000000000
H        0.1364310000   -0.0198490000    0.0000000000
13   
From optimize.out: Frame 22 / 23, Energy=    -286.8383733493
C        0.0887110000    0.0467470000   -0.0000000000
C       -0.2587250000   -0.0657670000   -0.0000000000
C       -0.1078520000    0.0785510000   -0.0000000000
C       -0.1638480000   -0.0958690000   -0.0000000000
C       -0.0188590000    0.0962440000   -0.0000000000
N       -0.3422720000    0.0394220000   -0.0000000000
H        0.1429910000    0.0013800000   -0.0000000000
H        0.1428500000    0.0226120000   -0.0000000000
H        0.1481140000   -0.0007660000   -0.0000000000
H        0.1472460000    0.0052770000   -0.0000000000
H        0.1513100000    0.0028920000   -0.0000000000
C       -0.0660070000    0.8887900000    0.0000000000
H        0.1363430000   -0.0195140000    0.0000000000
