13   
From optimize.out: Frame 1 / 23, Energy=    -286.6031855838
C        1.4342707657    0.0514153271   -0.4686602423
C        0.5719556226   -1.0974315518   -0.9411172544
C       -0.9173722366   -0.6642418631   -1.7500813442
C       -1.3325798520   -0.1086170836   -0.3889801139
C       -0.7668540045    0.7324646989   -1.3198940192
N        0.8077918350    1.1687305673   -1.3321231084
H        2.5340868054    0.1969754973   -0.2193066086
H        0.5623473004   -2.1489045018   -1.0326889088
H       -1.1336871950   -0.2710284526   -2.7467593245
H       -2.3897370463    0.0087272479   -0.1775843007
H       -1.1837857294    1.6251432375   -1.6715779338
C        0.1592163481   -0.2251599100    0.2470897088
H        0.2262067670   -0.6463982960    1.3473577721
13   
From optimize.out: Frame 2 / 23, Energy=    -286.6482004836
C        1.3972874147    0.0602744078   -0.4810742158
C        0.5631319088   -1.1053311807   -0.9377384504
C       -0.8915061326   -0.6644209097   -1.7441016079
C       -1.3137087479   -0.0972451628   -0.3755548973
C       -0.7477698029    0.7659639515   -1.3313370548
N        0.7917161702    1.1888800506   -1.3367722450
H        2.4793448395    0.2082353479   -0.2382674041
H        0.5777754233   -2.1672100508   -1.0163401992
H       -1.1102725673   -0.2998008935   -2.7496216422
H       -2.3671082152    0.0231934161   -0.1441412606
H       -1.1796037199    1.6600535049   -1.7028424395
C        0.1454569834   -0.2572381326    0.2684649336
H        0.2271158261   -0.6936794315    1.3350008051
13   
From optimize.out: Frame 3 / 23, Energy=    -286.6862075464
C        1.3573151587    0.0689728593   -0.4957465030
C        0.5504604326   -1.1111110023   -0.9398087443
C       -0.8642765541   -0.6645882645   -1.7349185049
C       -1.2904560937   -0.0854431364   -0.3657668849
C       -0.7250171199    0.7970957582   -1.3388538717
N        0.7675292270    1.1961598500   -1.3341996075
H        2.4255822078    0.2174944011   -0.2555260567
H        0.5920348324   -2.1796217362   -1.0057110139
H       -1.0830467775   -0.3271219248   -2.7479914325
H       -2.3387338616    0.0389545990   -0.1140055333
H       -1.1749027859    1.6851836310   -1.7267513152
C        0.1295381474   -0.2854923887    0.2853165413
H        0.2258325673   -0.7288077286    1.3196372488
13   
From optimize.out: Frame 4 / 23, Energy=    -286.7168793349
C        1.3216084988    0.0785871591   -0.5090380447
C        0.5386181638   -1.1164626944   -0.9444789906
C       -0.8420982559   -0.6638290888   -1.7239461589
C       -1.2702267870   -0.0696786920   -0.3600590594
C       -0.7041523408    0.8286580093   -1.3465708285
N        0.7436888978    1.2014361392   -1.3284567736
H        2.3816130941    0.2250051844   -0.2676843637
H        0.6092186373   -2.1889137540   -0.9975463992
H       -1.0611661473   -0.3572824942   -2.7451147164
H       -2.3131693601    0.0591098069   -0.0890359663
H       -1.1750189162    1.7055424784   -1.7513106298
C        0.1167506462   -0.3139111156    0.2993341225
H        0.2261932495   -0.7665860210    1.3095821309
13   
From optimize.out: Frame 5 / 23, Energy=    -286.7411627456
C        1.2915739141    0.0886443641   -0.5200319242
C        0.5284562296   -1.1210474700   -0.9512801923
C       -0.8259440684   -0.6621290713   -1.7118738473
C       -1.2540310336   -0.0506008254   -0.3578959984
C       -0.6857175215    0.8608447906   -1.3540667292
N        0.7263291963    1.2085727133   -1.3205127191
H        2.3458832730    0.2285453437   -0.2729947437
H        0.6306143419   -2.1949635834   -0.9912512414
H       -1.0471710438   -0.3922556771   -2.7415095481
H       -2.2913668021    0.0820888859   -0.0673724741
H       -1.1807677891    1.7215003110   -1.7758713661
C        0.1070814907   -0.3421053599    0.3091340465
H        0.2269191932   -0.8054195044    1.3012010596
13   
From optimize.out: Frame 6 / 23, Energy=    -286.7601188850
C        1.2677367611    0.0985664399   -0.5280176026
C        0.5203461973   -1.1241556980   -0.9600370543
C       -0.8157731938   -0.6592789815   -1.6993446888
C       -1.2414022891   -0.0293034228   -0.3584283555
C       -0.6699688546    0.8927790843   -1.3613536429
N        0.7178391910    1.2189021807   -1.3108669042
H        2.3177181189    0.2261352610   -0.2704630984
H        0.6566558018   -2.1970038770   -0.9877484382
H       -1.0426182930   -0.4319919928   -2.7368999536
H       -2.2727052818    0.1059762128   -0.0474406897
H       -1.1917421301    1.7325088824   -1.8002848295
C        0.0996304104   -0.3689360491    0.3142040878
H        0.2261429423   -0.8425231228    1.2923554920
13   
From optimize.out: Frame 7 / 23, Energy=    -286.7748573453
C        1.2492547227    0.1079343327   -0.5330324639
C        0.5140819058   -1.1255155664   -0.9703407320
C       -0.8105320048   -0.6549792361   -1.6873281021
C       -1.2314205132   -0.0073215610   -0.3608688427
C       -0.6560043425    0.9231999855   -1.3681737921
N        0.7164892662    1.2317870088   -1.2998678430
H        2.2955257168    0.2175619944   -0.2612267837
H        0.6871667806   -2.1947339030   -0.9883598587
H       -1.0476832515   -0.4752247939   -2.7310782028
H       -2.2561988625    0.1289560212   -0.0284502212
H       -1.2048720260    1.7385693832   -1.8241153826
C        0.0933619149   -0.3933608350    0.3150894630
H        0.2226900738   -0.8751979134    1.2834270839
13   
From optimize.out: Frame 8 / 23, Energy=    -286.7862627147
C        1.2350412131    0.1163382370   -0.5352570642
C        0.5093787090   -1.1253396087   -0.9813683564
C       -0.8088373276   -0.6490155670   -1.6767728909
C       -1.2234467759    0.0138889820   -0.3646317858
C       -0.6428959807    0.9509654741   -1.3743197606
N        0.7193154925    1.2457663061   -1.2875546704
H        2.2777907494    0.2040443471   -0.2474264347
H        0.7215820252   -2.1883758272   -0.9944328989
H       -1.0619849052   -0.5202190797   -2.7237483027
H       -2.2412676671    0.1498973653   -0.0104606514
H       -1.2167677321    1.7402993456   -1.8472486745
C        0.0877190775   -0.4149718523    0.3131119909
H        0.2162325023   -0.9016032053    1.2757838217
13   
From optimize.out: Frame 9 / 23, Energy=    -286.7950111224
C        1.2243516444    0.1234376422   -0.5349352655
C        0.5058730981   -1.1239555172   -0.9921084055
C       -0.8091174385   -0.6414877278   -1.6683428889
C       -1.2171960137    0.0329803553   -0.3691888378
C       -0.6304678837    0.9750688318   -1.3797063742
N        0.7244854516    1.2596034161   -1.2738496285
H        2.2636338431    0.1874973803   -0.2313282139
H        0.7584668240   -2.1784355887   -1.0069724561
H       -1.0845571195   -0.5653064482   -2.7144698097
H       -2.2278583459    0.1680503417    0.0060156919
H       -1.2251439943    1.7386857887   -1.8697353995
C        0.0824449691   -0.4336809279    0.3096507302
H        0.2069443457   -0.9207826293    1.2706451796
13   
From optimize.out: Frame 10 / 23, Energy=    -286.8016925110
C        1.2165740724    0.1290715866   -0.5325588042
C        0.5031363617   -1.1218018366   -1.0015524360
C       -0.8098414615   -0.6326385007   -1.6624926387
C       -1.2126124886    0.0489022961   -0.3740356494
C       -0.6191121843    0.9947124572   -1.3843582561
N        0.7308109189    1.2723815892   -1.2588750722
H        2.2525553175    0.1700255509   -0.2149950056
H        0.7957508168   -2.1657442436   -1.0258451620
H       -1.1134337855   -0.6089178224   -2.7030479374
H       -2.2162562755    0.1830620220    0.0204157825
H       -1.2288132798    1.7350442252   -1.8914382278
C        0.0774766573   -0.4496473605    0.3058243171
H        0.1956247109   -0.9327750462    1.2686334119
13   
From optimize.out: Frame 11 / 23, Energy=    -286.8068510956
C        1.2110952214    0.1333110679   -0.5287930785
C        0.5007785717   -1.1193675211   -1.0090594296
C       -0.8098630297   -0.6225565880   -1.6594497370
C       -1.2095764792    0.0612638027   -0.3787545599
C       -0.6092503066    1.0095929340   -1.3884934921
N        0.7373894591    1.2835788635   -1.2431055534
H        2.2440999771    0.1532923924   -0.1997925483
H        0.8312888623   -2.1513253175   -1.0495917453
H       -1.1459242869   -0.6499480917   -2.6896665671
H       -2.2066605436    0.1949316591    0.0324745583
H       -1.2278305663    1.7306877324   -1.9119303566
C        0.0728741057   -0.4632205585    0.3023076099
H        0.1834383954   -0.9385654581    1.2695292217
13   
From optimize.out: Frame 12 / 23, Energy=    -286.8109479957
C        1.2073550743    0.1364053769   -0.5242001522
C        0.4985137825   -1.1169767988   -1.0146099140
C       -0.8086066343   -0.6110224300   -1.6591636430
C       -1.2077698400    0.0704279171   -0.3830453907
C       -0.6010227323    1.0199524240   -1.3925676788
N        0.7437581425    1.2931157683   -1.2271760919
H        2.2377546712    0.1381551179   -0.1861557719
H        0.8633942724   -2.1360838650   -1.0761982014
H       -1.1793975064   -0.6881793394   -2.6746190943
H       -2.1989631589    0.2038536695    0.0423371364
H       -1.2232809614    1.7265248104   -1.9307195937
C        0.0687090826   -0.4747788952    0.2993143015
H        0.1714151882   -0.9397188385    1.2724784161
13   
From optimize.out: Frame 13 / 23, Energy=    -286.8143265668
C        1.2048431159    0.1386763641   -0.5191221226
C        0.4961420007   -1.1147493972   -1.0186206585
C       -0.8059797059   -0.5976393275   -1.6614068272
C       -1.2067897562    0.0771452565   -0.3866999842
C       -0.5942716469    1.0262580027   -1.3971464371
N        0.7497754987    1.3011490281   -1.2116085645
H        2.2329637405    0.1248699565   -0.1739444249
H        0.8911746359   -2.1206590366   -1.1038602981
H       -1.2118511722   -0.7239743856   -2.6581059043
H       -2.1928484374    0.2102269455    0.0503864284
H       -1.2165355977    1.7229523551   -1.9474767076
C        0.0649902047   -0.4846794870    0.2968020922
H        0.1602465003   -0.9379013574    1.2764777304
13   
From optimize.out: Frame 14 / 23, Energy=    -286.8172133569
C        1.2031265822    0.1404282645   -0.5137170992
C        0.4935323082   -1.1126855330   -1.0215709336
C       -0.8021239540   -0.5821141381   -1.6658679989
C       -1.2062921539    0.0821444488   -0.3895759868
C       -0.5887131648    1.0289454304   -1.4027499581
N        0.7554372223    1.3078742359   -1.1967429645
H        2.2292306437    0.1133841901   -0.1628419117
H        0.9145122105   -2.1054393096   -1.1313345155
H       -1.2420699361   -0.7577421284   -2.6402146194
H       -2.1879891617    0.2146743185    0.0569716951
H       -1.2087766791    1.7200157247   -1.9620826211
C        0.0616521171   -0.4932661953    0.2946701146
H        0.1503333462   -0.9345443912    1.2807311210
13   
From optimize.out: Frame 15 / 23, Energy=    -286.8197272793
C        1.2018703333    0.1418949389   -0.5080576388
C        0.4906286563   -1.1107881515   -1.0237616664
C       -0.7971605389   -0.5644878981   -1.6722415781
C       -1.2060443723    0.0858674317   -0.3916334882
C       -0.5840189601    1.0283693610   -1.4097240966
N        0.7607483573    1.3134142070   -1.1828152739
H        2.2261750008    0.1035889378   -0.1525888736
H        0.9338306603   -2.0906432976   -1.1579581794
H       -1.2696249505   -0.7896460515   -2.6208149732
H       -2.1842054363    0.2179130626    0.0620981107
H       -1.2007921203    1.7177033240   -1.9744434259
C        0.0585663605   -0.5008802134    0.2928366564
H        0.1418863905   -0.9306307337    1.2847787490
13   
From optimize.out: Frame 16 / 23, Energy=    -286.8218767597
C        1.2008364620    0.1432031691   -0.5021558778
C        0.4874779750   -1.1091478782   -1.0253088089
C       -0.7911167662   -0.5452522481   -1.6802332984
C       -1.2058991442    0.0884555710   -0.3929434081
C       -0.5798903427    1.0249373387   -1.4181962221
N        0.7656568695    1.3178073719   -1.1700176957
H        2.2235541725    0.0954466839   -0.1430337563
H        0.9497809831   -2.0764108479   -1.1836428764
H       -1.2946097473   -0.8199339644   -2.5994953260
H       -2.1815517931    0.2207150800    0.0652012495
H       -1.1929955553    1.7163534061   -1.9842004294
C        0.0555610889   -0.5078379415    0.2912504525
H        0.1350551782   -0.9266608234    1.2884503193
13   
From optimize.out: Frame 17 / 23, Energy=    -286.8235590170
C        1.1997886381    0.1443664584   -0.4959944474
C        0.4841999597   -1.1079949008   -1.0262365307
C       -0.7840169063   -0.5254370470   -1.6895117765
C       -1.2057217010    0.0898289132   -0.3936761475
C       -0.5760807414    1.0193569967   -1.4280406126
N        0.7700127010    1.3210156808   -1.1585384601
H        2.2211697520    0.0889518339   -0.1341539802
H        0.9630445546   -2.0628512321   -1.2088728041
H       -1.3171934716   -0.8495176530   -2.5756355453
H       -2.1803127947    0.2239984234    0.0650174839
H       -1.1855312878    1.7170343755   -1.9904130267
C        0.0524237283   -0.5144125087    0.2899152303
H        0.1300769496   -0.9226644232    1.2918149390
13   
From optimize.out: Frame 18 / 23, Energy=    -286.8246008812
C        1.1984887758    0.1452970102   -0.4894816050
C        0.4811069779   -1.1076953830   -1.0264112286
C       -0.7760117079   -0.5068127471   -1.6997207997
C       -1.2053179716    0.0896841918   -0.3941164585
C       -0.5723778032    1.0126440400   -1.4389780539
N        0.7736840789    1.3227890535   -1.1488321596
H        2.2188309044    0.0841139878   -0.1258971358
H        0.9745392501   -2.0499578459   -1.2344714074
H       -1.3380334235   -0.8796325322   -2.5484755660
H       -2.1810618489    0.2288243728    0.0592107857
H       -1.1783865777    1.7215893058   -1.9913350551
C        0.0489557711   -0.5209099010    0.2889629111
H        0.1274429550   -0.9182586356    1.2952200949
13   
From optimize.out: Frame 19 / 23, Energy=    -286.8249003977
C        1.1969534058    0.1454646413   -0.4838400018
C        0.4791988143   -1.1088924847   -1.0253784427
C       -0.7691230674   -0.4956114532   -1.7081100216
C       -1.2044345915    0.0876808579   -0.3940190452
C       -0.5697278441    1.0072895046   -1.4483631722
N        0.7756886184    1.3221193560   -1.1434198924
H        2.2168382829    0.0815699543   -0.1200725448
H        0.9830864950   -2.0405564174   -1.2560568286
H       -1.3540458251   -0.9046323386   -2.5244942406
H       -2.1846367585    0.2346585668    0.0456577700
H       -1.1728817161    1.7314628175   -1.9845837830
C        0.0458849474   -0.5260545468    0.2892541292
H        0.1290586193   -0.9128235407    1.2991003959
13   
From optimize.out: Frame 20 / 23, Energy=    -286.8249511862
C        1.1966056068    0.1447840434   -0.4838126787
C        0.4792628938   -1.1099666683   -1.0245202493
C       -0.7691145334   -0.4978870910   -1.7076857886
C       -1.2037373216    0.0869479906   -0.3930921931
C       -0.5702748273    1.0080161509   -1.4486973402
N        0.7750818982    1.3210133321   -1.1444994246
H        2.2167572899    0.0814321246   -0.1210117079
H        0.9825686812   -2.0418225470   -1.2561560444
H       -1.3537467262   -0.9052124559   -2.5250634761
H       -2.1872085282    0.2340647644    0.0390761606
H       -1.1730188292    1.7363428845   -1.9798777157
C        0.0460494718   -0.5256132707    0.2904088717
H        0.1326343047   -0.9104243406    1.3006059085
13   
From optimize.out: Frame 21 / 23, Energy=    -286.8249791841
C        1.1964166583    0.1441602736   -0.4844459064
C        0.4793976865   -1.1106721120   -1.0231457071
C       -0.7691611197   -0.4993993198   -1.7071849408
C       -1.2024897920    0.0861804210   -0.3918632257
C       -0.5698636379    1.0087778056   -1.4497508080
N        0.7755715002    1.3203513996   -1.1465424870
H        2.2168104176    0.0814203115   -0.1224615009
H        0.9818796287   -2.0435176518   -1.2528722303
H       -1.3565015551   -0.9034839667   -2.5240591502
H       -2.1917673477    0.2300277451    0.0279641356
H       -1.1730520713    1.7418319230   -1.9737580370
C        0.0467619809   -0.5254082095    0.2917136747
H        0.1378570320   -0.9085937023    1.3020805052
