13   
From optimize.out: Frame 1 / 23, Energy=    -286.6031855838
C       -0.0118830000   -0.0559310000   -0.0000000000
C       -0.1562790000    0.0488420000   -0.0000000000
C       -0.1552840000    0.0549200000   -0.0000000000
C       -0.0979730000    0.0103200000   -0.0000000000
C       -0.0936400000   -0.0622600000   -0.0000000000
N       -0.2868440000    0.9572570000   -0.0000000000
H        0.1840810000    0.0012200000   -0.0000000000
H        0.1587320000    0.0090970000   -0.0000000000
H        0.1933490000   -0.0023920000   -0.0000000000
H        0.1659070000    0.0006520000   -0.0000000000
H        0.1515320000    0.0013190000   -0.0000000000
C       -0.1701390000    0.0294140000    0.0000000000
H        0.1184390000    0.0075430000    0.0000000000
13   
From optimize.out: Frame 2 / 23, Energy=    -286.6482004836
C       -0.0103460000   -0.0592520000   -0.0000000000
C       -0.1593010000    0.0530550000   -0.0000000000
C       -0.1489580000    0.0759000000   -0.0000000000
C       -0.0940970000    0.0177060000   -0.0000000000
C       -0.1040480000   -0.0686260000   -0.0000000000
N       -0.2846750000    0.9422210000   -0.0000000000
H        0.1777700000    0.0015670000   -0.0000000000
H        0.1579680000    0.0065560000   -0.0000000000
H        0.1924420000   -0.0039650000   -0.0000000000
H        0.1638310000    0.0002070000   -0.0000000000
H        0.1533520000    0.0017290000   -0.0000000000
C       -0.1710480000    0.0281150000    0.0000000000
H        0.1271100000    0.0047860000    0.0000000000
13   
From optimize.out: Frame 3 / 23, Energy=    -286.6862075464
C       -0.0088080000   -0.0600670000   -0.0000000000
C       -0.1616700000    0.0574870000   -0.0000000000
C       -0.1424160000    0.1054320000   -0.0000000000
C       -0.0922070000    0.0265420000   -0.0000000000
C       -0.1080230000   -0.0759190000   -0.0000000000
N       -0.2853270000    0.9139280000   -0.0000000000
H        0.1709730000    0.0016890000   -0.0000000000
H        0.1568030000    0.0040290000   -0.0000000000
H        0.1911060000   -0.0059670000   -0.0000000000
H        0.1611590000   -0.0001490000   -0.0000000000
H        0.1543240000    0.0021140000   -0.0000000000
C       -0.1700290000    0.0278900000    0.0000000000
H        0.1341160000    0.0029910000    0.0000000000
13   
From optimize.out: Frame 4 / 23, Energy=    -286.7168793349
C       -0.0101360000   -0.0595460000   -0.0000000000
C       -0.1623140000    0.0610750000   -0.0000000000
C       -0.1364300000    0.1403700000   -0.0000000000
C       -0.0940440000    0.0362250000   -0.0000000000
C       -0.1067250000   -0.0840870000   -0.0000000000
N       -0.2865750000    0.8792470000   -0.0000000000
H        0.1650180000    0.0016780000   -0.0000000000
H        0.1558140000    0.0016420000   -0.0000000000
H        0.1891680000   -0.0082390000   -0.0000000000
H        0.1585110000   -0.0003580000   -0.0000000000
H        0.1547490000    0.0024000000   -0.0000000000
C       -0.1659000000    0.0278080000    0.0000000000
H        0.1388630000    0.0017840000    0.0000000000
13   
From optimize.out: Frame 5 / 23, Energy=    -286.7411627456
C       -0.0140850000   -0.0582230000   -0.0000000000
C       -0.1615440000    0.0631500000   -0.0000000000
C       -0.1312870000    0.1756400000   -0.0000000000
C       -0.0991890000    0.0451130000   -0.0000000000
C       -0.1011310000   -0.0918740000   -0.0000000000
N       -0.2873230000    0.8437270000   -0.0000000000
H        0.1601570000    0.0015550000   -0.0000000000
H        0.1550270000   -0.0002700000   -0.0000000000
H        0.1864080000   -0.0104200000   -0.0000000000
H        0.1560230000   -0.0003210000   -0.0000000000
H        0.1544430000    0.0025290000   -0.0000000000
C       -0.1596430000    0.0284230000    0.0000000000
H        0.1421440000    0.0009720000    0.0000000000
13   
From optimize.out: Frame 6 / 23, Energy=    -286.7601188850
C       -0.0196110000   -0.0568300000   -0.0000000000
C       -0.1599030000    0.0635640000   -0.0000000000
C       -0.1272110000    0.2057780000   -0.0000000000
C       -0.1061390000    0.0517650000   -0.0000000000
C       -0.0928540000   -0.0982700000   -0.0000000000
N       -0.2874380000    0.8131450000   -0.0000000000
H        0.1564960000    0.0013620000   -0.0000000000
H        0.1544010000   -0.0015330000   -0.0000000000
H        0.1828540000   -0.0121550000   -0.0000000000
H        0.1537210000    0.0000180000   -0.0000000000
H        0.1536360000    0.0025000000   -0.0000000000
C       -0.1523230000    0.0302470000    0.0000000000
H        0.1443700000    0.0004080000    0.0000000000
13   
From optimize.out: Frame 7 / 23, Energy=    -286.7748573453
C       -0.0253930000   -0.0558560000   -0.0000000000
C       -0.1578990000    0.0625720000   -0.0000000000
C       -0.1241680000    0.2288910000   -0.0000000000
C       -0.1134240000    0.0560710000   -0.0000000000
C       -0.0832970000   -0.1031400000   -0.0000000000
N       -0.2873960000    0.7895460000   -0.0000000000
H        0.1538570000    0.0011570000   -0.0000000000
H        0.1538330000   -0.0022340000   -0.0000000000
H        0.1787760000   -0.0133550000   -0.0000000000
H        0.1516290000    0.0006180000   -0.0000000000
H        0.1526700000    0.0023720000   -0.0000000000
C       -0.1449640000    0.0334030000    0.0000000000
H        0.1457770000   -0.0000450000    0.0000000000
13   
From optimize.out: Frame 8 / 23, Energy=    -286.7862627147
C       -0.0304300000   -0.0554530000   -0.0000000000
C       -0.1558660000    0.0605500000   -0.0000000000
C       -0.1219550000    0.2453290000   -0.0000000000
C       -0.1201330000    0.0587480000   -0.0000000000
C       -0.0734700000   -0.1066190000   -0.0000000000
N       -0.2875920000    0.7722440000   -0.0000000000
H        0.1519960000    0.0009800000   -0.0000000000
H        0.1532030000   -0.0025490000   -0.0000000000
H        0.1744970000   -0.0140840000   -0.0000000000
H        0.1497530000    0.0013800000   -0.0000000000
H        0.1517710000    0.0022020000   -0.0000000000
C       -0.1383570000    0.0377460000    0.0000000000
H        0.1465830000   -0.0004750000    0.0000000000
13   
From optimize.out: Frame 9 / 23, Energy=    -286.7950111224
C       -0.0341900000   -0.0557400000   -0.0000000000
C       -0.1538610000    0.0581450000   -0.0000000000
C       -0.1202970000    0.2549530000   -0.0000000000
C       -0.1256510000    0.0605030000   -0.0000000000
C       -0.0643920000   -0.1087230000   -0.0000000000
N       -0.2880950000    0.7606340000   -0.0000000000
H        0.1507170000    0.0008610000   -0.0000000000
H        0.1524350000   -0.0026340000   -0.0000000000
H        0.1702550000   -0.0143800000   -0.0000000000
H        0.1480860000    0.0021530000    0.0000000000
H        0.1510340000    0.0020270000   -0.0000000000
C       -0.1330070000    0.0431160000    0.0000000000
H        0.1469660000   -0.0009140000    0.0000000000
13   
From optimize.out: Frame 10 / 23, Energy=    -286.8016925110
C       -0.0366320000   -0.0568260000   -0.0000000000
C       -0.1517270000    0.0561480000   -0.0000000000
C       -0.1189990000    0.2573210000   -0.0000000000
C       -0.1296020000    0.0618960000   -0.0000000000
C       -0.0569110000   -0.1094310000   -0.0000000000
N       -0.2887220000    0.7543860000   -0.0000000000
H        0.1498600000    0.0008080000   -0.0000000000
H        0.1515060000   -0.0026100000   -0.0000000000
H        0.1661940000   -0.0142580000   -0.0000000000
H        0.1466150000    0.0027690000    0.0000000000
H        0.1504630000    0.0018670000   -0.0000000000
C       -0.1291080000    0.0492830000    0.0000000000
H        0.1470630000   -0.0013540000    0.0000000000
13   
From optimize.out: Frame 11 / 23, Energy=    -286.8068510956
C       -0.0381240000   -0.0587170000   -0.0000000000
C       -0.1492000000    0.0552270000   -0.0000000000
C       -0.1180840000    0.2524070000   -0.0000000000
C       -0.1318870000    0.0633610000   -0.0000000000
C       -0.0513890000   -0.1087820000   -0.0000000000
N       -0.2892060000    0.7530370000   -0.0000000000
H        0.1493060000    0.0008100000   -0.0000000000
H        0.1504440000   -0.0025560000   -0.0000000000
H        0.1623790000   -0.0137350000   -0.0000000000
H        0.1453270000    0.0030990000    0.0000000000
H        0.1500250000    0.0017310000   -0.0000000000
C       -0.1265620000    0.0558850000    0.0000000000
H        0.1469720000   -0.0017670000    0.0000000000
13   
From optimize.out: Frame 12 / 23, Energy=    -286.8109479957
C       -0.0391790000   -0.0613220000   -0.0000000000
C       -0.1460290000    0.0557980000   -0.0000000000
C       -0.1177660000    0.2406000000   -0.0000000000
C       -0.1326070000    0.0651780000   -0.0000000000
C       -0.0477110000   -0.1068700000   -0.0000000000
N       -0.2893570000    0.7560490000   -0.0000000000
H        0.1489800000    0.0008500000   -0.0000000000
H        0.1492960000   -0.0025100000   -0.0000000000
H        0.1588100000   -0.0128310000   -0.0000000000
H        0.1442200000    0.0030820000    0.0000000000
H        0.1496970000    0.0016110000   -0.0000000000
C       -0.1251170000    0.0624910000    0.0000000000
H        0.1467610000   -0.0021260000    0.0000000000
13   
From optimize.out: Frame 13 / 23, Energy=    -286.8143265668
C       -0.0401900000   -0.0644780000   -0.0000000000
C       -0.1421030000    0.0580240000   -0.0000000000
C       -0.1182660000    0.2226600000   -0.0000000000
C       -0.1319730000    0.0675000000   -0.0000000000
C       -0.0455060000   -0.1038260000   -0.0000000000
N       -0.2891080000    0.7627290000   -0.0000000000
H        0.1488320000    0.0009060000   -0.0000000000
H        0.1481200000   -0.0024810000   -0.0000000000
H        0.1554610000   -0.0115740000   -0.0000000000
H        0.1433090000    0.0027200000    0.0000000000
H        0.1494790000    0.0014950000   -0.0000000000
C       -0.1245280000    0.0687280000    0.0000000000
H        0.1464710000   -0.0024040000    0.0000000000
13   
From optimize.out: Frame 14 / 23, Energy=    -286.8172133569
C       -0.0413100000   -0.0679630000   -0.0000000000
C       -0.1375610000    0.0618560000   -0.0000000000
C       -0.1196160000    0.1997830000   -0.0000000000
C       -0.1302890000    0.0703440000   -0.0000000000
C       -0.0443570000   -0.0998250000   -0.0000000000
N       -0.2885210000    0.7721310000   -0.0000000000
H        0.1488210000    0.0009640000   -0.0000000000
H        0.1469740000   -0.0024610000   -0.0000000000
H        0.1523320000   -0.0100160000   -0.0000000000
H        0.1426230000    0.0020610000    0.0000000000
H        0.1493770000    0.0013780000   -0.0000000000
C       -0.1245950000    0.0743330000    0.0000000000
H        0.1461230000   -0.0025840000    0.0000000000
13   
From optimize.out: Frame 15 / 23, Energy=    -286.8197272793
C       -0.0424690000   -0.0714960000   -0.0000000000
C       -0.1328240000    0.0670480000   -0.0000000000
C       -0.1215620000    0.1737560000   -0.0000000000
C       -0.1279690000    0.0736060000   -0.0000000000
C       -0.0438970000   -0.0951350000   -0.0000000000
N       -0.2877610000    0.7829670000   -0.0000000000
H        0.1488990000    0.0010110000   -0.0000000000
H        0.1459260000   -0.0024450000   -0.0000000000
H        0.1494910000   -0.0082640000   -0.0000000000
H        0.1422020000    0.0011810000    0.0000000000
H        0.1493700000    0.0012630000   -0.0000000000
C       -0.1251300000    0.0791660000    0.0000000000
H        0.1457240000   -0.0026570000    0.0000000000
13   
From optimize.out: Frame 16 / 23, Energy=    -286.8218767597
C       -0.0434650000   -0.0747670000   -0.0000000000
C       -0.1285480000    0.0731700000   -0.0000000000
C       -0.1235800000    0.1468590000   -0.0000000000
C       -0.1255580000    0.0771030000   -0.0000000000
C       -0.0438540000   -0.0901380000   -0.0000000000
N       -0.2870460000    0.7937410000   -0.0000000000
H        0.1490210000    0.0010400000   -0.0000000000
H        0.1450480000   -0.0024290000   -0.0000000000
H        0.1470780000   -0.0064700000   -0.0000000000
H        0.1420890000    0.0001810000    0.0000000000
H        0.1494150000    0.0011570000   -0.0000000000
C       -0.1258700000    0.0831830000    0.0000000000
H        0.1452700000   -0.0026300000    0.0000000000
13   
From optimize.out: Frame 17 / 23, Energy=    -286.8235590170
C       -0.0441050000   -0.0775060000   -0.0000000000
C       -0.1254860000    0.0796800000   -0.0000000000
C       -0.1249910000    0.1215920000   -0.0000000000
C       -0.1237210000    0.0806720000   -0.0000000000
C       -0.0440500000   -0.0853390000   -0.0000000000
N       -0.2865600000    0.8029800000   -0.0000000000
H        0.1491440000    0.0010500000   -0.0000000000
H        0.1443970000   -0.0024250000   -0.0000000000
H        0.1452580000   -0.0048000000   -0.0000000000
H        0.1423060000   -0.0008340000    0.0000000000
H        0.1494570000    0.0010730000   -0.0000000000
C       -0.1264070000    0.0863900000    0.0000000000
H        0.1447590000   -0.0025300000    0.0000000000
13   
From optimize.out: Frame 18 / 23, Energy=    -286.8246008812
C       -0.0443100000   -0.0795650000   -0.0000000000
C       -0.1243800000    0.0860620000   -0.0000000000
C       -0.1251500000    0.1002020000   -0.0000000000
C       -0.1231450000    0.0842400000   -0.0000000000
C       -0.0444490000   -0.0813110000   -0.0000000000
N       -0.2863420000    0.8095560000   -0.0000000000
H        0.1492400000    0.0010420000   -0.0000000000
H        0.1440200000   -0.0024530000   -0.0000000000
H        0.1441790000   -0.0033820000   -0.0000000000
H        0.1428450000   -0.0017800000    0.0000000000
H        0.1494420000    0.0010230000   -0.0000000000
C       -0.1261480000    0.0887710000    0.0000000000
H        0.1441970000   -0.0024050000    0.0000000000
13   
From optimize.out: Frame 19 / 23, Energy=    -286.8249003977
C       -0.0442550000   -0.0806850000   -0.0000000000
C       -0.1253410000    0.0907370000   -0.0000000000
C       -0.1242310000    0.0875590000   -0.0000000000
C       -0.1241150000    0.0872280000   -0.0000000000
C       -0.0448920000   -0.0792120000   -0.0000000000
N       -0.2861840000    0.8122930000   -0.0000000000
H        0.1493160000    0.0010320000   -0.0000000000
H        0.1439520000   -0.0025160000   -0.0000000000
H        0.1439390000   -0.0024860000   -0.0000000000
H        0.1435430000   -0.0024430000    0.0000000000
H        0.1493410000    0.0010210000   -0.0000000000
C       -0.1248300000    0.0898170000    0.0000000000
H        0.1437570000   -0.0023450000    0.0000000000
13   
From optimize.out: Frame 20 / 23, Energy=    -286.8249511862
C       -0.0444470000   -0.0805510000   -0.0000000000
C       -0.1253800000    0.0904080000   -0.0000000000
C       -0.1244860000    0.0890330000   -0.0000000000
C       -0.1245500000    0.0875210000   -0.0000000000
C       -0.0447450000   -0.0797620000   -0.0000000000
N       -0.2860520000    0.8117880000   -0.0000000000
H        0.1493460000    0.0010380000   -0.0000000000
H        0.1439850000   -0.0025290000   -0.0000000000
H        0.1440100000   -0.0025210000   -0.0000000000
H        0.1437010000   -0.0024280000    0.0000000000
H        0.1493390000    0.0010350000   -0.0000000000
C       -0.1245160000    0.0893580000    0.0000000000
H        0.1437960000   -0.0023910000    0.0000000000
13   
From optimize.out: Frame 21 / 23, Energy=    -286.8249791841
C       -0.0448770000   -0.0803790000   -0.0000000000
C       -0.1253060000    0.0900010000   -0.0000000000
C       -0.1246530000    0.0901430000   -0.0000000000
C       -0.1250500000    0.0882740000   -0.0000000000
C       -0.0447510000   -0.0803390000   -0.0000000000
N       -0.2858960000    0.8112170000   -0.0000000000
H        0.1493390000    0.0010430000   -0.0000000000
H        0.1440430000   -0.0025460000   -0.0000000000
H        0.1441570000   -0.0025440000   -0.0000000000
H        0.1439620000   -0.0024370000    0.0000000000
H        0.1492730000    0.0010500000   -0.0000000000
C       -0.1241180000    0.0889720000    0.0000000000
H        0.1438780000   -0.0024540000    0.0000000000
