13   
From optimize.out: Frame 1 / 2, Energy=    -286.8383800305
C        0.0887610000    0.0474980000   -0.0000000000
C       -0.2587230000   -0.0657790000    0.0000000000
C       -0.1079420000    0.0779900000   -0.0000000000
C       -0.1638960000   -0.0961010000    0.0000000000
C       -0.0188510000    0.0973510000   -0.0000000000
N       -0.3422580000    0.0387990000   -0.0000000000
H        0.1429810000    0.0013490000   -0.0000000000
H        0.1428680000    0.0226680000   -0.0000000000
H        0.1480950000   -0.0007450000   -0.0000000000
H        0.1472710000    0.0052850000    0.0000000000
H        0.1513760000    0.0028390000   -0.0000000000
C       -0.0659750000    0.8882410000    0.0000000000
H        0.1362910000   -0.0193950000    0.0000000000
