13   
From optimize.out: Frame 1 / 2, Energy=    -286.8568459332
C        1.5870652534    0.3115518464    0.1267216970
C        1.0215815176   -0.9083749137    0.2855610216
C       -0.4329636366   -1.0944262623    0.1727617238
C       -1.2410022657    0.2902820537    0.0321549352
C       -0.4009609007    1.4970703397    0.1630320294
N        0.8875236918    1.5238103250    0.1176442601
H        2.6680848805    0.4248334914    0.1289018472
H        1.6433408653   -1.7754195058    0.4940218413
H       -0.9035079651   -1.8892285098    0.7524279463
H       -2.2274361209    0.3356255424    0.4971265749
H       -0.9119776441    2.4430759432    0.3566101985
C       -1.0653034798   -0.6536244720   -1.0737404309
H       -0.6244441963   -0.5051758780   -2.0532236450
13   
From optimize.out: Frame 23 / 24, Energy=    -286.8568459332
C        1.5950425448    0.3100501925    0.1206682486
C        1.0261521524   -0.9144759937    0.2820415755
C       -0.4163830095   -1.0931380219    0.1548457873
C       -1.2533518073    0.2889074781    0.0033375263
C       -0.4083530891    1.4867587794    0.1478765654
N        0.8846489612    1.5151067562    0.1003325061
H        2.6757294200    0.4244865451    0.1496345927
H        1.6349505817   -1.7763075745    0.5425813817
H       -0.9047575157   -1.8664609300    0.7441461528
H       -2.1981597796    0.2995475876    0.5472386554
H       -0.9073923549    2.4398997963    0.3439051905
C       -1.0856118996   -0.6617625449   -1.0842236791
H       -0.6425142045   -0.4526120702   -2.0523845032
13   
From optimize.out: Frame 22 / 24, Energy=    -286.8568447983
C        1.5793653638    0.3068484761    0.1227745976
C        1.0196062378   -0.9148561651    0.2846240693
C       -0.3986750723   -1.1218373116    0.1104774677
C       -1.2795892894    0.3061056140    0.0031400064
C       -0.4234429814    1.4682600806    0.1272031684
N        0.8706666906    1.4941065259    0.0639617764
H        2.6601683516    0.4208596031    0.1749791654
H        1.6411945412   -1.7641892628    0.5622428555
H       -0.9196402004   -1.8601188299    0.7286771964
H       -2.1748436018    0.2482028424    0.6177291532
H       -0.8744586023    2.4504108615    0.3000182333
C       -1.0717956944   -0.6151041685   -1.0639826305
H       -0.6285557430   -0.4186882657   -2.0318450592
13   
From optimize.out: Frame 21 / 24, Energy=    -286.8568438397
C        1.5749331410    0.3014372220    0.1237985043
C        1.0247804216   -0.9333735694    0.3040902031
C       -0.3655680682   -1.1701251411    0.0655322394
C       -1.3087074135    0.3255459453    0.0229130172
C       -0.4456929288    1.4638778641    0.1030699221
N        0.8601252207    1.4725959722    0.0236637127
H        2.6553510845    0.4233647732    0.1832436047
H        1.6652708842   -1.7631822588    0.6027371454
H       -0.9526500050   -1.8550401206    0.6906635542
H       -2.1653873981    0.2154041890    0.6835850703
H       -0.8623214615    2.4645357883    0.2592133819
C       -1.0527221844   -0.5623997057   -1.0423498309
H       -0.6274112924   -0.3826409586   -2.0201605244
13   
From optimize.out: Frame 19 / 24, Energy=    -286.8568388879
C        1.5704305722    0.2906846075    0.1139560449
C        1.0372254720   -0.9576870918    0.2938726950
C       -0.3416738754   -1.1951761056    0.0836617421
C       -1.3635249051    0.3484941683    0.0187954119
C       -0.4725293086    1.4517535881    0.1120419419
N        0.8430255773    1.4414460134    0.0356551097
H        2.6517784159    0.4227563945    0.1553772393
H        1.7006680684   -1.7782378890    0.5721895740
H       -0.9520386961   -1.8381731153    0.7380849035
H       -2.2287702365    0.2191338071    0.6611644820
H       -0.8434672051    2.4744207321    0.2445221273
C       -1.0327951944   -0.5116442217   -1.0321216631
H       -0.5683286846   -0.3677708875   -1.9971996086
13   
From optimize.out: Frame 18 / 24, Energy=    -286.8568301721
C        1.5459501714    0.2909694089    0.1088744328
C        1.0205144120   -0.9741751573    0.2773003977
C       -0.3325986749   -1.2653488555    0.0616109295
C       -1.3830637035    0.3768809729    0.0457780107
C       -0.4812900843    1.4699359750    0.1012244174
N        0.8366086872    1.4340640666    0.0256856890
H        2.6268398806    0.4256208128    0.1546922371
H        1.7119464123   -1.7712547404    0.5561271542
H       -0.9550546221   -1.8955132713    0.7202510930
H       -2.2445073683    0.2367808929    0.6860711164
H       -0.8314541266    2.5036676640    0.1974471685
C       -0.9974762782   -0.4637059628   -0.9864758534
H       -0.5164147055   -0.3679218057   -1.9485867928
13   
From optimize.out: Frame 17 / 24, Energy=    -286.8568248852
C        1.5233360826    0.2833009731    0.1016957201
C        1.0188885025   -1.0007937588    0.2731860623
C       -0.3145023260   -1.3347889060    0.0676160386
C       -1.4223413593    0.4112383470    0.0615905661
C       -0.4970852177    1.4846675718    0.0960765987
N        0.8238556045    1.4146272659    0.0185157614
H        2.6020151155    0.4291951286    0.1349118843
H        1.7450106679   -1.7718983946    0.5348675751
H       -0.9575350790   -1.9469994012    0.7201507450
H       -2.2870342605    0.2595475221    0.6921148481
H       -0.8135058332    2.5308014576    0.1571245109
C       -0.9662500431   -0.4061282754   -0.9540356607
H       -0.4548518542   -0.3527695301   -1.9038146500
13   
From optimize.out: Frame 16 / 24, Energy=    -286.8567654320
C        1.5072175327    0.2715854833    0.0915966886
C        1.0252386312   -1.0299162538    0.2736734325
C       -0.3000805810   -1.3852107923    0.0998312444
C       -1.4669062313    0.4385824279    0.0659145652
C       -0.5164337841    1.4935984219    0.0997646308
N        0.8080404880    1.3936027230    0.0184889891
H        2.5826274997    0.4315056446    0.0943405918
H        1.7819352382   -1.7821941659    0.4989961108
H       -0.9703889597   -1.9703589100    0.7420745687
H       -2.3425473695    0.2718932220    0.6782325773
H       -0.7997863205    2.5493225696    0.1309872290
C       -0.9318956934   -0.3505956799   -0.9336523327
H       -0.3770204503   -0.3318146904   -1.8602482955
13   
From optimize.out: Frame 15 / 24, Energy=    -286.8567076464
C        1.4966008329    0.2641427107    0.0792782493
C        1.0221241227   -1.0507282074    0.2651198889
C       -0.3040056642   -1.4126001870    0.1345519879
C       -1.4927709564    0.4477894449    0.0707855637
C       -0.5317008780    1.5013310985    0.1081507151
N        0.7958739520    1.3871051411    0.0231005777
H        2.5687655623    0.4315656009    0.0450822136
H        1.7957984954   -1.7965823958    0.4462370115
H       -1.0047407782   -1.9619314228    0.7677517935
H       -2.3813611625    0.2605704635    0.6627309342
H       -0.8012117009    2.5592988672    0.1135210945
C       -0.8824173428   -0.3078754522   -0.9094486352
H       -0.2809544823   -0.3220856615   -1.8068613947
13   
From optimize.out: Frame 12 / 24, Energy=    -286.8557469705
C        1.5228479953    0.2603069061    0.0804085268
C        1.0408562211   -1.0454722692    0.2636395692
C       -0.2871337970   -1.3439632068    0.1214195517
C       -1.5072557204    0.4151470052    0.0803887996
C       -0.5410986651    1.4770185297    0.1144094105
N        0.7971645019    1.3700589133    0.0281204525
H        2.5923891230    0.4367840933    0.0424536615
H        1.7953648609   -1.8101159873    0.4427576209
H       -1.0453975741   -1.8427407821    0.7117697228
H       -2.3967561120    0.2179918183    0.6705679514
H       -0.8035042320    2.5358120311    0.1165453758
C       -0.8864692238   -0.3202305691   -0.8906463315
H       -0.2810073775   -0.3505964825   -1.7818343113
13   
From optimize.out: Frame 11 / 24, Energy=    -286.8541058530
C        1.5495405447    0.2567729422    0.0820632040
C        1.0597445457   -1.0393906151    0.2625114951
C       -0.2700665108   -1.2742899298    0.1067997234
C       -1.5207063479    0.3821901004    0.0898112861
C       -0.5498769295    1.4524387127    0.1203017359
N        0.7989541537    1.3532967384    0.0329385716
H        2.6165900957    0.4420025957    0.0419059816
H        1.7944041226   -1.8230643205    0.4414817606
H       -1.0845788623   -1.7240359721    0.6546357412
H       -2.4105924607    0.1759860865    0.6790709449
H       -0.8057410585    2.5119628470    0.1202333429
C       -0.8926032287   -0.3343370303   -0.8727978469
H       -0.2850680641   -0.3795321552   -1.7589559404
13   
From optimize.out: Frame 9 / 24, Energy=    -286.8453304356
C        1.5746502343    0.2528245187    0.0843495542
C        1.0793081386   -1.0368427617    0.2611057009
C       -0.2518152673   -1.2169598383    0.0903707664
C       -1.5365986768    0.3564718574    0.1002635363
C       -0.5593787885    1.4335075922    0.1246236684
N        0.7999866610    1.3385610014    0.0367693728
H        2.6391197490    0.4470634382    0.0431818043
H        1.7972643336   -1.8362876097    0.4403675109
H       -1.1181836211   -1.6228352568    0.5954065431
H       -2.4280174673    0.1440192836    0.6883914402
H       -0.8081084247    2.4936099320    0.1189161464
C       -0.8995472595   -0.3451908745   -0.8519955675
H       -0.2886796113   -0.4079412824   -1.7317504763
13   
From optimize.out: Frame 8 / 24, Energy=    -286.8362891396
C        1.5815049653    0.2463614615    0.0912716701
C        1.1001422030   -1.0635308635    0.2577479867
C       -0.2278814964   -1.2721732741    0.0627918486
C       -1.5688917271    0.3950535265    0.1168254229
C       -0.5727093828    1.4645079663    0.1152667449
N        0.7946503843    1.3434480434    0.0317604590
H        2.6432317189    0.4497549669    0.0589862288
H        1.8305274076   -1.8488964751    0.4408050795
H       -1.0992840050   -1.6855183193    0.5319183479
H       -2.4708242862    0.2004301399    0.7023420525
H       -0.8110259032    2.5238266345    0.0772504446
C       -0.9115722889   -0.3273034242   -0.8116923236
H       -0.2878675895   -0.4259603827   -1.6752739617
13   
From optimize.out: Frame 7 / 24, Energy=    -286.8225675642
C        1.5883595528    0.2398985396    0.0981936412
C        1.1209758316   -1.0902184069    0.2543903427
C       -0.2039482263   -1.3273855547    0.0352135079
C       -1.6011841017    0.4336343884    0.1333869629
C       -0.5860396981    1.4955076918    0.1059100171
N        0.7893142193    1.3483349831    0.0267516499
H        2.6473436028    0.4524464392    0.0747903226
H        1.8637897856   -1.8615050767    0.4412426391
H       -1.0803847844   -1.7482000703    0.4684314811
H       -2.5136302093    0.2568398159    0.7162923729
H       -0.8139433207    2.5540427048    0.0355856145
C       -0.9235970668   -0.3094163482   -0.7713899231
H       -0.2870555847   -0.4439791060   -1.6187986288
13   
From optimize.out: Frame 6 / 24, Energy=    -286.7999150663
C        1.5939479299    0.2331154188    0.1031116667
C        1.1394294252   -1.1169095372    0.2521577185
C       -0.1833939836   -1.3823201899    0.0151214964
C       -1.6311695179    0.4699573941    0.1473742732
C       -0.5991949680    1.5261423849    0.0970334116
N        0.7840714154    1.3539551447    0.0211327087
H        2.6502733495    0.4534399044    0.0855376846
H        1.8946519909   -1.8744549384    0.4409662674
H       -1.0626649180   -1.8098167544    0.4171388878
H       -2.5536087705    0.3072199552    0.7272352082
H       -0.8188145147    2.5835882921   -0.0023413050
C       -0.9315634992   -0.2891097896   -0.7363686453
H       -0.2819639389   -0.4548072849   -1.5680993729
13   
From optimize.out: Frame 5 / 24, Energy=    -286.7731617345
C        1.5851026594    0.2247826865    0.0861926836
C        1.1287156939   -1.1367976986    0.2620490445
C       -0.2028031350   -1.4203265271    0.0770486478
C       -1.6297828517    0.4737884508    0.1313447643
C       -0.6071817179    1.5451785205    0.0953614489
N        0.7811307601    1.3656638992    0.0106887595
H        2.6403140144    0.4367434667    0.0416078871
H        1.8929602961   -1.8875903981    0.4334299957
H       -1.0615956338   -1.8447074879    0.5042025157
H       -2.5543108725    0.2827778793    0.7044926798
H       -0.8424990180    2.5986780135    0.0078320972
C       -0.8958169448   -0.2491634280   -0.7645489668
H       -0.2342332503   -0.3890273769   -1.5897015573
13   
From optimize.out: Frame 4 / 24, Energy=    -286.7515998571
C        1.5751658861    0.2185691975    0.0686936681
C        1.1136272140   -1.1488841972    0.2721115939
C       -0.2267735989   -1.4423977104    0.1416451168
C       -1.6206201561    0.4679703979    0.1123287863
C       -0.6113988911    1.5554182178    0.0960781822
N        0.7796823090    1.3754165976    0.0021478575
H        2.6300041635    0.4204830310   -0.0032996478
H        1.8832762146   -1.8967954574    0.4262798767
H       -1.0652002721   -1.8620471500    0.6010395760
H       -2.5445391857    0.2461920339    0.6798387163
H       -0.8639242440    2.6054202308    0.0274902325
C       -0.8594782792   -0.2161863314   -0.8007047712
H       -0.1898211602   -0.3231588603   -1.6236491870
13   
From optimize.out: Frame 3 / 24, Energy=    -286.7103034649
C        1.5652297054    0.2123560790    0.0511956960
C        1.0985396338   -1.1609699752    0.2821735432
C       -0.2507426336   -1.4644675777    0.2062377340
C       -1.6114580068    0.4621526920    0.0933139421
C       -0.6156158129    1.5656573045    0.0967948727
N        0.7782339443    1.3851687145   -0.0063925351
H        2.6196949273    0.4042235649   -0.0482045050
H        1.8735927106   -1.9059999677    0.4191301840
H       -1.0688046954   -1.8793857782    0.6978708620
H       -2.5347680815    0.2096083701    0.6551862228
H       -0.8853481925    2.6121620462    0.0471471956
C       -0.8231417803   -0.1832112011   -0.8368584198
H       -0.1454117184   -0.2572942713   -1.6575947925
13   
From optimize.out: Frame 2 / 24, Energy=    -286.6853128800
C        1.5544875725    0.2061874000    0.0337276828
C        1.0819127833   -1.1709685718    0.2914276943
C       -0.2737321165   -1.4786999041    0.2709963561
C       -1.6003812849    0.4530524126    0.0732405730
C       -0.6195399681    1.5721994114    0.0984825814
N        0.7767507238    1.3937278632   -0.0138503897
H        2.6075047510    0.3872697587   -0.0934525865
H        1.8595461503   -1.9156342094    0.4095734538
H       -1.0710556355   -1.8869326055    0.7940322836
H       -2.5221811942    0.1695124821    0.6276772383
H       -0.9066047023    2.6143144284    0.0680013826
C       -0.7859360792   -0.1518019138   -0.8714171856
H       -0.1007710001   -0.1922265517   -1.6884390841
13   
From optimize.out: Frame 1 / 24, Energy=    -286.5857843898
C        1.5425643118    0.2001155659    0.0163873970
C        1.0630118766   -1.1777309747    0.2994040867
C       -0.2951169574   -1.4808894234    0.3357048321
C       -1.5864309941    0.4389789383    0.0516439126
C       -0.6229983560    1.5730617115    0.1016461221
N        0.7752212005    1.4004239601   -0.0196191003
H        2.5924976207    0.3693345130   -0.1390128509
H        1.8388985845   -1.9258798975    0.3963835200
H       -1.0712278457   -1.8794818118    0.8887189989
H       -2.5053507409    0.1242378971    0.5959324900
H       -0.9275056377    2.6094438980    0.0905871347
C       -0.7475767525   -0.1229326426   -0.9033767863
H       -0.0559863098   -0.1286817340   -1.7143997567
13   
CH+C5H5N->C6H6N atoms 1-13 frame 113 charge +0.000 sz -1.000 sz^2 0.807
C        1.5303709496    0.1940955059   -0.0008453827
C        1.0435738928   -1.1835875991    0.3070005454
C       -0.3159768906   -1.4798048417    0.4001277546
C       -1.5717602869    0.4236163406    0.0297250430
C       -0.6263159358    1.5723805476    0.1051964766
N        0.7736855525    1.4065868268   -0.0249056259
H        2.5767898645    0.3512085702   -0.1844662686
H        1.8165482127   -1.9362482927    0.3822640313
H       -1.0708357722   -1.8679963606    0.9826079582
H       -2.4874405593    0.0777496083    0.5631728107
H       -0.9482223310    2.6026898712    0.1135474036
C       -0.7090658865   -0.0948733220   -0.9344974124
H       -0.0113508098   -0.0658168546   -1.7389273339
13   
CH+C5H5N->C6H6N atoms 1-13 frame 114 charge -0.000 sz -1.000 sz^2 0.799
C        1.5181780793    0.1880756888   -0.0180774673
C        1.0241366930   -1.1894439872    0.3145966976
C       -0.3368359824   -1.4787203037    0.4645480784
C       -1.5570901714    0.4082543625    0.0078070576
C       -0.6296333817    1.5716994112    0.1087466878
N        0.7721499664    1.4127494448   -0.0301919383
H        2.5610827420    0.3330833585   -0.2299178528
H        1.7941987424   -1.9466162697    0.3681451122
H       -1.0704437144   -1.8565113726    1.0764931302
H       -2.4695311001    0.0312631947    0.5304144529
H       -0.9689381888    2.5959361169    0.1365067465
C       -0.6705565739   -0.0668151332   -0.9656167831
H        0.0332828897   -0.0029545109   -1.7634539217
13   
CH+C5H5N->C6H6N atoms 1-13 frame 115 charge +0.000 sz -1.000 sz^2 0.760
C        1.5059844955    0.1826393053   -0.0352450702
C        1.0061130963   -1.1971469786    0.3310382861
C       -0.3495769549   -1.4786435624    0.5342624170
C       -1.5415243669    0.4014610290   -0.0121129777
C       -0.6343362035    1.5769549082    0.1174348060
N        0.7727810866    1.4184186162   -0.0351857406
H        2.5437669301    0.3140203694   -0.2812757517
H        1.7753734895   -1.9560682909    0.3666580813
H       -1.0685898437   -1.8533808492    1.1574600206
H       -2.4516056626   -0.0223421368    0.4888804707
H       -0.9854988737    2.5963709314    0.1632480772
C       -0.6344165214   -0.0332664932   -0.9974588645
H        0.0615293288    0.0509831517   -1.7977037542
13   
CH+C5H5N->C6H6N atoms 1-13 frame 116 charge +0.000 sz -1.000 sz^2 0.729
C        1.5016466723    0.1843308349   -0.0406305784
C        1.0074506497   -1.2045169979    0.3674692526
C       -0.3193518153   -1.4814705388    0.5699547024
C       -1.5325406972    0.4322865663   -0.0102140461
C       -0.6404516879    1.6012226972    0.1405226374
N        0.7803558636    1.4184360431   -0.0350999663
H        2.5343880508    0.3067178232   -0.3174333405
H        1.7865856786   -1.9549771020    0.4164296650
H       -1.0696030192   -1.8941283152    1.1368308844
H       -2.4422980885   -0.0604208890    0.4397434385
H       -0.9745448194    2.6252081066    0.1875288765
C       -0.6372133470   -0.0044357439   -1.0084660296
H        0.0055765595    0.0317475156   -1.8466354959
13   
CH+C5H5N->C6H6N atoms 1-13 frame 117 charge +0.000 sz -1.000 sz^2 0.972
C        1.4977699555    0.1891035955   -0.0439241223
C        1.0152381612   -1.2084580019    0.4023884997
C       -0.2775041690   -1.4836288057    0.5878411151
C       -1.5245930637    0.4693226349   -0.0034339959
C       -0.6456657569    1.6278709899    0.1665548065
N        0.7872848163    1.4171034139   -0.0334831195
H        2.5301174481    0.3053763281   -0.3442538829
H        1.8092673362   -1.9504618969    0.4786006121
H       -1.0797034568   -1.9572458236    1.0992170691
H       -2.4288289009   -0.0816660011    0.3880755359
H       -0.9582442069    2.6602986064    0.2128443903
C       -0.6564881574    0.0176704130   -1.0116903771
H       -0.0686500057   -0.0052854527   -1.8987365310
13   
CH+C5H5N->C6H6N atoms 1-13 frame 118 charge +0.000 sz -1.000 sz^2 0.897
C        1.4912196568    0.1940761121   -0.0486913861
C        1.0241542885   -1.2102632740    0.4327881192
C       -0.2370349192   -1.4856404788    0.6011327750
C       -1.5157325091    0.5034255252    0.0011680466
C       -0.6499159883    1.6526006892    0.1923831924
N        0.7916247607    1.4152661161   -0.0322325043
H        2.5267693657    0.3049062423   -0.3668109484
H        1.8342510826   -1.9445583178    0.5431787582
H       -1.0889120744   -2.0280827562    1.0659510276
H       -2.4089395569   -0.0898118978    0.3340380015
H       -0.9434116982    2.6942757656    0.2418674680
C       -0.6813949388    0.0350455352   -1.0141889976
H       -0.1426774695   -0.0412392612   -1.9505835521
13   
CH+C5H5N->C6H6N atoms 1-13 frame 120 charge -0.000 sz -1.000 sz^2 0.888
C        1.4821268522    0.1982546081   -0.0540991960
C        1.0345363834   -1.2113252654    0.4600352079
C       -0.2008601843   -1.4894007583    0.6114965571
C       -1.5065862679    0.5348936915    0.0024228935
C       -0.6531824689    1.6753406147    0.2174443428
N        0.7939743265    1.4118180351   -0.0314616876
H        2.5222954331    0.3035601915   -0.3837283873
H        1.8592031014   -1.9361332511    0.6112439150
H       -1.0854050307   -2.0988502843    1.0280582922
H       -2.3861096685   -0.0842538766    0.2795163870
H       -0.9289617268    2.7256997239    0.2734786520
C       -0.7108282055    0.0479439983   -1.0172862888
H       -0.2202025440   -0.0775474274   -1.9971206878
13   
CH+C5H5N->C6H6N atoms 1-13 frame 121 charge +0.000 sz -1.000 sz^2 1.012
C        1.4710155655    0.2010943963   -0.0593111641
C        1.0470618080   -1.2125094335    0.4846837799
C       -0.1713236735   -1.4965228871    0.6194893033
C       -1.4973990584    0.5636062998   -0.0010570332
C       -0.6551233303    1.6957750217    0.2409902922
N        0.7951899705    1.4059732320   -0.0311068719
H        2.5152558688    0.3002259140   -0.3939637399
H        1.8821239974   -1.9241705027    0.6821818722
H       -1.0618662152   -2.1636486217    0.9808817461
H       -2.3646588866   -0.0651630320    0.2270375676
H       -0.9140788079    2.7528529028    0.3059690192
C       -0.7434139552    0.0568988661   -1.0227271316
H       -0.3027832830   -0.1144121556   -2.0330676398
13   
CH+C5H5N->C6H6N atoms 1-13 frame 122 charge -0.000 sz -1.000 sz^2 1.079
C        1.4587318906    0.2019309267   -0.0641652592
C        1.0622265132   -1.2140878827    0.5064772345
C       -0.1501523837   -1.5076790745    0.6246639009
C       -1.4880674865    0.5897351728   -0.0100835331
C       -0.6551672216    1.7135977279    0.2619167198
N        0.7956072677    1.3977495836   -0.0315807763
H        2.5054031626    0.2944219086   -0.3972522752
H        1.9014823309   -1.9078718151    0.7541103478
H       -1.0167173662   -2.2181219901    0.9249708912
H       -2.3497151108   -0.0341799720    0.1794793257
H       -0.8980762098    2.7740709691    0.3389694402
C       -0.7769417778    0.0609862885   -1.0320464318
H       -0.3886136086   -0.1505518428   -2.0554595845
13   
CH+C5H5N->C6H6N atoms 1-13 frame 124 charge -0.000 sz -1.000 sz^2 0.918
C        1.4461520514    0.2007188916   -0.0682688671
C        1.0798386634   -1.2159309386    0.5255956905
C       -0.1371669177   -1.5226256803    0.6270491250
C       -1.4784379798    0.6136645835   -0.0246226358
C       -0.6528926585    1.7287251060    0.2796144676
N        0.7955442360    1.3878005437   -0.0329841916
H        2.4933391466    0.2864323038   -0.3951092590
H        1.9170520541   -1.8873118428    0.8246380197
H       -0.9540177095   -2.2617419343    0.8636782458
H       -2.3451406546    0.0060667407    0.1394621374
H       -0.8807371449    2.7891594442    0.3722052513
C       -0.8094679887    0.0600105061   -1.0460124337
H       -0.4740650978   -0.1849677234   -2.0652455500
13   
CH+C5H5N->C6H6N atoms 1-13 frame 125 charge +0.000 sz -1.000 sz^2 2.712
C        1.4341804526    0.1979422378   -0.0716561408
C        1.0995272687   -1.2176244548    0.5421189305
C       -0.1302361075   -1.5404185885    0.6263363900
C       -1.4683138402    0.6358705225   -0.0436442791
C       -0.6480648129    1.7412864518    0.2943324470
N        0.7956073841    1.3767904729   -0.0352247764
H        2.4806601634    0.2774323391   -0.3886451075
H        1.9300562801   -1.8628093141    0.8924568141
H       -0.8809831167   -2.2983633577    0.8011809815
H       -2.3532608168    0.0539989287    0.1086959698
H       -0.8622692513    2.7989953727    0.4053606169
C       -0.8400815265    0.0550318696   -1.0641536721
H       -0.5568220771   -0.2181324799   -2.0671581742
13   
CH+C5H5N->C6H6N atoms 1-13 frame 126 charge +0.000 sz -1.000 sz^2 2.866
C        1.4232976451    0.1945242660   -0.0739204573
C        1.1209123386   -1.2184517353    0.5567949414
C       -0.1264029151   -1.5597288128    0.6229168442
C       -1.4576749820    0.6568962730   -0.0662276445
C       -0.6405351491    1.7517591910    0.3069057092
N        0.7961199867    1.3656808994   -0.0378541190
H        2.4686747867    0.2688639643   -0.3798780577
H        1.9425766478   -1.8345348676    0.9572168134
H       -0.8060953325   -2.3359566090    0.7408648554
H       -2.3735317001    0.1100118090    0.0878043167
H       -0.8430337919    2.8053790631    0.4386684062
C       -0.8687744496    0.0475469283   -1.0856697692
H       -0.6355330847   -0.2519903691   -2.0676218387
13   
CH+C5H5N->C6H6N atoms 1-13 frame 127 charge -0.000 sz -1.000 sz^2 2.997
C        1.4138943445    0.1913013281   -0.0750717951
C        1.1433930960   -1.2174940885    0.5700499521
C       -0.1228630683   -1.5787313010    0.6169977007
C       -1.4466610835    0.6777209752   -0.0908842973
C       -0.6304983963    1.7604770798    0.3177659852
N        0.7969808943    1.3556162359   -0.0408400455
H        2.4588769296    0.2623214024   -0.3703810474
H        1.9564884367   -1.8021333553    1.0191488096
H       -0.7384493273   -2.3838736909    0.6862828166
H       -2.4032078310    0.1754171471    0.0767238580
H       -0.8234300727    2.8098184635    0.4734277612
C       -0.8953884780    0.0378614740   -1.1092747007
H       -0.7091354441   -0.2883016702   -2.0739449976
13   
CH+C5H5N->C6H6N atoms 1-13 frame 128 charge -0.000 sz -1.000 sz^2 0.969
C        1.4060232619    0.1890362160   -0.0743486637
C        1.1654554521   -1.2142140454    0.5826598857
C       -0.1180100306   -1.5958195547    0.6097180742
C       -1.4362081942    0.6983859637   -0.1162419748
C       -0.6186089095    1.7676720551    0.3273043587
N        0.7977236908    1.3476681317   -0.0435368093
H        2.4517331680    0.2586969768   -0.3623492641
H        1.9723320625   -1.7663845204    1.0772519166
H       -0.6838910895   -2.4474292694    0.6395903482
H       -2.4365281592    0.2501389715    0.0744556829
H       -0.8044381006    2.8135841149    0.5097579468
C       -0.9197797230    0.0270134007   -1.1334602093
H       -0.7758034287   -0.3283484405   -2.0908012919
13   
CH+C5H5N->C6H6N atoms 1-13 frame 129 charge +0.000 sz -1.000 sz^2 1.524
C        1.3994825375    0.1875127005   -0.0716005062
C        1.1856053453   -1.2091066875    0.5947362218
C       -0.1118376639   -1.6109687352    0.6013420663
C       -1.4272286795    0.7186333640   -0.1410200192
C       -0.6059682521    1.7729473523    0.3357859287
N        0.7979184421    1.3418932674   -0.0454540964
H        2.4472954187    0.2579958081   -0.3559836847
H        1.9893210386   -1.7289160599    1.1310065289
H       -0.6409318073   -2.5223974689    0.6007303150
H       -2.4685726028    0.3323571640    0.0778166378
H       -0.7870181470    2.8163556085    0.5474950927
C       -0.9418441264    0.0152670380   -1.1571402870
H       -0.8362215031   -0.3715733515   -2.1177141976
13   
CH+C5H5N->C6H6N atoms 1-13 frame 130 charge +0.000 sz -1.000 sz^2 1.581
C        1.3937767227    0.1862066101   -0.0665332736
C        1.2030948747   -1.2029987134    0.6066826777
C       -0.1049501672   -1.6253950872    0.5919237746
C       -1.4202888572    0.7380027922   -0.1654830776
C       -0.5931343232    1.7760701276    0.3437187259
N        0.7971163233    1.3377901154   -0.0459633677
H        2.4445837551    0.2594202565   -0.3512524513
H        2.0063098790   -1.6908262341    1.1806469661
H       -0.6040155473   -2.6017512717    0.5676928384
H       -2.4962858765    0.4206949717    0.0835501053
H       -0.7716245365    2.8173054339    0.5865396571
C       -0.9621656023    0.0029463385   -1.1805255385
H       -0.8924166445   -0.4174653395   -2.1509970367
13   
CH+C5H5N->C6H6N atoms 1-13 frame 131 charge -0.000 sz -1.000 sz^2 1.637
C        1.3885246902    0.1845933797   -0.0586492488
C        1.2173752653   -1.1965936564    0.6189823062
C       -0.0976600929   -1.6408274464    0.5811244620
C       -1.4159228924    0.7563205876   -0.1903901486
C       -0.5805019774    1.7763513173    0.3512795150
N        0.7948436223    1.3347053599   -0.0446710594
H        2.4424009193    0.2621892162   -0.3481891555
H        2.0219785684   -1.6521499872    1.2265782637
H       -0.5676224522   -2.6789030436    0.5388366467
H       -2.5172295677    0.5153988511    0.0890340279
H       -0.7585300429    2.8147119076    0.6275820534
C       -0.9812971766   -0.0104986341   -1.2047503682
H       -0.9463588634   -0.4652978518   -2.1867672944
13   
CH+C5H5N->C6H6N atoms 1-13 frame 132 charge -0.000 sz -1.000 sz^2 1.015
C        1.3835218992    0.1823188810   -0.0479455943
C        1.2284724422   -1.1903799458    0.6318980119
C       -0.0899626702   -1.6585275776    0.5686024613
C       -1.4141654800    0.7737194096   -0.2163514672
C       -0.5682378717    1.7734113528    0.3585131004
N        0.7909515541    1.3320592017   -0.0415686256
H        2.4396503777    0.2656108076   -0.3465848599
H        2.0353038443   -1.6126847110    1.2693320851
H       -0.5279681132   -2.7490777830    0.5129562852
H       -2.5303804529    0.6159918293    0.0920319486
H       -0.7476269931    2.8070031999    0.6710045111
C       -0.9997099636   -0.0256416407   -1.2307420522
H       -0.9998485728   -0.5138030239   -2.2211458044
13   
CH+C5H5N->C6H6N atoms 1-13 frame 133 charge +0.000 sz -1.000 sz^2 3.589
C        1.3787110073    0.1791718917   -0.0343754147
C        1.2362274300   -1.1846266150    0.6455918440
C       -0.0817096169   -1.6792489937    0.5540094528
C       -1.4150356487    0.7902177927   -0.2439322585
C       -0.5562877818    1.7669790029    0.3654459432
N        0.7852944332    1.3296433883   -0.0364597802
H        2.4353380969    0.2692097778   -0.3464630058
H        2.0453220023   -1.5724357781    1.3086718193
H       -0.4829364886   -2.8085785620    0.4898875380