13   
From optimize.out: Frame 1 / 2, Energy=    -286.8568459332
C        1.5870652534    0.3115518464    0.1267216970
C        1.0215815176   -0.9083749137    0.2855610216
C       -0.4329636366   -1.0944262623    0.1727617238
C       -1.2410022657    0.2902820537    0.0321549352
C       -0.4009609007    1.4970703397    0.1630320294
N        0.8875236918    1.5238103250    0.1176442601
H        2.6680848805    0.4248334914    0.1289018472
H        1.6433408653   -1.7754195058    0.4940218413
H       -0.9035079651   -1.8892285098    0.7524279463
H       -2.2274361209    0.3356255424    0.4971265749
H       -0.9119776441    2.4430759432    0.3566101985
C       -1.0653034798   -0.6536244720   -1.0737404309
H       -0.6244441963   -0.5051758780   -2.0532236450
13   
From optimize.out: Frame 23 / 24, Energy=    -286.8568459332
C        1.5870652534    0.3115518464    0.1267216970
C        1.0215815176   -0.9083749137    0.2855610216
C       -0.4329636366   -1.0944262623    0.1727617238
C       -1.2410022657    0.2902820537    0.0321549352
C       -0.4009609007    1.4970703397    0.1630320294
N        0.8875236918    1.5238103250    0.1176442601
H        2.6680848805    0.4248334914    0.1289018472
H        1.6433408653   -1.7754195058    0.4940218413
H       -0.9035079651   -1.8892285098    0.7524279463
H       -2.2274361209    0.3356255424    0.4971265749
H       -0.9119776441    2.4430759432    0.3566101985
C       -1.0653034798   -0.6536244720   -1.0737404309
H       -0.6244441963   -0.5051758780   -2.0532236450
13   
From optimize.out: Frame 22 / 24, Energy=    -286.8568447983
C        1.5793253501    0.3056807863    0.1117046030
C        1.0195605698   -0.9150732130    0.2806507921
C       -0.4236746712   -1.1107919845    0.1602444045
C       -1.2466551803    0.2932900528    0.0225550624
C       -0.4067217899    1.4973503072    0.1551416823
N        0.8829507381    1.5163256974    0.1091870742
H        2.6602771169    0.4195636808    0.1184831437
H        1.6446151391   -1.7702372135    0.5271233605
H       -0.8924257254   -1.8949611099    0.7556069991
H       -2.2266253637    0.3486468178    0.4999038644
H       -0.9125303284    2.4422853588    0.3672805028
C       -1.0688779581   -0.6626317980   -1.0716891026
H       -0.6092178970   -0.4694473821   -2.0361923863
13   
From optimize.out: Frame 21 / 24, Energy=    -286.8568438397
C        1.5951449825    0.3100736138    0.1207295508
C        1.0262155791   -0.9145191612    0.2820849032
C       -0.4164309062   -1.0930649616    0.1550801591
C       -1.2532204386    0.2888692695    0.0034199550
C       -0.4082830683    1.4869412143    0.1479450883
N        0.8847409774    1.5152374090    0.1005167724
H        2.6758299411    0.4245346356    0.1495073548
H        1.6349853772   -1.7764171197    0.5424365013
H       -0.9046787318   -1.8666671649    0.7440384625
H       -2.1983304588    0.2999812791    0.5468635569
H       -0.9076249685    2.4399064464    0.3440620471
C       -1.0856988505   -0.6620224898   -1.0842425670
H       -0.6426494346   -0.4528529706   -2.0524417845
13   
From optimize.out: Frame 19 / 24, Energy=    -286.8568388879
C        1.5842225860    0.3075763266    0.1141932252
C        1.0194527256   -0.9099164390    0.2774650934
C       -0.4113239385   -1.1008549992    0.1300903290
C       -1.2672275859    0.2929432438   -0.0053689817
C       -0.4157490123    1.4674891474    0.1406388514
N        0.8749297753    1.5013065937    0.0808694334
H        2.6651119055    0.4194070000    0.1630740587
H        1.6312753204   -1.7647368913    0.5578843272
H       -0.9130790341   -1.8446774355    0.7555209104
H       -2.1801318377    0.2537390504    0.5868583293
H       -0.8828226144    2.4391973808    0.3273372617
C       -1.0764277295   -0.6343059482   -1.0822286569
H       -0.6282305603   -0.4271670296   -2.0463341812
13   
From optimize.out: Frame 18 / 24, Energy=    -286.8568301721
C        1.5750464551    0.3062012914    0.1304049183
C        1.0197427367   -0.9192484341    0.2909896341
C       -0.3874280476   -1.1404942079    0.0930382498
C       -1.2905809768    0.3178092324    0.0107059651
C       -0.4302842476    1.4689455732    0.1152565278
N        0.8668760727    1.4877044232    0.0489279519
H        2.6557726792    0.4221512180    0.1855648596
H        1.6500144400   -1.7637023265    0.5661183392
H       -0.9254742094   -1.8738488941    0.7048085028
H       -2.1701414476    0.2432801982    0.6451786426
H       -0.8670215523    2.4603815807    0.2757269031
C       -1.0676770159   -0.5980304730   -1.0477587647
H       -0.6288448865   -0.4111491816   -2.0189617295
13   
From optimize.out: Frame 17 / 24, Energy=    -286.8568248852
C        1.5749113800    0.3005223202    0.1225297948
C        1.0257478691   -0.9360861898    0.3066060637
C       -0.3613700322   -1.1758155272    0.0602499279
C       -1.3121884522    0.3270317198    0.0252572849
C       -0.4486520441    1.4629046507    0.1007295810
N        0.8588287730    1.4696945138    0.0188119156
H        2.6552701205    0.4235978269    0.1827978260
H        1.6682007635   -1.7630823839    0.6097694973
H       -0.9578689014   -1.8514280445    0.6879471288
H       -2.1644744206    0.2100508221    0.6909607207
H       -0.8614188462    2.4653335709    0.2560420909
C       -1.0498502274   -0.5555570989   -1.0413110880
H       -0.6271359819   -0.3771661800   -2.0203907435
13   
From optimize.out: Frame 16 / 24, Energy=    -286.8567654320
C        1.5699728300    0.2896796243    0.1130801834
C        1.0383979801   -0.9598937574    0.2925719026
C       -0.3396617912   -1.1971539084    0.0860534037
C       -1.3687692411    0.3506866901    0.0181352916
C       -0.4749685187    1.4506144381    0.1131975695
N        0.8414111832    1.4385602545    0.0373757461
H        2.6514217167    0.4226704369    0.1525760568
H        1.7039848043   -1.7797861176    0.5683505525
H       -0.9514431046   -1.8368190424    0.7432067871
H       -2.2353384515    0.2200616902    0.6581206120
H       -0.8416333340    2.4753490417    0.2433452918
C       -1.0310529174   -0.5071582498   -1.0311829065
H       -0.5623211557   -0.3668111002   -1.9948304908
13   
From optimize.out: Frame 15 / 24, Energy=    -286.8567076464
C        1.5435052855    0.2911006756    0.1084463961
C        1.0186943269   -0.9756286348    0.2757461532
C       -0.3318798322   -1.2722893389    0.0591233172
C       -1.3845185104    0.3795468740    0.0485913251
C       -0.4819334563    1.4719024082    0.1000058599
N        0.8361199173    1.4336064709    0.0244959433
H        2.6243380849    0.4259210849    0.1549076095
H        1.7127566983   -1.7703864667    0.5548831281
H       -0.9554221813   -1.9014868271    0.7179147965
H       -2.2454405271    0.2384824757    0.6889157554
H       -0.8304181463    2.5065497680    0.1927759256
C       -0.9940590440   -0.4592836429   -0.9819258307
H       -0.5117426152   -0.3680348468   -1.9438803793
13   
From optimize.out: Frame 13 / 24, Energy=    -286.8564479494
C        1.5230021197    0.2831718251    0.1015839420
C        1.0188917177   -1.0012104445    0.2731436722
C       -0.3142145882   -1.3358237778    0.0677566616
C       -1.4229676324    0.4117630964    0.0618058084
C       -0.4973361015    1.4848789381    0.0960115378
N        0.8236525312    1.4143130070    0.0184167412
H        2.6016454904    0.4292493404    0.1345807938
H        1.7455447311   -1.7719234292    0.5345361563
H       -0.9575700645   -1.9477530013    0.7201877680
H       -2.2877229722    0.2598963184    0.6921678189
H       -0.8132257980    2.5312030186    0.1565341925
C       -0.9657895799   -0.4052481254   -0.9535738535
H       -0.4539098534   -0.3525167660   -1.9031512391
13   
From optimize.out: Frame 12 / 24, Energy=    -286.8557469705
C        1.5075782866    0.2718182895    0.0919887629
C        1.0253544332   -1.0292508212    0.2739436295
C       -0.2999407284   -1.3842792701    0.0987171536
C       -1.4660982394    0.4382606445    0.0657686137
C       -0.5159576195    1.4933309709    0.0995040687
N        0.8084278850    1.3937935837    0.0183471300
H        2.5830889034    0.4315084579    0.0959019388
H        1.7814947527   -1.7817496392    0.5006678203
H       -0.9693351978   -1.9705187134    0.7412088379
H       -2.3413291280    0.2722141821    0.6787317653
H       -0.7997431435    2.5489846404    0.1315444305
C       -0.9334700616   -0.3519630142   -0.9344036924
H       -0.3800701428   -0.3321493108   -1.8619204590
13   
From optimize.out: Frame 11 / 24, Energy=    -286.8541058530
C        1.4958545440    0.2642525773    0.0792471704
C        1.0215911123   -1.0508759827    0.2651627958
C       -0.3044856429   -1.4145517843    0.1349227596
C       -1.4923562782    0.4487179281    0.0705117323
C       -0.5314319678    1.5020225684    0.1079717865
N        0.7958382968    1.3875910138    0.0229572542
H        2.5680942550    0.4314170291    0.0451614423
H        1.7958096034   -1.7961958209    0.4463407753
H       -1.0035802452   -1.9653254399    0.7693432681
H       -2.3809194165    0.2617836549    0.6625092038
H       -0.8011463072    2.5599666289    0.1134365542
C       -0.8823064044   -0.3075275240   -0.9099860821
H       -0.2809615494   -0.3212748488   -1.8075786606
13   
From optimize.out: Frame 9 / 24, Energy=    -286.8453304356
C        1.5209838165    0.2605531156    0.0802936662
C        1.0395388033   -1.0459000497    0.2637180220
C       -0.2883236509   -1.3488369915    0.1224380173
C       -1.5063194510    0.4174537497    0.0797322674
C       -0.5404867942    1.4787391786    0.1139967255
N        0.7970388899    1.3712305560    0.0277832871
H        2.5906987265    0.4364197844    0.0424936292
H        1.7954355690   -1.8092126901    0.4428468081
H       -1.0426580742   -1.8510410380    0.7157546376
H       -2.3957940266    0.2209326949    0.6699753796
H       -0.8033482670    2.5374815487    0.1162832199
C       -0.8860419577   -0.3192430711   -0.8918890010
H       -0.2807235837   -0.3485767874   -1.7834266589
13   
From optimize.out: Frame 8 / 24, Energy=    -286.8362891396
C        1.5477188449    0.2570221139    0.0819409351
C        1.0584324844   -1.0397650565    0.2625928944
C       -0.2712594197   -1.2789398491    0.1078317438
C       -1.5197469131    0.3843716877    0.0891478921
C       -0.5492619099    1.4540625777    0.1199152279
N        0.7988403475    1.3544274997    0.0326187275
H        2.6149414632    0.4416445030    0.0419204344
H        1.7944215119   -1.8221672815    0.4415677347
H       -1.0819464766   -1.7320033283    0.6586051780
H       -2.4095917276    0.1787562587    0.6784737188
H       -0.8055850319    2.5135382446    0.1200429149
C       -0.8921695740   -0.3334052256   -0.8740673174
H       -0.2847935992   -0.3775421444   -1.7605900841
13   
From optimize.out: Frame 7 / 24, Energy=    -286.8225675642
C        1.5740126729    0.2534256504    0.0837057253
C        1.0773703534   -1.0343604900    0.2614180033
C       -0.2540413575   -1.2118244131    0.0929358933
C       -1.5335950864    0.3528833599    0.0987231082
C       -0.5581389043    1.4306242341    0.1254939599
N        0.8004829904    1.3381064555    0.0372352540
H        2.6387372929    0.4468130980    0.0417118280
H        1.7941705209   -1.8351148537    0.4403268124
H       -1.1199414825   -1.6170050784    0.6013116072
H       -2.4240359868    0.1387724858    0.6870938878
H       -0.8078370687    2.4907994636    0.1227914911
C       -0.8984288063   -0.3468545939   -0.8557441894
H       -0.2887551378   -0.4062653182   -1.7370033811
13   
From optimize.out: Frame 6 / 24, Energy=    -286.7999150663
C        1.5808835532    0.2469473666    0.0906441493
C        1.0982535018   -1.0611114676    0.2580523785
C       -0.2300511999   -1.2671679289    0.0652920010
C       -1.5659642175    0.3915559254    0.1153240137
C       -0.5715009047    1.4616976435    0.1161149919
N        0.7951341417    1.3430050111    0.0322145394
H        2.6428589504    0.4495109677    0.0575534869
H        1.8275119610   -1.8477534250    0.4407654120
H       -1.1009973399   -1.6798358190    0.5376738371
H       -2.4669436563    0.1953162432    0.7010773670
H       -0.8107614207    2.5210873551    0.0810276270
C       -0.9104821662   -0.3289250017   -0.8153459932
H       -0.2879412029   -0.4243268706   -1.6803938107
13   
From optimize.out: Frame 5 / 24, Energy=    -286.7731617345
C        1.5877544336    0.2404690828    0.0975825733
C        1.1191366502   -1.0878624452    0.2546867537
C       -0.2060610423   -1.3225114447    0.0376481087
C       -1.5983333486    0.4302284910    0.1319249192
C       -0.5848629051    1.4927710529    0.1067360239
N        0.7897852931    1.3479035668    0.0271938249
H        2.6469806079    0.4522088375    0.0733951459
H        1.8608534010   -1.8603919962    0.4412040116
H       -1.0820531973   -1.7426665595    0.4740360670
H       -2.5098513258    0.2518600005    0.7150608462
H       -0.8136857727    2.5513752466    0.0392637630
C       -0.9225355260   -0.3109954095   -0.7749477970
H       -0.2871272680   -0.4423884230   -1.6237842404
13   
From optimize.out: Frame 4 / 24, Energy=    -286.7515998571
C        1.5946253139    0.2339907990    0.1045209974
C        1.1400197986   -1.1146134228    0.2513211289
C       -0.1820708848   -1.3778549605    0.0100042164
C       -1.6307024796    0.4689010565    0.1485258247
C       -0.5982249056    1.5238444623    0.0973570560
N        0.7844364444    1.3528021224    0.0221731103
H        2.6511022654    0.4549067072    0.0892368048
H        1.8941948411   -1.8730305675    0.4416426111
H       -1.0631090547   -1.8054973001    0.4103982969
H       -2.5527589953    0.3084037579    0.7290443254
H       -0.8166101246    2.5816631381   -0.0025001011
C       -0.9345888858   -0.2930658173   -0.7345496008
H       -0.2863133331   -0.4604499753   -1.5671746700
13   
From optimize.out: Frame 3 / 24, Energy=    -286.7103034649
C        1.5897473419    0.2276870181    0.0943721368
C        1.1357684058   -1.1311481836    0.2573455713
C       -0.1915987739   -1.4100099346    0.0468547323
C       -1.6340657121    0.4765079461    0.1402332817
C       -0.6052105115    1.5403922442    0.0950264309
N        0.7818078003    1.3611052576    0.0146809788
H        2.6451330822    0.4443439784    0.0625987297
H        1.8974868645   -1.8832877360    0.4367721302
H       -1.0599107407   -1.8366025203    0.4589385864
H       -2.5588783897    0.2998789677    0.7160165247
H       -0.8324843612    2.5955265418   -0.0013565796
C       -0.9128024955   -0.2645777019   -0.7476488897
H       -0.2549925102   -0.4198158775   -1.5738336333
13   
From optimize.out: Frame 2 / 24, Energy=    -286.6853128800
C        1.5797868951    0.2214587259    0.0768314312
C        1.1206439788   -1.1432634774    0.2674320939
C       -0.2156263456   -1.4321337008    0.1116050974
C       -1.6248811870    0.4706760322    0.1211719995
C       -0.6094377318    1.5506563367    0.0957448717
N        0.7803558984    1.3708811910    0.0061197288
H        2.6347986689    0.4280448035    0.0175842061
H        1.8877797115   -1.8925147256    0.4296049766
H       -1.0635239668   -1.8539834928    0.5560063534
H       -2.5490834226    0.2632059593    0.6913038250
H       -0.8539606312    2.6022848220    0.0183483897
C       -0.8763772558   -0.2315220399   -0.7838908326
H       -0.2104746118   -0.3537904342   -1.6078621406
13   
From optimize.out: Frame 1 / 24, Energy=    -286.5857843898
C        1.5698264482    0.2152304337    0.0592907257
C        1.1055195518   -1.1553787712    0.2775186164
C       -0.2396539174   -1.4542574670    0.1763554625
C       -1.6156966620    0.4648441183    0.1021107173
C       -0.6136649522    1.5609204293    0.0964633125
N        0.7789039966    1.3806571245   -0.0024415212
H        2.6244642556    0.4117456286   -0.0274303176
H        1.8780725585   -1.9017417152    0.4224378230
H       -1.0671371928   -1.8713644653    0.6530741204
H       -2.5392884555    0.2265329510    0.6665911254
H       -0.8754369011    2.6090431022    0.0380533590
C       -0.8399520161   -0.1984663779   -0.8201327754
H       -0.1659567134   -0.2877649910   -1.6418906479
13   
CH+C5H5N->C6H6N atoms 1-13 frame 113 charge +0.000 sz -1.000 sz^2 0.807
C        1.5598660014    0.2090021416    0.0417500201
C        1.0903951247   -1.1674940650    0.2876051390
C       -0.2636814891   -1.4763812333    0.2411058276
C       -1.6065121369    0.4590122044    0.0830494352
C       -0.6178921725    1.5711845219    0.0971817534
N        0.7774520947    1.3904330580   -0.0110027712
H        2.6141298423    0.3954464537   -0.0724448412
H        1.8683654054   -1.9109687048    0.4152706693
H       -1.0707504189   -1.8887454378    0.7501418874
H       -2.5294934885    0.1898599427    0.6418784257
H       -0.8969131711    2.6158013823    0.0577583282
C       -0.8035267764   -0.1654107160   -0.8563747183
H       -0.1214388150   -0.2217395478   -1.6759191553
13   
CH+C5H5N->C6H6N atoms 1-13 frame 114 charge -0.000 sz -1.000 sz^2 0.799
C        1.5482380773    0.2029167955    0.0244060836
C        1.0720566797   -1.1750057942    0.2958693337
C       -0.2854104986   -1.4813940965    0.3057278213
C       -1.5932575075    0.4461273995    0.0618431113
C       -0.6214546334    1.5733786678    0.0999940857
N        0.7759357619    1.3975562802   -0.0171591958
H        2.5998066895    0.3777688026   -0.1178626525
H        1.8492985680   -1.9210553182    0.4029535427
H       -1.0714102837   -1.8848261750    0.8450309725
H       -2.5136846333    0.1458696375    0.6111760899
H       -0.9178658307    2.6125866541    0.0799033563
C       -0.7654964711   -0.1359890909   -0.8888958639
H       -0.0767559180   -0.1579337625   -1.7029866848
13   
CH+C5H5N->C6H6N atoms 1-13 frame 115 charge +0.000 sz -1.000 sz^2 0.760
C        1.5360156986    0.1968824097    0.0071322951
C        1.0525724394   -1.1808763556    0.3034838696
C       -0.3063200721   -1.4803069338    0.3703040508
C       -1.5785518885    0.4307282434    0.0398720815
C       -0.6247801080    1.5726958830    0.1035528889
N        0.7743964595    1.4037338126   -0.0224583017
H        2.5840615537    0.3595997255   -0.1634242355
H        1.8268950091   -1.9314483871    0.3888004540
H       -1.0710172772   -1.8733133919    0.9391433589
H       -2.4957318309    0.0992707207    0.5783384526
H       -0.9386318235    2.6058165548    0.1029182637
C       -0.7268939610   -0.1078629976   -0.9200905476
H       -0.0320141992   -0.0949192838   -1.7275726301
13   
CH+C5H5N->C6H6N atoms 1-13 frame 116 charge +0.000 sz -1.000 sz^2 0.729
C        1.5237933199    0.1908480238   -0.0101414934
C        1.0330881991   -1.1867469169    0.3110984055
C       -0.3272296456   -1.4792197711    0.4348802802
C       -1.5638462695    0.4153290873    0.0179010517
C       -0.6281055826    1.5720130982    0.1071116922
N        0.7728571572    1.4099113450   -0.0277574077
H        2.5683164179    0.3414306485   -0.2089858185
H        1.8044914503   -1.9418414559    0.3746473652
H       -1.0706242706   -1.8618006088    1.0332557452
H       -2.4777790286    0.0526718039    0.5455008153
H       -0.9593978162    2.5990464555    0.1259331711
C       -0.6882914508   -0.0797369043   -0.9512852313
H        0.0127275197   -0.0319048051   -1.7521585755
13   
CH+C5H5N->C6H6N atoms 1-13 frame 117 charge +0.000 sz -1.000 sz^2 0.972
C        1.5115709412    0.1848136380   -0.0274152819
C        1.0136039587   -1.1926174783    0.3187129414
C       -0.3481392191   -1.4781326084    0.4994565096
C       -1.5491406505    0.3999299312   -0.0040699781
C       -0.6314310572    1.5713303134    0.1106704954
N        0.7713178548    1.4160888774   -0.0330565136
H        2.5525712821    0.3232615714   -0.2545474015
H        1.7820878914   -1.9522345248    0.3604942765
H       -1.0702312641   -1.8502878257    1.1273681316
H       -2.4598262262    0.0060728871    0.5126631780
H       -0.9801638090    2.5922763562    0.1489480785
C       -0.6496889407   -0.0516108111   -0.9824799150
H        0.0574692385    0.0311096735   -1.7767445209
13   
CH+C5H5N->C6H6N atoms 1-13 frame 118 charge +0.000 sz -1.000 sz^2 0.897
C        1.5030724745    0.1815059009   -0.0393264680
C        1.0022083688   -1.1995080505    0.3374630619
C       -0.3503263969   -1.4789099050    0.5524055326
C       -1.5375542616    0.4022591373   -0.0163055152
C       -0.6358505558    1.5798868150    0.1209608071
N        0.7735438187    1.4196330285   -0.0362956329
H        2.5391775260    0.3092032504   -0.2952083162
H        1.7718735040   -1.9580667006    0.3698710596
H       -1.0677342280   -1.8549931354    1.1731458816
H       -2.4473205671   -0.0371539060    0.4764833680
H       -0.9882798584    2.5985052918    0.1707021719
C       -0.6264555375   -0.0237042348   -1.0052668728
H        0.0636457134    0.0613425084   -1.8086290777
13   
CH+C5H5N->C6H6N atoms 1-13 frame 119 charge +0.000 sz -1.000 sz^2 1.541
C        1.5011988686    0.1852180658   -0.0410401622
C        1.0090971002   -1.2060901650    0.3768933386
C       -0.3096235854   -1.4822747606    0.5754663946
C       -1.5309660800    0.4417173227   -0.0083008900
C       -0.6418967718    1.6079236874    0.1466664487
N        0.7824953320    1.4180601042   -0.0347244416
H        2.5328838137    0.3059372216   -0.3244135848
H        1.7912063517   -1.9540067475    0.4310523909
H       -1.0701899530   -1.9064195555    1.1254253828
H       -2.4407206717   -0.0677283827    0.4282044777
H       -0.9702310366    2.6335946968    0.1928136630
C       -0.6405920671    0.0016159378   -1.0094707932
H       -0.0126613004    0.0224525751   -1.8585722245
13   
CH+C5H5N->C6H6N atoms 1-13 frame 120 charge -0.000 sz -1.000 sz^2 0.888
C        1.4966852184    0.1903327833   -0.0448364634
C        1.0171808867   -1.2092070674    0.4104538972
C       -0.2673431875   -1.4840571580    0.5917558595
C       -1.5225769592    0.4780555790   -0.0018943534
C       -0.6468580758    1.6341813216    0.1728464910
N        0.7887999702    1.4168007648   -0.0330904271
H        2.5292423079    0.3051988893   -0.3505303638
H        1.8149809310   -1.9493404829    0.4936424979
H       -1.0827130549   -1.9733247200    1.0909260657
H       -2.4250669377   -0.0860751684    0.3753807400
H       -0.9544521718    2.6687463916    0.2191811135
C       -0.6615168875    0.0227492482   -1.0123925427
H       -0.0863620397   -0.0140603813   -1.9114425145
13   
CH+C5H5N->C6H6N atoms 1-13 frame 121 charge +0.000 sz -1.000 sz^2 1.012
C        1.4894759645    0.1952703561   -0.0499212322
C        1.0263790311   -1.2106002384    0.4399134642
C       -0.2273655936   -1.4861456098    0.6041243167
C       -1.5135489064    0.5115193651    0.0021450521
C       -0.6508915621    1.6584770680    0.1986160370
N        0.7925259610    1.4147765132   -0.0319587989
H        2.5259804165    0.3048128784   -0.3720049856
H        1.8403988892   -1.9430326513    0.5589824401
H       -1.0908897638   -2.0455523548    1.0579831763
H       -2.4037943966   -0.0910040362    0.3208483202
H       -0.9398894272    2.7024204682    0.2491051546
C       -0.6877366851    0.0389684515   -1.0147621253
H       -0.1606439275   -0.0499102099   -1.9630708191
13   
CH+C5H5N->C6H6N atoms 1-13 frame 122 charge -0.000 sz -1.000 sz^2 1.079
C        1.4797713858    0.1992110916   -0.0554382765
C        1.0371508990   -1.2115576440    0.4664844345
C       -0.1923649271   -1.4904440670    0.6138594363
C       -1.5043546705    0.5423854044    0.0025119445
C       -0.6539167282    1.6807455555    0.2234790091
N        0.7944385426    1.4108698123   -0.0313023583
H        2.5211143579    0.3031586925   -0.3874858585
H        1.8652300455   -1.9339219221    0.6279942571
H       -1.0836471171   -2.1159328208    1.0184670580
H       -2.3804415306   -0.0820903808    0.2662690758
H       -0.9254592860    2.7331609656    0.2812906094
C       -0.7182292761    0.0508207536   -1.0180953092
H       -0.2392916953   -0.0864054408   -2.0080340221
13   
CH+C5H5N->C6H6N atoms 1-13 frame 124 charge -0.000 sz -1.000 sz^2 0.918
C        1.4682093483    0.2016979904   -0.0605524143
C        1.0502382281   -1.2128144795    0.4905166219
C       -0.1645800074   -1.4984711328    0.6212936608
C       -1.4951698032    0.5704075406   -0.0022008810
C       -0.6555100431    1.7005919259    0.2466026121
N        0.7954308011    1.4044038909   -0.0310442191
H        2.5133782386    0.2992859662   -0.3960398837
H        1.8875384643   -1.9210451985    0.6995488594
H       -1.0548854937   -2.1789414096    0.9688357531
H       -2.3596005910   -0.0597378615    0.2144639729
H       -0.9104313948    2.7591641165    0.3138783843
C       -0.7514855782    0.0588468851   -1.0242116184
H       -0.3231321690   -0.1233882336   -2.0410908481
13   
CH+C5H5N->C6H6N atoms 1-13 frame 125 charge +0.000 sz -1.000 sz^2 2.712
C        1.4556963840    0.2020055332   -0.0653224065
C        1.0660662051   -1.2144957371    0.5115892114
C       -0.1455314033   -1.5106282586    0.6257433451
C       -1.4857927067    0.5959255623   -0.0126082441
C       -0.6550574204    1.7177633173    0.2668216295
N        0.7956637877    1.3956182954   -0.0317526286
H        2.5028488494    0.2928640141   -0.3976405884
H        1.9059483702   -1.9036525515    0.7715856837
H       -1.0044926108   -2.2306710210    0.9109215458
H       -2.3465489199   -0.0259941121    0.1682741977
H       -0.8941190045    2.7788454403    0.3470057794
C       -0.7850950677    0.0616715116   -1.0345558207
H       -0.4095864630   -0.1592519939   -2.0600617041
13   
CH+C5H5N->C6H6N atoms 1-13 frame 126 charge +0.000 sz -1.000 sz^2 2.866
C        1.4430867906    0.2003056733   -0.0692151533
C        1.0842618302   -1.2163918683    0.5300940155
C       -0.1344805769   -1.5264787760    0.6274684897
C       -1.4760759335    0.6193616530   -0.0284811815
C       -0.6521974229    1.7322455973    0.2837230194
N        0.7955058408    1.3852897921   -0.0333797208
H        2.4902850076    0.2843666937   -0.3942962965
H        1.9206181166   -1.8820638558    0.8416763241
H       -0.9378071749   -2.2717206782    0.8485055732
H       -2.3446883757    0.0163634139    0.1302088473
H       -0.8764394228    2.7924718928    0.3802983213
C       -0.8172956034    0.0594770570   -1.0496918431
H       -0.4947730757   -0.1932265949   -2.0669103955
13   
CH+C5H5N->C6H6N atoms 1-13 frame 127 charge -0.000 sz -1.000 sz^2 2.997
C        1.4313001304    0.1971778994   -0.0724455595
C        1.1044641330   -1.2180230750    0.5460078048
C       -0.1288634401   -1.5449267435    0.6259702674
C       -1.4658035684    0.6412095141   -0.0485480461
C       -0.6467283210    1.7442102768    0.2977635508
N        0.7956402233    1.3740417811   -0.0358214700
H        2.4775474753    0.2751897591   -0.3868175050
H        1.9331085955   -1.8565823683    0.9088792959
H       -0.8626061365   -2.3069796376    0.7858761421
H       -2.3560331563    0.0661703070    0.1017386750
H       -0.8576865979    2.8011050753    0.4134657985
C       -0.8474505260    0.0535942897   -1.0688306479
H       -0.5768888113   -0.2261870781   -2.0672383061
13   
CH+C5H5N->C6H6N atoms 1-13 frame 128 charge -0.000 sz -1.000 sz^2 0.969
C        1.4206880437    0.1936589192   -0.0744014198
C        1.1262760797   -1.2185915210    0.5603126144
C       -0.1256005406   -1.5645557508    0.6219211264
C       -1.4550242592    0.6620117072   -0.0719929414
C       -0.6385155627    1.7542208833    0.3098869566
N        0.7962764369    1.3629544254   -0.0385169636
H        2.4657814131    0.2668011298   -0.3776151118
H        1.9456641689   -1.8273452028    0.9729796228
H       -0.7876672236   -2.3454059665    0.7261867260
H       -2.3792379554    0.1243084729    0.0832603383
H       -0.8382555285    2.8067728056    0.4468869479
C       -0.8757281568    0.0455748906   -1.0911609875
H       -0.6546569155   -0.2604047930   -2.0677469083
13   
CH+C5H5N->C6H6N atoms 1-13 frame 129 charge +0.000 sz -1.000 sz^2 1.524
C        1.4116627281    0.1905268989   -0.0752920022
C        1.1490157493   -1.2171336004    0.5732485046
C       -0.1219638545   -1.5833877319    0.6153804378
C       -1.4439139203    0.6828812067   -0.0970897914
C       -0.6278648913    1.7625321355    0.3203541142
N        0.7972122967    1.3532057635   -0.0416031390
H        2.4566089224    0.2608498869   -0.3680047783
H        1.9600440275   -1.7938516855    1.0343146144
H       -0.7222820724   -2.3965096942    0.6731750505
H       -2.4110815338    0.1922054908    0.0745767337
H       -0.8185601587    2.8108189112    0.4821459740
C       -0.9018465643    0.0353277458   -1.1152247521
H       -0.7270307285   -0.2974653273   -2.0759809661
13   
CH+C5H5N->C6H6N atoms 1-13 frame 130 charge +0.000 sz -1.000 sz^2 1.581
C        1.4041592978    0.1885435134   -0.0740368702
C        1.1708891254   -1.2132490700    0.5857705484
C       -0.1167032072   -1.5999285379    0.6078465419
C       -1.4336612869    0.7035106174   -0.1225721809
C       -0.6155496095    1.7693709085    0.3296015631
N        0.7978927175    1.3458378260   -0.0441759287
H        2.4501216269    0.2579853940   -0.3604799957
H        1.9763935208   -1.7573060350    1.0914436131
H       -0.6712020487   -2.4642592779    0.6284898859
H       -2.4449388131    0.2692872258    0.0744156730
H       -0.7997704584    2.8144980739    0.5188842943
C       -0.9257070155    0.0242653319   -1.1394874178
H       -0.7919238490   -0.3385559699   -2.0956997265
13   
CH+C5H5N->C6H6N atoms 1-13 frame 131 charge -0.000 sz -1.000 sz^2 1.637
C        1.3979250142    0.1871694041   -0.0707891126
C        1.1905063567   -1.2077271305    0.5977221018
C       -0.1102172694   -1.6146455036    0.5991758504
C       -1.4250863982    0.7236697629   -0.1471637888
C       -0.6027773280    1.7741384321    0.3378455368
N        0.7979270093    1.3405795927   -0.0458797705
H        2.4463541934    0.2579992763   -0.3544862573
H        1.9936263501   -1.7194612140    1.1441823513
H       -0.6308507676   -2.5417595018    0.5914854155