13   
From optimize.out: Frame 2 / 3, Energy=    -286.8754839822
C        1.6788940560    0.4831173748   -0.3254226191
C        1.1472680733   -0.8115037871   -0.4356721793
C       -0.3414768064   -0.7023947536   -0.4748746117
C       -1.2147508122    0.6013225828    0.9533003207
C       -0.5218949549    0.8645749668   -0.3840361394
N        0.7983363325    1.4779555792   -0.2909041369
H        2.7415504446    0.7077504902   -0.2444427556
H        1.7213677897   -1.7315588368   -0.4442419245
H       -0.8250289056   -1.2467896183   -1.2965906657
H       -1.6238300798    1.2813387197    1.6943853014
H       -1.1308946656    1.3566780121   -1.1523330968
C       -1.0770375642   -0.7266828719    0.8758334228
H       -1.3525029078   -1.5538078583    1.5249990846
13   
From optimize.out: Frame 1 / 2, Energy=    -286.9243414232
C        1.5035376980    0.4255142910   -0.6445151205
C        1.1644220702   -0.9055780454   -0.4846402596
C       -0.0585517045   -1.4553050711    0.0414482244
C       -1.2909871391    0.6711360798    0.5414218192
C       -0.3878717608    1.6387500233    0.1458513185
N        0.8578212239    1.5846968985   -0.3832079680
H        2.4957645498    0.5966397039   -1.0679234221
H        1.9191119173   -1.6235205895   -0.7965938898
H       -0.1123765554   -2.5415801874    0.0785078455
H       -2.2328185316    1.0423261908    0.9384368455
H       -0.7301868482    2.6672819023    0.2788079180
C       -1.1408808593   -0.7611911964    0.4931705073
H       -1.9869840602   -1.3391700000    0.8592361815
