13   
Frame   0 IRC: Energy =  -286.8969970000 ; +0.0000 kcal/mol
C       -0.1114270000   -0.2552560000   -0.0000000000
C       -0.0681370000    0.7563230000   -0.0000000000
C       -0.0176880000   -0.0729390000   -0.0000000000
C       -0.0762710000    0.0475560000    0.0000000000
C       -0.2130490000   -0.0613160000   -0.0000000000
N       -0.1765450000    0.5186650000   -0.0000000000
H        0.1307000000    0.0073900000   -0.0000000000
H        0.1360520000   -0.0324340000   -0.0000000000
H        0.1464970000    0.0273050000   -0.0000000000
H        0.1309510000    0.0031630000    0.0000000000
H        0.1482920000    0.0289860000   -0.0000000000
C       -0.1571920000    0.0258250000    0.0000000000
H        0.1278180000    0.0067300000    0.0000000000
13   
Frame   1 IRC: Energy =  -286.8969920000 ; +0.0031 kcal/mol
C       -0.1115610000   -0.2551240000   -0.0000000000
C       -0.0678250000    0.7560820000   -0.0000000000
C       -0.0177190000   -0.0728090000   -0.0000000000
C       -0.0760200000    0.0474840000    0.0000000000
C       -0.2132010000   -0.0613680000   -0.0000000000
N       -0.1764900000    0.5186850000   -0.0000000000
H        0.1306760000    0.0073910000   -0.0000000000
H        0.1359900000   -0.0324250000   -0.0000000000
H        0.1465020000    0.0272780000   -0.0000000000
H        0.1309430000    0.0031640000    0.0000000000
H        0.1482750000    0.0290020000   -0.0000000000
C       -0.1573540000    0.0259050000    0.0000000000
H        0.1277830000    0.0067340000    0.0000000000
13   
Frame   2 IRC: Energy =  -286.8969890000 ; +0.0050 kcal/mol
C       -0.1116380000   -0.2551400000   -0.0000000000
C       -0.0677720000    0.7559570000   -0.0000000000
C       -0.0176670000   -0.0727290000   -0.0000000000
C       -0.0756840000    0.0474940000    0.0000000000
C       -0.2134880000   -0.0613880000   -0.0000000000
N       -0.1764730000    0.5187600000   -0.0000000000
H        0.1306800000    0.0073960000   -0.0000000000
H        0.1359410000   -0.0324190000   -0.0000000000
H        0.1465090000    0.0272460000   -0.0000000000
H        0.1309660000    0.0031760000    0.0000000000
H        0.1482650000    0.0289910000   -0.0000000000
C       -0.1574050000    0.0259120000    0.0000000000
H        0.1277670000    0.0067430000    0.0000000000
13   
Frame   3 IRC: Energy =  -286.8969570000 ; +0.0251 kcal/mol
C       -0.1126940000   -0.2552220000   -0.0000000000
C       -0.0663740000    0.7565560000   -0.0000000000
C       -0.0197920000   -0.0723940000   -0.0000000000
C       -0.0760450000    0.0462890000    0.0000000000
C       -0.2116850000   -0.0612790000   -0.0000000000
N       -0.1767740000    0.5184000000   -0.0000000000
H        0.1307310000    0.0074070000   -0.0000000000
H        0.1360870000   -0.0324310000   -0.0000000000
H        0.1464210000    0.0270640000   -0.0000000000
H        0.1309610000    0.0031080000    0.0000000000
H        0.1482530000    0.0292410000   -0.0000000000
C       -0.1569210000    0.0264600000    0.0000000000
H        0.1278320000    0.0068010000    0.0000000000
13   
Frame   4 IRC: Energy =  -286.8969500000 ; +0.0295 kcal/mol
C       -0.1124280000   -0.2552360000   -0.0000000000
C       -0.0667630000    0.7583020000   -0.0000000000
C       -0.0193670000   -0.0726160000   -0.0000000000
C       -0.0760170000    0.0460460000    0.0000000000
C       -0.2121280000   -0.0611290000   -0.0000000000
N       -0.1767360000    0.5169050000   -0.0000000000
H        0.1307160000    0.0074010000   -0.0000000000
H        0.1361690000   -0.0325060000   -0.0000000000
H        0.1464400000    0.0270970000   -0.0000000000
H        0.1309830000    0.0030970000    0.0000000000
H        0.1482540000    0.0292330000   -0.0000000000
C       -0.1570050000    0.0265960000    0.0000000000
H        0.1278810000    0.0068090000    0.0000000000
13   
Frame   5 IRC: Energy =  -286.8969370000 ; +0.0377 kcal/mol
C       -0.1114260000   -0.2550190000   -0.0000000000
C       -0.0678190000    0.7614830000   -0.0000000000
C       -0.0182760000   -0.0731530000   -0.0000000000
C       -0.0763730000    0.0457900000    0.0000000000
C       -0.2125590000   -0.0609360000   -0.0000000000
N       -0.1767090000    0.5138440000   -0.0000000000
H        0.1306680000    0.0073810000   -0.0000000000
H        0.1362240000   -0.0326430000   -0.0000000000
H        0.1464910000    0.0272970000   -0.0000000000
H        0.1309960000    0.0030790000    0.0000000000
H        0.1482100000    0.0292640000   -0.0000000000
C       -0.1573410000    0.0268160000    0.0000000000
H        0.1279160000    0.0067960000    0.0000000000
13   
Frame   6 IRC: Energy =  -286.8967210000 ; +0.1732 kcal/mol
C       -0.1180780000   -0.2552660000   -0.0000000000
C       -0.0595100000    0.7591760000   -0.0000000000
C       -0.0305280000   -0.0714680000   -0.0000000000
C       -0.0789160000    0.0412590000    0.0000000000
C       -0.2033870000   -0.0604040000   -0.0000000000
N       -0.1775020000    0.5159750000   -0.0000000000
H        0.1307310000    0.0074850000   -0.0000000000
H        0.1360530000   -0.0325110000   -0.0000000000
H        0.1456750000    0.0263660000   -0.0000000000
H        0.1311500000    0.0028570000    0.0000000000
H        0.1485680000    0.0297540000   -0.0000000000
C       -0.1520310000    0.0296490000    0.0000000000
H        0.1277740000    0.0071280000    0.0000000000
13   
Frame   7 IRC: Energy =  -286.8967020000 ; +0.1851 kcal/mol
C       -0.1172100000   -0.2548900000   -0.0000000000
C       -0.0601470000    0.7614370000   -0.0000000000
C       -0.0304740000   -0.0718070000   -0.0000000000
C       -0.0792930000    0.0410000000    0.0000000000
C       -0.2031060000   -0.0602570000   -0.0000000000
N       -0.1776490000    0.5133810000   -0.0000000000
H        0.1306850000    0.0074640000   -0.0000000000
H        0.1360080000   -0.0326020000   -0.0000000000
H        0.1456290000    0.0264960000   -0.0000000000
H        0.1311190000    0.0028560000    0.0000000000
H        0.1485130000    0.0298800000   -0.0000000000
C       -0.1518210000    0.0298980000    0.0000000000
H        0.1277450000    0.0071440000    0.0000000000
13   
Frame   8 IRC: Energy =  -286.8962980000 ; +0.4386 kcal/mol
C       -0.1238620000   -0.2554930000   -0.0000000000
C       -0.0535620000    0.7627480000   -0.0000000000
C       -0.0402430000   -0.0711360000   -0.0000000000
C       -0.0827270000    0.0364850000    0.0000000000
C       -0.1948100000   -0.0586060000   -0.0000000000
N       -0.1781430000    0.5124090000   -0.0000000000
H        0.1307550000    0.0075940000   -0.0000000000
H        0.1360990000   -0.0326770000   -0.0000000000
H        0.1445840000    0.0257200000   -0.0000000000
H        0.1314670000    0.0026010000    0.0000000000
H        0.1489710000    0.0300310000   -0.0000000000
C       -0.1462940000    0.0328650000    0.0000000000
H        0.1277650000    0.0074590000    0.0000000000
13   
Frame   9 IRC: Energy =  -286.8962600000 ; +0.4625 kcal/mol
C       -0.1249980000   -0.2559010000   -0.0000000000
C       -0.0525960000    0.7604230000   -0.0000000000
C       -0.0415260000   -0.0706330000   -0.0000000000
C       -0.0820130000    0.0365930000    0.0000000000
C       -0.1949320000   -0.0586200000   -0.0000000000
N       -0.1781760000    0.5149190000   -0.0000000000
H        0.1308370000    0.0076250000   -0.0000000000
H        0.1360920000   -0.0325890000   -0.0000000000
H        0.1445260000    0.0254040000   -0.0000000000
H        0.1315310000    0.0026080000    0.0000000000
H        0.1490370000    0.0299500000   -0.0000000000
C       -0.1455580000    0.0327010000    0.0000000000
H        0.1277740000    0.0075200000    0.0000000000
13   
Frame  10 IRC: Energy =  -286.8956860000 ; +0.8227 kcal/mol
C       -0.1290460000   -0.2551020000   -0.0000000000
C       -0.0493030000    0.7681500000   -0.0000000000
C       -0.0467520000   -0.0715380000   -0.0000000000
C       -0.0871060000    0.0319840000    0.0000000000
C       -0.1869990000   -0.0557810000   -0.0000000000
N       -0.1788980000    0.5057180000   -0.0000000000
H        0.1306720000    0.0076900000   -0.0000000000
H        0.1360880000   -0.0329500000   -0.0000000000
H        0.1431370000    0.0253790000   -0.0000000000
H        0.1318170000    0.0023610000    0.0000000000
H        0.1492400000    0.0302730000   -0.0000000000
C       -0.1406190000    0.0360390000    0.0000000000
H        0.1277690000    0.0077780000    0.0000000000
13   
Frame  11 IRC: Energy =  -286.8955460000 ; +0.9105 kcal/mol
C       -0.1310830000   -0.2555730000   -0.0000000000
C       -0.0473810000    0.7654520000   -0.0000000000
C       -0.0488670000   -0.0710220000   -0.0000000000
C       -0.0871880000    0.0315460000    0.0000000000
C       -0.1859460000   -0.0553450000   -0.0000000000
N       -0.1790090000    0.5084300000   -0.0000000000
H        0.1307890000    0.0077450000   -0.0000000000
H        0.1361300000   -0.0328820000   -0.0000000000
H        0.1429160000    0.0248890000   -0.0000000000
H        0.1318810000    0.0023210000    0.0000000000
H        0.1494040000    0.0301490000   -0.0000000000
C       -0.1394090000    0.0364350000    0.0000000000
H        0.1277630000    0.0078540000    0.0000000000
13   
Frame  12 IRC: Energy =  -286.8945980000 ; +1.5054 kcal/mol
C       -0.1360140000   -0.2545870000   -0.0000000000
C       -0.0447400000    0.7721490000   -0.0000000000
C       -0.0513450000   -0.0720930000   -0.0000000000
C       -0.0922830000    0.0268400000    0.0000000000
C       -0.1788590000   -0.0511030000   -0.0000000000
N       -0.1798870000    0.4989160000   -0.0000000000
H        0.1305740000    0.0078400000   -0.0000000000
H        0.1360640000   -0.0332190000   -0.0000000000
H        0.1409940000    0.0248430000   -0.0000000000
H        0.1322640000    0.0020920000    0.0000000000
H        0.1495260000    0.0303940000   -0.0000000000
C       -0.1340830000    0.0397950000    0.0000000000
H        0.1277890000    0.0081330000    0.0000000000
13   
Frame  13 IRC: Energy =  -286.8943290000 ; +1.6742 kcal/mol
C       -0.1384370000   -0.2552830000   -0.0000000000
C       -0.0427980000    0.7675920000   -0.0000000000
C       -0.0530170000   -0.0715940000   -0.0000000000
C       -0.0922520000    0.0263860000    0.0000000000
C       -0.1782520000   -0.0502530000   -0.0000000000
N       -0.1801630000    0.5030340000   -0.0000000000
H        0.1308200000    0.0079160000   -0.0000000000
H        0.1361400000   -0.0331240000   -0.0000000000
H        0.1406620000    0.0242970000   -0.0000000000
H        0.1323660000    0.0020500000    0.0000000000
H        0.1497310000    0.0303030000   -0.0000000000
C       -0.1326160000    0.0404130000    0.0000000000
H        0.1278170000    0.0082620000    0.0000000000
13   
Frame  14 IRC: Energy =  -286.8930530000 ; +2.4749 kcal/mol
C       -0.1425720000   -0.2532960000   -0.0000000000
C       -0.0413850000    0.7749750000   -0.0000000000
C       -0.0523790000   -0.0730310000   -0.0000000000
C       -0.0971770000    0.0219330000    0.0000000000
C       -0.1724120000   -0.0451520000   -0.0000000000
N       -0.1808440000    0.4913770000   -0.0000000000
H        0.1303420000    0.0079840000   -0.0000000000
H        0.1360680000   -0.0334600000   -0.0000000000
H        0.1385970000    0.0244960000   -0.0000000000
H        0.1327120000    0.0018500000    0.0000000000
H        0.1497050000    0.0305100000   -0.0000000000
C       -0.1284710000    0.0433510000    0.0000000000
H        0.1278160000    0.0084640000    0.0000000000
13   
Frame  15 IRC: Energy =  -286.8924740000 ; +2.8382 kcal/mol
C       -0.1449150000   -0.2545840000   -0.0000000000
C       -0.0406730000    0.7704180000   -0.0000000000
C       -0.0528150000   -0.0728860000   -0.0000000000
C       -0.0975640000    0.0209980000    0.0000000000
C       -0.1715940000   -0.0431680000   -0.0000000000
N       -0.1815220000    0.4950210000   -0.0000000000
H        0.1307680000    0.0080880000   -0.0000000000
H        0.1360500000   -0.0333750000   -0.0000000000
H        0.1379330000    0.0240080000   -0.0000000000
H        0.1328980000    0.0017910000    0.0000000000
H        0.1499370000    0.0305230000   -0.0000000000
C       -0.1264010000    0.0445090000    0.0000000000
H        0.1278970000    0.0086580000    0.0000000000
13   
Frame  16 IRC: Energy =  -286.8906930000 ; +3.9558 kcal/mol
C       -0.1494160000   -0.2513480000   -0.0000000000
C       -0.0389060000    0.7751580000   -0.0000000000
C       -0.0505900000   -0.0743970000   -0.0000000000
C       -0.1017030000    0.0167120000    0.0000000000
C       -0.1673690000   -0.0368110000   -0.0000000000
N       -0.1817560000    0.4837610000   -0.0000000000
H        0.1300780000    0.0081550000   -0.0000000000
H        0.1361320000   -0.0336450000   -0.0000000000
H        0.1357960000    0.0242200000   -0.0000000000
H        0.1332390000    0.0015910000    0.0000000000
H        0.1498950000    0.0306680000   -0.0000000000
C       -0.1232430000    0.0470670000    0.0000000000
H        0.1278450000    0.0088690000    0.0000000000
13   
Frame  17 IRC: Energy =  -286.8880900000 ; +5.5892 kcal/mol
C       -0.1542820000   -0.2500610000   -0.0000000000
C       -0.0391770000    0.7710490000   -0.0000000000
C       -0.0475250000   -0.0760350000   -0.0000000000
C       -0.1050270000    0.0125470000    0.0000000000
C       -0.1644110000   -0.0274770000   -0.0000000000
N       -0.1824240000    0.4794670000   -0.0000000000
H        0.1301810000    0.0082940000   -0.0000000000
H        0.1360660000   -0.0336600000   -0.0000000000
H        0.1334270000    0.0240030000   -0.0000000000
H        0.1337390000    0.0013520000    0.0000000000
H        0.1501980000    0.0309510000   -0.0000000000
C       -0.1186080000    0.0501680000    0.0000000000
H        0.1278450000    0.0094040000    0.0000000000
13   
Frame  18 IRC: Energy =  -286.8848700000 ; +7.6098 kcal/mol
C       -0.1597030000   -0.2453350000   -0.0000000000
C       -0.0382790000    0.7683000000   -0.0000000000
C       -0.0466230000   -0.0791270000   -0.0000000000
C       -0.1078740000    0.0077290000    0.0000000000
C       -0.1633050000   -0.0130730000   -0.0000000000
N       -0.1803000000    0.4686250000   -0.0000000000
H        0.1297310000    0.0083040000   -0.0000000000
H        0.1363410000   -0.0337930000   -0.0000000000
H        0.1311310000    0.0241430000   -0.0000000000
H        0.1342170000    0.0010110000    0.0000000000
H        0.1505190000    0.0311920000   -0.0000000000
C       -0.1136370000    0.0518630000    0.0000000000
H        0.1277820000    0.0101620000    0.0000000000
13   
Frame  19 IRC: Energy =  -286.8810620000 ; +9.9994 kcal/mol
C       -0.1656680000   -0.2366790000   -0.0000000000
C       -0.0353940000    0.7577510000   -0.0000000000
C       -0.0565890000   -0.0843320000   -0.0000000000
C       -0.1097350000    0.0017300000    0.0000000000
C       -0.1620670000    0.0124460000   -0.0000000000
N       -0.1752460000    0.4549530000   -0.0000000000
H        0.1297060000    0.0080800000   -0.0000000000
H        0.1367260000   -0.0337650000   -0.0000000000
H        0.1288550000    0.0239040000   -0.0000000000
H        0.1346430000    0.0006170000    0.0000000000
H        0.1513020000    0.0312730000   -0.0000000000
C       -0.1044070000    0.0525010000    0.0000000000
H        0.1278750000    0.0115220000    0.0000000000
13   
Frame  20 IRC: Energy =  -286.8767370000 ; +12.7134 kcal/mol
C       -0.1726070000   -0.2205650000   -0.0000000000
C       -0.0311160000    0.7346270000   -0.0000000000
C       -0.0754560000   -0.0928670000   -0.0000000000
C       -0.1108740000   -0.0063100000    0.0000000000
C       -0.1616500000    0.0556210000   -0.0000000000
N       -0.1677440000    0.4353270000   -0.0000000000
H        0.1299130000    0.0074730000   -0.0000000000
H        0.1370980000   -0.0333740000   -0.0000000000
H        0.1267050000    0.0230950000   -0.0000000000
H        0.1351370000    0.0003830000    0.0000000000
H        0.1527790000    0.0305630000   -0.0000000000
C       -0.0904610000    0.0523340000    0.0000000000
H        0.1282760000    0.0136950000    0.0000000000
13   
Frame  21 IRC: Energy =  -286.8725270000 ; +15.3552 kcal/mol
C       -0.1805210000   -0.1937900000   -0.0000000000
C       -0.0275270000    0.6897850000   -0.0000000000
C       -0.1002120000   -0.1052530000   -0.0000000000
C       -0.1120310000   -0.0179750000    0.0000000000
C       -0.1609840000    0.1261490000   -0.0000000000
N       -0.1586400000    0.4080840000   -0.0000000000
H        0.1303610000    0.0063030000   -0.0000000000
H        0.1373120000   -0.0322540000   -0.0000000000
H        0.1249610000    0.0216250000   -0.0000000000
H        0.1358100000    0.0006780000    0.0000000000
H        0.1549010000    0.0279610000   -0.0000000000
C       -0.0726410000    0.0518180000    0.0000000000
H        0.1292100000    0.0168700000    0.0000000000
13   
Frame  22 IRC: Energy =  -286.8694060000 ; +17.3136 kcal/mol
C       -0.1887120000   -0.1540120000   -0.0000000000
C       -0.0274890000    0.6143400000   -0.0000000000
C       -0.1253540000   -0.1160010000   -0.0000000000
C       -0.1135530000   -0.0335440000    0.0000000000
C       -0.1586280000    0.2296500000   -0.0000000000
N       -0.1494980000    0.3707540000   -0.0000000000
H        0.1308600000    0.0044380000   -0.0000000000
H        0.1372570000   -0.0299920000   -0.0000000000
H        0.1239970000    0.0194510000   -0.0000000000
H        0.1368870000    0.0019440000    0.0000000000
H        0.1570110000    0.0221980000   -0.0000000000
C       -0.0536750000    0.0496980000    0.0000000000
H        0.1308980000    0.0210760000    0.0000000000
13   
Frame  23 IRC: Energy =  -286.8682620000 ; +18.0315 kcal/mol (Transition State)
C       -0.1969100000   -0.1023600000   -0.0000000000
C       -0.0305570000    0.5066470000   -0.0000000000
C       -0.1459960000   -0.1098310000   -0.0000000000
C       -0.1142360000   -0.0501180000    0.0000000000
C       -0.1550360000    0.3565250000   -0.0000000000
N       -0.1416090000    0.3213930000   -0.0000000000
H        0.1312250000    0.0019630000   -0.0000000000
H        0.1371450000   -0.0262810000   -0.0000000000
H        0.1239550000    0.0164530000   -0.0000000000
H        0.1383090000    0.0042980000    0.0000000000
H        0.1581740000    0.0124850000   -0.0000000000
C       -0.0377060000    0.0430880000    0.0000000000
H        0.1332420000    0.0257380000    0.0000000000
13   
Frame  24 IRC: Energy =  -286.8693500000 ; +17.3488 kcal/mol
C       -0.2038860000   -0.0468090000   -0.0000000000
C       -0.0351980000    0.3796530000   -0.0000000000
C       -0.1584200000   -0.0722970000   -0.0000000000
C       -0.1140660000   -0.0615470000    0.0000000000
C       -0.1526370000    0.4789540000   -0.0000000000
N       -0.1355600000    0.2640380000   -0.0000000000
H        0.1314520000   -0.0006930000   -0.0000000000
H        0.1371240000   -0.0212840000   -0.0000000000
H        0.1249670000    0.0125380000   -0.0000000000
H        0.1399520000    0.0071480000    0.0000000000
H        0.1583260000    0.0004770000   -0.0000000000
C       -0.0276260000    0.0298540000    0.0000000000
H        0.1355730000    0.0299690000    0.0000000000
13   
Frame  25 IRC: Energy =  -286.8721770000 ; +15.5748 kcal/mol
C       -0.2100250000    0.0058310000   -0.0000000000
C       -0.0373250000    0.2537540000   -0.0000000000
C       -0.1642490000   -0.0108820000   -0.0000000000
C       -0.1122850000   -0.0647050000    0.0000000000
C       -0.1537840000    0.5788560000   -0.0000000000
N       -0.1299790000    0.2048410000   -0.0000000000
H        0.1315520000   -0.0031450000   -0.0000000000
H        0.1374740000   -0.0157280000   -0.0000000000
H        0.1265820000    0.0080470000   -0.0000000000
H        0.1412880000    0.0097130000    0.0000000000
H        0.1577630000   -0.0117130000   -0.0000000000
C       -0.0243890000    0.0123360000    0.0000000000
H        0.1373790000    0.0327940000    0.0000000000
13   
Frame  26 IRC: Energy =  -286.8759270000 ; +13.2216 kcal/mol
C       -0.2144140000    0.0500470000   -0.0000000000
C       -0.0376960000    0.1463450000   -0.0000000000
C       -0.1644030000    0.0537440000   -0.0000000000
C       -0.1103800000   -0.0606090000    0.0000000000
C       -0.1576940000    0.6511630000   -0.0000000000
N       -0.1242500000    0.1522510000   -0.0000000000
H        0.1316160000   -0.0052200000   -0.0000000000
H        0.1378730000   -0.0105590000   -0.0000000000
H        0.1284600000    0.0037260000   -0.0000000000
H        0.1422050000    0.0114930000    0.0000000000
H        0.1569630000   -0.0218250000   -0.0000000000
C       -0.0267240000   -0.0047240000    0.0000000000
H        0.1384450000    0.0341680000    0.0000000000
13   
Frame  27 IRC: Energy =  -286.8799310000 ; +10.7091 kcal/mol
C       -0.2176540000    0.0848850000   -0.0000000000
C       -0.0363070000    0.0652510000   -0.0000000000
C       -0.1599700000    0.1057510000   -0.0000000000
C       -0.1081400000   -0.0524780000    0.0000000000
C       -0.1624310000    0.6994710000   -0.0000000000
N       -0.1190040000    0.1104860000   -0.0000000000
H        0.1315580000   -0.0068800000   -0.0000000000
H        0.1383360000   -0.0063460000   -0.0000000000
H        0.1299880000    0.0001990000   -0.0000000000
H        0.1426930000    0.0125390000    0.0000000000
H        0.1560130000   -0.0292720000   -0.0000000000
C       -0.0340640000   -0.0177950000    0.0000000000
H        0.1389820000    0.0341870000    0.0000000000
13   
Frame  28 IRC: Energy =  -286.8837800000 ; +8.2938 kcal/mol
C       -0.2199430000    0.1118440000   -0.0000000000
C       -0.0344200000    0.0080120000   -0.0000000000
C       -0.1523430000    0.1417090000   -0.0000000000
C       -0.1056660000   -0.0426860000    0.0000000000
C       -0.1671420000    0.7296120000   -0.0000000000
N       -0.1144960000    0.0792710000   -0.0000000000
H        0.1314420000   -0.0082130000   -0.0000000000
H        0.1386470000   -0.0031460000   -0.0000000000
H        0.1311410000   -0.0023970000   -0.0000000000
H        0.1429240000    0.0130150000    0.0000000000
H        0.1549630000   -0.0341270000   -0.0000000000
C       -0.0442600000   -0.0264310000    0.0000000000
H        0.1391530000    0.0335370000    0.0000000000
13   
Frame  29 IRC: Energy =  -286.8873290000 ; +6.0668 kcal/mol
C       -0.2216160000    0.1331480000   -0.0000000000
C       -0.0334150000   -0.0287640000   -0.0000000000
C       -0.1415900000    0.1634390000   -0.0000000000
C       -0.1034220000   -0.0327500000    0.0000000000
C       -0.1709850000    0.7439860000   -0.0000000000
N       -0.1104970000    0.0574400000   -0.0000000000
H        0.1312130000   -0.0093370000   -0.0000000000
H        0.1386890000   -0.0008390000   -0.0000000000
H        0.1316360000   -0.0041550000   -0.0000000000
H        0.1428890000    0.0130040000    0.0000000000
H        0.1537720000   -0.0366820000   -0.0000000000
C       -0.0557000000   -0.0309840000    0.0000000000
H        0.1390270000    0.0324940000    0.0000000000
13   
Frame  30 IRC: Energy =  -286.8905580000 ; +4.0405 kcal/mol
C       -0.2233440000    0.1517180000   -0.0000000000
C       -0.0330360000   -0.0524770000   -0.0000000000
C       -0.1301670000    0.1760550000   -0.0000000000
C       -0.1001100000   -0.0236130000    0.0000000000
C       -0.1750310000    0.7476560000   -0.0000000000
N       -0.1070780000    0.0418190000   -0.0000000000
H        0.1309680000   -0.0103480000   -0.0000000000
H        0.1384890000    0.0008690000   -0.0000000000
H        0.1317160000   -0.0053410000   -0.0000000000
H        0.1427900000    0.0127440000    0.0000000000
H        0.1526100000   -0.0378110000   -0.0000000000
C       -0.0664540000   -0.0327410000    0.0000000000
H        0.1386460000    0.0314700000    0.0000000000
13   
Frame  31 IRC: Energy =  -286.8933900000 ; +2.2634 kcal/mol
C       -0.2243930000    0.1681870000   -0.0000000000
C       -0.0334760000   -0.0680300000   -0.0000000000
C       -0.1171280000    0.1846410000   -0.0000000000
C       -0.0969580000   -0.0134580000    0.0000000000
C       -0.1775620000    0.7419790000   -0.0000000000
N       -0.1046660000    0.0307230000   -0.0000000000
H        0.1307710000   -0.0112210000   -0.0000000000
H        0.1383880000    0.0022370000   -0.0000000000
H        0.1313560000   -0.0062770000   -0.0000000000
H        0.1426860000    0.0125150000    0.0000000000
H        0.1514320000   -0.0379290000   -0.0000000000
C       -0.0788630000   -0.0336550000    0.0000000000
H        0.1384140000    0.0302860000    0.0000000000
13   
Frame  32 IRC: Energy =  -286.8945880000 ; +1.5117 kcal/mol
C       -0.2256160000    0.1766410000   -0.0000000000
C       -0.0340640000   -0.0725060000   -0.0000000000
C       -0.1135730000    0.1870660000   -0.0000000000
C       -0.0939370000   -0.0112170000    0.0000000000
C       -0.1806040000    0.7368620000   -0.0000000000
N       -0.1030950000    0.0270610000   -0.0000000000
H        0.1306830000   -0.0116660000   -0.0000000000
H        0.1380430000    0.0026980000   -0.0000000000
H        0.1311350000   -0.0065310000   -0.0000000000
H        0.1426560000    0.0122380000    0.0000000000
H        0.1509980000   -0.0377580000   -0.0000000000
C       -0.0806540000   -0.0329590000    0.0000000000
H        0.1380280000    0.0300720000    0.0000000000
13   
Frame  33 IRC: Energy =  -286.8969490000 ; +0.0301 kcal/mol
C       -0.2264700000    0.1934140000   -0.0000000000
C       -0.0351560000   -0.0832610000   -0.0000000000
C       -0.1020850000    0.1951430000   -0.0000000000
C       -0.0900970000   -0.0001550000    0.0000000000
C       -0.1829380000    0.7220130000   -0.0000000000
N       -0.1010840000    0.0191770000   -0.0000000000
H        0.1305600000   -0.0124750000   -0.0000000000
H        0.1379800000    0.0038550000   -0.0000000000
H        0.1306000000   -0.0073470000   -0.0000000000
H        0.1426770000    0.0118990000    0.0000000000
H        0.1499430000   -0.0371650000   -0.0000000000
C       -0.0918390000   -0.0341440000    0.0000000000
H        0.1379110000    0.0290460000    0.0000000000
13   
Frame  34 IRC: Energy =  -286.8977490000 ; -0.4719 kcal/mol
C       -0.2275420000    0.2006830000   -0.0000000000
C       -0.0357630000   -0.0853970000   -0.0000000000
C       -0.1003890000    0.1969480000   -0.0000000000
C       -0.0875510000    0.0009960000    0.0000000000
C       -0.1853670000    0.7153880000   -0.0000000000
N       -0.0997550000    0.0173670000   -0.0000000000
H        0.1305150000   -0.0128300000   -0.0000000000
H        0.1376650000    0.0041370000   -0.0000000000
H        0.1304280000   -0.0074970000   -0.0000000000
H        0.1426480000    0.0116050000    0.0000000000
H        0.1496680000   -0.0368800000   -0.0000000000
C       -0.0921550000   -0.0334410000    0.0000000000
H        0.1375980000    0.0289190000    0.0000000000
13   
Frame  35 IRC: Energy =  -286.9001850000 ; -2.0005 kcal/mol
C       -0.2289570000    0.2224680000   -0.0000000000
C       -0.0373420000   -0.0958120000   -0.0000000000
C       -0.0898790000    0.2075930000   -0.0000000000
C       -0.0825680000    0.0142280000    0.0000000000
C       -0.1882560000    0.6902800000   -0.0000000000
N       -0.0971500000    0.0102490000   -0.0000000000
H        0.1303740000   -0.0137970000   -0.0000000000
H        0.1375160000    0.0053920000   -0.0000000000
H        0.1298320000   -0.0084120000   -0.0000000000
H        0.1427320000    0.0109590000    0.0000000000
H        0.1485530000   -0.0357470000   -0.0000000000
C       -0.1023160000   -0.0353300000    0.0000000000
H        0.1374610000    0.0279280000    0.0000000000
13   
Frame  36 IRC: Energy =  -286.9009910000 ; -2.5063 kcal/mol
C       -0.2303620000    0.2318450000   -0.0000000000
C       -0.0377910000   -0.0982880000   -0.0000000000
C       -0.0884870000    0.2109340000   -0.0000000000
C       -0.0797180000    0.0161890000    0.0000000000
C       -0.1905040000    0.6798490000   -0.0000000000
N       -0.0958400000    0.0085650000   -0.0000000000
H        0.1303570000   -0.0142110000   -0.0000000000
H        0.1372120000    0.0057310000   -0.0000000000
H        0.1296690000   -0.0086330000   -0.0000000000
H        0.1427230000    0.0106000000    0.0000000000
H        0.1482600000   -0.0352800000   -0.0000000000
C       -0.1027090000   -0.0350710000    0.0000000000
H        0.1371910000    0.0277710000    0.0000000000
13   
Frame  37 IRC: Energy =  -286.9033010000 ; -3.9558 kcal/mol
C       -0.2323110000    0.2572240000   -0.0000000000
C       -0.0392470000   -0.1089970000   -0.0000000000
C       -0.0801280000    0.2251660000   -0.0000000000
C       -0.0747020000    0.0319590000    0.0000000000
C       -0.1926490000    0.6455220000   -0.0000000000
N       -0.0931230000    0.0027090000   -0.0000000000
H        0.1301800000   -0.0152290000   -0.0000000000
H        0.1371020000    0.0070660000   -0.0000000000
H        0.1291500000   -0.0096760000   -0.0000000000
H        0.1428760000    0.0096760000    0.0000000000
H        0.1471450000   -0.0337040000   -0.0000000000
C       -0.1114560000   -0.0385810000    0.0000000000
H        0.1371620000    0.0268660000    0.0000000000
13   
Frame  38 IRC: Energy =  -286.9040290000 ; -4.4127 kcal/mol
C       -0.2339090000    0.2674740000   -0.0000000000
C       -0.0394750000   -0.1112970000   -0.0000000000
C       -0.0794700000    0.2291310000   -0.0000000000
C       -0.0720460000    0.0338970000    0.0000000000
C       -0.1943780000    0.6331820000   -0.0000000000
N       -0.0919910000    0.0015360000   -0.0000000000
H        0.1301880000   -0.0156490000   -0.0000000000
H        0.1368170000    0.0073980000   -0.0000000000
H        0.1290390000   -0.0099100000   -0.0000000000
H        0.1428570000    0.0092750000    0.0000000000
H        0.1468740000   -0.0331550000   -0.0000000000
C       -0.1114390000   -0.0385790000    0.0000000000
H        0.1369340000    0.0266960000    0.0000000000
13   