13   
Frame   0 IRC: Energy =  -286.8969970000 ; +0.0000 kcal/mol
C        1.6858641679    0.4814235335   -0.3113819283
C        1.1527232392   -0.8125245468   -0.4412693886
C       -0.3355325121   -0.7012813414   -0.4721446490
C       -1.2307385698    0.6018136913    0.9484160797
C       -0.5205371053    0.8655087543   -0.3794389028
N        0.8007712646    1.4737891279   -0.2652936708
H        2.7466490521    0.7061859717   -0.2237539064
H        1.7287599644   -1.7298503689   -0.4908812888
H       -0.8233959338   -1.2458214738   -1.2903701817
H       -1.6636349769    1.2797951207    1.6767668089
H       -1.1132461643    1.3616759339   -1.1569535299
C       -1.0767405604   -0.7273199034    0.8780899213
H       -1.3509418657   -1.5533944985    1.5282146367
13   
Frame   1 IRC: Energy =  -286.8969920000 ; +0.0031 kcal/mol
C        1.6857637256    0.4808170508   -0.3107011072
C        1.1523308416   -0.8125265875   -0.4420473876
C       -0.3355119026   -0.7009207821   -0.4718977629
C       -1.2311748213    0.6017794141    0.9483229074
C       -0.5203543409    0.8653135920   -0.3792004420
N        0.8009648611    1.4732773658   -0.2650137007
H        2.7464684518    0.7062712060   -0.2235112009
H        1.7288175125   -1.7292256765   -0.4924991919
H       -0.8231911245   -1.2458702159   -1.2893944230
H       -1.6644140123    1.2799514761    1.6760953982
H       -1.1125288666    1.3613093102   -1.1569431915
C       -1.0765008972   -0.7274158547    0.8780905243
H       -1.3506694271   -1.5527602982    1.5286995777
13   
Frame   2 IRC: Energy =  -286.8969890000 ; +0.0050 kcal/mol
C        1.6858354416    0.4804855157   -0.3103532262
C        1.1519969965   -0.8126412321   -0.4424270356
C       -0.3356068272   -0.7006969989   -0.4718740915
C       -1.2313065736    0.6013795630    0.9482561906
C       -0.5203069915    0.8652119285   -0.3791820405
N        0.8010155423    1.4730784008   -0.2649883224
H        2.7463672338    0.7063588874   -0.2234498296
H        1.7288240546   -1.7288504984   -0.4930418463
H       -0.8229657713   -1.2457907094   -1.2888449913
H       -1.6647158110    1.2801028299    1.6759125220
H       -1.1121954715    1.3611121729   -1.1568437164
C       -1.0763544157   -0.7272564475    0.8779501268
H       -1.3505874068   -1.5524934118    1.5288862603
13   
Frame   3 IRC: Energy =  -286.8969570000 ; +0.0251 kcal/mol
C        1.6864246603    0.4807008001   -0.3092423605
C        1.1538284022   -0.8130941724   -0.4436508232
C       -0.3346527963   -0.7022212301   -0.4698895638
C       -1.2337908953    0.6029678916    0.9473548102
C       -0.5203450594    0.8648200462   -0.3787876446
N        0.8009851929    1.4725717413   -0.2598321710
H        2.7472532788    0.7056368837   -0.2205098477
H        1.7307768534   -1.7291621262   -0.5069159457
H       -0.8248437677   -1.2483932479   -1.2856407612
H       -1.6705134514    1.2819274973    1.6725394040
H       -1.1092999813    1.3609724160   -1.1593404243
C       -1.0760311133   -0.7260171503    0.8809084887
H       -1.3497913229   -1.5507093492    1.5330068391
13   
Frame   4 IRC: Energy =  -286.8969500000 ; +0.0295 kcal/mol
C        1.6863533510    0.4815776936   -0.3093347835
C        1.1538056098   -0.8134048119   -0.4435790832
C       -0.3346639159   -0.7025878931   -0.4696314452
C       -1.2339477768    0.6033840906    0.9470618084
C       -0.5200757635    0.8643876655   -0.3790485222
N        0.8010685063    1.4729719556   -0.2589185923
H        2.7475819042    0.7054396435   -0.2201167509
H        1.7312552751   -1.7297611180   -0.5086154740
H       -0.8251932544   -1.2487650043   -1.2854877749
H       -1.6713168402    1.2822074641    1.6723725541
H       -1.1091164960    1.3611103779   -1.1597034615
C       -1.0760024598   -0.7257770738    0.8814211036
H       -1.3497481401   -1.5507829897    1.5335804217
13   
Frame   5 IRC: Energy =  -286.8969370000 ; +0.0377 kcal/mol
C        1.6862389955    0.4828059596   -0.3093703734
C        1.1531854995   -0.8138044273   -0.4435443007
C       -0.3344723816   -0.7024214426   -0.4693022293
C       -1.2340437185    0.6041499483    0.9468565794
C       -0.5195574752    0.8635748872   -0.3788212565
N        0.8013246592    1.4729726224   -0.2585304771
H        2.7477306448    0.7052930691   -0.2199596245
H        1.7316205625   -1.7302434356   -0.5092696973
H       -0.8254281747   -1.2490436085   -1.2856225574
H       -1.6716365498    1.2822802906    1.6723660991
H       -1.1093410982    1.3614250770   -1.1601454022
C       -1.0758716648   -0.7261264743    0.8815058853
H       -1.3497492986   -1.5508624658    1.5338373547
13   
Frame   6 IRC: Energy =  -286.8967210000 ; +0.1732 kcal/mol
C        1.6868629265    0.4804611960   -0.3000714922
C        1.1575963220   -0.8135586088   -0.4495763268
C       -0.3318491487   -0.7077792132   -0.4618240717
C       -1.2373963883    0.6071878096    0.9458458524
C       -0.5193315462    0.8598962207   -0.3771073035
N        0.7994466996    1.4694842370   -0.2467998640
H        2.7464536069    0.7082111583   -0.2041099190
H        1.7401410634   -1.7209369612   -0.5646627989
H       -0.8234997415   -1.2613181868   -1.2711759435
H       -1.6726371047    1.2933246360    1.6649280306
H       -1.1022032496    1.3477226352   -1.1671472792
C       -1.0785518483   -0.7221880950    0.8884988878
H       -1.3650315911   -1.5405068278    1.5432022282
13   
Frame   7 IRC: Energy =  -286.8967020000 ; +0.1851 kcal/mol
C        1.6870931386    0.4812022787   -0.2995183905
C        1.1575459568   -0.8136838391   -0.4499293105
C       -0.3314875365   -0.7075896073   -0.4612481127
C       -1.2377190042    0.6073339892    0.9459589101
C       -0.5187498663    0.8595261107   -0.3764406300
N        0.7994707409    1.4685321164   -0.2464625742
H        2.7460430138    0.7082016933   -0.2034492909
H        1.7405243959   -1.7204959663   -0.5670638579
H       -0.8235490247   -1.2620630627   -1.2707882024
H       -1.6725431558    1.2936706277    1.6644359592
H       -1.1022280974    1.3473518460   -1.1678872171
C       -1.0787342471   -0.7220599636    0.8888690192
H       -1.3656663139   -1.5399262230    1.5435236977
13   
Frame   8 IRC: Energy =  -286.8962980000 ; +0.4386 kcal/mol
C        1.6867461927    0.4814996628   -0.2916218793
C        1.1611316014   -0.8134968480   -0.4526974171
C       -0.3297496552   -0.7146634582   -0.4549849690
C       -1.2382702644    0.6113371747    0.9447288596
C       -0.5189811976    0.8554167761   -0.3769215713
N        0.7969745600    1.4674930912   -0.2366969775
H        2.7451339017    0.7123461767   -0.1883099023
H        1.7476925451   -1.7108995272   -0.6170498805
H       -0.8183766107   -1.2813940761   -1.2566316966
H       -1.6656128402    1.3053641020    1.6610734802
H       -1.0981637155    1.3378887450   -1.1725863192
C       -1.0829795476   -0.7187017622    0.8939158021
H       -1.3855449698   -1.5321900568    1.5477824708
13   
Frame   9 IRC: Energy =  -286.8962600000 ; +0.4625 kcal/mol
C        1.6870625740    0.4808390682   -0.2913557912
C        1.1616283160   -0.8132261699   -0.4527147516
C       -0.3301667423   -0.7157218172   -0.4553317803
C       -1.2380865869    0.6103551490    0.9446089873
C       -0.5194712751    0.8558551267   -0.3776048269
N        0.7966214483    1.4679615515   -0.2361823974
H        2.7450840664    0.7125728174   -0.1876587207
H        1.7479759369   -1.7105067721   -0.6192239309
H       -0.8178740902   -1.2818840247   -1.2555787661
H       -1.6654135431    1.3060805590    1.6610872106
H       -1.0976272804    1.3371687324   -1.1723320197
C       -1.0832781821   -0.7174763260    0.8942636895
H       -1.3864546415   -1.5320178942    1.5480230975
13   
Frame  10 IRC: Energy =  -286.8956860000 ; +0.8227 kcal/mol
C        1.6858844534    0.4834325845   -0.2840847095
C        1.1633038120   -0.8130424295   -0.4548977376
C       -0.3280706939   -0.7211221577   -0.4493798782
C       -1.2381469637    0.6153002407    0.9432175964
C       -0.5188648271    0.8523765900   -0.3773337423
N        0.7945522945    1.4654692491   -0.2286372052
H        2.7432892228    0.7159429108   -0.1748397042
H        1.7527371201   -1.6993164443   -0.6622077157
H       -0.8104842483   -1.3106092650   -1.2401089151
H       -1.6552040984    1.3151591589    1.6599096318
H       -1.0950605837    1.3365111215   -1.1759500430
C       -1.0875848775   -0.7152463501    0.8965228058
H       -1.4063506102   -1.5248552089    1.5477896170
13   
Frame  11 IRC: Energy =  -286.8955460000 ; +0.9105 kcal/mol
C        1.6861944474    0.4827854604   -0.2829425642
C        1.1638721991   -0.8121377946   -0.4549211088
C       -0.3284220186   -0.7236455550   -0.4496803233
C       -1.2381572018    0.6157932729    0.9432697194
C       -0.5196144604    0.8529195686   -0.3787004764
N        0.7938394365    1.4657911739   -0.2271032254
H        2.7429394752    0.7166278035   -0.1725432867
H        1.7537012973   -1.6975512794   -0.6700619668
H       -0.8085576117   -1.3153441564   -1.2363391193
H       -1.6533189338    1.3168409966    1.6597608413
H       -1.0939236983    1.3359859269   -1.1756689132
C       -1.0885659761   -0.7145104731    0.8973554432
H       -1.4099869548   -1.5235549444    1.5475749802
13   
Frame  12 IRC: Energy =  -286.8945980000 ; +1.5054 kcal/mol
C        1.6842291088    0.4854703061   -0.2766874941
C        1.1649325173   -0.8116451689   -0.4572056558
C       -0.3273229318   -0.7298415961   -0.4453416241
C       -1.2377981917    0.6201855235    0.9407464001
C       -0.5200016279    0.8521379701   -0.3800547782
N        0.7915542565    1.4642624959   -0.2201441837
H        2.7410370061    0.7181835850   -0.1613358695
H        1.7567727535   -1.6843310927   -0.7087715793
H       -0.7976733023   -1.3554845852   -1.2161133151
H       -1.6416328459    1.3229611012    1.6618736054
H       -1.0910953205    1.3451528208   -1.1775043602
C       -1.0929497113   -0.7107952640    0.8969626888
H       -1.4300517108   -1.5162560956    1.5435761657
13   
Frame  13 IRC: Energy =  -286.8943290000 ; +1.6742 kcal/mol
C        1.6851523394    0.4846497050   -0.2755898597
C        1.1645296777   -0.8098845522   -0.4570607803
C       -0.3276243397   -0.7333234701   -0.4462477820
C       -1.2378129865    0.6208704086    0.9406326329
C       -0.5211220604    0.8535876461   -0.3821273639
N        0.7903471149    1.4647963058   -0.2185121594
H        2.7404062647    0.7185015573   -0.1590606250
H        1.7578848089   -1.6822991849   -0.7170451449
H       -0.7946352157   -1.3632390473   -1.2105690961
H       -1.6391776838    1.3241672909    1.6623790304
H       -1.0896318806    1.3466132485   -1.1767030915
C       -1.0940459819   -0.7096960542    0.8973289489
H       -1.4342700569   -1.5147438535    1.5425752906
13   
Frame  14 IRC: Energy =  -286.8930530000 ; +2.4749 kcal/mol
C        1.6811091506    0.4873399354   -0.2711658569
C        1.1654158967   -0.8096453919   -0.4599268844
C       -0.3272884446   -0.7384798618   -0.4432692686
C       -1.2375191291    0.6249048444    0.9376085368
C       -0.5216060262    0.8548207057   -0.3835806510
N        0.7891323452    1.4636202375   -0.2127938819
H        2.7388948985    0.7178139003   -0.1507339524
H        1.7594569492   -1.6694483943   -0.7464394402
H       -0.7829669961   -1.4053495579   -1.1898736846
H       -1.6289947913    1.3262946812    1.6666311459
H       -1.0873234383    1.3616439010   -1.1777599865
C       -1.0976668265   -0.7059634880    0.8946232132
H       -1.4506435883   -1.5075515116    1.5366807106
13   
Frame  15 IRC: Energy =  -286.8924740000 ; +2.8382 kcal/mol
C        1.6836576584    0.4871670425   -0.2696618121
C        1.1639327722   -0.8084002906   -0.4603222485
C       -0.3275007321   -0.7429878486   -0.4445023458
C       -1.2374112229    0.6262281244    0.9368116917
C       -0.5231326786    0.8575576374   -0.3861971823
N        0.7867232464    1.4644798888   -0.2105867681
H        2.7372236326    0.7171893878   -0.1480407789
H        1.7607084207   -1.6657031626   -0.7569273232
H       -0.7778011703   -1.4195979404   -1.1807818345
H       -1.6254661171    1.3268118997    1.6683750280
H       -1.0853766469    1.3665352490   -1.1766149274
C       -1.0990713537   -0.7041361356    0.8939424202
H       -1.4564858088   -1.5051438519    1.5345060809
13   
Frame  16 IRC: Energy =  -286.8906930000 ; +3.9558 kcal/mol
C        1.6770531163    0.4889191775   -0.2664183502
C        1.1643361747   -0.8067862273   -0.4635603177
C       -0.3279227609   -0.7493342010   -0.4431283217
C       -1.2372963250    0.6301665506    0.9336917576
C       -0.5237979240    0.8615060842   -0.3881767041
N        0.7868663522    1.4638663890   -0.2051474470
H        2.7360943247    0.7146825155   -0.1415915231
H        1.7620002248   -1.6535022009   -0.7807497622
H       -0.7650447640   -1.4636542882   -1.1588574649
H       -1.6166209492    1.3257523454    1.6744493546
H       -1.0832622761    1.3853232194   -1.1770211590
C       -1.1021785783   -0.6998913110    0.8894330183
H       -1.4702266152   -1.4970480531    1.5270769195
13   
Frame  17 IRC: Energy =  -286.8880900000 ; +5.5892 kcal/mol
C        1.6758745668    0.4898261933   -0.2625890248
C        1.1606254682   -0.8047411046   -0.4669884583
C       -0.3292801063   -0.7607881968   -0.4462085579
C       -1.2355260272    0.6356659084    0.9308054743
C       -0.5255457712    0.8717014902   -0.3919591484
N        0.7841566381    1.4652228471   -0.1983695644
H        2.7320302898    0.7100062456   -0.1361215880
H        1.7642495841   -1.6399839437   -0.8046066603
H       -0.7490225898   -1.5154452636   -1.1317306830
H       -1.6085902292    1.3220640730    1.6830351534
H       -1.0794285007    1.4069055833   -1.1750733319
C       -1.1057732074   -0.6938175972    0.8820243638
H       -1.4837701153   -1.4866162350    1.5177820255
13   
Frame  18 IRC: Energy =  -286.8848700000 ; +7.6098 kcal/mol
C        1.6698245899    0.4911295713   -0.2592304823
C        1.1567351285   -0.8038963311   -0.4701812268
C       -0.3305641647   -0.7782518520   -0.4479580462
C       -1.2322985768    0.6414532313    0.9286491583
C       -0.5246118717    0.8893548242   -0.3912279211
N        0.7858802696    1.4698095956   -0.1907248111
H        2.7276962456    0.7052247799   -0.1318719990
H        1.7662949458   -1.6277406051   -0.8252934333
H       -0.7354099879   -1.5699376221   -1.1092284371
H       -1.6029481922    1.3170920026    1.6921179419
H       -1.0774521998    1.4280252203   -1.1750711047
C       -1.1088968752   -0.6871132439    0.8722187326
H       -1.4942493111   -1.4751495711    1.5078016288
13   
Frame  19 IRC: Energy =  -286.8810620000 ; +9.9994 kcal/mol
C        1.6647195172    0.4921779746   -0.2556170670
C        1.1509576091   -0.8045513240   -0.4735382299
C       -0.3286252815   -0.8073223700   -0.4464502460
C       -1.2286351121    0.6475182797    0.9269974423
C       -0.5226062905    0.9199792442   -0.3849121745
N        0.7882973149    1.4764695444   -0.1845019213
H        2.7223331621    0.7010422107   -0.1287280396
H        1.7674455016   -1.6175947474   -0.8423631017
H       -0.7252078058   -1.6193504250   -1.0927303279
H       -1.5992790041    1.3120263799    1.6997318162
H       -1.0769851109    1.4452553389   -1.1768145061
C       -1.1110360430   -0.6812091226    0.8607248554
H       -1.5013784570   -1.4644409833    1.4982015000
13   
Frame  20 IRC: Energy =  -286.8767370000 ; +12.7134 kcal/mol
C        1.6588579244    0.4927292716   -0.2515405805
C        1.1443537890   -0.8056759291   -0.4769957818
C       -0.3238190102   -0.8434676678   -0.4420107808
C       -1.2248302496    0.6527276366    0.9251440770
C       -0.5203581848    0.9588172470   -0.3746804722
N        0.7909170259    1.4826021464   -0.1805886669
H        2.7175197085    0.6977457407   -0.1261539478
H        1.7675753069   -1.6090030379   -0.8568236108
H       -0.7174523937   -1.6623680930   -1.0804207096
H       -1.5969628827    1.3074141712    1.7059140221
H       -1.0773816025    1.4589432292   -1.1794317850
C       -1.1121925453   -0.6753830167    0.8482415133
H       -1.5062268859   -1.4550816982    1.4893467229
13   
Frame  21 IRC: Energy =  -286.8725270000 ; +15.3552 kcal/mol
C        1.6531473567    0.4925480329   -0.2463860202
C        1.1369320925   -0.8070772314   -0.4805549081
C       -0.3164910400   -0.8836053621   -0.4352325099
C       -1.2210561354    0.6575083817    0.9229633706
C       -0.5187726805    1.0030450408   -0.3618389237
N        0.7926833650    1.4872715628   -0.1797819842
H        2.7133493435    0.6951783599   -0.1239822453
H        1.7668092244   -1.6015065471   -0.8694044197
H       -0.7112551500   -1.6989792281   -1.0707132407
H       -1.5955405120    1.3030379197    1.7104531454
H       -1.0779838793    1.4697765809   -1.1819380361
C       -1.1124214032   -0.6702228540    0.8351980673
H       -1.5094005816   -1.4469746559    1.4812177047
13   
Frame  22 IRC: Energy =  -286.8694060000 ; +17.3136 kcal/mol
C        1.6478301860    0.4917024743   -0.2403622140
C        1.1290529591   -0.8087207427   -0.4836952826
C       -0.3073558061   -0.9255838396   -0.4268230293
C       -1.2170926311    0.6619487896    0.9204074776
C       -0.5177856176    1.0499273828   -0.3479637724
N        0.7936917064    1.4907740995   -0.1816456124
H        2.7095978610    0.6930147860   -0.1219486010
H        1.7653309854   -1.5945939758   -0.8809918798
H       -0.7060089312   -1.7312166833   -1.0625385317
H       -1.5949517051    1.2987714874    1.7139052674
H       -1.0788701552    1.4794306613   -1.1839669759
C       -1.1118904918   -0.6655125120    0.8219084881
H       -1.5115483598   -1.4399419274    1.4737146659
13   
Frame  23 IRC: Energy =  -286.8682620000 ; +18.0315 kcal/mol (Transition State)
C        1.6425470122    0.4898604272   -0.2321496527
C        1.1207127462   -0.8106669802   -0.4862856447
C       -0.2969493858   -0.9670719669   -0.4168114085
C       -1.2128042164    0.6654131667    0.9169750693
C       -0.5179865557    1.0981807527   -0.3334107399
N        0.7943126756    1.4936943694   -0.1878714792
H        2.7058310495    0.6908841032   -0.1201615624
H        1.7634206369   -1.5879921419   -0.8923143388
H       -0.7009176171   -1.7603633360   -1.0545377863
H       -1.5948546651    1.2937951317    1.7158577781
H       -1.0795574256    1.4895867203   -1.1848081202
C       -1.1104895765   -0.6617780247    0.8088056892
H       -1.5132646781   -1.4335422216    1.4667121962
13   
Frame  24 IRC: Energy =  -286.8693500000 ; +17.3488 kcal/mol
C        1.6371591041    0.4876350677   -0.2234561438
C        1.1124701843   -0.8127759679   -0.4888742783
C       -0.2863676512   -1.0077613536   -0.4060611934
C       -1.2081998802    0.6686843196    0.9129212128
C       -0.5190552357    1.1465763469   -0.3186811222
N        0.7951921307    1.4967589971   -0.1949599935
H        2.7020422903    0.6887447108   -0.1184168278
H        1.7614442908   -1.5813332693   -0.9036249740
H       -0.6959062724   -1.7894902184   -1.0466756368
H       -1.5948844078    1.2887239849    1.7176909491
H       -1.0800249799    1.4999070942   -1.1852540851
C       -1.1089365789   -0.6585787366    0.7956877447
H       -1.5149329940   -1.4270909754    1.4597043484
13   
Frame  25 IRC: Energy =  -286.8721770000 ; +15.5748 kcal/mol
C        1.6310467589    0.4847676996   -0.2129641667
C        1.1046949509   -0.8156939943   -0.4904629010
C       -0.2762572408   -1.0459028506   -0.3941734329
C       -1.2029869682    0.6709097406    0.9078181002
C       -0.5212435235    1.1946074426   -0.3041321715
N        0.7970615497    1.5006782676   -0.2059187223
H        2.6976526494    0.6861103546   -0.1167652637
H        1.7594074087   -1.5744951620   -0.9155415942
H       -0.6903278989   -1.8186640958   -1.0378874781
H       -1.5952919673    1.2821441459    1.7182641442
H       -1.0801963711    1.5125600613   -1.1842271429
C       -1.1067603828   -0.6566266423    0.7832319578
H       -1.5167989650   -1.4203949671    1.4527586709
13   
Frame  26 IRC: Energy =  -286.8759270000 ; +13.2216 kcal/mol
C        1.6245500034    0.4822947475   -0.2030499172
C        1.0975402479   -0.8194788019   -0.4905258480
C       -0.2669775621   -1.0823644354   -0.3825209928
C       -1.1970821060    0.6729042418    0.9021722802
C       -0.5229515354    1.2411285196   -0.2909359280
N        0.7997899225    1.5051034762   -0.2180673165
H        2.6926095502    0.6827384173   -0.1148052051
H        1.7574040267   -1.5670421192   -0.9282708343
H       -0.6839545337   -1.8494185147   -1.0277356197
H       -1.5964457119    1.2741493658    1.7184375844
H       -1.0808285251    1.5284727997   -1.1821291056
C       -1.1043721711   -0.6550118846    0.7714172259
H       -1.5192816055   -1.4134758119    1.4460136767
13   
Frame  27 IRC: Energy =  -286.8799310000 ; +10.7091 kcal/mol
C        1.6173955635    0.4798795887   -0.1939282145
C        1.0913825147   -0.8241968523   -0.4896467972
C       -0.2593731920   -1.1148885817   -0.3708509489
C       -1.1906753435    0.6743970669    0.8956063444
C       -0.5246161734    1.2847530897   -0.2790879938
N        0.8033372532    1.5104327060   -0.2315383508
H        2.6868448848    0.6783362908   -0.1125850125
H        1.7559349199   -1.5588919616   -0.9420855989
H       -0.6760166735   -1.8829602700   -1.0149382537
H       -1.5981395853    1.2638746507    1.7175246052
H       -1.0813191955    1.5488808111   -1.1782043800
C       -1.1019321889   -0.6542481330    0.7605173135
H       -1.5228227839   -1.4053684052    1.4392172872
13   
Frame  28 IRC: Energy =  -286.8837800000 ; +8.2938 kcal/mol
C        1.6101399065    0.4775577904   -0.1865760114
C        1.0859879266   -0.8290404556   -0.4883486668
C       -0.2526532771   -1.1444738342   -0.3600068274
C       -1.1839695542    0.6756450561    0.8881908332
C       -0.5257622780    1.3247526841   -0.2689765381
N        0.8071241516    1.5158495087   -0.2449489418
H        2.6806001250    0.6730868094   -0.1101607553
H        1.7548006762   -1.5500252548   -0.9564655881
H       -0.6665166228   -1.9187501136   -0.9991733900
H       -1.6006029330    1.2520664129    1.7161209678
H       -1.0819019199    1.5737150590   -1.1725922930
C       -1.0994909076   -0.6537158329    0.7500393289
H       -1.5277552934   -1.3966678295    1.4328978820
13   
Frame  29 IRC: Energy =  -286.8873290000 ; +6.0668 kcal/mol
C        1.6030969075    0.4758689297   -0.1821080484
C        1.0814997156   -0.8339001735   -0.4873650014
C       -0.2470810109   -1.1700531988   -0.3506492984
C       -1.1778076615    0.6767800153    0.8804053868
C       -0.5251773454    1.3585737184   -0.2611213490
N        0.8102969126    1.5208520107   -0.2573633397
H        2.6741384698    0.6668432242   -0.1076400793
H        1.7543121120   -1.5406976667   -0.9711413108
H       -0.6547967167   -1.9568854265   -0.9791682506
H       -1.6038388828    1.2384540589    1.7134778748
H       -1.0828289950    1.6047502426   -1.1649426390
C       -1.0973576155   -0.6537179006    0.7406578531
H       -1.5344558897   -1.3868678336    1.4269582018
13   
Frame  30 IRC: Energy =  -286.8905580000 ; +4.0405 kcal/mol
C        1.5967902266    0.4743288721   -0.1800371677
C        1.0778342846   -0.8380505534   -0.4875781032
C       -0.2418925180   -1.1926668513   -0.3426120181
C       -1.1724219094    0.6760425965    0.8720491144
C       -0.5238345916    1.3864367124   -0.2555014506
N        0.8127594044    1.5250349161   -0.2685559631
H        2.6682373151    0.6602725435   -0.1053639824
H        1.7542751107   -1.5315703523   -0.9851791479
H       -0.6414296787   -1.9955794610   -0.9558363175
H       -1.6079712778    1.2247654853    1.7101309671
H       -1.0841760959    1.6408386968   -1.1553909897
C       -1.0954608062   -0.6528128061    0.7320268463
H       -1.5427094638   -1.3770397987    1.4218482124
13   
Frame  31 IRC: Energy =  -286.8933900000 ; +2.2634 kcal/mol
C        1.5920359435    0.4723664266   -0.1803714184
C        1.0756654733   -0.8411215568   -0.4893080924
C       -0.2373995476   -1.2101017382   -0.3351545957
C       -1.1689609262    0.6788694391    0.8641239118
C       -0.5225706412    1.4060965197   -0.2516760349
N        0.8141306866    1.5283070475   -0.2783271682
H        2.6634491918    0.6541307732   -0.1037285324
H        1.7548954244   -1.5238483485   -0.9973216262
H       -0.6275035234   -2.0324124657   -0.9310407203
H       -1.6125213506    1.2117512759    1.7050097982
H       -1.0859503819    1.6804259098   -1.1439621300
C       -1.0939089187   -0.6572939542    0.7246819519
H       -1.5513614299   -1.3671693283    1.4170746566
13   
Frame  32 IRC: Energy =  -286.8945880000 ; +1.5117 kcal/mol
C        1.5903327701    0.4719976390   -0.1811355385
C        1.0747522175   -0.8422056692   -0.4904521041
C       -0.2351657312   -1.2177228288   -0.3330288619
C       -1.1677294381    0.6744943042    0.8601020137
C       -0.5213835888    1.4130065169   -0.2512640312
N        0.8141256881    1.5287675910   -0.2823306348
H        2.6618740668    0.6517316762   -0.1034404372
H        1.7553694507   -1.5212771145   -1.0018933633
H       -0.6209412658   -2.0470667706   -0.9194559375
H       -1.6151156779    1.2073234653    1.7028480153
H       -1.0869898852    1.6990988729   -1.1379601795
C       -1.0933444182   -0.6539304240    0.7221497931
H       -1.5557841880   -1.3642172583    1.4158612659
13   
Frame  33 IRC: Energy =  -286.8969490000 ; +0.0301 kcal/mol
C        1.5874827776    0.4696459070   -0.1830323026
C        1.0743530356   -0.8444181202   -0.4931419627
C       -0.2311481544   -1.2307265141   -0.3265091740
C       -1.1664014901    0.6774697145    0.8527580227
C       -0.5204599506    1.4252830676   -0.2492480870
N        0.8141405567    1.5302946407   -0.2913733173
H        2.6587960146    0.6471442736   -0.1031385460
H        1.7565582060   -1.5164352272   -1.0106995754
H       -0.6076275672   -2.0780670164   -0.8957932518
H       -1.6203057711    1.1972885394    1.6961634898
H       -1.0894074809    1.7395556079   -1.1244941164
C       -1.0921116629   -0.6604994279    0.7165678520
H       -1.5638685132   -1.3565354450    1.4119409687
13   
Frame  34 IRC: Energy =  -286.8977490000 ; -0.4719 kcal/mol
C        1.5866477838    0.4694353376   -0.1838511258
C        1.0738304124   -0.8452282808   -0.4939085011
C       -0.2293158704   -1.2355419140   -0.3253059695
C       -1.1659429884    0.6730904728    0.8498842535
C       -0.5194087572    1.4290155515   -0.2494083343
N        0.8135676073    1.5300142505   -0.2944167352
H        2.6580165504    0.6458508472   -0.1033680321
H        1.7571049058   -1.5154609028   -1.0131617967
H       -0.6030583519   -2.0870600406   -0.8878863448
H       -1.6224722992    1.1949129017    1.6941543276
H       -1.0903184762    1.7533086843   -1.1193053255
C       -1.0917907535   -0.6571814643    0.7153161170
H       -1.5668597631   -1.3551554431    1.4112574670
13   
Frame  35 IRC: Energy =  -286.9001850000 ; -2.0005 kcal/mol
C        1.5844035301    0.4666991955   -0.1866058359
C        1.0744255503   -0.8478813931   -0.4966978919
C       -0.2248080777   -1.2484074123   -0.3187121758
C       -1.1656884445    0.6745719944    0.8417074028
C       -0.5182558141    1.4394207997   -0.2481112429
N        0.8123004017    1.5300546283   -0.3054653441
H        2.6554636188    0.6419750598   -0.1043045443
H        1.7589226694   -1.5124206511   -1.0205403282
H       -0.5885158448   -2.1173393126   -0.8625723521
H       -1.6292322015    1.1858258001    1.6851445016
H       -1.0934441355    1.7996483652   -1.1013556617
C       -1.0903858715   -0.6635892283    0.7102447934
H       -1.5751853808   -1.3485578457    1.4072686791
13   
Frame  36 IRC: Energy =  -286.9009910000 ; -2.5063 kcal/mol
C        1.5838312057    0.4660416493   -0.1875997886
C        1.0742072764   -0.8487919036   -0.4972868525
C       -0.2226992738   -1.2529469794   -0.3173533225
C       -1.1654378464    0.6701897119    0.8385254421
C       -0.5173077910    1.4427760901   -0.2484016226
N        0.8112309931    1.5294116770   -0.3093609943
H        2.6548119571    0.6409922219   -0.1049870703
H        1.7597257383   -1.5121352627   -1.0224169262
H       -0.5838260058   -2.1259270697   -0.8546506431
H       -1.6320242567    1.1838334497    1.6824898013
H       -1.0944756720    1.8147950592   -1.0945676357
C       -1.0899632542   -0.6607007618    0.7090885866
H       -1.5780730706   -1.3475378818    1.4065210258
13   
Frame  37 IRC: Energy =  -286.9033010000 ; -3.9558 kcal/mol
C        1.5822937941    0.4628013120   -0.1905612285
C        1.0761110950   -0.8518219074   -0.4994397736
C       -0.2182382515   -1.2644608272   -0.3110588228
C       -1.1660890347    0.6716167681    0.8305113856
C       -0.5162868510    1.4512732996   -0.2472893690
N        0.8088506587    1.5279593842   -0.3222962558
H        2.6528150469    0.6383283568   -0.1072585897
H        1.7620914480   -1.5113702093   -1.0272484145
H       -0.5700193355   -2.1522013011   -0.8313400210
H       -1.6400482763    1.1764608016    1.6719338377
H       -1.0978305899    1.8615914609   -1.0732805983
C       -1.0883297753   -0.6676185278    0.7047461972
H       -1.5853199284   -1.3425586103    1.4025816529
13   
Frame  38 IRC: Energy =  -286.9040290000 ; -4.4127 kcal/mol
C        1.5819825754    0.4619408661   -0.1915165519
C        1.0759803751   -0.8528174326   -0.4996846512
C       -0.2160628359   -1.2682709070   -0.3098915001
C       -1.1659658122    0.6672881073    0.8275894877
C       -0.5154571066    1.4541791001   -0.2475708104
N        0.8074234895    1.5270602545   -0.3265164828
H        2.6523398391    0.6377399265   -0.1082731913
H        1.7630842438   -1.5117543360   -1.0283118532
H       -0.5659616334   -2.1591688776   -0.8246949554
H       -1.6430662217    1.1750145354    1.6691157748
H       -1.0987315178    1.8755307397   -1.0659584303
C       -1.0878895265   -0.6647645142    0.7038678490
H       -1.5876758689   -1.3419774623    1.4018453150
13   