
Running Job 1 of 1 irc_transition.in
qchem irc_transition.in_10160.0 ./irc_transition.d/ 1
/home/leeping/opt/qchem/5.0.2-openmp/exe/qcprog.exe_s irc_transition.in_10160.0 ./irc_transition.d/
Check license passed

                  Welcome to Q-Chem
     A Quantum Leap Into The Future Of Chemistry


 Q-Chem 5.0, Q-Chem, Inc., Pleasanton, CA (2017)

 Yihan Shao,  Zhengting Gan,  E. Epifanovsky,  A. T. B. Gilbert,  M. Wormit,  
 J. Kussmann,  A. W. Lange,  A. Behn,  Jia Deng,  Xintian Feng,  D. Ghosh,  
 M. Goldey,  P. R. Horn,  L. D. Jacobson,  I. Kaliman,  T. Kus,  A. Landau,  
 Jie Liu,  E. I. Proynov,  R. M. Richard,  R. P. Steele,  E. J. Sundstrom,  
 H. L. Woodcock III,  P. M. Zimmerman,  D. Zuev,  B. Albrecht,  E. Alguire,  
 S. A. Baeppler,  D. Barton,  Z. Benda,  Y. A. Bernard,  E. J. Berquist,  
 K. B. Bravaya,  H. Burton,  D. Casanova,  Chun-Min Chang,  Yunqing Chen,  
 A. Chien,  K. D. Closser,  M. P. Coons,  S. Dasgupta,  A. L. Dempwolff,  
 M. Diedenhofen,  Hainam Do,  R. G. Edgar,  Po-Tung Fang,  S. Fatehi,  
 Qingguo Feng,  J. Fosso-Tande,  Qinghui Ge,  A. Ghysels,  G. Gidofalvi,  
 J. Gomes,  J. Gonthier,  A. Gunina,  M. W. D. Hanson-Heine,  
 P. H. P. Harbach,  A. W. Hauser,  J. E. Herr,  E. G. Hohenstein,  
 Z. C. Holden,  Kerwin Hui,  T.-C. Jagau,  Hyunjun Ji,  B. Kaduk,  
 K. Khistyaev,  Jaehoon Kim,  P. Klunzinger,  K. Koh,  D. Kosenkov,  
 L. Koulias,  T. Kowalczyk,  C. M. Krauter,  A. Kunitsa,  Ka Un Lao,  
 A. Laurent,  K. V. Lawler,  Joonho Lee,  D. Lefrancois,  S. Lehtola,  
 D. S. Levine,  Yi-Pei Li,  You-Sheng Lin,  Fenglai Liu,  E. Livshits,  
 A. Luenser,  P. Manohar,  E. Mansoor,  S. F. Manzer,  Shan-Ping Mao,  
 Yuezhi Mao,  N. Mardirossian,  A. V. Marenich,  T. Markovich,  
 L. A. Martinez-Martinez,  S. A. Maurer,  N. J. Mayhall,  S. C. McKenzie,  
 J.-M. Mewes,  A. F. Morrison,  J. W. Mullinax,  K. Nanda,  
 T. S. Nguyen-Beck,  R. Olivares-Amaya,  J. A. Parkhill,  T. M. Perrine,  
 F. Plasser,  S. Prager,  A. Prociuk,  E. Ramos,  D. R. Rehn,  F. Rob,  
 M. Schneider,  N. Sergueev,  S. M. Sharada,  S. Sharma,  D. W. Small,  
 T. Stauch,  T. Stein,  Yu-Chuan Su,  A. J. W. Thom,  A. Tkatchenko,  
 T. Tsuchimochi,  L. Vogt,  O. Vydrov,  M. A. Watson,  J. Wenzel,  
 M. de Wergifosse,  T. A. Wesolowski,  A. White,  J. Witte,  A. Yamada,  
 Jun Yang,  K. Yao,  S. Yeganeh,  S. R. Yost,  Zhi-Qiang You,  A. Zech,  
 Igor Ying Zhang,  Xing Zhang,  Yan Zhao,  Ying Zhu,  B. R. Brooks,  
 G. K. L. Chan,  C. J. Cramer,  M. S. Gordon,  W. J. Hehre,  A. Klamt,  
 M. W. Schmidt,  C. D. Sherrill,  D. G. Truhlar,  A. Aspuru-Guzik,  R. Baer,  
 A. T. Bell,  N. A. Besley,  Jeng-Da Chai,  R. A. DiStasio Jr.,  A. Dreuw,  
 B. D. Dunietz,  T. R. Furlani,  Chao-Ping Hsu,  Yousung Jung,  Jing Kong,  
 D. S. Lambrecht,  WanZhen Liang,  C. Ochsenfeld,  V. A. Rassolov,  
 L. V. Slipchenko,  J. E. Subotnik,  T. Van Voorhis,  J. M. Herbert,  
 A. I. Krylov,  P. M. W. Gill,  M. Head-Gordon

 Contributors to earlier versions of Q-Chem not listed above: 
 R. D. Adamson,  B. Austin,  J. Baker,  G. J. O. Beran,  K. Brandhorst,  
 S. T. Brown,  E. F. C. Byrd,  A. K. Chakraborty,  C.-L. Cheng,  
 Siu Hung Chien,  D. M. Chipman,  D. L. Crittenden,  H. Dachsel,  
 R. J. Doerksen,  A. D. Dutoi,  L. Fusti-Molnar,  W. A. Goddard III,  
 A. Golubeva-Zadorozhnaya,  S. R. Gwaltney,  G. Hawkins,  A. Heyden,  
 S. Hirata,  G. Kedziora,  F. J. Keil,  C. Kelley,  Jihan Kim,  R. A. King,  
 R. Z. Khaliullin,  P. P. Korambath,  W. Kurlancheek,  A. M. Lee,  M. S. Lee,  
 S. V. Levchenko,  Ching Yeh Lin,  D. Liotard,  R. C. Lochan,  I. Lotan,  
 P. E. Maslen,  N. Nair,  D. P. O'Neill,  D. Neuhauser,  E. Neuscamman,  
 C. M. Oana,  R. Olson,  B. Peters,  R. Peverati,  P. A. Pieniazek,  
 Y. M. Rhee,  J. Ritchie,  M. A. Rohrdanz,  E. Rosta,  N. J. Russ,  
 H. F. Schaefer III,  N. E. Schultz,  N. Shenvi,  A. C. Simmonett,  A. Sodt,  
 D. Stuck,  K. S. Thanthiriwatte,  V. Vanovschi,  Tao Wang,  A. Warshel,  
 C. F. Williams,  Q. Wu,  X. Xu,  W. Zhang

 Please cite Q-Chem as follows:
 Y. Shao et al., Mol. Phys. 113, 184-215 (2015)
 DOI: 10.1080/00268976.2014.952696

 Q-Chem 5.0.2 for Intel X86 EM64T Linux

 Parts of Q-Chem use Armadillo 5.200.1 (Boston Tea Smuggler).
 http://arma.sourceforge.net/

 Q-Chem begins on Fri Mar  4 17:26:51 2022  

Host: 
0

     Scratch files written to ./irc_transition.d//
 Dec517 15110_ 26548  26544 5633   
Processing $rem in /home/leeping/opt/qchem/5.0.2-openmp/config/preferences.
 MEM_STATIC 2000
 MEM_TOTAL  8000
 SYMMETRY   OFF
 SYM_IGNORE TRUE 

Checking the input file for inconsistencies... 	...done.

--------------------------------------------------------------
User input:
--------------------------------------------------------------
$molecule
0 2
C        1.6371303157    0.4901384190   -0.2366974928
C        1.1167667278   -0.8115021939   -0.4881355414
C       -0.3006460809   -0.9695799080   -0.4173720214
C       -1.2176248587    0.6641266033    0.9141448228
C       -0.5242449040    1.0955368247   -0.3375074837
N        0.7876543044    1.4929737220   -0.1936104735
H        2.7002376086    0.6927100928   -0.1258264171
H        1.7601722093   -1.5887371066   -0.8932311067
H       -0.7040598482   -1.7645226055   -1.0533908114
H       -1.5999052319    1.2934520742    1.7121743897
H       -1.0869163905    1.4847064833   -1.1892032907
C       -1.1137027296   -0.6631252181    0.8082762610
H       -1.5150308378   -1.4342210615    1.4678486073
$end

$rem
method                b3lyp
basis                 6-31+g(d,p)
unrestricted          true
symmetry              off
sym_ignore            true
incdft                false
incfock               0
scf_convergence       8
thresh                14
jobtype               sp
scf_guess             read
scf_algorithm         diis
max_scf_cycles        100
scf_final_print       1
$end

--------------------------------------------------------------
 ----------------------------------------------------------------
             Standard Nuclear Orientation (Angstroms)
    I     Atom           X                Y                Z
 ----------------------------------------------------------------
    1      C       1.6371303157     0.4901384190    -0.2366974928
    2      C       1.1167667278    -0.8115021939    -0.4881355414
    3      C      -0.3006460809    -0.9695799080    -0.4173720214
    4      C      -1.2176248587     0.6641266033     0.9141448228
    5      C      -0.5242449040     1.0955368247    -0.3375074837
    6      N       0.7876543044     1.4929737220    -0.1936104735
    7      H       2.7002376086     0.6927100928    -0.1258264171
    8      H       1.7601722093    -1.5887371066    -0.8932311067
    9      H      -0.7040598482    -1.7645226055    -1.0533908114
   10      H      -1.5999052319     1.2934520742     1.7121743897
   11      H      -1.0869163905     1.4847064833    -1.1892032907
   12      C      -1.1137027296    -0.6631252181     0.8082762610
   13      H      -1.5150308378    -1.4342210615     1.4678486073
 ----------------------------------------------------------------
 Nuclear Repulsion Energy =   269.7130405738 hartrees
 There are       25 alpha and       24 beta electrons
 Requested basis set is 6-31+G(d,p)
 There are 53 shells and 163 basis functions

 Total QAlloc Memory Limit   8000 MB
 Mega-Array Size      1956 MB
 MEM_STATIC part      2000 MB

                       Distance Matrix (Angstroms)
             C (  1)   C (  2)   C (  3)   C (  4)   C (  5)   N (  6)
   C (  2)  1.424173
   C (  3)  2.432776  1.427955
   C (  4)  3.082910  3.097298  2.298431
   C (  5)  2.246823  2.520398  2.078721  1.494498
   N (  6)  1.314969  2.346416  2.701599  2.436238  1.378311
   H (  7)  1.087899  2.213889  3.442893  4.053641  3.256435  2.074365
   H (  8)  2.183552  1.087275  2.203808  4.148407  3.568293  3.306388
   H (  9)  3.351366  2.131472  1.095078  3.167536  2.953771  3.684524
   H ( 10)  3.862876  4.080748  3.368138  1.085836  2.323233  3.061416
   H ( 11)  3.052354  3.258879  2.690254  2.261528  1.092446  2.122567
   C ( 12)  3.160549  2.584123  1.502395  1.335517  2.180177  3.044289
   H ( 13)  4.067525  3.337666  2.290126  2.190457  3.262000  4.078146
             H (  7)   H (  8)   H (  9)   H ( 10)   H ( 11)   C ( 12)
   H (  8)  2.584112
   H (  9)  4.299722  2.475680
   H ( 10)  4.714909  5.136660  4.219253
   H ( 11)  4.012551  4.199949  3.274525  2.952580
   C ( 12)  4.154152  3.465695  2.201519  2.209439  2.933227
   H ( 13)  4.983184  4.040486  2.668974  2.739909  3.970308  1.091187

 
 A cutoff of  1.0D-14 yielded   1388 shell pairs
 There are     13482 function pairs
 
 -------------------------------------------------------
 OpenMP Integral Computing Module                       
 Release: version 1.0, May 2013, Q-Chem Inc. Pittsburgh 
 -------------------------------------------------------
 Integral Job Info:
 Integral job number is                      11
 Integral operator is                         1
 short-range coefficients                     0
 long-range coefficients              100000000
 Omega coefficients                           0
 if combine SR and LR in K                    0
 Integral screening is                        0
 Integral computing path is                   2
 max size of driver memory is            800000
 size of driver memory is                593474
 size of scratch memory is              2361544
 max col of scratch BK array               1296
 max len of scratch array in speh3          155
 max len of scratch index in speh4           18
 max int batch size is                      520
 min int batch size is                       52
 fixed nKL is                                52
 max L of basis functions is                  2
 order of int derivative is                   0
 number of shells is                         53
 number of basis is                         163
 number of cartesian basis is               163
 number of contracted shell pairs          1388
 number of primitive shell pairs           4699
 maxK2 (contraction) of shell pair           36
 max number of K2 of shell pair               1
 max number of CS2 of shell pair            131
 max number of PS2 of shell pair            684
 mem total for path MDJ                  535308
 -------------------------------------------------------
 Smallest overlap matrix eigenvalue = 1.82E-05

 Scale SEOQF with 1.000000e-01/1.000000e-01/1.000000e-01

 Standard Electronic Orientation quadrupole field applied
 Nucleus-field energy     =     0.0000000037 hartrees
 Guess MOs from SCF MO coefficient file
 Reading MOs from coefficient file
 Reading MOs from coefficient file
 An unrestricted hybrid HF-DFT SCF calculation will be
 performed using Pulay DIIS extrapolation
 Exchange:     0.2000 Hartree-Fock + 0.0800 Slater + 0.7200 B88
 Correlation:  0.1900 VWN1RPA + 0.8100 LYP
 Using SG-1 standard quadrature grid
 SCF converges when DIIS error is below 1.0E-08
Using Q-Chem read-in guess as SCF_GUESS READ specified.

 using 4 threads for integral computing
 -------------------------------------------------------
 OpenMP Integral computing Module                
 Release: version 1.0, May 2013, Q-Chem Inc. Pittsburgh 
 -------------------------------------------------------
 -------------------------------------------------------
 OpenMP BLAS3 based DFT computing Module                
 Release: version 1.0, May 2013, Q-Chem Inc. Pittsburgh 
 -------------------------------------------------------
 ---------------------------------------
  Cycle       Energy         DIIS Error
 ---------------------------------------
    1    -286.8682620942      1.36E-09
    2    -286.8682620942      2.77E-09 Convergence criterion met
 ---------------------------------------
 One-Electron    Energy =  -919.8435756458
 Total Coulomb   Energy =   404.8284826040
 Alpha Exchange  Energy =    -4.0181762417
 Beta  Exchange  Energy =    -3.9131938733
 DFT   Exchange  Energy =   -31.5290348750
 DFT Correlation Energy =    -2.1058046400
 Nuclear Repu.   Energy =   269.7130405775
 Nuclear Attr.   Energy = -1203.9261424834
 Kinetic         Energy =   284.0825668376
 <S^2> = 0.7723
 SCF time:  CPU 9.92 s  wall 2.51 s
 Final Alpha MO Eigenvalues
            1           2           3           4           5           6
    1 -14.3517388 -10.2538730 -10.2365882 -10.2127824 -10.2124403 -10.2115148
            7           8           9          10          11          12
    1 -10.2044124  -0.9610586  -0.8321737  -0.7778531  -0.6772349  -0.6473224
           13          14          15          16          17          18
    1  -0.5511333  -0.5432395  -0.5247601  -0.4738441  -0.4621502  -0.4225043
           19          20          21          22          23          24
    1  -0.4128562  -0.3842204  -0.3442568  -0.3216072  -0.2797040  -0.2475955
           25          26          27          28          29          30
    1  -0.1949963  -0.0268944  -0.0074602   0.0070439   0.0163067   0.0231335
 Final Beta MO Eigenvalues
            1           2           3           4           5           6
    1 -14.3447167 -10.2487169 -10.2372552 -10.2138034 -10.2110885 -10.2054990
            7           8           9          10          11          12
    1 -10.2046595  -0.9485605  -0.8266497  -0.7667915  -0.6721096  -0.6395332
           13          14          15          16          17          18
    1  -0.5444230  -0.5386967  -0.5195268  -0.4682225  -0.4551770  -0.4169698
           19          20          21          22          23          24
    1  -0.4082478  -0.3752722  -0.3292818  -0.3016590  -0.2752985  -0.2371484
           25          26          27          28          29
    1  -0.1055924  -0.0155187  -0.0022863   0.0086963   0.0207118
 SCF   energy in the final basis set = -286.86826209
 Total energy in the final basis set = -286.86826209
 
 --------------------------------------------------------------
 
                    Orbital Energies (a.u.)
 --------------------------------------------------------------
 
 Alpha MOs
 -- Occupied --
-14.352 -10.254 -10.237 -10.213 -10.212 -10.212 -10.204  -0.961
 -0.832  -0.778  -0.677  -0.647  -0.551  -0.543  -0.525  -0.474
 -0.462  -0.423  -0.413  -0.384  -0.344  -0.322  -0.280  -0.248
 -0.195
 -- Virtual --
 -0.027  -0.007   0.007   0.016   0.023   0.027   0.032   0.046
  0.058   0.068   0.070   0.072   0.097   0.103   0.106   0.114
  0.123   0.133   0.138   0.153   0.166   0.171   0.175   0.192
  0.200   0.204   0.208   0.212   0.220   0.234   0.246   0.247
  0.263   0.273   0.278   0.297   0.313   0.328   0.340   0.347
  0.378   0.416   0.469   0.489   0.617   0.645   0.653   0.695
  0.697   0.718   0.725   0.732   0.750   0.764   0.775   0.820
  0.822   0.843   0.865   0.876   0.896   0.925   0.942   0.978
  0.985   1.006   1.049   1.055   1.068   1.085   1.112   1.137
  1.164   1.204   1.214   1.301   1.326   1.386   1.412   1.426
  1.510   1.571   1.597   1.648   1.713   1.766   1.821   1.851
  1.863   1.902   1.911   1.944   1.987   1.998   2.044   2.088
  2.125   2.154   2.170   2.221   2.269   2.326   2.390   2.403
  2.412   2.425   2.447   2.473   2.497   2.530   2.538   2.564
  2.574   2.585   2.599   2.649   2.680   2.728   2.747   2.787
  2.809   2.924   2.965   3.105   3.152   3.264   3.300   3.365
  3.424   3.622   3.694   4.148   4.324   4.427   4.453   4.529
  4.625   4.757
 
 Beta MOs
 -- Occupied --
-14.345 -10.249 -10.237 -10.214 -10.211 -10.205 -10.205  -0.949
 -0.827  -0.767  -0.672  -0.640  -0.544  -0.539  -0.520  -0.468
 -0.455  -0.417  -0.408  -0.375  -0.329  -0.302  -0.275  -0.237
 -- Virtual --
 -0.106  -0.016  -0.002   0.009   0.021   0.028   0.030   0.037
  0.046   0.059   0.070   0.071   0.076   0.097   0.104   0.107
  0.116   0.124   0.135   0.140   0.154   0.166   0.172   0.177
  0.193   0.200   0.206   0.210   0.214   0.222   0.236   0.248
  0.250   0.267   0.278   0.281   0.300   0.316   0.331   0.343
  0.351   0.381   0.424   0.473   0.494   0.621   0.650   0.659
  0.697   0.701   0.723   0.734   0.744   0.752   0.766   0.780
  0.823   0.829   0.846   0.867   0.879   0.897   0.929   0.945
  0.982   0.996   1.011   1.056   1.063   1.071   1.090   1.117
  1.140   1.170   1.209   1.220   1.306   1.330   1.388   1.420
  1.433   1.519   1.583   1.608   1.658   1.718   1.772   1.828
  1.857   1.869   1.905   1.917   1.949   1.996   2.003   2.050
  2.093   2.133   2.165   2.177   2.227   2.276   2.331   2.394
  2.407   2.417   2.433   2.452   2.476   2.504   2.532   2.541
  2.571   2.577   2.591   2.603   2.656   2.687   2.732   2.753
  2.793   2.815   2.929   2.971   3.108   3.155   3.266   3.301
  3.369   3.427   3.624   3.697   4.161   4.330   4.430   4.453
  4.539   4.630   4.760
 --------------------------------------------------------------
 
          Ground-State Mulliken Net Atomic Charges

     Atom                 Charge (a.u.)    Spin (a.u.)
  --------------------------------------------------------
      1 C                    -0.196910      -0.102361
      2 C                    -0.030556       0.506648
      3 C                    -0.145996      -0.109832
      4 C                    -0.114236      -0.050130
      5 C                    -0.155036       0.356526
      6 N                    -0.141609       0.321393
      7 H                     0.131225       0.001964
      8 H                     0.137145      -0.026281
      9 H                     0.123955       0.016453
     10 H                     0.138309       0.004299
     11 H                     0.158174       0.012484
     12 C                    -0.037706       0.043101
     13 H                     0.133242       0.025737
  --------------------------------------------------------
  Sum of atomic charges =     0.000000
  Sum of spin   charges =     1.000000

 -----------------------------------------------------------------
                    Cartesian Multipole Moments
 -----------------------------------------------------------------
    Charge (ESU x 10^10)
                 0.0000
    Dipole Moment (Debye)
         X      -0.4857      Y      -1.4468      Z      -0.1423
       Tot       1.5327
    Quadrupole Moments (Debye-Ang)
        XX     -39.0534     XY      -2.4438     YY     -43.4144
        XZ      -1.3109     YZ       0.4906     ZZ     -41.5580
    Octopole Moments (Debye-Ang^2)
       XXX       7.1255    XXY      -6.3768    XYY      -9.9365
       YYY     -30.1814    XXZ      -0.1478    XYZ       1.8053
       YYZ      -1.1610    XZZ      -6.8745    YZZ      -5.6450
       ZZZ       1.3858
    Hexadecapole Moments (Debye-Ang^3)
      XXXX    -350.1799   XXXY      -7.2159   XXYY    -107.6587
      XYYY     -23.2219   YYYY    -324.8437   XXXZ      51.5522
      XXYZ       0.6087   XYYZ      14.2793   YYYZ      -1.6067
      XXZZ     -83.3019   XYZZ      -7.1340   YYZZ     -69.4863
      XZZZ      51.8774   YZZZ      -4.7128   ZZZZ    -156.3001
 -----------------------------------------------------------------
 Mayer SCF Bond Order, atomic valence on the diagonal:

            1           2           3           4           5           6
    1   4.1074925   1.3142799   0.1026408   0.0439327   0.0617982   1.5161643
    2   1.3142799   3.7531005   1.3264101   0.0357073   0.0565867  -0.0043310
    3   0.1026408   1.3264101   4.0086009  -0.0652693   0.5953461   0.0580077
    4   0.0439327   0.0357073  -0.0652693   4.0519931   1.0438534  -0.0202768
    5   0.0617982   0.0565867   0.5953461   1.0438534   3.8613911   1.2484168
    6   1.5161643  -0.0043310   0.0580077  -0.0202768   1.2484168   2.7657873
    7   0.9727301  -0.0264107   0.0259262   0.0012534   0.0044733  -0.0352841
    8   0.0401641   0.8541884   0.0170055  -0.0028250   0.0159701   0.0097318
    9  -0.0020192   0.0634355   0.8081606   0.0066087   0.0336146   0.0046830
   10   0.0169593  -0.0156897   0.0400097   0.8557920   0.0131611   0.0028963
   11   0.0151925   0.0079633   0.0252050   0.0464754   0.8647462  -0.0154122
   12   0.0279557   0.1086014   1.0507534   2.0565806  -0.1023793  -0.0025814
   13  -0.0023060   0.0323593   0.0244050   0.0501607   0.0258038   0.0037731
            7           8           9          10          11          12
    1   0.9727301   0.0401641  -0.0020192   0.0169593   0.0151925   0.0279557
    2  -0.0264107   0.8541884   0.0634355  -0.0156897   0.0079633   0.1086014
    3   0.0259262   0.0170055   0.8081606   0.0400097   0.0252050   1.0507534
    4   0.0012534  -0.0028250   0.0066087   0.8557920   0.0464754   2.0565806
    5   0.0044733   0.0159701   0.0336146   0.0131611   0.8647462  -0.1023793
    6  -0.0352841   0.0097318   0.0046830   0.0028963  -0.0154122  -0.0025814
    7   0.9448272   0.0001276   0.0015102   0.0000821   0.0015679  -0.0012592
    8   0.0001276   0.9526425   0.0004243   0.0008308   0.0001211   0.0168028
    9   0.0015102   0.0004243   0.9560111   0.0024979   0.0001848   0.0366605
   10   0.0000821   0.0008308   0.0024979   0.9520540   0.0002142   0.0346248
   11   0.0015679   0.0001211   0.0001848   0.0002142   0.9410894  -0.0063139
   12  -0.0012592   0.0168028   0.0366605   0.0346248  -0.0063139   4.0337490
   13   0.0001104   0.0001012   0.0002503   0.0006757   0.0011451   0.8143035
           13
    1  -0.0023060
    2   0.0323593
    3   0.0244050
    4   0.0501607
    5   0.0258038
    6   0.0037731
    7   0.0001104
    8   0.0001012
    9   0.0002503
   10   0.0006757
   11   0.0011451
   12   0.8143035
   13   0.9507819


Archival summary:
1\1\c8-66\SP\ProcedureUnspecified\6-31+G**\166(2)\hpark21\FriMar417:26:552022FriMar417:26:552022\0\\#,ProcedureUnspecified,6-31+G**,\\0,2\N\C,1,1.31497\H,2,1.0879,1,119.074\C,1,1.37831,2,113.051,3,-179.571,0\H,4,1.09245,1,117.964,2,-119.1,0\C,2,1.42417,1,117.824,3,-177.241,0\H,6,1.08728,2,120.192,1,157.245,0\C,6,1.42795,2,117.072,1,-11.7928,0\H,8,1.09508,6,114.661,2,151.434,0\C,4,1.4945,1,115.938,2,85.5466,0\H,10,1.08584,4,127.702,1,75.6577,0\C,10,1.33552,4,100.625,1,-99.1223,0\H,12,1.09119,10,128.737,4,-176.836,0\\\@

 Total job time:  3.17s(wall), 11.46s(cpu) 
 Fri Mar  4 17:26:55 2022

        *************************************************************
        *                                                           *
        *  Thank you very much for using Q-Chem.  Have a nice day.  *
        *                                                           *
        *************************************************************


