
Running Job 1 of 1 irc_product.in
qchem irc_product.in_8824.0 ./irc_product.d/ 1
/home/leeping/opt/qchem/5.0.2-openmp/exe/qcprog.exe_s irc_product.in_8824.0 ./irc_product.d/
Check license passed

                  Welcome to Q-Chem
     A Quantum Leap Into The Future Of Chemistry


 Q-Chem 5.0, Q-Chem, Inc., Pleasanton, CA (2017)

 Yihan Shao,  Zhengting Gan,  E. Epifanovsky,  A. T. B. Gilbert,  M. Wormit,  
 J. Kussmann,  A. W. Lange,  A. Behn,  Jia Deng,  Xintian Feng,  D. Ghosh,  
 M. Goldey,  P. R. Horn,  L. D. Jacobson,  I. Kaliman,  T. Kus,  A. Landau,  
 Jie Liu,  E. I. Proynov,  R. M. Richard,  R. P. Steele,  E. J. Sundstrom,  
 H. L. Woodcock III,  P. M. Zimmerman,  D. Zuev,  B. Albrecht,  E. Alguire,  
 S. A. Baeppler,  D. Barton,  Z. Benda,  Y. A. Bernard,  E. J. Berquist,  
 K. B. Bravaya,  H. Burton,  D. Casanova,  Chun-Min Chang,  Yunqing Chen,  
 A. Chien,  K. D. Closser,  M. P. Coons,  S. Dasgupta,  A. L. Dempwolff,  
 M. Diedenhofen,  Hainam Do,  R. G. Edgar,  Po-Tung Fang,  S. Fatehi,  
 Qingguo Feng,  J. Fosso-Tande,  Qinghui Ge,  A. Ghysels,  G. Gidofalvi,  
 J. Gomes,  J. Gonthier,  A. Gunina,  M. W. D. Hanson-Heine,  
 P. H. P. Harbach,  A. W. Hauser,  J. E. Herr,  E. G. Hohenstein,  
 Z. C. Holden,  Kerwin Hui,  T.-C. Jagau,  Hyunjun Ji,  B. Kaduk,  
 K. Khistyaev,  Jaehoon Kim,  P. Klunzinger,  K. Koh,  D. Kosenkov,  
 L. Koulias,  T. Kowalczyk,  C. M. Krauter,  A. Kunitsa,  Ka Un Lao,  
 A. Laurent,  K. V. Lawler,  Joonho Lee,  D. Lefrancois,  S. Lehtola,  
 D. S. Levine,  Yi-Pei Li,  You-Sheng Lin,  Fenglai Liu,  E. Livshits,  
 A. Luenser,  P. Manohar,  E. Mansoor,  S. F. Manzer,  Shan-Ping Mao,  
 Yuezhi Mao,  N. Mardirossian,  A. V. Marenich,  T. Markovich,  
 L. A. Martinez-Martinez,  S. A. Maurer,  N. J. Mayhall,  S. C. McKenzie,  
 J.-M. Mewes,  A. F. Morrison,  J. W. Mullinax,  K. Nanda,  
 T. S. Nguyen-Beck,  R. Olivares-Amaya,  J. A. Parkhill,  T. M. Perrine,  
 F. Plasser,  S. Prager,  A. Prociuk,  E. Ramos,  D. R. Rehn,  F. Rob,  
 M. Schneider,  N. Sergueev,  S. M. Sharada,  S. Sharma,  D. W. Small,  
 T. Stauch,  T. Stein,  Yu-Chuan Su,  A. J. W. Thom,  A. Tkatchenko,  
 T. Tsuchimochi,  L. Vogt,  O. Vydrov,  M. A. Watson,  J. Wenzel,  
 M. de Wergifosse,  T. A. Wesolowski,  A. White,  J. Witte,  A. Yamada,  
 Jun Yang,  K. Yao,  S. Yeganeh,  S. R. Yost,  Zhi-Qiang You,  A. Zech,  
 Igor Ying Zhang,  Xing Zhang,  Yan Zhao,  Ying Zhu,  B. R. Brooks,  
 G. K. L. Chan,  C. J. Cramer,  M. S. Gordon,  W. J. Hehre,  A. Klamt,  
 M. W. Schmidt,  C. D. Sherrill,  D. G. Truhlar,  A. Aspuru-Guzik,  R. Baer,  
 A. T. Bell,  N. A. Besley,  Jeng-Da Chai,  R. A. DiStasio Jr.,  A. Dreuw,  
 B. D. Dunietz,  T. R. Furlani,  Chao-Ping Hsu,  Yousung Jung,  Jing Kong,  
 D. S. Lambrecht,  WanZhen Liang,  C. Ochsenfeld,  V. A. Rassolov,  
 L. V. Slipchenko,  J. E. Subotnik,  T. Van Voorhis,  J. M. Herbert,  
 A. I. Krylov,  P. M. W. Gill,  M. Head-Gordon

 Contributors to earlier versions of Q-Chem not listed above: 
 R. D. Adamson,  B. Austin,  J. Baker,  G. J. O. Beran,  K. Brandhorst,  
 S. T. Brown,  E. F. C. Byrd,  A. K. Chakraborty,  C.-L. Cheng,  
 Siu Hung Chien,  D. M. Chipman,  D. L. Crittenden,  H. Dachsel,  
 R. J. Doerksen,  A. D. Dutoi,  L. Fusti-Molnar,  W. A. Goddard III,  
 A. Golubeva-Zadorozhnaya,  S. R. Gwaltney,  G. Hawkins,  A. Heyden,  
 S. Hirata,  G. Kedziora,  F. J. Keil,  C. Kelley,  Jihan Kim,  R. A. King,  
 R. Z. Khaliullin,  P. P. Korambath,  W. Kurlancheek,  A. M. Lee,  M. S. Lee,  
 S. V. Levchenko,  Ching Yeh Lin,  D. Liotard,  R. C. Lochan,  I. Lotan,  
 P. E. Maslen,  N. Nair,  D. P. O'Neill,  D. Neuhauser,  E. Neuscamman,  
 C. M. Oana,  R. Olson,  B. Peters,  R. Peverati,  P. A. Pieniazek,  
 Y. M. Rhee,  J. Ritchie,  M. A. Rohrdanz,  E. Rosta,  N. J. Russ,  
 H. F. Schaefer III,  N. E. Schultz,  N. Shenvi,  A. C. Simmonett,  A. Sodt,  
 D. Stuck,  K. S. Thanthiriwatte,  V. Vanovschi,  Tao Wang,  A. Warshel,  
 C. F. Williams,  Q. Wu,  X. Xu,  W. Zhang

 Please cite Q-Chem as follows:
 Y. Shao et al., Mol. Phys. 113, 184-215 (2015)
 DOI: 10.1080/00268976.2014.952696

 Q-Chem 5.0.2 for Intel X86 EM64T Linux

 Parts of Q-Chem use Armadillo 5.200.1 (Boston Tea Smuggler).
 http://arma.sourceforge.net/

 Q-Chem begins on Fri Mar  4 17:19:16 2022  

Host: 
0

     Scratch files written to ./irc_product.d//
 Dec517 15110_ 26548  26544 5633   
Processing $rem in /home/leeping/opt/qchem/5.0.2-openmp/config/preferences.
 MEM_STATIC 2000
 MEM_TOTAL  8000
 SYMMETRY   OFF
 SYM_IGNORE TRUE 

Checking the input file for inconsistencies... 	...done.

--------------------------------------------------------------
User input:
--------------------------------------------------------------
$molecule
0 2
C        1.5089999017    0.4265388136   -0.6385465306
C        1.1661481694   -0.9054052979   -0.4841878083
C       -0.0591463483   -1.4574693570    0.0364358326
C       -1.2942509345    0.6694885230    0.5388933894
C       -0.3879202862    1.6412321155    0.1510362800
N        0.8598316575    1.5860838881   -0.3734139938
H        2.5010633841    0.6002712956   -1.0583315946
H        1.9214356958   -1.6216910074   -0.7975018917
H       -0.1149451273   -2.5431668914    0.0689744672
H       -2.2367519198    1.0406280446    0.9332835615
H       -0.7291471445    2.6686044622    0.2879802403
C       -1.1444055750   -0.7627865845    0.4870537577
H       -1.9909114729   -1.3423280045    0.8483242903
$end

$rem
method                b3lyp
basis                 6-31+g(d,p)
unrestricted          true
symmetry              off
sym_ignore            true
incdft                false
incfock               0
scf_convergence       8
thresh                14
jobtype               sp
scf_guess             core
scf_guess_mix         5
scf_algorithm         diis
max_scf_cycles        100
$end

--------------------------------------------------------------
 ----------------------------------------------------------------
             Standard Nuclear Orientation (Angstroms)
    I     Atom           X                Y                Z
 ----------------------------------------------------------------
    1      C       1.5089999017     0.4265388136    -0.6385465306
    2      C       1.1661481694    -0.9054052979    -0.4841878083
    3      C      -0.0591463483    -1.4574693570     0.0364358326
    4      C      -1.2942509345     0.6694885230     0.5388933894
    5      C      -0.3879202862     1.6412321155     0.1510362800
    6      N       0.8598316575     1.5860838881    -0.3734139938
    7      H       2.5010633841     0.6002712956    -1.0583315946
    8      H       1.9214356958    -1.6216910074    -0.7975018917
    9      H      -0.1149451273    -2.5431668914     0.0689744672
   10      H      -2.2367519198     1.0406280446     0.9332835615
   11      H      -0.7291471445     2.6686044622     0.2879802403
   12      C      -1.1444055750    -0.7627865845     0.4870537577
   13      H      -1.9909114729    -1.3423280045     0.8483242903
 ----------------------------------------------------------------
 Nuclear Repulsion Energy =   260.5253106555 hartrees
 There are       25 alpha and       24 beta electrons
 Requested basis set is 6-31+G(d,p)
 There are 53 shells and 163 basis functions

 Total QAlloc Memory Limit   8000 MB
 Mega-Array Size      1956 MB
 MEM_STATIC part      2000 MB

                       Distance Matrix (Angstroms)
             C (  1)   C (  2)   C (  3)   C (  4)   C (  5)   N (  6)
   C (  2)  1.383997
   C (  3)  2.542473  1.441239
   C (  4)  3.050181  3.095246  2.510358
   C (  5)  2.386886  3.050246  3.118201  1.384252
   N (  6)  1.355087  2.512692  3.205575  2.512474  1.354612
   H (  7)  1.091143  2.092535  3.462295  4.118292  3.300363  2.033367
   H (  8)  2.095380  1.087056  2.155255  4.168465  4.108469  3.405389
   H (  9)  3.457880  2.151616  1.087617  3.454380  4.194096  4.265748
   H ( 10)  4.108334  4.168453  3.433190  1.087013  2.095427  3.404968
   H ( 11)  3.300699  4.118487  4.187680  2.092550  1.091184  2.033260
   C ( 12)  3.118017  2.510440  1.365074  1.441025  2.542535  3.205396
   H ( 13)  4.193931  3.454492  2.098604  2.151392  3.457951  4.265557
             H (  7)   H (  8)   H (  9)   H ( 10)   H ( 11)   C ( 12)
   H (  8)  2.311086
   H (  9)  4.242113  2.397237
   H ( 10)  5.158230  5.232025  4.253549
   H ( 11)  4.065073  5.158536  5.252406  2.310757
   C ( 12)  4.187551  3.433247  2.098650  2.155144  3.462155
   H ( 13)  5.252320  4.253616  2.359799  2.397110  4.241888  1.087638

 
 A cutoff of  1.0D-14 yielded   1361 shell pairs
 There are     13409 function pairs
 
 -------------------------------------------------------
 OpenMP Integral Computing Module                       
 Release: version 1.0, May 2013, Q-Chem Inc. Pittsburgh 
 -------------------------------------------------------
 Integral Job Info:
 Integral job number is                      11
 Integral operator is                         1
 short-range coefficients                     0
 long-range coefficients              100000000
 Omega coefficients                           0
 if combine SR and LR in K                    0
 Integral screening is                        0
 Integral computing path is                   2
 max size of driver memory is            800000
 size of driver memory is                593474
 size of scratch memory is              2361544
 max col of scratch BK array               1296
 max len of scratch array in speh3          155
 max len of scratch index in speh4           18
 max int batch size is                      520
 min int batch size is                       52
 fixed nKL is                                52
 max L of basis functions is                  2
 order of int derivative is                   0
 number of shells is                         53
 number of basis is                         163
 number of cartesian basis is               163
 number of contracted shell pairs          1361
 number of primitive shell pairs           4562
 maxK2 (contraction) of shell pair           36
 max number of K2 of shell pair               1
 max number of CS2 of shell pair            136
 max number of PS2 of shell pair            696
 mem total for path MDJ                  535308
 -------------------------------------------------------
 Smallest overlap matrix eigenvalue = 9.06E-06

 Scale SEOQF with 1.000000e-01/1.000000e-01/1.000000e-01

 Standard Electronic Orientation quadrupole field applied
 Nucleus-field energy     =     0.0000000067 hartrees
 Guess MOs from core Hamiltonian diagonalization
 Mixing HOMO and LUMO in initial guess
 Adding  50% of the LUMO to the HOMO
 An unrestricted hybrid HF-DFT SCF calculation will be
 performed using Pulay DIIS extrapolation
 Exchange:     0.2000 Hartree-Fock + 0.0800 Slater + 0.7200 B88
 Correlation:  0.1900 VWN1RPA + 0.8100 LYP
 Using SG-1 standard quadrature grid
 SCF converges when DIIS error is below 1.0E-08
 using 4 threads for integral computing
 -------------------------------------------------------
 OpenMP Integral computing Module                
 Release: version 1.0, May 2013, Q-Chem Inc. Pittsburgh 
 -------------------------------------------------------
 -------------------------------------------------------
 OpenMP BLAS3 based DFT computing Module                
 Release: version 1.0, May 2013, Q-Chem Inc. Pittsburgh 
 -------------------------------------------------------
 ---------------------------------------
  Cycle       Energy         DIIS Error
 ---------------------------------------
    1    -239.3318309047      9.11E-02
    2    -212.5899443820      7.34E-02
    3    -249.0597849733      7.56E-02
    4    -282.5330253117      3.35E-02
    5    -279.5859004635      4.15E-02
    6    -285.2542033423      1.87E-02
    7    -286.6816968780      7.47E-03
    8    -286.8987937231      3.63E-03
    9    -286.9422019031      8.63E-04
   10    -286.9447017551      5.04E-04
   11    -286.9458095553      1.48E-04
   12    -286.9460089941      7.95E-05
   13    -286.9461248743      3.35E-05
   14    -286.9461820691      1.24E-05
   15    -286.9461916542      5.97E-06
   16    -286.9461979887      3.25E-06
   17    -286.9461997685      1.27E-06
   18    -286.9461999478      7.77E-07
   19    -286.9462000485      6.37E-07
   20    -286.9462000846      1.77E-07
   21    -286.9462000931      6.76E-08
   22    -286.9462000942      1.31E-08
   23    -286.9462000942      1.50E-09 Convergence criterion met
 ---------------------------------------
 <S^2> = 0.7675
 SCF time:  CPU 109.21 s  wall 28.72 s
 SCF   energy in the final basis set = -286.94620009
 Total energy in the final basis set = -286.94620009
 
 --------------------------------------------------------------
 
                    Orbital Energies (a.u.)
 --------------------------------------------------------------
 
 Alpha MOs
 -- Occupied --
-14.337 -10.243 -10.243 -10.223 -10.222 -10.212 -10.212  -0.934
 -0.829  -0.795  -0.703  -0.678  -0.562  -0.547  -0.527  -0.458
 -0.449  -0.423  -0.405  -0.395  -0.358  -0.333  -0.310  -0.263
 -0.174
 -- Virtual --
 -0.087  -0.002   0.015   0.023   0.045   0.050   0.054   0.064
  0.072   0.075   0.077   0.084   0.091   0.094   0.129   0.132
  0.134   0.134   0.139   0.143   0.164   0.183   0.183   0.184
  0.205   0.207   0.213   0.228   0.229   0.247   0.248   0.259
  0.264   0.266   0.291   0.292   0.302   0.308   0.339   0.391
  0.408   0.411   0.460   0.595   0.613   0.623   0.647   0.682
  0.694   0.702   0.702   0.733   0.735   0.755   0.774   0.777
  0.894   0.914   0.919   0.940   0.943   0.977   0.978   0.998
  1.001   1.022   1.037   1.109   1.114   1.125   1.164   1.192
  1.217   1.265   1.275   1.279   1.298   1.339   1.365   1.382
  1.428   1.462   1.499   1.597   1.676   1.727   1.784   1.843
  1.853   1.893   1.905   1.943   1.950   1.976   2.003   2.029
  2.075   2.101   2.133   2.258   2.292   2.361   2.383   2.393
  2.399   2.418   2.449   2.450   2.455   2.472   2.503   2.512
  2.525   2.562   2.620   2.624   2.664   2.738   2.755   2.842
  3.009   3.072   3.117   3.244   3.261   3.290   3.346   3.350
  3.405   3.652   3.759   4.179   4.224   4.307   4.381   4.409
  4.649   4.713
 
 Beta MOs
 -- Occupied --
-14.329 -10.245 -10.245 -10.222 -10.221 -10.208 -10.208  -0.923
 -0.820  -0.788  -0.692  -0.676  -0.557  -0.544  -0.524  -0.456
 -0.448  -0.420  -0.392  -0.384  -0.357  -0.307  -0.287  -0.254
 -- Virtual --
 -0.093  -0.085  -0.002   0.016   0.023   0.045   0.050   0.058
  0.065   0.075   0.081   0.085   0.091   0.096   0.103   0.129
  0.132   0.134   0.140   0.142   0.143   0.165   0.183   0.184
  0.190   0.205   0.209   0.213   0.227   0.231   0.250   0.253
  0.259   0.268   0.269   0.292   0.293   0.307   0.311   0.338
  0.394   0.412   0.414   0.464   0.597   0.616   0.625   0.655
  0.686   0.703   0.704   0.706   0.736   0.751   0.757   0.776
  0.788   0.895   0.917   0.920   0.940   0.944   0.978   0.978
  1.001   1.025   1.028   1.039   1.115   1.118   1.130   1.163
  1.194   1.220   1.270   1.286   1.291   1.306   1.346   1.374
  1.387   1.429   1.467   1.513   1.608   1.679   1.733   1.796
  1.845   1.855   1.894   1.914   1.951   1.957   1.988   2.008
  2.037   2.080   2.114   2.131   2.259   2.294   2.364   2.386
  2.405   2.409   2.419   2.453   2.453   2.464   2.476   2.505
  2.518   2.527   2.572   2.624   2.624   2.670   2.749   2.757
  2.847   3.011   3.074   3.122   3.247   3.263   3.291   3.347
  3.351   3.405   3.654   3.761   4.192   4.230   4.314   4.386
  4.409   4.652   4.719
 --------------------------------------------------------------
 
          Ground-State Mulliken Net Atomic Charges

     Atom                 Charge (a.u.)    Spin (a.u.)
  --------------------------------------------------------
      1 C                    -0.234933      -0.113953
      2 C                     0.100871       0.369424
      3 C                    -0.165064       0.079695
      4 C                     0.100976       0.371335
      5 C                    -0.234794      -0.115016
      6 N                    -0.176313       0.375443
      7 H                     0.126981       0.003270
      8 H                     0.127399      -0.018638
      9 H                     0.132715      -0.006806
     10 H                     0.127349      -0.018717
     11 H                     0.126981       0.003319
     12 C                    -0.164911       0.077346
     13 H                     0.132743      -0.006703
  --------------------------------------------------------
  Sum of atomic charges =     0.000000
  Sum of spin   charges =     1.000000

 -----------------------------------------------------------------
                    Cartesian Multipole Moments
 -----------------------------------------------------------------
    Charge (ESU x 10^10)
                 0.0000
    Dipole Moment (Debye)
         X      -1.1210      Y      -2.0687      Z       0.4875
       Tot       2.4028
    Quadrupole Moments (Debye-Ang)
        XX     -38.5610     XY      -3.6352     YY     -41.7387
        XZ      -2.7551     YZ       1.5027     ZZ     -44.0067
    Octopole Moments (Debye-Ang^2)
       XXX      -9.2018    XXY      -9.7310    XYY     -13.0463
       YYY     -30.6899    XXZ       1.4954    XYZ       1.9094
       YYZ       5.6520    XZZ      -3.0157    YZZ      -6.2009
       ZZZ       3.8493
    Hexadecapole Moments (Debye-Ang^3)
      XXXX    -347.0080   XXXY      -3.8374   XXYY    -136.9072
      XYYY     -27.9216   YYYY    -424.9681   XXXZ      47.6087
      XXYZ       2.2201   XYYZ      20.5713   YYYZ      12.9505
      XXZZ     -76.9379   XYZZ      -0.5225   YYZZ     -97.2209
      XZZZ      70.1913   YZZZ       1.6299   ZZZZ    -116.6491
 -----------------------------------------------------------------
Archival summary:
1\1\c8-66\SP\ProcedureUnspecified\6-31+G**\166(2)\hpark21\FriMar417:19:462022FriMar417:19:462022\0\\#,ProcedureUnspecified,6-31+G**,\\0,2\N\C,1,1.35461\H,2,1.09118,1,112.022\C,1,1.35509,2,123.494,3,179.977,0\H,4,1.09114,1,111.999,2,179.931,0\C,4,1.384,1,133.08,2,-0.0549814,0\H,6,1.08706,4,115.46,1,179.991,0\C,2,1.38425,1,133.078,3,-179.977,0\H,8,1.08701,2,115.447,1,179.973,0\C,8,1.44102,2,128.285,1,0.0655552,0\H,10,1.08764,8,115.895,2,179.917,0\C,10,1.36507,8,126.895,2,-0.0252434,0\H,12,1.08762,10,117.215,8,179.964,0\\\@

 Total job time:  29.43s(wall), 110.80s(cpu) 
 Fri Mar  4 17:19:46 2022

        *************************************************************
        *                                                           *
        *  Thank you very much for using Q-Chem.  Have a nice day.  *
        *                                                           *
        *************************************************************


