
Running Job 1 of 1 qcts1.in
qchem qcts1.in_2925.0 ./qcts1.d/ 1
/home/leeping/opt/qchem/5.0.2-openmp/exe/qcprog.exe_s qcts1.in_2925.0 ./qcts1.d/
Check license passed

                  Welcome to Q-Chem
     A Quantum Leap Into The Future Of Chemistry


 Q-Chem 5.0, Q-Chem, Inc., Pleasanton, CA (2017)

 Yihan Shao,  Zhengting Gan,  E. Epifanovsky,  A. T. B. Gilbert,  M. Wormit,  
 J. Kussmann,  A. W. Lange,  A. Behn,  Jia Deng,  Xintian Feng,  D. Ghosh,  
 M. Goldey,  P. R. Horn,  L. D. Jacobson,  I. Kaliman,  T. Kus,  A. Landau,  
 Jie Liu,  E. I. Proynov,  R. M. Richard,  R. P. Steele,  E. J. Sundstrom,  
 H. L. Woodcock III,  P. M. Zimmerman,  D. Zuev,  B. Albrecht,  E. Alguire,  
 S. A. Baeppler,  D. Barton,  Z. Benda,  Y. A. Bernard,  E. J. Berquist,  
 K. B. Bravaya,  H. Burton,  D. Casanova,  Chun-Min Chang,  Yunqing Chen,  
 A. Chien,  K. D. Closser,  M. P. Coons,  S. Dasgupta,  A. L. Dempwolff,  
 M. Diedenhofen,  Hainam Do,  R. G. Edgar,  Po-Tung Fang,  S. Fatehi,  
 Qingguo Feng,  J. Fosso-Tande,  Qinghui Ge,  A. Ghysels,  G. Gidofalvi,  
 J. Gomes,  J. Gonthier,  A. Gunina,  M. W. D. Hanson-Heine,  
 P. H. P. Harbach,  A. W. Hauser,  J. E. Herr,  E. G. Hohenstein,  
 Z. C. Holden,  Kerwin Hui,  T.-C. Jagau,  Hyunjun Ji,  B. Kaduk,  
 K. Khistyaev,  Jaehoon Kim,  P. Klunzinger,  K. Koh,  D. Kosenkov,  
 L. Koulias,  T. Kowalczyk,  C. M. Krauter,  A. Kunitsa,  Ka Un Lao,  
 A. Laurent,  K. V. Lawler,  Joonho Lee,  D. Lefrancois,  S. Lehtola,  
 D. S. Levine,  Yi-Pei Li,  You-Sheng Lin,  Fenglai Liu,  E. Livshits,  
 A. Luenser,  P. Manohar,  E. Mansoor,  S. F. Manzer,  Shan-Ping Mao,  
 Yuezhi Mao,  N. Mardirossian,  A. V. Marenich,  T. Markovich,  
 L. A. Martinez-Martinez,  S. A. Maurer,  N. J. Mayhall,  S. C. McKenzie,  
 J.-M. Mewes,  A. F. Morrison,  J. W. Mullinax,  K. Nanda,  
 T. S. Nguyen-Beck,  R. Olivares-Amaya,  J. A. Parkhill,  T. M. Perrine,  
 F. Plasser,  S. Prager,  A. Prociuk,  E. Ramos,  D. R. Rehn,  F. Rob,  
 M. Schneider,  N. Sergueev,  S. M. Sharada,  S. Sharma,  D. W. Small,  
 T. Stauch,  T. Stein,  Yu-Chuan Su,  A. J. W. Thom,  A. Tkatchenko,  
 T. Tsuchimochi,  L. Vogt,  O. Vydrov,  M. A. Watson,  J. Wenzel,  
 M. de Wergifosse,  T. A. Wesolowski,  A. White,  J. Witte,  A. Yamada,  
 Jun Yang,  K. Yao,  S. Yeganeh,  S. R. Yost,  Zhi-Qiang You,  A. Zech,  
 Igor Ying Zhang,  Xing Zhang,  Yan Zhao,  Ying Zhu,  B. R. Brooks,  
 G. K. L. Chan,  C. J. Cramer,  M. S. Gordon,  W. J. Hehre,  A. Klamt,  
 M. W. Schmidt,  C. D. Sherrill,  D. G. Truhlar,  A. Aspuru-Guzik,  R. Baer,  
 A. T. Bell,  N. A. Besley,  Jeng-Da Chai,  R. A. DiStasio Jr.,  A. Dreuw,  
 B. D. Dunietz,  T. R. Furlani,  Chao-Ping Hsu,  Yousung Jung,  Jing Kong,  
 D. S. Lambrecht,  WanZhen Liang,  C. Ochsenfeld,  V. A. Rassolov,  
 L. V. Slipchenko,  J. E. Subotnik,  T. Van Voorhis,  J. M. Herbert,  
 A. I. Krylov,  P. M. W. Gill,  M. Head-Gordon

 Contributors to earlier versions of Q-Chem not listed above: 
 R. D. Adamson,  B. Austin,  J. Baker,  G. J. O. Beran,  K. Brandhorst,  
 S. T. Brown,  E. F. C. Byrd,  A. K. Chakraborty,  C.-L. Cheng,  
 Siu Hung Chien,  D. M. Chipman,  D. L. Crittenden,  H. Dachsel,  
 R. J. Doerksen,  A. D. Dutoi,  L. Fusti-Molnar,  W. A. Goddard III,  
 A. Golubeva-Zadorozhnaya,  S. R. Gwaltney,  G. Hawkins,  A. Heyden,  
 S. Hirata,  G. Kedziora,  F. J. Keil,  C. Kelley,  Jihan Kim,  R. A. King,  
 R. Z. Khaliullin,  P. P. Korambath,  W. Kurlancheek,  A. M. Lee,  M. S. Lee,  
 S. V. Levchenko,  Ching Yeh Lin,  D. Liotard,  R. C. Lochan,  I. Lotan,  
 P. E. Maslen,  N. Nair,  D. P. O'Neill,  D. Neuhauser,  E. Neuscamman,  
 C. M. Oana,  R. Olson,  B. Peters,  R. Peverati,  P. A. Pieniazek,  
 Y. M. Rhee,  J. Ritchie,  M. A. Rohrdanz,  E. Rosta,  N. J. Russ,  
 H. F. Schaefer III,  N. E. Schultz,  N. Shenvi,  A. C. Simmonett,  A. Sodt,  
 D. Stuck,  K. S. Thanthiriwatte,  V. Vanovschi,  Tao Wang,  A. Warshel,  
 C. F. Williams,  Q. Wu,  X. Xu,  W. Zhang

 Please cite Q-Chem as follows:
 Y. Shao et al., Mol. Phys. 113, 184-215 (2015)
 DOI: 10.1080/00268976.2014.952696

 Q-Chem 5.0.2 for Intel X86 EM64T Linux

 Parts of Q-Chem use Armadillo 5.200.1 (Boston Tea Smuggler).
 http://arma.sourceforge.net/

 Q-Chem begins on Fri Mar  4 14:12:25 2022  

Host: 
0

     Scratch files written to ./qcts1.d//
 Dec517 15110_ 26548  26544 5633   
Processing $rem in /home/leeping/opt/qchem/5.0.2-openmp/config/preferences.
 MEM_STATIC 2000
 MEM_TOTAL  8000
 SYMMETRY   OFF
 SYM_IGNORE TRUE 

Checking the input file for inconsistencies... 	...done.

--------------------------------------------------------------
User input:
--------------------------------------------------------------
$molecule
0 2
C        1.6819772115    0.4842555239   -0.3492597867
C        1.1589924081   -0.8435413589   -0.4744597036
C       -0.2581162249   -0.9762137347   -0.3994887033
C       -1.2440230062    0.6376212360    0.9389887612
C       -0.4947819096    1.1335871218   -0.2784319554
N        0.8393204173    1.4699189932   -0.2182422282
H        2.7476928875    0.6819545187   -0.4435667168
H        1.8223227758   -1.6642807607   -0.6995976802
H       -0.6473071056   -1.8120127607   -0.9795014283
H       -1.8689381432    1.2308315474    1.5928963370
H       -1.0797785699    1.7798284578   -0.9512383141
C       -1.1147472970   -0.6765902214    0.8295417137
H       -1.6027831594   -1.4634024367    1.3998291467
$end

$rem
method                b3lyp
basis                 6-31g(d)
unrestricted          true
symmetry              off
sym_ignore            true
incdft                false
incfock               0
scf_convergence       6
thresh                14
jobtype               sp
scf_guess             read
scf_algorithm         diis
max_scf_cycles        100
stability_analysis    true
max_cis_cycles        100
cis_n_roots           4
$end

--------------------------------------------------------------
 ----------------------------------------------------------------
             Standard Nuclear Orientation (Angstroms)
    I     Atom           X                Y                Z
 ----------------------------------------------------------------
    1      C       1.6819772115     0.4842555239    -0.3492597867
    2      C       1.1589924081    -0.8435413589    -0.4744597036
    3      C      -0.2581162249    -0.9762137347    -0.3994887033
    4      C      -1.2440230062     0.6376212360     0.9389887612
    5      C      -0.4947819096     1.1335871218    -0.2784319554
    6      N       0.8393204173     1.4699189932    -0.2182422282
    7      H       2.7476928875     0.6819545187    -0.4435667168
    8      H       1.8223227758    -1.6642807607    -0.6995976802
    9      H      -0.6473071056    -1.8120127607    -0.9795014283
   10      H      -1.8689381432     1.2308315474     1.5928963370
   11      H      -1.0797785699     1.7798284578    -0.9512383141
   12      C      -1.1147472970    -0.6765902214     0.8295417137
   13      H      -1.6027831594    -1.4634024367     1.3998291467
 ----------------------------------------------------------------
 Nuclear Repulsion Energy =   267.4851436816 hartrees
 There are       25 alpha and       24 beta electrons
 Requested basis set is 6-31G(d)
 There are 40 shells and 117 basis functions

 Total QAlloc Memory Limit   8000 MB
 Mega-Array Size      1956 MB
 MEM_STATIC part      2000 MB

                       Distance Matrix (Angstroms)
             C (  1)   C (  2)   C (  3)   C (  4)   C (  5)   N (  6)
   C (  2)  1.432562
   C (  3)  2.428880  1.425279
   C (  4)  3.200716  3.156923  2.316894
   C (  5)  2.272648  2.585040  2.126482  1.513095
   N (  6)  1.303368  2.349454  2.687151  2.524326  1.377160
   H (  7)  1.087993  2.202739  3.433126  4.224597  3.277939  2.076907
   H (  8)  2.181431  1.079031  2.211725  4.169676  3.657105  3.319820
   H (  9)  3.331009  2.110858  1.089240  3.168183  3.031719  3.682479
   H ( 10)  4.115622  4.212523  3.381626  1.081671  2.323711  3.266810
   H ( 11)  3.109370  3.481592  2.928366  2.214627  1.101144  2.077563
   C ( 12)  3.249431  2.626440  1.527778  1.325082  2.211042  3.086055
   H ( 13)  4.200278  3.394789  2.298484  2.180684  3.284598  4.145648
             H (  7)   H (  8)   H (  9)   H ( 10)   H ( 11)   C ( 12)
   H (  8)  2.535090
   H (  9)  4.246543  2.489828
   H ( 10)  5.075601  5.221361  4.167555
   H ( 11)  4.014050  4.510810  3.617894  2.719704
   C ( 12)  4.287761  3.455457  2.186395  2.188555  3.034204
   H ( 13)  5.189153  4.022350  2.587601  2.714224  4.039752  1.087419

 
 A cutoff of  1.0D-14 yielded    801 shell pairs
 There are      7073 function pairs
 Smallest overlap matrix eigenvalue = 1.36E-03

 Scale SEOQF with 1.000000e-01/1.000000e-01/1.000000e-01

 Standard Electronic Orientation quadrupole field applied
 Nucleus-field energy     =     0.0000000040 hartrees
 Guess MOs from SCF MO coefficient file
 Reading MOs from coefficient file
 Reading MOs from coefficient file
 An unrestricted hybrid HF-DFT SCF calculation will be
 performed using Pulay DIIS extrapolation
 Exchange:     0.2000 Hartree-Fock + 0.0800 Slater + 0.7200 B88
 Correlation:  0.1900 VWN1RPA + 0.8100 LYP
 Using SG-1 standard quadrature grid
 SCF converges when DIIS error is below 1.0E-06
Using Q-Chem read-in guess as SCF_GUESS READ specified.

 -------------------------------------------------------
 OpenMP BLAS3 based DFT computing Module                
 -------------------------------------------------------
 ---------------------------------------
  Cycle       Energy         DIIS Error
 ---------------------------------------
    1    -286.8341414927      2.83E-09
    2    -286.8341414927      4.00E-09 Convergence criterion met
 ---------------------------------------
 <S^2> = 0.7799
 SCF time:  CPU 3.08 s  wall 3.20 s
 SCF   energy in the final basis set = -286.83414149
 Total energy in the final basis set = -286.83414149
 
 Direct TDDFT/TDA calculation will be performed
 Exchange:     0.2000 Hartree-Fock + 0.0800 Slater + 0.7200 B88
 Correlation:  0.1900 VWN1RPA + 0.8100 LYP
 Using SG-1 standard quadrature grid
 CIS energy converged when residual is below 10e- 6
 ---------------------------------------------------
 Iter    Rts Conv    Rts Left    Ttl Dev     Max Dev
 ---------------------------------------------------
   1         0           4      0.006399    0.002359
   2         0           4      0.001715    0.000544
   3         0           4      0.000993    0.000469
   4         0           4      0.000606    0.000244
   5         0           4      0.000414    0.000269
   6         0           4      0.000176    0.000125
   7         1           3      0.000055    0.000040
   8         1           3      0.000015    0.000011
   9         3           1      0.000004    0.000003
  10         4           0      0.000001    0.000001    Roots Converged
 ---------------------------------------------------
 
 ---------------------------------------------------
         TDDFT/TDA Excitation Energies              
 ---------------------------------------------------

 Excited state   1: excitation energy (eV) =    1.6609
 Total energy for state  1:                  -286.77310469 au
    <S**2>     :  0.7905
    Trans. Mom.: -0.3129 X   0.0466 Y   0.1000 Z
    Strength   :     0.0044781478
    D( 24) --> S(  1) amplitude =  0.9753 beta

 Excited state   2: excitation energy (eV) =    2.9045
 Total energy for state  2:                  -286.72740476 au
    <S**2>     :  1.4129
    Trans. Mom.: -0.1735 X   0.2482 Y  -0.0013 Z
    Strength   :     0.0065230281
    D( 24) --> V(  1) amplitude =  0.2239 alpha
    S(  1) --> V(  1) amplitude =  0.8430 alpha
    D( 23) --> S(  1) amplitude = -0.1917 beta
    D( 24) --> V(  1) amplitude =  0.3336 beta

 Excited state   3: excitation energy (eV) =    3.3323
 Total energy for state  3:                  -286.71168207 au
    <S**2>     :  0.9219
    Trans. Mom.: -0.0176 X  -0.1562 Y  -0.0051 Z
    Strength   :     0.0020191417
    D( 24) --> V(  1) amplitude =  0.2282 alpha
    S(  1) --> V(  1) amplitude =  0.1790 alpha
    D( 22) --> S(  1) amplitude = -0.2801 beta
    D( 23) --> S(  1) amplitude =  0.8735 beta

 Excited state   4: excitation energy (eV) =    3.5475
 Total energy for state  4:                  -286.70377380 au
    <S**2>     :  1.6242
    Trans. Mom.:  0.2115 X   0.0249 Y  -0.0735 Z
    Strength   :     0.0044104723
    D( 24) --> V(  1) amplitude =  0.5034 alpha
    S(  1) --> V(  1) amplitude = -0.4109 alpha
    D( 22) --> S(  1) amplitude =  0.4808 beta
    D( 24) --> V(  1) amplitude =  0.5324 beta
 
 ---------------------------------------------------

 Stability analysis will be performed
 ---------------------------------------------------
 Iter    Rts Conv    Rts Left    Ttl Dev     Max Dev
 ---------------------------------------------------
   1         0           8      0.006640    0.001002
   2         0           8      0.002780    0.000610
   3         0           8      0.001364    0.000388
   4         1           7      0.001223    0.000542
   5         2           6      0.001251    0.000619
   6         4           4      0.000464    0.000221
   7         4           4      0.000138    0.000065
   8         5           3      0.000042    0.000019
   9         6           2      0.000012    0.000005
  10         6           2      0.000005    0.000001
  11         8           0      0.000003    0.000001    Roots Converged
 UKS-> UKS   stable,    smallest eigenvalue:      0.0503041
 UKS->CUKS   stable,    smallest eigenvalue:      0.0608246
 ---------------------------------------------------
  SETman timing summary (seconds)
  CPU time                83.43s
  System time              0.00s
  Wall time               83.69s
 
 --------------------------------------------------------------
 
                    Orbital Energies (a.u.)
 --------------------------------------------------------------
 
 Alpha MOs
 -- Occupied --
-14.340 -10.243 -10.224 -10.203 -10.198 -10.197 -10.192  -0.946
 -0.816  -0.765  -0.669  -0.638  -0.537  -0.533  -0.517  -0.463
 -0.441  -0.417  -0.400  -0.370  -0.340  -0.301  -0.280  -0.220
 -0.187
 -- Virtual --
 -0.025   0.026   0.043   0.113   0.134   0.149   0.164   0.170
  0.178   0.221   0.264   0.284   0.323   0.356   0.415   0.443
  0.506   0.515   0.530   0.540   0.563   0.595   0.604   0.613
  0.627   0.634   0.665   0.668   0.685   0.726   0.748   0.795
  0.823   0.833   0.847   0.862   0.873   0.880   0.909   0.935
  0.961   0.998   1.052   1.084   1.115   1.173   1.244   1.294
  1.358   1.396   1.457   1.477   1.522   1.537   1.626   1.666
  1.712   1.816   1.854   1.877   1.911   1.952   1.980   2.021
  2.094   2.106   2.166   2.181   2.210   2.265   2.293   2.297
  2.394   2.425   2.498   2.532   2.589   2.617   2.655   2.681
  2.702   2.834   2.884   2.972   3.071   3.940   4.079   4.184
  4.276   4.308   4.451   4.543
 
 Beta MOs
 -- Occupied --
-14.332 -10.238 -10.225 -10.201 -10.200 -10.193 -10.192  -0.932
 -0.811  -0.755  -0.664  -0.630  -0.532  -0.527  -0.512  -0.458
 -0.434  -0.408  -0.396  -0.361  -0.326  -0.281  -0.272  -0.210
 -- Virtual --
 -0.097  -0.011   0.036   0.059   0.117   0.136   0.154   0.166
  0.171   0.182   0.228   0.270   0.289   0.326   0.361   0.420
  0.448   0.511   0.521   0.533   0.546   0.568   0.601   0.609
  0.618   0.632   0.641   0.669   0.679   0.695   0.731   0.753
  0.800   0.830   0.837   0.854   0.866   0.879   0.884   0.912
  0.940   0.967   1.004   1.054   1.087   1.121   1.177   1.247
  1.302   1.362   1.405   1.463   1.484   1.534   1.545   1.637
  1.678   1.716   1.827   1.859   1.888   1.918   1.958   1.990
  2.028   2.100   2.109   2.173   2.192   2.219   2.275   2.298
  2.308   2.400   2.431   2.507   2.541   2.598   2.623   2.662
  2.686   2.709   2.838   2.888   2.979   3.078   3.951   4.086
  4.185   4.278   4.318   4.459   4.546
 --------------------------------------------------------------
 
          Ground-State Mulliken Net Atomic Charges

     Atom                 Charge (a.u.)    Spin (a.u.)
  --------------------------------------------------------
      1 C                     0.054554      -0.052193
      2 C                    -0.116128       0.432380
      3 C                    -0.223588      -0.143148
      4 C                    -0.085577      -0.042982
      5 C                    -0.055640       0.342651
      6 N                    -0.330087       0.338491
      7 H                     0.144386       0.001636
      8 H                     0.139483      -0.025601
      9 H                     0.130596       0.021572
     10 H                     0.141815       0.003487
     11 H                     0.154076       0.014522
     12 C                    -0.095799       0.089477
     13 H                     0.141910       0.019708
  --------------------------------------------------------
  Sum of atomic charges =    -0.000000
  Sum of spin   charges =     1.000000

 -----------------------------------------------------------------
                    Cartesian Multipole Moments
 -----------------------------------------------------------------
    Charge (ESU x 10^10)
                 0.0000
    Dipole Moment (Debye)
         X      -0.5891      Y      -1.2260      Z       0.0849
       Tot       1.3629
    Quadrupole Moments (Debye-Ang)
        XX     -36.8243     XY      -2.5219     YY     -40.6916
        XZ      -1.9250     YZ       0.0981     ZZ     -41.2547
    Octopole Moments (Debye-Ang^2)
       XXX       1.2164    XXY      -5.7358    XYY     -10.2197
       YYY     -25.7881    XXZ       0.3715    XYZ       0.9440
       YYZ      -0.8294    XZZ      -6.2579    YZZ      -5.5240
       ZZZ       1.5805
    Hexadecapole Moments (Debye-Ang^3)
      XXXX    -340.8202   XXXY      -8.4496   XXYY    -103.0203
      XYYY     -21.4250   YYYY    -303.0605   XXXZ      51.1083
      XXYZ      -0.1627   XYYZ      17.4789   YYYZ      -1.0937
      XXZZ     -80.0237   XYZZ      -4.2001   YYZZ     -67.5855
      XZZZ      59.5953   YZZZ      -2.6823   ZZZZ    -143.7918
 -----------------------------------------------------------------
Archival summary:
1\1\c8-66\SP\ProcedureUnspecified\6-31G*\166(2)\hpark21\FriMar414:13:532022FriMar414:13:532022\0\\#,ProcedureUnspecified,6-31G*,\\0,2\N\C,1,1.30337\H,2,1.08799,1,120.304\C,1,1.37716,2,115.927,3,171.979,0\H,4,1.10114,1,113.455,2,-131.98,0\C,2,1.43256,1,118.275,3,-174.999,0\H,6,1.07903,2,119.921,1,172.843,0\C,6,1.42528,2,116.401,1,-2.01929,0\H,8,1.08924,6,113.495,2,149.934,0\C,4,1.5131,1,121.64,2,84.2868,0\H,10,1.08167,4,126.35,1,97.406,0\C,10,1.32508,4,102.142,1,-92.8225,0\H,12,1.08742,10,129.089,4,-170.659,0\\\@

 Total job time:  87.41s(wall), 86.67s(cpu) 
 Fri Mar  4 14:13:53 2022

        *************************************************************
        *                                                           *
        *  Thank you very much for using Q-Chem.  Have a nice day.  *
        *                                                           *
        *************************************************************


