
Running Job 1 of 1 qcts1.in
qchem qcts1.in_2968.0 ./qcts1.d/ 1
/home/leeping/opt/qchem/5.0.2-openmp/exe/qcprog.exe_s qcts1.in_2968.0 ./qcts1.d/
Check license passed

                  Welcome to Q-Chem
     A Quantum Leap Into The Future Of Chemistry


 Q-Chem 5.0, Q-Chem, Inc., Pleasanton, CA (2017)

 Yihan Shao,  Zhengting Gan,  E. Epifanovsky,  A. T. B. Gilbert,  M. Wormit,  
 J. Kussmann,  A. W. Lange,  A. Behn,  Jia Deng,  Xintian Feng,  D. Ghosh,  
 M. Goldey,  P. R. Horn,  L. D. Jacobson,  I. Kaliman,  T. Kus,  A. Landau,  
 Jie Liu,  E. I. Proynov,  R. M. Richard,  R. P. Steele,  E. J. Sundstrom,  
 H. L. Woodcock III,  P. M. Zimmerman,  D. Zuev,  B. Albrecht,  E. Alguire,  
 S. A. Baeppler,  D. Barton,  Z. Benda,  Y. A. Bernard,  E. J. Berquist,  
 K. B. Bravaya,  H. Burton,  D. Casanova,  Chun-Min Chang,  Yunqing Chen,  
 A. Chien,  K. D. Closser,  M. P. Coons,  S. Dasgupta,  A. L. Dempwolff,  
 M. Diedenhofen,  Hainam Do,  R. G. Edgar,  Po-Tung Fang,  S. Fatehi,  
 Qingguo Feng,  J. Fosso-Tande,  Qinghui Ge,  A. Ghysels,  G. Gidofalvi,  
 J. Gomes,  J. Gonthier,  A. Gunina,  M. W. D. Hanson-Heine,  
 P. H. P. Harbach,  A. W. Hauser,  J. E. Herr,  E. G. Hohenstein,  
 Z. C. Holden,  Kerwin Hui,  T.-C. Jagau,  Hyunjun Ji,  B. Kaduk,  
 K. Khistyaev,  Jaehoon Kim,  P. Klunzinger,  K. Koh,  D. Kosenkov,  
 L. Koulias,  T. Kowalczyk,  C. M. Krauter,  A. Kunitsa,  Ka Un Lao,  
 A. Laurent,  K. V. Lawler,  Joonho Lee,  D. Lefrancois,  S. Lehtola,  
 D. S. Levine,  Yi-Pei Li,  You-Sheng Lin,  Fenglai Liu,  E. Livshits,  
 A. Luenser,  P. Manohar,  E. Mansoor,  S. F. Manzer,  Shan-Ping Mao,  
 Yuezhi Mao,  N. Mardirossian,  A. V. Marenich,  T. Markovich,  
 L. A. Martinez-Martinez,  S. A. Maurer,  N. J. Mayhall,  S. C. McKenzie,  
 J.-M. Mewes,  A. F. Morrison,  J. W. Mullinax,  K. Nanda,  
 T. S. Nguyen-Beck,  R. Olivares-Amaya,  J. A. Parkhill,  T. M. Perrine,  
 F. Plasser,  S. Prager,  A. Prociuk,  E. Ramos,  D. R. Rehn,  F. Rob,  
 M. Schneider,  N. Sergueev,  S. M. Sharada,  S. Sharma,  D. W. Small,  
 T. Stauch,  T. Stein,  Yu-Chuan Su,  A. J. W. Thom,  A. Tkatchenko,  
 T. Tsuchimochi,  L. Vogt,  O. Vydrov,  M. A. Watson,  J. Wenzel,  
 M. de Wergifosse,  T. A. Wesolowski,  A. White,  J. Witte,  A. Yamada,  
 Jun Yang,  K. Yao,  S. Yeganeh,  S. R. Yost,  Zhi-Qiang You,  A. Zech,  
 Igor Ying Zhang,  Xing Zhang,  Yan Zhao,  Ying Zhu,  B. R. Brooks,  
 G. K. L. Chan,  C. J. Cramer,  M. S. Gordon,  W. J. Hehre,  A. Klamt,  
 M. W. Schmidt,  C. D. Sherrill,  D. G. Truhlar,  A. Aspuru-Guzik,  R. Baer,  
 A. T. Bell,  N. A. Besley,  Jeng-Da Chai,  R. A. DiStasio Jr.,  A. Dreuw,  
 B. D. Dunietz,  T. R. Furlani,  Chao-Ping Hsu,  Yousung Jung,  Jing Kong,  
 D. S. Lambrecht,  WanZhen Liang,  C. Ochsenfeld,  V. A. Rassolov,  
 L. V. Slipchenko,  J. E. Subotnik,  T. Van Voorhis,  J. M. Herbert,  
 A. I. Krylov,  P. M. W. Gill,  M. Head-Gordon

 Contributors to earlier versions of Q-Chem not listed above: 
 R. D. Adamson,  B. Austin,  J. Baker,  G. J. O. Beran,  K. Brandhorst,  
 S. T. Brown,  E. F. C. Byrd,  A. K. Chakraborty,  C.-L. Cheng,  
 Siu Hung Chien,  D. M. Chipman,  D. L. Crittenden,  H. Dachsel,  
 R. J. Doerksen,  A. D. Dutoi,  L. Fusti-Molnar,  W. A. Goddard III,  
 A. Golubeva-Zadorozhnaya,  S. R. Gwaltney,  G. Hawkins,  A. Heyden,  
 S. Hirata,  G. Kedziora,  F. J. Keil,  C. Kelley,  Jihan Kim,  R. A. King,  
 R. Z. Khaliullin,  P. P. Korambath,  W. Kurlancheek,  A. M. Lee,  M. S. Lee,  
 S. V. Levchenko,  Ching Yeh Lin,  D. Liotard,  R. C. Lochan,  I. Lotan,  
 P. E. Maslen,  N. Nair,  D. P. O'Neill,  D. Neuhauser,  E. Neuscamman,  
 C. M. Oana,  R. Olson,  B. Peters,  R. Peverati,  P. A. Pieniazek,  
 Y. M. Rhee,  J. Ritchie,  M. A. Rohrdanz,  E. Rosta,  N. J. Russ,  
 H. F. Schaefer III,  N. E. Schultz,  N. Shenvi,  A. C. Simmonett,  A. Sodt,  
 D. Stuck,  K. S. Thanthiriwatte,  V. Vanovschi,  Tao Wang,  A. Warshel,  
 C. F. Williams,  Q. Wu,  X. Xu,  W. Zhang

 Please cite Q-Chem as follows:
 Y. Shao et al., Mol. Phys. 113, 184-215 (2015)
 DOI: 10.1080/00268976.2014.952696

 Q-Chem 5.0.2 for Intel X86 EM64T Linux

 Parts of Q-Chem use Armadillo 5.200.1 (Boston Tea Smuggler).
 http://arma.sourceforge.net/

 Q-Chem begins on Fri Mar  4 14:13:57 2022  

Host: 
0

     Scratch files written to ./qcts1.d//
 Dec517 15110_ 26548  26544 5633   
Processing $rem in /home/leeping/opt/qchem/5.0.2-openmp/config/preferences.
 MEM_STATIC 2000
 MEM_TOTAL  8000
 SYMMETRY   OFF
 SYM_IGNORE TRUE 

Checking the input file for inconsistencies... 	...done.

--------------------------------------------------------------
User input:
--------------------------------------------------------------
$molecule
0 2
C        1.6819772115    0.4842555239   -0.3492597867
C        1.1589924081   -0.8435413589   -0.4744597036
C       -0.2581162249   -0.9762137347   -0.3994887033
C       -1.2440230062    0.6376212360    0.9389887612
C       -0.4947819096    1.1335871218   -0.2784319554
N        0.8393204173    1.4699189932   -0.2182422282
H        2.7476928875    0.6819545187   -0.4435667168
H        1.8223227758   -1.6642807607   -0.6995976802
H       -0.6473071056   -1.8120127607   -0.9795014283
H       -1.8689381432    1.2308315474    1.5928963370
H       -1.0797785699    1.7798284578   -0.9512383141
C       -1.1147472970   -0.6765902214    0.8295417137
H       -1.6027831594   -1.4634024367    1.3998291467
$end

$rem
method                b3lyp
basis                 6-31g(d)
unrestricted          true
symmetry              off
sym_ignore            true
incdft                false
incfock               0
scf_convergence       8
thresh                14
jobtype               freq
scf_guess             read
scf_algorithm         diis
max_scf_cycles        100
$end

--------------------------------------------------------------
 ----------------------------------------------------------------
             Standard Nuclear Orientation (Angstroms)
    I     Atom           X                Y                Z
 ----------------------------------------------------------------
    1      C       1.6819772115     0.4842555239    -0.3492597867
    2      C       1.1589924081    -0.8435413589    -0.4744597036
    3      C      -0.2581162249    -0.9762137347    -0.3994887033
    4      C      -1.2440230062     0.6376212360     0.9389887612
    5      C      -0.4947819096     1.1335871218    -0.2784319554
    6      N       0.8393204173     1.4699189932    -0.2182422282
    7      H       2.7476928875     0.6819545187    -0.4435667168
    8      H       1.8223227758    -1.6642807607    -0.6995976802
    9      H      -0.6473071056    -1.8120127607    -0.9795014283
   10      H      -1.8689381432     1.2308315474     1.5928963370
   11      H      -1.0797785699     1.7798284578    -0.9512383141
   12      C      -1.1147472970    -0.6765902214     0.8295417137
   13      H      -1.6027831594    -1.4634024367     1.3998291467
 ----------------------------------------------------------------
 Nuclear Repulsion Energy =   267.4851436816 hartrees
 There are       25 alpha and       24 beta electrons
 Requested basis set is 6-31G(d)
 There are 40 shells and 117 basis functions

 Total QAlloc Memory Limit   8000 MB
 Mega-Array Size      1956 MB
 MEM_STATIC part      2000 MB

                       Distance Matrix (Angstroms)
             C (  1)   C (  2)   C (  3)   C (  4)   C (  5)   N (  6)
   C (  2)  1.432562
   C (  3)  2.428880  1.425279
   C (  4)  3.200716  3.156923  2.316894
   C (  5)  2.272648  2.585040  2.126482  1.513095
   N (  6)  1.303368  2.349454  2.687151  2.524326  1.377160
   H (  7)  1.087993  2.202739  3.433126  4.224597  3.277939  2.076907
   H (  8)  2.181431  1.079031  2.211725  4.169676  3.657105  3.319820
   H (  9)  3.331009  2.110858  1.089240  3.168183  3.031719  3.682479
   H ( 10)  4.115622  4.212523  3.381626  1.081671  2.323711  3.266810
   H ( 11)  3.109370  3.481592  2.928366  2.214627  1.101144  2.077563
   C ( 12)  3.249431  2.626440  1.527778  1.325082  2.211042  3.086055
   H ( 13)  4.200278  3.394789  2.298484  2.180684  3.284598  4.145648
             H (  7)   H (  8)   H (  9)   H ( 10)   H ( 11)   C ( 12)
   H (  8)  2.535090
   H (  9)  4.246543  2.489828
   H ( 10)  5.075601  5.221361  4.167555
   H ( 11)  4.014050  4.510810  3.617894  2.719704
   C ( 12)  4.287761  3.455457  2.186395  2.188555  3.034204
   H ( 13)  5.189153  4.022350  2.587601  2.714224  4.039752  1.087419

 
 A cutoff of  1.0D-14 yielded    801 shell pairs
 There are      7073 function pairs
 Smallest overlap matrix eigenvalue = 1.36E-03
 Guess MOs from SCF MO coefficient file
 Reading MOs from coefficient file
 Reading MOs from coefficient file
 An unrestricted hybrid HF-DFT SCF calculation will be
 performed using Pulay DIIS extrapolation
 Exchange:     0.2000 Hartree-Fock + 0.0800 Slater + 0.7200 B88
 Correlation:  0.1900 VWN1RPA + 0.8100 LYP
 Using SG-1 standard quadrature grid
 SCF converges when DIIS error is below 1.0E-08
Using Q-Chem read-in guess as SCF_GUESS READ specified.

 -------------------------------------------------------
 OpenMP BLAS3 based DFT computing Module                
 -------------------------------------------------------
 ---------------------------------------
  Cycle       Energy         DIIS Error
 ---------------------------------------
    1    -286.8341414927      1.53E-09
    2    -286.8341414927      3.52E-09 Convergence criterion met
 ---------------------------------------
 <S^2> = 0.7799
 SCF time:  CPU 3.15 s  wall 3.28 s
 SCF   energy in the final basis set = -286.83414149
 Total energy in the final basis set = -286.83414149
 
 --------------------------------------------------------------
 
                    Orbital Energies (a.u.)
 --------------------------------------------------------------
 
 Alpha MOs
 -- Occupied --
-14.340 -10.243 -10.224 -10.203 -10.198 -10.197 -10.192  -0.946
 -0.816  -0.765  -0.669  -0.638  -0.537  -0.533  -0.517  -0.463
 -0.441  -0.417  -0.400  -0.370  -0.340  -0.301  -0.280  -0.220
 -0.187
 -- Virtual --
 -0.025   0.026   0.043   0.113   0.134   0.149   0.164   0.170
  0.178   0.221   0.264   0.284   0.323   0.356   0.415   0.443
  0.506   0.515   0.530   0.540   0.563   0.595   0.604   0.613
  0.627   0.634   0.665   0.668   0.685   0.726   0.748   0.795
  0.823   0.833   0.847   0.862   0.873   0.880   0.909   0.935
  0.961   0.998   1.052   1.084   1.115   1.173   1.244   1.294
  1.358   1.396   1.457   1.477   1.522   1.537   1.626   1.666
  1.712   1.816   1.854   1.877   1.911   1.952   1.980   2.021
  2.094   2.106   2.166   2.181   2.210   2.265   2.293   2.297
  2.394   2.425   2.498   2.532   2.589   2.617   2.655   2.681
  2.702   2.834   2.884   2.972   3.071   3.940   4.079   4.184
  4.276   4.308   4.451   4.543
 
 Beta MOs
 -- Occupied --
-14.332 -10.238 -10.225 -10.201 -10.200 -10.193 -10.192  -0.932
 -0.811  -0.755  -0.664  -0.630  -0.532  -0.527  -0.512  -0.458
 -0.434  -0.408  -0.396  -0.361  -0.326  -0.281  -0.272  -0.210
 -- Virtual --
 -0.097  -0.011   0.036   0.059   0.117   0.136   0.154   0.166
  0.171   0.182   0.228   0.270   0.289   0.326   0.361   0.420
  0.448   0.511   0.521   0.533   0.546   0.568   0.601   0.609
  0.618   0.632   0.641   0.669   0.679   0.695   0.731   0.753
  0.800   0.830   0.837   0.854   0.866   0.879   0.884   0.912
  0.940   0.967   1.004   1.054   1.087   1.121   1.177   1.247
  1.302   1.362   1.405   1.463   1.484   1.534   1.545   1.637
  1.678   1.716   1.827   1.859   1.888   1.918   1.958   1.990
  2.028   2.100   2.109   2.173   2.192   2.219   2.275   2.298
  2.308   2.400   2.431   2.507   2.541   2.598   2.623   2.662
  2.686   2.709   2.838   2.888   2.979   3.078   3.951   4.086
  4.185   4.278   4.318   4.459   4.546
 --------------------------------------------------------------
 
          Ground-State Mulliken Net Atomic Charges

     Atom                 Charge (a.u.)    Spin (a.u.)
  --------------------------------------------------------
      1 C                     0.054554      -0.052193
      2 C                    -0.116128       0.432380
      3 C                    -0.223588      -0.143148
      4 C                    -0.085577      -0.042983
      5 C                    -0.055640       0.342651
      6 N                    -0.330087       0.338490
      7 H                     0.144386       0.001636
      8 H                     0.139483      -0.025601
      9 H                     0.130596       0.021572
     10 H                     0.141815       0.003488
     11 H                     0.154076       0.014522
     12 C                    -0.095798       0.089479
     13 H                     0.141910       0.019708
  --------------------------------------------------------
  Sum of atomic charges =     0.000000
  Sum of spin   charges =     1.000000

 -----------------------------------------------------------------
                    Cartesian Multipole Moments
 -----------------------------------------------------------------
    Charge (ESU x 10^10)
                 0.0000
    Dipole Moment (Debye)
         X      -0.5891      Y      -1.2260      Z       0.0849
       Tot       1.3629
    Quadrupole Moments (Debye-Ang)
        XX     -36.8243     XY      -2.5219     YY     -40.6916
        XZ      -1.9250     YZ       0.0981     ZZ     -41.2547
    Octopole Moments (Debye-Ang^2)
       XXX       1.2164    XXY      -5.7358    XYY     -10.2197
       YYY     -25.7881    XXZ       0.3715    XYZ       0.9440
       YYZ      -0.8294    XZZ      -6.2579    YZZ      -5.5240
       ZZZ       1.5805
    Hexadecapole Moments (Debye-Ang^3)
      XXXX    -340.8202   XXXY      -8.4496   XXYY    -103.0203
      XYYY     -21.4250   YYYY    -303.0605   XXXZ      51.1083
      XXYZ      -0.1627   XYYZ      17.4789   YYYZ      -1.0937
      XXZZ     -80.0237   XYZZ      -4.2001   YYZZ     -67.5855
      XZZZ      59.5953   YZZZ      -2.6823   ZZZZ    -143.7918
 -----------------------------------------------------------------
 Calculating MO derivatives via CPSCF
   1         3          39      0.277310    0.068016
   2         3          39      0.037405    0.008360
   3         3          39      0.006663    0.001681
   4         3          39      0.000849    0.000224
   5        23          19      0.000071    0.000020
   6        40           2      0.000002    0.000001
   7        42           0      0.000000    0.000000    Roots Converged
 Time for AOints: 5.7 s (CPU) 5.7 s (wall)
 ------------------------------------------------------------------------------
                     AOints        : Timing summary (seconds)
 ------------------------------------------------------------------------------
     job step          cpu (% of tot)      sys (% of tot)     wall (% of tot)
 ------------------------------------------------------------------------------
  cpscf_lag         0.5416E+02 (28.0)   0.2900E-04 (36.7)   0.5423E+02 (28.0)
  iterzp            0.1335E+03 (69.0)   0.4800E-04 (60.8)   0.1337E+03 (69.0)
  make_fx           0.0000E+00 ( 0.0)   0.0000E+00 ( 0.0)   0.0000E+00 ( 0.0)
  AOints            0.5693E+01 ( 2.9)   0.1000E-05 ( 1.3)   0.5704E+01 ( 2.9)
 ------------------------------------------------------------------------------
   Grand Totals     0.1935E+03          0.7900E-04          0.1938E+03
 ------------------------------------------------------------------------------
 Calculating analytic Hessian of the SCF energy
 Polarizability Matrix (a.u.)
            1           2           3
    1 -74.9671495   2.1253617  13.0074554
    2   2.1253617 -76.8520786  -2.4834962
    3  13.0074554  -2.4834962 -42.3472807
 
 Direct stationary perturbation theory relativistic correction:
 
 rels  =       0.069246643744
 relv  =      -0.336994531407
 rel2e =       0.154838339429
 E_rel =      -0.112909548235
 
 Hessian of the SCF Energy
            1           2           3           4           5           6
    1   0.8031412  -0.0375614  -0.0442163  -0.1377224  -0.0901327  -0.0063688
    2  -0.0375614   0.5849772   0.0395919  -0.0441073  -0.2026803  -0.0197580
    3  -0.0442163   0.0395919   0.1340716   0.0275923  -0.0060978  -0.0587859
    4  -0.1377224  -0.0441073   0.0275923   0.6148176  -0.0674147  -0.0681430
    5  -0.0901327  -0.2026803  -0.0060978  -0.0674147   0.6094452   0.1051522
    6  -0.0063688  -0.0197580  -0.0587859  -0.0681430   0.1051522   0.1418543
    7  -0.0232632  -0.0356576  -0.0264311  -0.2826101  -0.0085427   0.0226654
    8  -0.0253193  -0.0119550   0.0297483  -0.0694851  -0.0751798  -0.0193201
    9  -0.0026106  -0.0018576   0.0009596   0.0163050  -0.0223804  -0.0582138
   10  -0.0004704  -0.0018565  -0.0009809   0.0028786  -0.0008497   0.0045023
   11   0.0041703   0.0027700  -0.0048593  -0.0026433  -0.0050068   0.0022199
   12  -0.0015303   0.0057512   0.0057365  -0.0111599  -0.0064825  -0.0034044
   13  -0.0792009   0.0204750   0.0030712  -0.0107887  -0.0045055  -0.0037200
   14   0.0121607   0.0108704  -0.0261019   0.0556710  -0.0218264   0.0069830
   15   0.0017436  -0.0074719  -0.0118887   0.0267150   0.0060290  -0.0040096
   16  -0.2406887   0.1661077   0.0272501   0.0121132   0.0566069   0.0044007
   17   0.1822334  -0.2928253  -0.0259414   0.0018495  -0.0826093  -0.0132397
   18   0.0241048  -0.0099576  -0.0422170  -0.0260580  -0.0276647   0.0169725
   19  -0.3181592  -0.0611914   0.0221230  -0.0049678   0.0023980   0.0010990
   20  -0.0621846  -0.0719620   0.0016197  -0.0267491   0.0012118   0.0024536
   21   0.0267850  -0.0002772  -0.0428568  -0.0020613   0.0017155   0.0039112
   22   0.0091955  -0.0088091  -0.0014041  -0.1680495   0.1429933   0.0392325
   23   0.0202050  -0.0136838  -0.0063682   0.1391733  -0.2280508  -0.0580243
   24  -0.0001008   0.0033355   0.0049860   0.0298743  -0.0619758  -0.0402834
   25  -0.0062559   0.0003402  -0.0016545  -0.0085194  -0.0299151  -0.0152087
   26  -0.0008764  -0.0003242   0.0002064  -0.0091231   0.0000346  -0.0024598
   27   0.0002102   0.0025187  -0.0008086   0.0078088  -0.0004225   0.0037728
   28  -0.0009325   0.0008214   0.0009890  -0.0000246  -0.0030656  -0.0003267
   29  -0.0008724   0.0003987   0.0001175  -0.0000746  -0.0009618  -0.0002656
   30   0.0004032   0.0008154   0.0013372  -0.0000683  -0.0025136  -0.0003286
   31  -0.0035703  -0.0059503  -0.0026814   0.0004610   0.0012927  -0.0003332
   32  -0.0016999  -0.0035421  -0.0006495   0.0056716   0.0028676   0.0012321
   33   0.0003868  -0.0054600  -0.0012189   0.0039848   0.0025465   0.0017581
   34  -0.0021539   0.0099298  -0.0035251  -0.0211414  -0.0010743   0.0218564
   35   0.0000657  -0.0031579  -0.0017981   0.0197821   0.0036092  -0.0037890
   36   0.0012696  -0.0048847   0.0087468  -0.0020038   0.0104472  -0.0010817
   37   0.0000808  -0.0025405  -0.0001323   0.0035536   0.0022094   0.0003442
   38  -0.0001883   0.0011143   0.0005323  -0.0025503  -0.0008531  -0.0011841
   39  -0.0000764  -0.0023457   0.0019381  -0.0027859   0.0016467  -0.0021615
            7           8           9          10          11          12
    1  -0.0232632  -0.0253193  -0.0026106  -0.0004704   0.0041703  -0.0015303
    2  -0.0356576  -0.0119550  -0.0018576  -0.0018565   0.0027700   0.0057512
    3  -0.0264311   0.0297483   0.0009596  -0.0009809  -0.0048593   0.0057365
    4  -0.2826101  -0.0694851   0.0163050   0.0028786  -0.0026433  -0.0111599
    5  -0.0085427  -0.0751798  -0.0223804  -0.0008497  -0.0050068  -0.0064825
    6   0.0226654  -0.0193201  -0.0582138   0.0045023   0.0022199  -0.0034044
    7   0.5169702   0.1532658  -0.0455440  -0.0057047   0.0094154   0.0288393
    8   0.1532658   0.2910236   0.2013991   0.0328274  -0.0199139  -0.0450751
    9  -0.0455440   0.2013991   0.3271943   0.0146172  -0.0253066  -0.0143268
   10  -0.0057047   0.0328274   0.0146172   0.3057630  -0.1421128  -0.2208539
   11   0.0094154  -0.0199139  -0.0253066  -0.1421128   0.8437385   0.0991466
   12   0.0288393  -0.0450751  -0.0143268  -0.2208539   0.0991466   0.4024718
   13  -0.0094428  -0.0077727  -0.0061194  -0.0843666  -0.0040943   0.0434246
   14  -0.0391820   0.1067740  -0.0112620  -0.0183198  -0.0744942   0.0532588
   15  -0.0312383   0.0354655  -0.0190421   0.0495410   0.0449496  -0.1586460
   16  -0.0103155  -0.0328453  -0.0030342  -0.0218449  -0.0128082   0.0094687
   17   0.0157444  -0.0276082  -0.0017332  -0.0045339   0.0004605  -0.0009436
   18   0.0191206  -0.0305895  -0.0000941   0.0234189   0.0073967   0.0043639
   19   0.0003804  -0.0010340  -0.0005222  -0.0007113   0.0000578   0.0002967
   20  -0.0011262  -0.0036801  -0.0012834   0.0004106   0.0000720   0.0004537
   21   0.0000850   0.0004427   0.0040129  -0.0027377   0.0005065   0.0011636
   22  -0.0097390   0.0145868   0.0122379   0.0000331   0.0017476   0.0005674
   23  -0.0070515   0.0077314   0.0033170  -0.0000807  -0.0001274   0.0005064
   24   0.0142600  -0.0181985   0.0077058   0.0020525   0.0015673  -0.0042180
   25  -0.0832312  -0.0681557  -0.0503671  -0.0027930   0.0006172   0.0038483
   26  -0.0735459  -0.2195575  -0.1209006   0.0030304  -0.0001430  -0.0036697
   27  -0.0588023  -0.1027819  -0.1203851   0.0013913  -0.0010486  -0.0027423
   28   0.0113220   0.0013270   0.0037708  -0.1408482   0.0992979   0.1161014
   29   0.0016606  -0.0030281   0.0002670   0.0937685  -0.1473115  -0.0933443
   30   0.0082183  -0.0006705  -0.0001883   0.1142219  -0.0979953  -0.1555899
   31   0.0015746  -0.0001866   0.0014749   0.0097006  -0.0080808   0.0117015
   32  -0.0046818   0.0057324   0.0037366   0.0031452  -0.0028809   0.0079987
   33  -0.0029574   0.0022465   0.0026649  -0.0122823   0.0175319  -0.0131085
   34  -0.0996674   0.0129023   0.0527321  -0.0683492   0.0456706   0.0179907
   35  -0.0186717  -0.0555884  -0.0194411   0.0490545  -0.5882905  -0.0354430
   36   0.0595504  -0.0602742  -0.1259271   0.0277400  -0.0426374  -0.0696622
   37  -0.0062733  -0.0101105   0.0070594   0.0067130   0.0087627   0.0013054
   38   0.0083732   0.0052497  -0.0045549  -0.0144833  -0.0088729   0.0178429
   39   0.0122342   0.0076076  -0.0043601  -0.0006302  -0.0014713   0.0079625
           13          14          15          16          17          18
    1  -0.0792009   0.0121607   0.0017436  -0.2406887   0.1822334   0.0241048
    2   0.0204750   0.0108704  -0.0074719   0.1661077  -0.2928253  -0.0099576
    3   0.0030712  -0.0261019  -0.0118887   0.0272501  -0.0259414  -0.0422170
    4  -0.0107887   0.0556710   0.0267150   0.0121132   0.0018495  -0.0260580
    5  -0.0045055  -0.0218264   0.0060290   0.0566069  -0.0826093  -0.0276647
    6  -0.0037200   0.0069830  -0.0040096   0.0044007  -0.0132397   0.0169725
    7  -0.0094428  -0.0391820  -0.0312383  -0.0103155   0.0157444   0.0191206
    8  -0.0077727   0.1067740   0.0354655  -0.0328453  -0.0276082  -0.0305895
    9  -0.0061194  -0.0112620  -0.0190421  -0.0030342  -0.0017332  -0.0000941
   10  -0.0843666  -0.0183198   0.0495410  -0.0218449  -0.0045339   0.0234189
   11  -0.0040943  -0.0744942   0.0449496  -0.0128082   0.0004605   0.0073967
   12   0.0434246   0.0532588  -0.1586460   0.0094687  -0.0009436   0.0043639
   13   0.5576646  -0.0416937   0.0157405  -0.2605297  -0.0287625  -0.0052810
   14  -0.0416937   0.1951047  -0.2170842  -0.0103002  -0.0448344   0.0405461
   15   0.0157405  -0.2170842   0.3820517  -0.0009998   0.0126454  -0.0605229
   16  -0.2605297  -0.0103002  -0.0009998   0.5575755  -0.1881279  -0.0225932
   17  -0.0287625  -0.0448344   0.0126454  -0.1881279   0.4351914   0.0266540
   18  -0.0052810   0.0405461  -0.0605229  -0.0225932   0.0266540   0.0909721
   19   0.0006479   0.0013350   0.0016386  -0.0231953   0.0038558   0.0001066
   20   0.0029103  -0.0026441  -0.0014994   0.0312671   0.0052734  -0.0008324
   21  -0.0008943  -0.0047706   0.0114275   0.0038546   0.0023410  -0.0046862
   22  -0.0038684   0.0027986   0.0009687   0.0020899  -0.0044979  -0.0001634
   23  -0.0028161  -0.0031380  -0.0015723   0.0012951  -0.0037688  -0.0001533
   24  -0.0011698   0.0176050   0.0086133   0.0007214  -0.0045523  -0.0007262
   25  -0.0002137  -0.0092422   0.0003341   0.0031102   0.0025578   0.0022656
   26  -0.0013739   0.0187712   0.0024447  -0.0061151  -0.0040868  -0.0041666
   27   0.0019051  -0.0166271  -0.0041874   0.0066159   0.0045400   0.0049550
   28  -0.0047078   0.0070279   0.0041193   0.0012033  -0.0011618  -0.0001581
   29  -0.0081730   0.0068174   0.0046691   0.0020293   0.0000271   0.0013767
   30   0.0052471  -0.0099138  -0.0045183  -0.0000327  -0.0012757  -0.0021031
   31  -0.1118564   0.0712332  -0.0827911  -0.0300469   0.0199361  -0.0185070
   32   0.0901430  -0.1375877   0.1067272  -0.0091698   0.0138827  -0.0076430
   33  -0.0730210   0.0907904  -0.1414505  -0.0105272   0.0051130   0.0037395
   34  -0.0013292  -0.0304718   0.0076317   0.0113036  -0.0004428   0.0049439
   35  -0.0140019  -0.0503123   0.0141368   0.0018400   0.0015216   0.0047520
   36   0.0140143   0.0720686  -0.0005237  -0.0147474  -0.0057397  -0.0090475
   37   0.0079918  -0.0010169   0.0065967  -0.0007748   0.0013497  -0.0011996
   38  -0.0003348  -0.0035006   0.0005604   0.0002203  -0.0006239   0.0002815
   39   0.0068027   0.0045076   0.0026967  -0.0003769   0.0021321  -0.0016060
           19          20          21          22          23          24
    1  -0.3181592  -0.0621846   0.0267850   0.0091955   0.0202050  -0.0001008
    2  -0.0611914  -0.0719620  -0.0002772  -0.0088091  -0.0136838   0.0033355
    3   0.0221230   0.0016197  -0.0428568  -0.0014041  -0.0063682   0.0049860
    4  -0.0049678  -0.0267491  -0.0020613  -0.1680495   0.1391733   0.0298743
    5   0.0023980   0.0012118   0.0017155   0.1429933  -0.2280508  -0.0619758
    6   0.0010990   0.0024536   0.0039112   0.0392325  -0.0580243  -0.0402834
    7   0.0003804  -0.0011262   0.0000850  -0.0097390  -0.0070515   0.0142600
    8  -0.0010340  -0.0036801   0.0004427   0.0145868   0.0077314  -0.0181985
    9  -0.0005222  -0.0012834   0.0040129   0.0122379   0.0033170   0.0077058
   10  -0.0007113   0.0004106  -0.0027377   0.0000331  -0.0000807   0.0020525
   11   0.0000578   0.0000720   0.0005065   0.0017476  -0.0001274   0.0015673
   12   0.0002967   0.0004537   0.0011636   0.0005674   0.0005064  -0.0042180
   13   0.0006479   0.0029103  -0.0008943  -0.0038684  -0.0028161  -0.0011698
   14   0.0013350  -0.0026441  -0.0047706   0.0027986  -0.0031380   0.0176050
   15   0.0016386  -0.0014994   0.0114275   0.0009687  -0.0015723   0.0086133
   16  -0.0231953   0.0312671   0.0038546   0.0020899   0.0012951   0.0007214
   17   0.0038558   0.0052734   0.0023410  -0.0044979  -0.0037688  -0.0045523
   18   0.0001066  -0.0008324  -0.0046862  -0.0001634  -0.0001533  -0.0007262
   19   0.3469335   0.0551955  -0.0251527   0.0002392  -0.0006470  -0.0001734
   20   0.0551955   0.0711563  -0.0011037   0.0008797   0.0002909   0.0004765
   21  -0.0251527  -0.0011037   0.0284109  -0.0001405   0.0004783  -0.0014584
   22   0.0002392   0.0008797  -0.0001405   0.1702564  -0.1497884  -0.0480310
   23  -0.0006470   0.0002909   0.0004783  -0.1497884   0.2397169   0.0613250
   24  -0.0001734   0.0004765  -0.0014584  -0.0480310   0.0613250   0.0295915
   25  -0.0003670  -0.0015747   0.0006142   0.0013663   0.0007015   0.0003721
   26  -0.0001286   0.0001465  -0.0000553  -0.0012804   0.0003017   0.0011071
   27   0.0001690  -0.0002525  -0.0000216   0.0008316   0.0003768  -0.0001964
   28  -0.0001431  -0.0000226  -0.0003207   0.0003401   0.0002803  -0.0011161
   29  -0.0000841   0.0000811  -0.0003589   0.0001696   0.0001867  -0.0002986
   30   0.0001209  -0.0000486   0.0002025   0.0005540   0.0001570  -0.0010124
   31  -0.0005426   0.0007498   0.0013391   0.0000213   0.0001151  -0.0001208
   32   0.0000754   0.0003469   0.0001046   0.0001158   0.0000507   0.0013765
   33   0.0000996   0.0002635  -0.0006398  -0.0000207   0.0000968   0.0006261
   34   0.0000020   0.0002835  -0.0013039  -0.0015568  -0.0014182   0.0034677
   35   0.0001671  -0.0003390   0.0008846   0.0010841   0.0004686  -0.0018740
   36   0.0001533  -0.0003867   0.0005435  -0.0043728  -0.0001607  -0.0029558
   37  -0.0001167  -0.0000393  -0.0000669  -0.0003283   0.0000316  -0.0000359
   38   0.0000005   0.0000462   0.0000925   0.0000004   0.0000219   0.0001062
   39   0.0000416   0.0001396  -0.0000092  -0.0002595   0.0000215  -0.0006721
           25          26          27          28          29          30
    1  -0.0062559  -0.0008764   0.0002102  -0.0009325  -0.0008724   0.0004032
    2   0.0003402  -0.0003242   0.0025187   0.0008214   0.0003987   0.0008154
    3  -0.0016545   0.0002064  -0.0008086   0.0009890   0.0001175   0.0013372
    4  -0.0085194  -0.0091231   0.0078088  -0.0000246  -0.0000746  -0.0000683
    5  -0.0299151   0.0000346  -0.0004225  -0.0030656  -0.0009618  -0.0025136
    6  -0.0152087  -0.0024598   0.0037728  -0.0003267  -0.0002656  -0.0003286
    7  -0.0832312  -0.0735459  -0.0588023   0.0113220   0.0016606   0.0082183
    8  -0.0681557  -0.2195575  -0.1027819   0.0013270  -0.0030281  -0.0006705
    9  -0.0503671  -0.1209006  -0.1203851   0.0037708   0.0002670  -0.0001883
   10  -0.0027930   0.0030304   0.0013913  -0.1408482   0.0937685   0.1142219
   11   0.0006172  -0.0001430  -0.0010486   0.0992979  -0.1473115  -0.0979953
   12   0.0038483  -0.0036697  -0.0027423   0.1161014  -0.0933443  -0.1555899
   13  -0.0002137  -0.0013739   0.0019051  -0.0047078  -0.0081730   0.0052471
   14  -0.0092422   0.0187712  -0.0166271   0.0070279   0.0068174  -0.0099138
   15   0.0003341   0.0024447  -0.0041874   0.0041193   0.0046691  -0.0045183
   16   0.0031102  -0.0061151   0.0066159   0.0012033   0.0020293  -0.0000327
   17   0.0025578  -0.0040868   0.0045400  -0.0011618   0.0000271  -0.0012757
   18   0.0022656  -0.0041666   0.0049550  -0.0001581   0.0013767  -0.0021031
   19  -0.0003670  -0.0001286   0.0001690  -0.0001431  -0.0000841   0.0001209
   20  -0.0015747   0.0001465  -0.0002525  -0.0000226   0.0000811  -0.0000486
   21   0.0006142  -0.0000553  -0.0000216  -0.0003207  -0.0003589   0.0002025
   22   0.0013663  -0.0012804   0.0008316   0.0003401   0.0001696   0.0005540
   23   0.0007015   0.0003017   0.0003768   0.0002803   0.0001867   0.0001570
   24   0.0003721   0.0011071  -0.0001964  -0.0011161  -0.0002986  -0.0010124
   25   0.0910923   0.0891825   0.0479929  -0.0018486   0.0007450  -0.0005251
   26   0.0891825   0.2090278   0.1364490   0.0011572  -0.0001239  -0.0006238
   27   0.0479929   0.1364490   0.1249581   0.0001815  -0.0011637   0.0016349
   28  -0.0018486   0.0011572   0.0001815   0.1344115  -0.1046904  -0.1260810
   29   0.0007450  -0.0001239  -0.0011637  -0.1046904   0.1456585   0.1082572
   30  -0.0005251  -0.0006238   0.0016349  -0.1260810   0.1082572   0.1569968
   31   0.0001306   0.0001048  -0.0000066   0.0001324   0.0005631  -0.0001743
   32  -0.0005119   0.0005667  -0.0008360   0.0003432   0.0000257   0.0008962
   33  -0.0003530   0.0004703  -0.0003042   0.0006944  -0.0001382   0.0003354
   34   0.0070569  -0.0015864  -0.0085243   0.0030996   0.0159589   0.0000537
   35   0.0159658  -0.0047898  -0.0215487  -0.0019627  -0.0022868   0.0030874
   36   0.0130106  -0.0075815  -0.0083653   0.0038662  -0.0190820   0.0045913
   37   0.0004723   0.0005550   0.0002269  -0.0020041  -0.0010002  -0.0019375
   38  -0.0007103   0.0001766   0.0007964   0.0006483   0.0005169  -0.0001720
   39  -0.0003294  -0.0012203   0.0016902  -0.0017201  -0.0000364  -0.0013576
           31          32          33          34          35          36
    1  -0.0035703  -0.0016999   0.0003868  -0.0021539   0.0000657   0.0012696
    2  -0.0059503  -0.0035421  -0.0054600   0.0099298  -0.0031579  -0.0048847
    3  -0.0026814  -0.0006495  -0.0012189  -0.0035251  -0.0017981   0.0087468
    4   0.0004610   0.0056716   0.0039848  -0.0211414   0.0197821  -0.0020038
    5   0.0012927   0.0028676   0.0025465  -0.0010743   0.0036092   0.0104472
    6  -0.0003332   0.0012321   0.0017581   0.0218564  -0.0037890  -0.0010817
    7   0.0015746  -0.0046818  -0.0029574  -0.0996674  -0.0186717   0.0595504
    8  -0.0001866   0.0057324   0.0022465   0.0129023  -0.0555884  -0.0602742
    9   0.0014749   0.0037366   0.0026649   0.0527321  -0.0194411  -0.1259271
   10   0.0097006   0.0031452  -0.0122823  -0.0683492   0.0490545   0.0277400
   11  -0.0080808  -0.0028809   0.0175319   0.0456706  -0.5882905  -0.0426374
   12   0.0117015   0.0079987  -0.0131085   0.0179907  -0.0354430  -0.0696622
   13  -0.1118564   0.0901430  -0.0730210  -0.0013292  -0.0140019   0.0140143
   14   0.0712332  -0.1375877   0.0907904  -0.0304718  -0.0503123   0.0720686
   15  -0.0827911   0.1067272  -0.1414505   0.0076317   0.0141368  -0.0005237
   16  -0.0300469  -0.0091698  -0.0105272   0.0113036   0.0018400  -0.0147474
   17   0.0199361   0.0138827   0.0051130  -0.0004428   0.0015216  -0.0057397
   18  -0.0185070  -0.0076430   0.0037395   0.0049439   0.0047520  -0.0090475
   19  -0.0005426   0.0000754   0.0000996   0.0000020   0.0001671   0.0001533
   20   0.0007498   0.0003469   0.0002635   0.0002835  -0.0003390  -0.0003867
   21   0.0013391   0.0001046  -0.0006398  -0.0013039   0.0008846   0.0005435
   22   0.0000213   0.0001158  -0.0000207  -0.0015568   0.0010841  -0.0043728
   23   0.0001151   0.0000507   0.0000968  -0.0014182   0.0004686  -0.0001607
   24  -0.0001208   0.0013765   0.0006261   0.0034677  -0.0018740  -0.0029558
   25   0.0001306  -0.0005119  -0.0003530   0.0070569   0.0159658   0.0130106
   26   0.0001048   0.0005667   0.0004703  -0.0015864  -0.0047898  -0.0075815
   27  -0.0000066  -0.0008360  -0.0003042  -0.0085243  -0.0215487  -0.0083653
   28   0.0001324   0.0003432   0.0006944   0.0030996  -0.0019627   0.0038662
   29   0.0005631   0.0000257  -0.0001382   0.0159589  -0.0022868  -0.0190820
   30  -0.0001743   0.0008962   0.0003354   0.0000537   0.0030874   0.0045913
   31   0.1357958  -0.0806897   0.0904413  -0.0003583   0.0014583   0.0011309
   32  -0.0806897   0.1221418  -0.1132502  -0.0005410  -0.0011354   0.0003420
   33   0.0904413  -0.1132502   0.1512412   0.0031753  -0.0012317  -0.0052915
   34  -0.0003583  -0.0005410   0.0031753   0.2730346   0.0417221  -0.1722159
   35   0.0014583  -0.0011354  -0.0012317   0.0417221   0.9058660  -0.0441090
   36   0.0011309   0.0003420  -0.0052915  -0.1722159  -0.0441090   0.3370712
   37  -0.0014418  -0.0022001   0.0003795  -0.0999405  -0.0965034   0.0726045
   38  -0.0005457  -0.0004683   0.0010212  -0.0909327  -0.2055651   0.1019980
   39  -0.0014734  -0.0000350   0.0016483   0.0737177   0.1063739  -0.1280980
           37          38          39
    1   0.0000808  -0.0001883  -0.0000764
    2  -0.0025405   0.0011143  -0.0023457
    3  -0.0001323   0.0005323   0.0019381
    4   0.0035536  -0.0025503  -0.0027859
    5   0.0022094  -0.0008531   0.0016467
    6   0.0003442  -0.0011841  -0.0021615
    7  -0.0062733   0.0083732   0.0122342
    8  -0.0101105   0.0052497   0.0076076
    9   0.0070594  -0.0045549  -0.0043601
   10   0.0067130  -0.0144833  -0.0006302
   11   0.0087627  -0.0088729  -0.0014713
   12   0.0013054   0.0178429   0.0079625
   13   0.0079918  -0.0003348   0.0068027
   14  -0.0010169  -0.0035006   0.0045076
   15   0.0065967   0.0005604   0.0026967
   16  -0.0007748   0.0002203  -0.0003769
   17   0.0013497  -0.0006239   0.0021321
   18  -0.0011996   0.0002815  -0.0016060
   19  -0.0001167   0.0000005   0.0000416
   20  -0.0000393   0.0000462   0.0001396
   21  -0.0000669   0.0000925  -0.0000092
   22  -0.0003283   0.0000004  -0.0002595
   23   0.0000316   0.0000219   0.0000215
   24  -0.0000359   0.0001062  -0.0006721
   25   0.0004723  -0.0007103  -0.0003294
   26   0.0005550   0.0001766  -0.0012203
   27   0.0002269   0.0007964   0.0016902
   28  -0.0020041   0.0006483  -0.0017201
   29  -0.0010002   0.0005169  -0.0000364
   30  -0.0019375  -0.0001720  -0.0013576
   31  -0.0014418  -0.0005457  -0.0014734
   32  -0.0022001  -0.0004683  -0.0000350
   33   0.0003795   0.0010212   0.0016483
   34  -0.0999405  -0.0909327   0.0737177
   35  -0.0965034  -0.2055651   0.1063739
   36   0.0726045   0.1019980  -0.1280980
   37   0.0920679   0.1005027  -0.0851445
   38   0.1005027   0.2127583  -0.1173204
   39  -0.0851445  -0.1173204   0.1223288
 Gradient time:  CPU 256.42 s  wall 257.06 s
 **********************************************************************
 **                                                                  **
 **                       VIBRATIONAL ANALYSIS                       **
 **                       --------------------                       **
 **                                                                  **
 **        VIBRATIONAL FREQUENCIES (CM**-1) AND NORMAL MODES         **
 **     FORCE CONSTANTS (mDYN/ANGSTROM) AND REDUCED MASSES (AMU)     **
 **                  INFRARED INTENSITIES (KM/MOL)                   **
 **                                                                  **
 **********************************************************************
 

 Mode:                 1                      2                      3
 Frequency:      -764.11                 220.53                 299.65
 Force Cnst:      1.0818                 0.0841                 0.1598
 Red. Mass:       3.1449                 2.9346                 3.0216
 IR Active:          YES                    YES                    YES
 IR Intens:       27.869                  1.419                  6.793
 Raman Active:       YES                    YES                    YES
               X      Y      Z        X      Y      Z        X      Y      Z
 C         -0.027 -0.013  0.058   -0.003  0.046 -0.012   -0.085 -0.035  0.229
 C         -0.048 -0.012 -0.034   -0.013  0.035  0.158   -0.066 -0.027  0.015
 C          0.084 -0.269  0.071   -0.038 -0.036 -0.034   -0.068  0.005 -0.149
 C          0.020  0.017 -0.040    0.175 -0.042  0.134    0.165  0.012 -0.002
 C         -0.023  0.283  0.086    0.037 -0.010  0.054   -0.074  0.029 -0.124
 N         -0.025 -0.016 -0.047    0.003  0.077 -0.156   -0.082 -0.002 -0.046
 H         -0.029 -0.008  0.039   -0.004  0.024 -0.057   -0.054 -0.063  0.553
 H         -0.054  0.093 -0.431    0.039 -0.006  0.441   -0.002 -0.012  0.143
 H          0.207 -0.511  0.354    0.155 -0.132 -0.027   -0.105  0.012 -0.128
 H         -0.052 -0.061 -0.034    0.389 -0.027  0.317    0.403  0.033  0.200
 H         -0.015  0.359  0.159   -0.136 -0.172  0.059   -0.108  0.090 -0.034
 C          0.023  0.019 -0.085   -0.165 -0.053 -0.150    0.175  0.014  0.005
 H         -0.048  0.041 -0.109   -0.405 -0.048 -0.343    0.431  0.011  0.216
 TransDip  -0.097  0.093  0.103    0.016  0.012  0.033    0.063 -0.002  0.054

 Mode:                 4                      5                      6
 Frequency:       440.85                 529.65                 553.21
 Force Cnst:      0.3069                 0.4157                 0.7756
 Red. Mass:       2.6806                 2.5153                 4.3015
 IR Active:          YES                    YES                    YES
 IR Intens:        6.941                 15.297                 14.320
 Raman Active:       YES                    YES                    YES
               X      Y      Z        X      Y      Z        X      Y      Z
 C          0.019 -0.058 -0.078   -0.029  0.003 -0.160   -0.024  0.053 -0.088
 C          0.055 -0.088  0.161    0.044  0.006  0.005   -0.176  0.063  0.105
 C          0.021  0.114 -0.103    0.008 -0.060 -0.038   -0.162 -0.098  0.003
 C         -0.123 -0.040  0.031    0.057  0.066 -0.028   -0.039 -0.151 -0.185
 C         -0.063  0.156  0.091   -0.051  0.012 -0.051    0.118  0.077 -0.042
 N         -0.003 -0.072 -0.104   -0.082 -0.079  0.235    0.172  0.211  0.057
 H          0.002 -0.018 -0.184   -0.050  0.086 -0.215    0.015 -0.187 -0.188
 H          0.080 -0.165  0.495    0.126 -0.108  0.634   -0.115  0.035  0.348
 H         -0.019  0.145 -0.123    0.159 -0.301  0.200   -0.034 -0.149 -0.016
 H         -0.286 -0.188  0.013    0.368  0.120  0.206    0.198 -0.106  0.005
 H         -0.020  0.437  0.308    0.054  0.090 -0.072    0.213  0.168 -0.035
 C          0.090 -0.008 -0.024    0.003  0.067 -0.070    0.027 -0.161  0.093
 H          0.295 -0.106  0.015    0.108  0.099  0.065    0.379 -0.107  0.452
 TransDip   0.060  0.027  0.052    0.091  0.085  0.017    0.083 -0.088  0.011

 Mode:                 7                      8                      9
 Frequency:       679.78                 709.69                 750.40
 Force Cnst:      0.4493                 0.6454                 0.5129
 Red. Mass:       1.6502                 2.1749                 1.5459
 IR Active:          YES                    YES                    YES
 IR Intens:       27.427                 45.932                 11.474
 Raman Active:       YES                    YES                    YES
               X      Y      Z        X      Y      Z        X      Y      Z
 C          0.041 -0.005  0.048   -0.140 -0.026 -0.020   -0.040  0.016 -0.037
 C         -0.015  0.054 -0.195   -0.031 -0.080  0.036    0.019 -0.029  0.004
 C         -0.014 -0.008 -0.008   -0.000 -0.068 -0.065    0.000  0.001  0.026
 C         -0.058 -0.006  0.038    0.022  0.047  0.038    0.156 -0.023 -0.029
 C          0.020 -0.002  0.026    0.053 -0.026  0.085   -0.031  0.010 -0.077
 N          0.031  0.010 -0.055    0.006  0.120  0.045   -0.013  0.016  0.040
 H          0.070 -0.051  0.330   -0.135 -0.107 -0.145   -0.027  0.016  0.119
 H          0.069 -0.152  0.762    0.094 -0.009  0.142    0.072 -0.020  0.111
 H          0.046 -0.254  0.297   -0.176 -0.014 -0.021   -0.104  0.145 -0.109
 H         -0.192 -0.015 -0.079   -0.490 -0.103 -0.308   -0.295  0.003 -0.470
 H         -0.011 -0.013  0.045   -0.027 -0.503 -0.276   -0.084  0.464  0.374
 C          0.000 -0.002  0.047    0.162  0.069 -0.050   -0.017 -0.048  0.078
 H         -0.100 -0.027 -0.071   -0.134  0.068 -0.296   -0.424  0.044 -0.149
 TransDip   0.039 -0.020  0.162   -0.181 -0.065 -0.101   -0.092 -0.040 -0.042

 Mode:                10                     11                     12
 Frequency:       794.13                 850.23                 909.65
 Force Cnst:      0.8289                 1.0440                 0.9669
 Red. Mass:       2.2309                 2.4513                 1.9833
 IR Active:          YES                    YES                    YES
 IR Intens:        1.929                 11.976                 37.049
 Raman Active:       YES                    YES                    YES
               X      Y      Z        X      Y      Z        X      Y      Z
 C          0.061 -0.021  0.004   -0.098 -0.079 -0.042   -0.053 -0.003 -0.038
 C         -0.139  0.143  0.081    0.014 -0.067 -0.049    0.008 -0.079  0.016
 C         -0.053  0.142  0.022    0.069  0.124  0.215    0.039  0.024 -0.010
 C          0.059 -0.037 -0.003   -0.029 -0.063 -0.028   -0.029  0.025  0.116
 C          0.007 -0.033 -0.041   -0.027  0.104 -0.089   -0.032 -0.121 -0.085
 N         -0.023 -0.104  0.016    0.018  0.064  0.025    0.082  0.118  0.020
 H          0.047 -0.044 -0.176   -0.059 -0.166  0.264    0.001 -0.151  0.254
 H         -0.371  0.028 -0.139   -0.099 -0.191  0.087   -0.058 -0.061 -0.229
 H          0.272 -0.345  0.496   -0.070  0.261  0.107    0.163 -0.310  0.372
 H         -0.233 -0.105 -0.222    0.306 -0.210  0.419   -0.180 -0.000 -0.006
 H          0.020 -0.025 -0.042   -0.047 -0.078 -0.236   -0.065  0.333  0.349
 C          0.118 -0.020 -0.045    0.062 -0.047 -0.054   -0.057  0.045 -0.089
 H         -0.056 -0.127 -0.350   -0.178 -0.174 -0.437    0.457 -0.158  0.063
 TransDip  -0.019  0.020 -0.035   -0.063 -0.090 -0.012    0.009 -0.182  0.070

 Mode:                13                     14                     15
 Frequency:       929.96                 938.12                 948.55
 Force Cnst:      0.8221                 0.8093                 1.2978
 Red. Mass:       1.6134                 1.5607                 2.4481
 IR Active:          YES                    YES                    YES
 IR Intens:        3.064                  6.760                  2.874
 Raman Active:       YES                    YES                    YES
               X      Y      Z        X      Y      Z        X      Y      Z
 C          0.039  0.014 -0.056    0.023  0.022 -0.142   -0.115 -0.055  0.029
 C         -0.036  0.053 -0.007    0.032 -0.015  0.071    0.055 -0.076 -0.041
 C         -0.008 -0.033  0.108   -0.035  0.007 -0.095    0.053  0.174 -0.026
 C          0.086 -0.008  0.057   -0.028 -0.006  0.018    0.113 -0.036 -0.092
 C         -0.002  0.048 -0.008    0.014  0.058  0.010    0.041  0.076  0.115
 N         -0.015 -0.051  0.009   -0.005 -0.021  0.014   -0.046  0.018 -0.011
 H          0.074 -0.015  0.326    0.105 -0.007  0.827   -0.147  0.040 -0.103
 H         -0.086 -0.026  0.134    0.019  0.064 -0.251    0.034 -0.094 -0.029
 H         -0.120  0.272 -0.249    0.078 -0.185  0.101    0.299 -0.213  0.348
 H         -0.408 -0.236 -0.196    0.004  0.011  0.036    0.031  0.229 -0.410
 H          0.014 -0.176 -0.220    0.001 -0.201 -0.209   -0.030 -0.311 -0.170
 C         -0.056  0.001 -0.115    0.001 -0.020  0.081   -0.133 -0.070  0.028
 H          0.458  0.004  0.328   -0.221  0.042 -0.017    0.269 -0.056  0.382
 TransDip   0.018  0.030 -0.044    0.013  0.080  0.019    0.010  0.016  0.051

 Mode:                16                     17                     18
 Frequency:       974.74                1036.85                1108.19
 Force Cnst:      1.3548                 1.2666                 0.8617
 Red. Mass:       2.4201                 1.9996                 1.1909
 IR Active:          YES                    YES                    YES
 IR Intens:       18.423                  2.356                  5.670
 Raman Active:       YES                    YES                    YES
               X      Y      Z        X      Y      Z        X      Y      Z
 C         -0.053  0.037 -0.069   -0.135 -0.149 -0.025    0.003 -0.019  0.001
 C         -0.063  0.025  0.014   -0.017  0.181  0.015   -0.003  0.003 -0.006
 C          0.024  0.002  0.082    0.091 -0.003 -0.017    0.023  0.029 -0.008
 C         -0.015  0.016 -0.157   -0.022  0.016  0.032    0.023 -0.022 -0.067
 C          0.071 -0.137  0.196    0.023 -0.009 -0.020   -0.045 -0.044  0.039
 N         -0.048 -0.030 -0.039    0.026 -0.040 -0.012    0.017  0.025 -0.002
 H         -0.005 -0.007  0.498   -0.060 -0.572  0.035    0.018 -0.088  0.029
 H         -0.091 -0.010  0.075    0.394  0.515  0.035   -0.159 -0.117 -0.015
 H         -0.110  0.164 -0.054    0.290  0.062 -0.232    0.221 -0.055 -0.017
 H          0.343  0.350 -0.136   -0.013  0.039  0.025   -0.097 -0.502  0.244
 H         -0.032  0.120  0.511    0.044  0.073  0.034   -0.131 -0.026  0.131
 C          0.071  0.041 -0.087   -0.024 -0.001  0.032    0.015  0.044 -0.022
 H          0.139 -0.014 -0.114   -0.020  0.013  0.058   -0.290  0.538  0.393
 TransDip   0.053  0.025  0.124   -0.047 -0.014  0.007    0.003 -0.070  0.030

 Mode:                19                     20                     21
 Frequency:      1121.86                1171.40                1306.90
 Force Cnst:      1.1791                 1.2533                 1.5156
 Red. Mass:       1.5901                 1.5502                 1.5061
 IR Active:          YES                    YES                    YES
 IR Intens:       28.452                  1.254                 13.919
 Raman Active:       YES                    YES                    YES
               X      Y      Z        X      Y      Z        X      Y      Z
 C         -0.081  0.041  0.014    0.082 -0.036  0.001   -0.006 -0.007  0.004
 C          0.036 -0.023 -0.007    0.064  0.013  0.004    0.036  0.011 -0.002
 C         -0.076  0.036  0.027   -0.098  0.017  0.028   -0.026  0.014  0.028
 C          0.000 -0.027  0.002    0.026 -0.021 -0.056   -0.055 -0.079  0.107
 C          0.158 -0.019 -0.024   -0.122  0.009  0.038   -0.013  0.009 -0.017
 N         -0.047 -0.054 -0.026    0.045  0.018  0.011   -0.012  0.020 -0.008
 H         -0.127  0.261  0.022    0.130 -0.259 -0.043    0.011 -0.101 -0.010
 H          0.408  0.286 -0.049    0.470  0.350 -0.060   -0.055 -0.056 -0.025
 H         -0.274 -0.068  0.305   -0.456 -0.040  0.347   -0.064  0.010  0.063
 H         -0.114 -0.389  0.219    0.060  0.013 -0.066    0.134  0.536 -0.273
 H          0.392  0.234  0.007   -0.374 -0.175  0.088    0.282  0.154 -0.143
 C         -0.005  0.019 -0.031    0.007  0.005 -0.050    0.075 -0.056 -0.107
 H         -0.020  0.112  0.080    0.042  0.026  0.003   -0.273  0.481  0.346
 TransDip   0.128  0.110  0.029   -0.031 -0.013 -0.013    0.009  0.117 -0.022

 Mode:                22                     23                     24
 Frequency:      1333.98                1358.47                1394.10
 Force Cnst:      1.4360                 1.8238                 2.2672
 Red. Mass:       1.3696                 1.6773                 1.9800
 IR Active:          YES                    YES                    YES
 IR Intens:       11.725                  3.444                 16.183
 Raman Active:       YES                    YES                    YES
               X      Y      Z        X      Y      Z        X      Y      Z
 C          0.013  0.062  0.001    0.004  0.018  0.001   -0.066 -0.028 -0.010
 C         -0.011  0.007  0.012   -0.030 -0.068 -0.026   -0.103  0.048  0.026
 C          0.094 -0.004 -0.048   -0.089  0.023  0.059    0.148 -0.001 -0.051
 C          0.045  0.008 -0.027    0.034  0.040 -0.023    0.004 -0.030  0.008
 C         -0.079 -0.037  0.056   -0.153 -0.043  0.073   -0.094 -0.010 -0.000
 N         -0.030  0.011 -0.015    0.078  0.002 -0.019    0.162 -0.054 -0.003
 H          0.124 -0.511 -0.023   -0.020  0.224  0.075   -0.214  0.745  0.081
 H         -0.143 -0.096  0.010    0.329  0.201  0.013   -0.024  0.120  0.071
 H         -0.389  0.041  0.214    0.557 -0.066 -0.253   -0.430  0.081  0.232
 H          0.009 -0.126  0.056   -0.018 -0.012 -0.032    0.067  0.064 -0.019
 H          0.565  0.187 -0.282    0.483  0.156 -0.277   -0.015 -0.051 -0.096
 C         -0.040 -0.000  0.031    0.030 -0.010 -0.012   -0.020 -0.004 -0.000
 H         -0.007 -0.083 -0.054    0.002 -0.069 -0.124   -0.078  0.094  0.090
 TransDip  -0.009 -0.102  0.039   -0.027 -0.052  0.012   -0.128 -0.001  0.017

 Mode:                25                     26                     27
 Frequency:      1415.53                1552.48                1711.40
 Force Cnst:      3.7999                 7.0538                10.6276
 Red. Mass:       3.2187                 4.9673                 6.1586
 IR Active:          YES                    YES                    YES
 IR Intens:       25.087                  1.510                  3.898
 Raman Active:       YES                    YES                    YES
               X      Y      Z        X      Y      Z        X      Y      Z
 C         -0.085 -0.182 -0.002   -0.257  0.346  0.050    0.012 -0.000 -0.002
 C          0.274  0.205  0.019    0.135  0.009 -0.010   -0.031 -0.009  0.006
 C         -0.154 -0.066  0.002   -0.092 -0.006  0.016    0.030  0.027  0.001
 C          0.026  0.046 -0.038   -0.012  0.013  0.001   -0.020  0.476 -0.016
 C         -0.050 -0.031  0.054   -0.029  0.035 -0.015    0.021 -0.021  0.008
 N          0.033  0.047 -0.024    0.241 -0.248 -0.015   -0.013  0.004  0.003
 H         -0.197  0.334  0.077   -0.097 -0.592 -0.106    0.009  0.017 -0.001
 H         -0.528 -0.393 -0.112   -0.220 -0.278 -0.010    0.018  0.031  0.024
 H         -0.178 -0.064  0.007    0.083 -0.063 -0.040   -0.180  0.000  0.168
 H         -0.066 -0.108  0.013   -0.001  0.038 -0.006   -0.270 -0.030  0.368
 H          0.262  0.144 -0.051   -0.323 -0.210  0.046   -0.128 -0.001  0.137
 C         -0.000 -0.005  0.008    0.022 -0.016 -0.013    0.070 -0.473 -0.092
 H          0.109 -0.165 -0.118   -0.012 -0.002 -0.016   -0.246 -0.065  0.399
 TransDip  -0.116 -0.111 -0.009   -0.012  0.034 -0.016    0.058 -0.018 -0.017

 Mode:                28                     29                     30
 Frequency:      3041.21                3138.34                3186.84
 Force Cnst:      5.9058                 6.2837                 6.5202
 Red. Mass:       1.0838                 1.0828                 1.0897
 IR Active:          YES                    YES                    YES
 IR Intens:       24.452                 25.547                 26.489
 Raman Active:       YES                    YES                    YES
               X      Y      Z        X      Y      Z        X      Y      Z
 C         -0.000 -0.002 -0.001   -0.000  0.001 -0.000   -0.004 -0.001  0.000
 C          0.000 -0.000  0.000   -0.001  0.003  0.001   -0.000  0.001  0.000
 C          0.001  0.001  0.001   -0.031 -0.062 -0.044   -0.002 -0.007 -0.006
 C         -0.000 -0.000 -0.001   -0.000  0.000  0.000    0.009 -0.003 -0.010
 C         -0.044  0.046 -0.053    0.000 -0.001 -0.000    0.000  0.000  0.000
 N         -0.002  0.001  0.000    0.001  0.000  0.000   -0.000 -0.000 -0.000
 H          0.012  0.003 -0.002    0.001 -0.001 -0.000    0.051  0.010 -0.004
 H          0.001 -0.000  0.000    0.033 -0.045 -0.010    0.008 -0.012 -0.002
 H         -0.002 -0.001 -0.003    0.358  0.753  0.532    0.035  0.081  0.059
 H         -0.010  0.014  0.009    0.005 -0.006 -0.006   -0.123  0.117  0.133
 H          0.530 -0.563  0.628    0.002 -0.003  0.002    0.001 -0.006  0.002
 C          0.000  0.000 -0.000    0.003  0.006 -0.004   -0.035 -0.065  0.041
 H         -0.005 -0.006  0.006   -0.046 -0.081  0.056    0.428  0.703 -0.505
 TransDip  -0.068  0.090 -0.111   -0.057 -0.110 -0.104   -0.086 -0.121  0.072

 Mode:                31                     32                     33
 Frequency:      3191.02                3257.66                3268.48
 Force Cnst:      6.5403                 6.8909                 6.8639
 Red. Mass:       1.0902                 1.1021                 1.0905
 IR Active:          YES                    YES                    YES
 IR Intens:       26.038                 22.977                 19.303
 Raman Active:       YES                    YES                    YES
               X      Y      Z        X      Y      Z        X      Y      Z
 C         -0.084 -0.017  0.006    0.000 -0.000  0.000    0.011  0.003 -0.001
 C          0.007 -0.005 -0.002    0.002 -0.002 -0.000    0.052 -0.066 -0.019
 C          0.000  0.000 -0.000   -0.001  0.001  0.001   -0.004 -0.004 -0.002
 C         -0.001  0.000  0.001    0.048 -0.055 -0.051   -0.001  0.001  0.001
 C          0.002 -0.000  0.001   -0.001 -0.002  0.002   -0.000  0.001  0.000
 N          0.000 -0.001 -0.000   -0.000  0.000 -0.000   -0.001  0.001  0.000
 H          0.967  0.188 -0.075    0.001  0.000 -0.000   -0.106 -0.025  0.007
 H         -0.073  0.083  0.025   -0.019  0.025  0.007   -0.600  0.755  0.216
 H         -0.000  0.000  0.000   -0.000 -0.011 -0.006    0.023  0.042  0.028
 H          0.009 -0.008 -0.009   -0.553  0.539  0.593    0.015 -0.015 -0.017
 H         -0.006  0.007 -0.006   -0.007  0.011 -0.014    0.001 -0.001  0.002
 C          0.002  0.003 -0.002    0.007  0.023 -0.009   -0.001 -0.002  0.001
 H         -0.021 -0.035  0.026   -0.090 -0.150  0.103    0.010  0.014 -0.011
 TransDip  -0.157 -0.046  0.006    0.100 -0.039 -0.110    0.105 -0.088 -0.032

 STANDARD THERMODYNAMIC QUANTITIES AT   298.15 K  AND     1.00 ATM

   This Molecule has  1 Imaginary Frequencies
   Zero point vibrational energy:       63.078 kcal/mol

   Atom    1 Element C  Has Mass   12.00000
   Atom    2 Element C  Has Mass   12.00000
   Atom    3 Element C  Has Mass   12.00000
   Atom    4 Element C  Has Mass   12.00000
   Atom    5 Element C  Has Mass   12.00000
   Atom    6 Element N  Has Mass   14.00307
   Atom    7 Element H  Has Mass    1.00783
   Atom    8 Element H  Has Mass    1.00783
   Atom    9 Element H  Has Mass    1.00783
   Atom   10 Element H  Has Mass    1.00783
   Atom   11 Element H  Has Mass    1.00783
   Atom   12 Element C  Has Mass   12.00000
   Atom   13 Element H  Has Mass    1.00783
   Molecular Mass:    92.050050 amu
   Principal axes and moments of inertia in amu*Bohr^2:
                             1           2           3
    Eigenvalues --      365.29282   534.39248   800.92122
          X               0.90668    -0.11747     0.40512
          Y               0.14936     0.98762    -0.04789
          Z              -0.39448     0.10393     0.91301
   Rotational Symmetry Number is   1
   The Molecule is an Asymmetric Top
   Translational Enthalpy:        0.889 kcal/mol
   Rotational Enthalpy:           0.889 kcal/mol
   Vibrational Enthalpy:         64.623 kcal/mol
   gas constant (RT):             0.592 kcal/mol
   Translational Entropy:        39.471  cal/mol.K
   Rotational Entropy:           26.550  cal/mol.K
   Vibrational Entropy:           7.545  cal/mol.K

   Total Enthalpy:               66.993 kcal/mol
   Total Entropy:                73.565  cal/mol.K
Archival summary:
1\1\c8-66\FREQ\ProcedureUnspecified\6-31G*\166(2)\hpark21\FriMar414:18:182022FriMar414:18:182022\0\\#,FREQ,ProcedureUnspecified,6-31G*,\\0,2\N\C,1,1.30337\H,2,1.08799,1,120.304\C,1,1.37716,2,115.927,3,171.979,0\H,4,1.10114,1,113.455,2,-131.98,0\C,2,1.43256,1,118.275,3,-174.999,0\H,6,1.07903,2,119.921,1,172.843,0\C,6,1.42528,2,116.401,1,-2.01929,0\H,8,1.08924,6,113.495,2,149.934,0\C,4,1.5131,1,121.64,2,84.2868,0\H,10,1.08167,4,126.35,1,97.406,0\C,10,1.32508,4,102.142,1,-92.8225,0\H,12,1.08742,10,129.089,4,-170.659,0\\\@

 Total job time:  260.98s(wall), 259.74s(cpu) 
 Fri Mar  4 14:18:18 2022

        *************************************************************
        *                                                           *
        *  Thank you very much for using Q-Chem.  Have a nice day.  *
        *                                                           *
        *************************************************************


