13
image # 1 Energy = -286.87548
C 1.67859   0.48277   -0.32465  
C 1.14705   -0.81175  -0.43626  
C -0.34174  -0.70241  -0.47514  
C -1.21513  0.60156   0.95301   
C -0.52222  0.86456   -0.38433  
N 0.79826   1.47787   -0.29084  
H 2.74118   0.70719   -0.24215  
H 1.72122   -1.73178  -0.44617  
H -0.82562  -1.24678  -1.29668  
H -1.62460  1.28172   1.69379   
H -1.13073  1.35679   -1.15288  
C -1.07615  -0.72643  0.87610   
H -1.35011  -1.55332  1.52621   
13
image # 2 Energy = -286.87322
C 1.68018   0.48406   -0.33946  
C 1.15166   -0.81910  -0.43074  
C -0.33342  -0.72287  -0.46530  
C -1.21881  0.59553   0.94923   
C -0.51505  0.88668   -0.37311  
N 0.81022   1.48413   -0.27981  
H 2.74197   0.70046   -0.29447  
H 1.74697   -1.72677  -0.46203  
H -0.80256  -1.34088  -1.25920  
H -1.67123  1.26869   1.67340   
H -1.12690  1.45082   -1.10980  
C -1.08045  -0.71754  0.87260   
H -1.39632  -1.54528  1.50980   
13
image # 3 Energy = -286.86712
C 1.68602   0.47411   -0.35440  
C 1.16534   -0.81462  -0.42947  
C -0.33252  -0.76058  -0.46183  
C -1.21527  0.57880   0.93077   
C -0.52474  0.92735   -0.36550  
N 0.81431   1.47976   -0.27159  
H 2.75186   0.69697   -0.34768  
H 1.76469   -1.71613  -0.47936  
H -0.77110  -1.41175  -1.20747  
H -1.72583  1.26737   1.66316   
H -1.10714  1.51846   -1.05435  
C -1.08423  -0.69662  0.86072   
H -1.44761  -1.54732  1.49896   
13
image # 4 Energy = -286.86076
C 1.68565   0.47841   -0.37195  
C 1.16788   -0.81398  -0.42840  
C -0.31661  -0.76955  -0.45686  
C -1.24058  0.60386   0.95150   
C -0.50681  0.93584   -0.36091  
N 0.83186   1.47656   -0.26048  
H 2.75840   0.69227   -0.40914  
H 1.79165   -1.71018  -0.50169  
H -0.74001  -1.50723  -1.15625  
H -1.77291  1.24428   1.62966   
H -1.09571  1.60939   -1.00196  
C -1.10350  -0.72122  0.87361   
H -1.49719  -1.52533  1.46946   
13
image # 5 Energy = -286.85177
C 1.70107   0.47773   -0.38780  
C 1.17488   -0.82352  -0.42899  
C -0.31311  -0.79102  -0.44644  
C -1.24342  0.60771   0.94227   
C -0.50579  0.95905   -0.34776  
N 0.83472   1.47829   -0.25296  
H 2.75722   0.68696   -0.45785  
H 1.80987   -1.69876  -0.52069  
H -0.70811  -1.58900  -1.10438  
H -1.81961  1.23334   1.60970   
H -1.08003  1.68652   -0.94870  
C -1.10894  -0.72004  0.86451   
H -1.54414  -1.51695  1.45057   
13
image # 6 Energy = -286.84052
C 1.69415   0.47779   -0.40239  
C 1.17573   -0.82278  -0.43225  
C -0.29685  -0.82013  -0.42842  
C -1.25041  0.60868   0.93615   
C -0.49701  0.98560   -0.32516  
N 0.84551   1.47080   -0.24727  
H 2.76521   0.68467   -0.50823  
H 1.82791   -1.69052  -0.54395  
H -0.67510  -1.67272  -1.04973  
H -1.86563  1.22165   1.58650   
H -1.06672  1.76426   -0.89768  
C -1.11534  -0.71141  0.85164   
H -1.59361  -1.50861  1.42907   
13
image # 7 Energy = -286.82985
C 1.69100   0.46323   -0.40981  
C 1.19818   -0.82289  -0.43939  
C -0.29815  -0.87323  -0.40828  
C -1.25175  0.61807   0.93123   
C -0.49436  1.03647   -0.30200  
N 0.85084   1.48030   -0.23822  
H 2.76561   0.68295   -0.54261  
H 1.83980   -1.68230  -0.57694  
H -0.64294  -1.76142  -0.99759  
H -1.90182  1.21428   1.57314   
H -1.05956  1.83026   -0.86089  
C -1.12330  -0.70736  0.83650   
H -1.63073  -1.49387  1.40141   
13
image # 8 Energy = -286.82562
C 1.68828   0.48941   -0.40480  
C 1.17375   -0.85279  -0.44833  
C -0.24818  -0.98658  -0.39191  
C -1.25756  0.62208   0.93280   
C -0.48462  1.14673   -0.26973  
N 0.85349   1.47283   -0.23285  
H 2.74883   0.67960   -0.54767  
H 1.84130   -1.67402  -0.62107  
H -0.61679  -1.83761  -0.95176  
H -1.90677  1.20527   1.56411   
H -1.06672  1.87894   -0.85422  
C -1.13552  -0.68878  0.82308   
H -1.64966  -1.47313  1.36981   
13
image # 9 Energy = -286.83931
C 1.67602   0.48365   -0.39357  
C 1.16025   -0.86273  -0.45513  
C -0.21673  -1.08421  -0.36686  
C -1.24814  0.62967   0.91976   
C -0.48370  1.24970   -0.23666  
N 0.84521   1.47800   -0.25362  
H 2.73053   0.67453   -0.53848  
H 1.84583   -1.67163  -0.65196  
H -0.59828  -1.91786  -0.91586  
H -1.90598  1.19238   1.55584   
H -1.07691  1.94436   -0.83501  
C -1.13222  -0.68141  0.79471   
H -1.65852  -1.45439  1.34520   
13
image # 10 Energy = -286.85977
C 1.65628   0.47474   -0.37264  
C 1.15306   -0.87441  -0.45826  
C -0.19843  -1.16688  -0.33773  
C -1.23168  0.63243   0.89947   
C -0.48714  1.35058   -0.20175  
N 0.83523   1.48562   -0.29998  
H 2.71462   0.66785   -0.52157  
H 1.84904   -1.67001  -0.67810  
H -0.58363  -1.99704  -0.88585  
H -1.90087  1.17727   1.54776   
H -1.08818  2.01576   -0.80781  
C -1.12072  -0.68163  0.76303   
H -1.66155  -1.43582  1.32300   
13
image # 11 Energy = -286.87816
C 1.64154   0.45206   -0.34374  
C 1.14134   -0.87778  -0.45231  
C -0.18044  -1.24264  -0.31174  
C -1.21541  0.63887   0.87349   
C -0.47744  1.44228   -0.16155  
N 0.80408   1.49436   -0.36272  
H 2.69655   0.66145   -0.49504  
H 1.85253   -1.66807  -0.71288  
H -0.56897  -2.07288  -0.85607  
H -1.88625  1.15842   1.54492   
H -1.10219  2.08700   -0.78443  
C -1.10675  -0.68009  0.72791   
H -1.66264  -1.41600  1.30387   
13
image # 12 Energy = -286.89038
C 1.61968   0.44115   -0.31064  
C 1.14409   -0.88705  -0.44772  
C -0.17779  -1.29679  -0.27760  
C -1.19449  0.64587   0.83907   
C -0.48910  1.52493   -0.13234  
N 0.78714   1.48450   -0.43911  
H 2.67336   0.65465   -0.45767  
H 1.85414   -1.65754  -0.74908  
H -0.55319  -2.15202  -0.82829  
H -1.86228  1.13731   1.54914   
H -1.10991  2.15766   -0.75124  
C -1.08906  -0.68501  0.68599   
H -1.66596  -1.39230  1.28839   
13
image # 13 Energy = -286.89637
C 1.60924   0.42535   -0.31165  
C 1.14323   -0.88251  -0.44880  
C -0.17239  -1.31583  -0.28113  
C -1.16620  0.65577   0.80691   
C -0.49512  1.50694   -0.12036  
N 0.77819   1.48442   -0.47770  
H 2.65951   0.64996   -0.44022  
H 1.86490   -1.64988  -0.77426  
H -0.52446  -2.19619  -0.77968  
H -1.86546  1.12401   1.55458   
H -1.10910  2.22807   -0.71034  
C -1.10201  -0.68971  0.68587   
H -1.68258  -1.36606  1.26555   
13
image # 14 Energy = -286.90070
C 1.60455   0.42215   -0.33966  
C 1.15947   -0.89063  -0.46219  
C -0.17220  -1.32526  -0.25771  
C -1.16230  0.65441   0.82599   
C -0.47395  1.53955   -0.11631  
N 0.75105   1.48237   -0.51000  
H 2.65943   0.65073   -0.44735  
H 1.87258   -1.65446  -0.76669  
H -0.50237  -2.24522  -0.73195  
H -1.87406  1.10798   1.54213   
H -1.10500  2.27125   -0.64227  
C -1.09338  -0.68598  0.65158   
H -1.72387  -1.35309  1.22407   
13
image # 15 Energy = -286.90477
C 1.59101   0.42172   -0.38518  
C 1.14716   -0.88580  -0.46726  
C -0.15667  -1.32647  -0.24642  
C -1.17416  0.66808   0.83730   
C -0.46016  1.54469   -0.10477  
N 0.76266   1.49127   -0.50285  
H 2.67090   0.64509   -0.51565  
H 1.88940   -1.66215  -0.74883  
H -0.46969  -2.27669  -0.66660  
H -1.93318  1.09421   1.47811   
H -1.07186  2.32398   -0.54768  
C -1.09222  -0.71084  0.64740   
H -1.75891  -1.35382  1.19398   
13
image # 16 Energy = -286.90746
C 1.59478   0.40968   -0.40307  
C 1.15276   -0.89163  -0.47850  
C -0.14517  -1.35356  -0.23087  
C -1.16174  0.66330   0.83821   
C -0.44792  1.57232   -0.06722  
N 0.74314   1.50818   -0.53094  
H 2.65857   0.63390   -0.54754  
H 1.88647   -1.65749  -0.74267  
H -0.44308  -2.32976  -0.61056  
H -1.96782  1.07852   1.42642   
H -1.05692  2.38919   -0.47817  
C -1.08258  -0.70079  0.64012   
H -1.78123  -1.34929  1.15918   
13
image # 17 Energy = -286.91022
C 1.57912   0.41389   -0.43947  
C 1.15391   -0.88801  -0.48539  
C -0.14804  -1.37001  -0.20337  
C -1.16586  0.64691   0.81498   
C -0.44080  1.58420   -0.04769  
N 0.75761   1.51579   -0.51615  
H 2.65615   0.62914   -0.60727  
H 1.89844   -1.65797  -0.73733  
H -0.40741  -2.36274  -0.54487  
H -2.02033  1.07637   1.37173   
H -1.01935  2.44043   -0.39432  
C -1.07781  -0.70319  0.63258   
H -1.81085  -1.35224  1.13345   
13
image # 18 Energy = -286.91283
C 1.60246   0.41409   -0.47720  
C 1.16361   -0.89563  -0.49852  
C -0.14195  -1.37227  -0.16637  
C -1.20625  0.65567   0.79409   
C -0.44712  1.58970   -0.01510  
N 0.78589   1.53345   -0.48885  
H 2.63407   0.62156   -0.68212  
H 1.89735   -1.64538  -0.72709  
H -0.37328  -2.40296  -0.48348  
H -2.05454  1.07002   1.29408   
H -0.97756  2.48673   -0.31066  
C -1.08715  -0.72230  0.63035   
H -1.83445  -1.36032  1.11134   
13
image # 19 Energy = -286.91322
C 1.59529   0.41937   -0.50141  
C 1.15793   -0.89907  -0.50974  
C -0.13677  -1.40201  -0.13421  
C -1.21273  0.65290   0.76745   
C -0.41991  1.61025   0.01779   
N 0.77666   1.54870   -0.46903  
H 2.62785   0.61492   -0.73525  
H 1.89871   -1.64521  -0.72624  
H -0.33962  -2.44318  -0.42175  
H -2.09453  1.07470   1.23514   
H -0.95421  2.54200   -0.24322  
C -1.07859  -0.73658  0.62559   
H -1.85230  -1.36411  1.07930   
13
image # 20 Energy = -286.91541
C 1.57972   0.39759   -0.53479  
C 1.16800   -0.87407  -0.51010  
C -0.12670  -1.41367  -0.09863  
C -1.24504  0.65274   0.72350   
C -0.42161  1.60969   0.03982   
N 0.80401   1.55747   -0.43747  
H 2.61804   0.61662   -0.80883  
H 1.90825   -1.64134  -0.73351  
H -0.29802  -2.46387  -0.33981  
H -2.12525  1.06964   1.18047   
H -0.90708  2.57130   -0.15373  
C -1.09763  -0.74221  0.60923   
H -1.88318  -1.36625  1.05237   
13
image # 21 Energy = -286.91797
C 1.56957   0.41969   -0.56909  
C 1.16564   -0.88729  -0.50219  
C -0.11610  -1.41280  -0.06790  
C -1.26535  0.66188   0.66409   
C -0.41619  1.59644   0.05227   
N 0.82820   1.55747   -0.40104  
H 2.60444   0.61697   -0.88785  
H 1.92010   -1.63489  -0.74318  
H -0.25289  -2.46710  -0.24809  
H -2.16712  1.06596   1.13528   
H -0.85182  2.58579   -0.05462  
C -1.12028  -0.75822  0.58573   
H -1.91880  -1.36804  1.02755   
13
image # 22 Energy = -286.91992
C 1.56308   0.42158   -0.59251  
C 1.16491   -0.88931  -0.49785  
C -0.10196  -1.42731  -0.04126  
C -1.27609  0.66754   0.62786   
C -0.41839  1.60840   0.07542   
N 0.84323   1.56307   -0.39466  
H 2.57776   0.61312   -0.93551  
H 1.92406   -1.63181  -0.75636  
H -0.21576  -2.48517  -0.16647  
H -2.18806  1.05913   1.08966   
H -0.81525  2.60580   0.02970   
C -1.13298  -0.76344  0.56334   
H -1.93975  -1.36170  0.99148   
13
image # 23 Energy = -286.92239
C 1.53647   0.42238   -0.60871  
C 1.16963   -0.89627  -0.49674  
C -0.08934  -1.43077  -0.00780  
C -1.28795  0.66867   0.59916   
C -0.40456  1.61378   0.10132   
N 0.85188   1.57049   -0.39442  
H 2.55388   0.60851   -0.98221  
H 1.92154   -1.62710  -0.77059  
H -0.17788  -2.51673  -0.08046  
H -2.20318  1.05127   1.03599   
H -0.78649  2.63893   0.11817   
C -1.13318  -0.76301  0.53521   
H -1.95973  -1.35450  0.94725   
13
image # 24 Energy = -286.92293
C 1.51878   0.42767   -0.62487  
C 1.16183   -0.90472  -0.49004  
C -0.05985  -1.44827  0.00985   
C -1.28958  0.66587   0.56989   
C -0.39222  1.62538   0.12269   
N 0.85274   1.57462   -0.38946  
H 2.53010   0.60362   -1.02516  
H 1.92005   -1.62499  -0.78317  
H -0.14577  -2.53035  -0.00317  
H -2.21898  1.04615   0.98930   
H -0.75931  2.65735   0.19660   
C -1.15049  -0.75484  0.52192   
H -1.97174  -1.34614  0.90436   
13
image # 25 Energy = -286.92434
C 1.50394   0.42531   -0.64422  
C 1.16469   -0.90576  -0.48422  
C -0.05838  -1.45541  0.04194   
C -1.29134  0.67133   0.54111   
C -0.38796  1.63894   0.14546   
N 0.85787   1.58480   -0.38347  
H 2.49594   0.59678   -1.06826  
H 1.91890   -1.62398  -0.79687  
H -0.11290  -2.54166  0.07754   
H -2.23321  1.04227   0.93827   
H -0.72987  2.66758   0.27942   
C -1.14079  -0.76109  0.49359   
H -1.98686  -1.33912  0.85972   
