13   
From optimize.out: Frame 2 / 3, Energy=    -286.8549693703
C        1.6724632058    0.3311160337   -0.3250581421
C        1.0799246500   -0.8827735733   -0.3043633466
C       -0.3513940272   -1.0536564506   -0.0024302983
C       -1.1382218189    0.3660142204    0.1145343891
C       -0.2937296476    1.5327570016   -0.2046341556
N        0.9889836982    1.5484623459   -0.3224042152
H        2.7439088975    0.4214526934   -0.4842405892
H        1.6596517633   -1.7760802000   -0.5235045788
H       -0.8555977654   -1.9047507362   -0.4640319070
H       -2.1712900106    0.4414158576   -0.2307127162
H       -0.8220975223    2.4664347263   -0.4127188969
C       -0.8868972542   -0.5249655330    1.2503662136
H       -1.6257041688   -0.9654263854    1.9091982433
13   
From optimize.out: Frame 1 / 3, Energy=    -286.8549634740
C        1.6722350345    0.3293082468   -0.3254467535
C        1.0774036810   -0.8815963464   -0.3077516043
C       -0.3426260597   -1.0557489319    0.0183466449
C       -1.1567482280    0.3594479356    0.0844829693
C       -0.2936389867    1.5281936988   -0.1866420417
N        0.9915563531    1.5428096763   -0.2699602015
H        2.7380139354    0.4184622327   -0.5146714474
H        1.6497494647   -1.7631856459   -0.5786564319
H       -0.8336490713   -1.9384411658   -0.3979797995
H       -2.1737590675    0.4195588630   -0.3142379723
H       -0.8027951046    2.4769399440   -0.3707161196
C       -0.9036719768   -0.4963380972    1.2446501327
H       -1.6220699742   -0.9394104101    1.9185826249
13   
From optimize.out: Frame 45 / 46, Energy=    -286.8549634740
C        1.6823028506    0.3319656955   -0.2751308300
C        1.0736070372   -0.8732603591   -0.3073167474
C       -0.3464699251   -1.0338218039    0.0100559736
C       -1.1725691271    0.3607372584    0.0515937255
C       -0.2940798688    1.5247920901   -0.1954016353
N        0.9936709144    1.5490629887   -0.1968025809
H        2.7407408127    0.3842658642   -0.5446003583
H        1.6185312747   -1.7709163161   -0.5904433654
H       -0.8063127438   -1.9381148941   -0.3784675873
H       -2.1974783771    0.4595506282   -0.3327847638
H       -0.8306303115    2.4545972459   -0.4067348384
C       -0.8999512582   -0.4760091584    1.2290838732
H       -1.5613612779   -0.9728492396    1.9369491345
13   
From optimize.out: Frame 44 / 46, Energy=    -286.8549599020
C        1.6756245798    0.3331087337   -0.2880087458
C        1.0624809350   -0.8713711198   -0.3288595335
C       -0.3485727782   -1.0154103457   -0.0026394638
C       -1.1848354730    0.3591270668    0.0298425232
C       -0.2920090588    1.5134997819   -0.2167491225
N        0.9959081945    1.5490394743   -0.1989888731
H        2.7376768846    0.3814074219   -0.5226481916
H        1.5975016686   -1.7920960522   -0.5150160459
H       -0.8010196073   -1.9138464750   -0.4008065451
H       -2.2258103422    0.4824542642   -0.3216752983
H       -0.8314993820    2.4455009369   -0.3937199439
C       -0.9018815632   -0.4544313754    1.2247942941
H       -1.4835640577   -1.0169823117    1.9344749460
13   
From optimize.out: Frame 43 / 46, Energy=    -286.8549523897
C        1.6734913423    0.3325553759   -0.3289299554
C        1.0531409507   -0.8676708435   -0.3420650599
C       -0.3548972435   -0.9948140383   -0.0007835220
C       -1.2034275571    0.3650221710    0.0132322910
C       -0.2863767060    1.5016617052   -0.2346695108
N        0.9974209083    1.5455441505   -0.2476682853
H        2.7380275519    0.3910798348   -0.5044069325
H        1.5894900636   -1.8033665286   -0.4156521624
H       -0.8142547848   -1.8904312471   -0.4155238268
H       -2.2419700919    0.4946915886   -0.3150481111
H       -0.8098099327    2.4481830624   -0.3512630562
C       -0.9234645956   -0.4265491864    1.2334172524
H       -1.4173699051   -1.0959060445    1.9093608790
13   
From optimize.out: Frame 41 / 46, Energy=    -286.8549243670
C        1.6799936940    0.3309388986   -0.3660075229
C        1.0662041960   -0.8624941826   -0.3161378636
C       -0.3515573275   -0.9869289707    0.0286036999
C       -1.2279167248    0.3759738432   -0.0083665764
C       -0.2757462589    1.4995274392   -0.2346817994
N        0.9937275809    1.5369324105   -0.3017596257
H        2.7519800217    0.4090919070   -0.5339401122
H        1.6062205296   -1.8080328424   -0.3623985469
H       -0.8317047789   -1.9106457882   -0.4312741701
H       -2.2582535941    0.5132144405   -0.3354094254
H       -0.7794370103    2.4706127658   -0.2974989870
C       -0.9642086431   -0.3926924234    1.2563597309
H       -1.4093016846   -1.1754974975    1.9025111989
13   
From optimize.out: Frame 40 / 46, Energy=    -286.8549042142
C        1.6777034152    0.3231932992   -0.3644828167
C        1.0690357563   -0.8743065964   -0.2815850957
C       -0.3266632282   -0.9512803062    0.0125172626
C       -1.2147642492    0.3576998186    0.0008069747
C       -0.2822708967    1.4893301296   -0.2299191340
N        0.9761118097    1.5174353874   -0.3479749809
H        2.7491433212    0.4117731977   -0.5267262221
H        1.6116391490   -1.8100471165   -0.3903994483
H       -0.8359018762   -1.8551278721   -0.3681416494
H       -2.2303463175    0.5279063641   -0.3454938840
H       -0.7780794406    2.4686701196   -0.2877046651
C       -1.0415679771   -0.3862903039    1.2602983506
H       -1.3740394659   -1.2189561213    1.8688053082
13   
From optimize.out: Frame 39 / 46, Energy=    -286.8548815558
C        1.6769144894    0.3296213084   -0.3837060128
C        1.0463772864   -0.8607155123   -0.2715862125
C       -0.3738106525   -0.9313084913    0.0011118828
C       -1.1987761108    0.3562952833    0.0208110391
C       -0.2715205651    1.5014166442   -0.2504960345
N        0.9848260228    1.5276094438   -0.3933527039
H        2.7555001762    0.4042581799   -0.5007317777
H        1.5951092269   -1.7974318621   -0.3163895241
H       -0.8812914349   -1.8381587379   -0.3613919447
H       -2.2232209060    0.5091601443   -0.3128491029
H       -0.7797437522    2.4722774757   -0.2900367390
C       -1.0014489607   -0.3891226399    1.2752196028
H       -1.3289148196   -1.2839012361    1.7833975274
13   
From optimize.out: Frame 38 / 46, Energy=    -286.8548603203
C        1.6739137695    0.3277699122   -0.3781967830
C        1.0408574473   -0.8656376074   -0.2624889287
C       -0.3963162245   -0.9446320341   -0.0675491328
C       -1.1633813236    0.3449973183    0.0440573804
C       -0.2723995321    1.5315846116   -0.2374889275
N        0.9898461647    1.5348904735   -0.4171249384
H        2.7523227956    0.3998490005   -0.4893724769
H        1.6057941140   -1.7912829785   -0.3322150605
H       -0.9041534625   -1.8716695122   -0.3323758774
H       -2.1875751626    0.4837947152   -0.3111893508
H       -0.7923675148    2.4902731045   -0.2965890813
C       -1.0238283345   -0.3352197705    1.3525295037
H       -1.3227127364   -1.3047172332    1.7280036732
13   
From optimize.out: Frame 37 / 46, Energy=    -286.8548366883
C        1.6683397394    0.3237193421   -0.3538725855
C        1.0310553330   -0.8722578105   -0.2606442184
C       -0.4133741731   -0.9486679488   -0.1443179833
C       -1.1200274749    0.3237840382    0.0661038989
C       -0.2779945021    1.5532253606   -0.2277987949
N        0.9941215033    1.5415417901   -0.4219193733
H        2.7473025547    0.3936630136   -0.4516081934
H        1.6041564254   -1.7859346039   -0.3851427767
H       -0.9282478382   -1.8822898869   -0.3227265222
H       -2.1414257653    0.4410685118   -0.3198288850
H       -0.8136373601    2.4965271148   -0.3273422107
C       -1.0472101900   -0.2859097343    1.4247943772
H       -1.3030582521   -1.2984691870    1.7243032674
13   
From optimize.out: Frame 36 / 46, Energy=    -286.8547896838
C        1.6639619245    0.3242030554   -0.3424335213
C        1.0279391788   -0.8706645331   -0.2496410374
C       -0.4100185752   -0.9550791734   -0.1652608674
C       -1.0885942348    0.3164391396    0.0699396025
C       -0.2768640018    1.5707692648   -0.2236685870
N        0.9967456255    1.5507145408   -0.4301681730
H        2.7415472015    0.3861536804   -0.4514299712
H        1.6050152354   -1.7740852942   -0.4311979866
H       -0.9257365264   -1.8985397083   -0.2371674583
H       -2.1089025929    0.4630766619   -0.3135279696
H       -0.8248939240    2.5040482755   -0.3423559790
C       -1.0846942109   -0.2920374547    1.4330463756
H       -1.3155050995   -1.3249984548    1.6838655727
13   
From optimize.out: Frame 35 / 46, Energy=    -286.8546950526
C        1.6689826002    0.3307076510   -0.3504359912
C        1.0316160802   -0.8703888004   -0.2808858830
C       -0.3928825879   -0.9594868184   -0.1907866178
C       -1.0792941361    0.3093415353    0.0682046658
C       -0.2706595054    1.5675684905   -0.2223299602
N        1.0008888773    1.5562663590   -0.4247156944
H        2.7474951907    0.3913688844   -0.4485180893
H        1.6122974043   -1.7719855904   -0.4607449848
H       -0.9011103154   -1.9134107619   -0.1779065942
H       -2.0992786968    0.4866992562   -0.3059531084
H       -0.8263661698    2.4972979893   -0.3404798980
C       -1.1219496421   -0.3034159283    1.4268321566
H       -1.3697390991   -1.3205622662    1.7077199989
13   
From optimize.out: Frame 33 / 46, Energy=    -286.8544185059
C        1.6787713755    0.3351569422   -0.3531957727
C        1.0414204398   -0.8785792499   -0.3335477263
C       -0.3690084962   -0.9664473327   -0.2403398402
C       -1.0801175566    0.2917771546    0.0703039615
C       -0.2700266223    1.5509021315   -0.2168712427
N        1.0025062308    1.5524142348   -0.4038430734
H        2.7591307284    0.4031370212   -0.4240960150
H        1.6262091908   -1.7782532819   -0.5088829164
H       -0.8744149672   -1.9230178398   -0.1951352622
H       -2.0967717153    0.4711300004   -0.3134358454
H       -0.8278581816    2.4798208895   -0.3366993657
C       -1.1574482410   -0.2793119260    1.4447051233
H       -1.4323921850   -1.2587287440    1.8110379753
13   
From optimize.out: Frame 32 / 46, Energy=    -286.8542042816
C        1.6855705483    0.3360152603   -0.3477437682
C        1.0501502802   -0.8876700861   -0.3726216040
C       -0.3504756546   -0.9739862936   -0.2824827336
C       -1.0835553445    0.2739376436    0.0727475977
C       -0.2737592757    1.5339698503   -0.2114252614
N        1.0012849525    1.5447488576   -0.3817408150
H        2.7668632931    0.4110304319   -0.3965129165
H        1.6379799993   -1.7840920019   -0.5533032061
H       -0.8571614696   -1.9311443130   -0.2500703504
H       -2.0979101350    0.4409853159   -0.3232106919
H       -0.8312383314    2.4631785761   -0.3334519363
C       -1.1756542902   -0.2451678942    1.4663753805
H       -1.4720945724   -1.1818053467    1.9134403053
13   
From optimize.out: Frame 31 / 46, Energy=    -286.8539353649
C        1.6898469927    0.3353843344   -0.3380516345
C        1.0571382256   -0.8965041314   -0.4067240190
C       -0.3352508849   -0.9821374213   -0.3212582072
C       -1.0880113418    0.2555807997    0.0746378096
C       -0.2792211845    1.5160779637   -0.2074949325
N        0.9983703884    1.5355962430   -0.3587129733
H        2.7716710519    0.4166670199   -0.3650591246
H        1.6480582905   -1.7894582383   -0.5937396715
H       -0.8439478612   -1.9393801390   -0.3211363203
H       -2.1016822756    0.4069442644   -0.3301246933
H       -0.8356135578    2.4460583683   -0.3309747464
C       -1.1833348199   -0.2074522584    1.4874189403
H       -1.4980230234   -1.0973768049    2.0112195727
13   
From optimize.out: Frame 30 / 46, Energy=    -286.8532412382
C        1.6902390817    0.3338536452   -0.3244997588
C        1.0605896212   -0.9040341998   -0.4393169469
C       -0.3243372928   -0.9911567211   -0.3573456812
C       -1.0933315085    0.2363114369    0.0749592485
C       -0.2855420700    1.4958936677   -0.2074083733
N        0.9934609286    1.5256643224   -0.3344268624
H        2.7723671357    0.4199214034   -0.3263539898
H        1.6555250924   -1.7942613834   -0.6262806031
H       -0.8336469047   -1.9484162173   -0.4034550800
H       -2.1094649107    0.3743089317   -0.3283083107
H       -0.8407447394    2.4270996908   -0.3300354246
C       -1.1779895661   -0.1685271718    1.5041630038
H       -1.5071248674   -1.0066574045    2.0983087786
13   
From optimize.out: Frame 29 / 46, Energy=    -286.8522590141
C        1.6896732151    0.3298837106   -0.3060419251
C        1.0624672025   -0.9115315446   -0.4677739540
C       -0.3172980246   -0.9998476666   -0.3863526587
C       -1.0976649740    0.2169587732    0.0773608360
C       -0.2943644949    1.4771588881   -0.2077499168
N        0.9886252812    1.5153023150   -0.3077613858
H        2.7715697472    0.4191756237   -0.2824486455
H        1.6605749018   -1.7978042751   -0.6616181756
H       -0.8311508257   -1.9494239540   -0.4915173819
H       -2.1162234314    0.3345893814   -0.3256836008
H       -0.8499484758    2.4072909684   -0.3365509996
C       -1.1645478389   -0.1252487555    1.5216533899
H       -1.5017122826   -0.9165034645    2.1744844179
13   
From optimize.out: Frame 28 / 46, Energy=    -286.8507938357
C        1.6895971834    0.3233425673   -0.2834593562
C        1.0638836866   -0.9194286823   -0.4913034068
C       -0.3133184693   -1.0076209925   -0.4072825694
C       -1.1003365260    0.1982030238    0.0829734903
C       -0.3057754083    1.4615016252   -0.2069663886
N        0.9848143597    1.5049074145   -0.2791143530
H        2.7707002601    0.4145106082   -0.2359153209
H        1.6636715983   -1.7999719243   -0.7032443304
H       -0.8371098302   -1.9401304669   -0.5804592868
H       -2.1198851404    0.2861266395   -0.3258464066
H       -0.8637246231    2.3875343271   -0.3515344915
C       -1.1468839312   -0.0777879984    1.5416341939
H       -1.4856331596   -0.8311861412    2.2405182261
13   
From optimize.out: Frame 27 / 46, Energy=    -286.8495777652
C        1.6817745723    0.3148935115   -0.2606886990
C        1.0616039381   -0.9289651801   -0.5030634090
C       -0.3137414196   -1.0189621209   -0.4286132138
C       -1.1073098164    0.1824440303    0.0868959346
C       -0.3181287538    1.4456272001   -0.2085270811
N        0.9760247546    1.4919910376   -0.2550383943
H        2.7617377342    0.4096748498   -0.1902919675
H        1.6663650260   -1.8046699275   -0.7215844452
H       -0.8411362121   -1.9311647060   -0.6835544607
H       -2.1312410396    0.2469843158   -0.3148708355
H       -0.8728865232    2.3718474843   -0.3645323068
C       -1.1149924517   -0.0305592940    1.5530463072
H       -1.4480698087   -0.7491412010    2.2908225710
13   
From optimize.out: Frame 26 / 46, Energy=    -286.8476463981
C        1.6665476467    0.3054003645   -0.2384494747
C        1.0556665748   -0.9392257845   -0.5040336633
C       -0.3180934998   -1.0328576349   -0.4509735235
C       -1.1179304094    0.1698506836    0.0887704666
C       -0.3300700310    1.4293154220   -0.2129757276
N        0.9627005736    1.4773187324   -0.2369872556
H        2.7452509171    0.4054248342   -0.1475862542
H        1.6686108073   -1.8112859618   -0.7164585122
H       -0.8420575330   -1.9231853065   -0.7950901200
H       -2.1493876102    0.2191435979   -0.2929167684
H       -0.8762006808    2.3602104123   -0.3743835579
C       -1.0716346425    0.0132806194    1.5551977774
H       -1.3934021128   -0.6733899787    2.3258866133
13   
From optimize.out: Frame 25 / 46, Energy=    -286.8424396834
C        1.6521156583    0.2941949789   -0.2028759081
C        1.0474908287   -0.9451126356   -0.5054188312
C       -0.3265309697   -1.0386976095   -0.4667891260
C       -1.1204873262    0.1543949317    0.0971507786
C       -0.3401174693    1.4124379391   -0.2209971974
N        0.9526261394    1.4649266892   -0.2192412976
H        2.7298872483    0.3963393542   -0.0997851721
H        1.6661012720   -1.8099149751   -0.7317918606
H       -0.8553047733   -1.8901112617   -0.8936460647
H       -2.1551256603    0.1727925804   -0.2744380864
H       -0.8823837993    2.3423702548   -0.4004881837
C       -1.0308177275    0.0551033295    1.5607140993
H       -1.3374534212   -0.6087235759    2.3576068500
13   
From optimize.out: Frame 23 / 46, Energy=    -286.8298358374
C        1.6387312561    0.2811014176   -0.1688046295
C        1.0412306813   -0.9532666849   -0.5057271650
C       -0.3334561346   -1.0441758129   -0.4819334320
C       -1.1261846758    0.1403709892    0.1072212063
C       -0.3527224502    1.3966520486   -0.2280628132
N        0.9419774701    1.4510792089   -0.2012164403
H        2.7152167946    0.3854931679   -0.0530670812
H        1.6661522390   -1.8108273239   -0.7445509638
H       -0.8705807192   -1.8465679955   -0.9912189939
H       -2.1624854185    0.1212664306   -0.2561961363
H       -0.8894246877    2.3262732716   -0.4267124777
C       -0.9898691974    0.0988965953    1.5648742728
H       -1.2785851578   -0.5462953126    2.3853946539
13   
From optimize.out: Frame 22 / 46, Energy=    -286.8271578630
C        1.6277659871    0.2647562924   -0.1554862705
C        1.0430224270   -0.9720458302   -0.5001658336
C       -0.3318350151   -1.0561078953   -0.4999025298
C       -1.1495456687    0.1355212328    0.1150780523
C       -0.3738687490    1.3862767844   -0.2286061237
N        0.9266055285    1.4314955955   -0.1849169744
H        2.7016411586    0.3748498915   -0.0196534949
H        1.6786724232   -1.8267658785   -0.7241139148
H       -0.8784867390   -1.7982704652   -1.0901865041
H       -2.1872888684    0.0781395709   -0.2350723265
H       -0.8946468362    2.3238655546   -0.4347780781
C       -0.9478654366    0.1459208304    1.5594124577
H       -1.2141702114   -0.4876356832    2.3983915404
13   
From optimize.out: Frame 21 / 46, Energy=    -286.8252089152
C        1.6078201856    0.2510805954   -0.1319411934
C        1.0321591033   -0.9829468606   -0.4909091091
C       -0.3411386837   -1.0619480436   -0.5158080852
C       -1.1656861728    0.1338460819    0.1245289366
C       -0.3883561967    1.3761836277   -0.2372424812
N        0.9126753929    1.4184143894   -0.1782319840
H        2.6790850348    0.3589939538    0.0241649687
H        1.6782674498   -1.8341158224   -0.7030566943
H       -0.8918938101   -1.7405053118   -1.1757596956
H       -2.2008821102    0.0271842340   -0.2134891576
H       -0.8929997414    2.3209087686   -0.4523648592
C       -0.8957751121    0.1817891224    1.5498723406
H       -1.1332753395   -0.4488847349    2.4002370138
13   
From optimize.out: Frame 20 / 46, Energy=    -286.8224850763
C        1.5903009137    0.2375771684   -0.1078869905
C        1.0208037367   -0.9910680652   -0.4798339506
C       -0.3480505539   -1.0560827952   -0.5301909070
C       -1.1850100833    0.1310210615    0.1326970527
C       -0.4025347132    1.3641544431   -0.2500925405
N        0.8995053402    1.4068006505   -0.1745713211
H        2.6586165601    0.3403823063    0.0690790637
H        1.6746162355   -1.8414148360   -0.6767019148
H       -0.9157009647   -1.6654868342   -1.2427082237
H       -2.2162742939   -0.0239789560   -0.1898180860
H       -0.8908199920    2.3158344426   -0.4729376396
C       -0.8403489750    0.2093641956    1.5336545384
H       -1.0451032103   -0.4271027815    2.3893109190
13   
From optimize.out: Frame 19 / 46, Energy=    -286.8152770673
C        1.5761275195    0.2241033351   -0.0889086898
C        1.0107138686   -1.0007515842   -0.4673182380
C       -0.3507538923   -1.0486316913   -0.5418559957
C       -1.2092505465    0.1307770953    0.1366954220
C       -0.4190818640    1.3565388140   -0.2631462696
N        0.8866292160    1.3978169208   -0.1695971167
H        2.6409236607    0.3201604099    0.1100240040
H        1.6717468612   -1.8519999016   -0.6413407815
H       -0.9500431213   -1.5857172296   -1.2878212499
H       -2.2342140711   -0.0721381845   -0.1680474356
H       -0.8901293514    2.3159393734   -0.4893843044
C       -0.7823444485    0.2337508482    1.5084438485
H       -0.9503238309   -0.4198482054    2.3622568066
13   
From optimize.out: Frame 18 / 46, Energy=    -286.8076921593
C        1.5505675834    0.2180599174   -0.0791203847
C        0.9868208753   -1.0179574361   -0.4563995696
C       -0.3675274551   -1.0977329386   -0.5408474422
C       -1.2166379209    0.1552938587    0.1278470565
C       -0.4333149555    1.3873744744   -0.2643875323
N        0.8771259627    1.4101516913   -0.1540008621
H        2.6118949087    0.3027516130    0.1379059566
H        1.6671091148   -1.8586889269   -0.6072242807
H       -0.9842803775   -1.5915900892   -1.2967588505
H       -2.2245480141   -0.1109550721   -0.1754553482
H       -0.8903180797    2.3539237217   -0.4836885603
C       -0.7232991697    0.2694116486    1.4758262099
H       -0.8535924726   -0.4200424623    2.3163036076
13   
From optimize.out: Frame 17 / 46, Energy=    -286.8023044781
C        1.5303137981    0.2136030488   -0.0672570924
C        0.9628296269   -1.0277689578   -0.4379471013
C       -0.3822225123   -1.1039415121   -0.5369848665
C       -1.2211542630    0.1661152345    0.1177930949
C       -0.4437041134    1.4005335112   -0.2760285975
N        0.8680993478    1.4155032320   -0.1469576028
H        2.5871450709    0.2919925735    0.1683720824
H        1.6455663945   -1.8710008872   -0.5625727529
H       -1.0290829510   -1.5517911518   -1.2907642531
H       -2.2174364275   -0.1457541534   -0.1733468958
H       -0.8926852057    2.3716195756   -0.4855239374
C       -0.6584387053    0.2829949269    1.4330279193
H       -0.7492300599   -0.4421054401    2.2581900031
13   
From optimize.out: Frame 15 / 46, Energy=    -286.7939594609
C        1.5112981198    0.2096582039   -0.0524821443
C        0.9364189028   -1.0335191331   -0.4189845647
C       -0.3979173370   -1.0911459862   -0.5483537370
C       -1.2211291605    0.1675190557    0.1141368806
C       -0.4523135882    1.4028947741   -0.2914711075
N        0.8602365154    1.4181044184   -0.1455005836
H        2.5618194016    0.2814924667    0.2066369701
H        1.6133453322   -1.8850819754   -0.5122125282
H       -1.0661499450   -1.4971224418   -1.3037097068
H       -2.2086317590   -0.1824027271   -0.1588457010
H       -0.8989243430    2.3748788578   -0.4951266739
C       -0.5933612811    0.2935795522    1.3955713806
H       -0.6446908580   -0.4588550653    2.2103415157
13   
From optimize.out: Frame 14 / 46, Energy=    -286.7901283509
C        1.4938617863    0.2076074613   -0.0351657534
C        0.9069227895   -1.0334555969   -0.4099128499
C       -0.4169106977   -1.0705589160   -0.6043282439
C       -1.2078126547    0.1558586391    0.1302298727
C       -0.4568324575    1.3931652126   -0.3038520501
N        0.8576236579    1.4208866728   -0.1520420032
H        2.5349688026    0.2683600990    0.2559871317
H        1.5714344954   -1.8956052184   -0.4659404865
H       -1.0615438278   -1.4628009799   -1.3807534746
H       -2.1907917995   -0.2190657587   -0.1225442729
H       -0.9135369553    2.3571737893   -0.5164100971
C       -0.5474638895    0.3146345752    1.3913048183
H       -0.5699192497   -0.4361999794    2.2134274090
13   
From optimize.out: Frame 13 / 46, Energy=    -286.7871011210
C        1.4764367341    0.2055711141   -0.0178310243
C        0.8774035789   -1.0333493528   -0.4009165879
C       -0.4359289949   -1.0499215430   -0.6606376148
C       -1.1943965787    0.1441030039    0.1464712855
C       -0.4613206775    1.3833476660   -0.3162082082
N        0.8550506280    1.4236711901   -0.1586424694
H        2.5081063299    0.2552082012    0.3054193654
H        1.5294532416   -1.9060998168   -0.4197009983
H       -1.0566229032   -1.4286425912   -1.4582796982
H       -2.1728836986   -0.2557274113   -0.0860804355
H       -0.9282115515    2.3393143707   -0.5377796588
C       -0.5017122014    0.3357711134    1.3872887240
H       -0.4953739067   -0.4132459442    2.2168973206
13   
From optimize.out: Frame 12 / 46, Energy=    -286.7842167838
C        1.4590109754    0.2035348798   -0.0004956336
C        0.8478829681   -1.0332430053   -0.3919198412
C       -0.4549479984   -1.0292846432   -0.7169495596
C       -1.1809800443    0.1323474961    0.1627136191
C       -0.4658088049    1.3735294890   -0.3285649116
N        0.8524778181    1.4264554685   -0.1652435425
H        2.4812426417    0.2420566400    0.3548537725
H        1.4874697631   -1.9165939211   -0.3734591525
H       -1.0517016813   -1.3944847915   -1.5358095246
H       -2.1549752157   -0.2923893112   -0.0496142008
H       -0.9428862767    2.3214538886   -0.5591501523
C       -0.4559585321    0.3569085485    1.3832720221
H       -0.4208256131   -0.3902907384    2.2203671051
13   
From optimize.out: Frame 11 / 46, Energy=    -286.7795320067
C        1.4533419659    0.2105728038    0.0075841731
C        0.8080079823   -1.0213113484   -0.3754524286
C       -0.4965349038   -1.0069257294   -0.7263962479
C       -1.1492387133    0.1155944645    0.1534240963
C       -0.4657888390    1.3749205964   -0.3336587229
N        0.8577397360    1.4403948705   -0.1565877758
H        2.4700627174    0.2362914540    0.3766072166
H        1.4298208254   -1.9139970908   -0.3288614389
H       -1.1001988999   -1.3600916148   -1.5377708661
H       -2.1034238239   -0.3517232040   -0.0562949083
H       -0.9615163075    2.3118036447   -0.5604519626
C       -0.4064426063    0.3666282129    1.3574877986
H       -0.3358291333   -0.4021570594    2.1803710665
13   
From optimize.out: Frame 10 / 46, Energy=    -286.7734539290
C        1.4497065267    0.2184993757    0.0138268009
C        0.7687151302   -1.0086851889   -0.3585490486
C       -0.5392893784   -0.9863914722   -0.7286527620
C       -1.1169789222    0.0995746680    0.1408619418
C       -0.4653779787    1.3783812805   -0.3374146775
N        0.8638567288    1.4552609255   -0.1462142226
H        2.4617318576    0.2319473786    0.3932069229
H        1.3730964364   -1.9098535959   -0.2861862725
H       -1.1539164111   -1.3285084754   -1.5285072713
H       -2.0502874147   -0.4106601351   -0.0686835286
H       -0.9797885869    2.3044853457   -0.5584051948
C       -0.3585019854    0.3745437253    1.3293982180
H       -0.2529660024   -0.4185938318    2.1353190942
13   
From optimize.out: Frame 9 / 46, Energy=    -286.7649103197
C        1.4554495766    0.2191159390    0.0071523087
C        0.7650380908   -1.0221990679   -0.3462814063
C       -0.5504923056   -1.0263934604   -0.7159926377
C       -1.1319183361    0.1238985107    0.1290932275
C       -0.4754959805    1.4056152425   -0.3338981950
N        0.8664297526    1.4609586999   -0.1425946415
H        2.4670607776    0.2368099358    0.3829126196
H        1.3758051826   -1.9148059393   -0.2578740149
H       -1.1736321979   -1.3753845213   -1.4935826899
H       -2.0650694801   -0.3926052465   -0.0754449688
H       -0.9831083557    2.3360392795   -0.5344173176
C       -0.3363021436    0.3864889162    1.2992473928
H       -0.2137645806   -0.4375382881    2.0816803230
13   
From optimize.out: Frame 8 / 46, Energy=    -286.7540980745
C        1.4651741198    0.2139516861   -0.0056560019
C        0.7898816431   -1.0481211596   -0.3439242165
C       -0.5322521226   -1.0905533051   -0.6988537635
C       -1.1742370648    0.1655497225    0.1241052434
C       -0.4881540461    1.4362764437   -0.3268009174
N        0.8650046074    1.4568165412   -0.1459205555
H        2.4797852241    0.2459889502    0.3579539535
H        1.4214570918   -1.9239449291   -0.2551689772
H       -1.1575998385   -1.4561841587   -1.4578647288
H       -2.1227805096   -0.3265694865   -0.0744500359
H       -0.9735207916    2.3800198009   -0.5066614306
C       -0.3449901415    0.3951624685    1.2834098849
H       -0.2277681716   -0.4483925740    2.0498315455
13   
From optimize.out: Frame 7 / 46, Energy=    -286.7388763401
C        1.4748975353    0.2087883236   -0.0184629434
C        0.8147225544   -1.0740406759   -0.3415676043
C       -0.5140136224   -1.1547069751   -0.6817184980
C       -1.2165512998    0.2071966162    0.1191190908
C       -0.5008105743    1.4669339304   -0.3197041536
N        0.8635797211    1.4526748133   -0.1492467515
H        2.4925080323    0.2551677942    0.3329986112
H        1.4671039948   -1.9330831461   -0.2524636143
H       -1.1415686256   -1.5369767278   -1.4221528665
H       -2.1804853534   -0.2605409542   -0.0734530056
H       -0.9639338945    2.4239944824   -0.4789086049
C       -0.3536775647    0.4038362049    1.2675741749
H       -0.2417709032   -0.4592436861    2.0179861651
13   
From optimize.out: Frame 5 / 46, Energy=    -286.7014704189
C        1.4846197349    0.2036258886   -0.0312683907
C        0.8395605789   -1.0999573549   -0.3392115747
C       -0.4957770065   -1.2188538140   -0.6645869244
C       -1.2588606205    0.2488387807    0.1141347508
C       -0.5134654522    1.4975874236   -0.3126079838
N        0.8621551004    1.4485335591   -0.1525731678
H        2.5052290988    0.2643463444    0.3080468057
H        1.5127454522   -1.9422204933   -0.2497579738
H       -1.1255387607   -1.6177613693   -1.3864473450
H       -2.2381834412   -0.1945202853   -0.0724539992
H       -0.9543477833    2.4679629432   -0.4511590979
C       -0.3623643044    0.4125099888    1.2517404118
H       -0.2557725964   -0.4700916115    1.9861444889
13   
From optimize.out: Frame 4 / 46, Energy=    -286.6791476675
C        1.4938784890    0.1995680252   -0.0451041097
C        0.8621255480   -1.1238002982   -0.3339388859
C       -0.4797578352   -1.2786742050   -0.6394117965
C       -1.2986459870    0.2894291293    0.1058797452
C       -0.5247638487    1.5280819850   -0.3057094531
N        0.8610404011    1.4454654700   -0.1567021564
H        2.5178293683    0.2739434943    0.2799066884
H        1.5547010592   -1.9500313855   -0.2451744615
H       -1.1140793003   -1.6938717684   -1.3399400242
H       -2.2925469510   -0.1295352002   -0.0750433543
H       -0.9439113818    2.5107433748   -0.4206638740
C       -0.3688142942    0.4163079180    1.2308013262
H       -0.2670552674   -0.4876265392    1.9451003556
13   