13   
From optimize.out: Frame 45 / 46, Energy=    -286.8549634740
C        1.6719244309    0.3314353752   -0.3263684253
C        1.0804919964   -0.8827368240   -0.3028906952
C       -0.3507527566   -1.0539018818   -0.0009283164
C       -1.1374459891    0.3655191548    0.1144997171
C       -0.2933788800    1.5329140741   -0.2044643278
N        0.9893830334    1.5494008637   -0.3207906216
H        2.7422075806    0.4208289926   -0.4904210088
H        1.6607263676   -1.7761400108   -0.5208781112
H       -0.8552749409   -1.9042885573   -0.4636294966
H       -2.1694564504    0.4405403106   -0.2337430022
H       -0.8217658915    2.4674880809   -0.4096236625
C       -0.8881700118   -0.5252253247    1.2509821520
H       -1.6284884889   -0.9658342528    1.9082557988
13   
From optimize.out: Frame 44 / 46, Energy=    -286.8549599020
C        1.6720722416    0.3310694611   -0.3272018315
C        1.0806947967   -0.8829150502   -0.3033077309
C       -0.3501774133   -1.0536692055   -0.0007788573
C       -1.1374976171    0.3653955661    0.1142340505
C       -0.2933351054    1.5331675794   -0.2043370763
N        0.9892336375    1.5487515103   -0.3205790275
H        2.7422855874    0.4213549326   -0.4924730387
H        1.6607576699   -1.7769057229   -0.5190093591
H       -0.8547429907   -1.9048613291   -0.4624173530
H       -2.1693987542    0.4398803081   -0.2346888722
H       -0.8221658918    2.4689026502   -0.4068951329
C       -0.8880350700   -0.5250179165    1.2508659019
H       -1.6296910910   -0.9651527832    1.9065883274
13   
From optimize.out: Frame 43 / 46, Energy=    -286.8549523897
C        1.6727069447    0.3305172994   -0.3279849736
C        1.0807577039   -0.8830983224   -0.3038023640
C       -0.3494770631   -1.0533158433   -0.0001159802
C       -1.1378353228    0.3652277564    0.1132451627
C       -0.2932822126    1.5331605551   -0.2038091783
N        0.9889273335    1.5473335336   -0.3207860629
H        2.7428237495    0.4223953447   -0.4956313500
H        1.6606146645   -1.7775757999   -0.5177838987
H       -0.8530833298   -1.9060032247   -0.4599877560
H       -2.1695205061    0.4382822505   -0.2365617684
H       -0.8221237611    2.4704955924   -0.4019043497
C       -0.8883915320   -0.5238544923    1.2509406998
H       -1.6321166686   -0.9635646495    1.9041818194
13   
From optimize.out: Frame 42 / 46, Energy=    -286.8549403722
C        1.6737303460    0.3300211697   -0.3282778650
C        1.0808357774   -0.8832474083   -0.3039595987
C       -0.3487901274   -1.0529317748    0.0014747763
C       -1.1383896253    0.3647470025    0.1110830456
C       -0.2933266926    1.5326924449   -0.2030334223
N        0.9886683571    1.5458829596   -0.3209004272
H        2.7436015402    0.4236038486   -0.4989194977
H        1.6599539629   -1.7778152966   -0.5194458443
H       -0.8503945001   -1.9075862779   -0.4563721139
H       -2.1697417873    0.4355067221   -0.2397142258
H       -0.8212154568    2.4715730684   -0.3955647786
C       -0.8895026619   -0.5214912872    1.2512962205
H       -1.6354291324   -0.9609551710    1.9023337312
13   
From optimize.out: Frame 41 / 46, Energy=    -286.8549243670
C        1.6747008007    0.3297584781   -0.3281896999
C        1.0811101959   -0.8833553484   -0.3037284358
C       -0.3482713635   -1.0525447162    0.0036757896
C       -1.1390228647    0.3637167525    0.1076483919
C       -0.2934248089    1.5319032061   -0.2024035897
N        0.9886942567    1.5453113887   -0.3202050101
H        2.7442421669    0.4245191912   -0.5011799182
H        1.6583940180   -1.7777918538   -0.5242401505
H       -0.8472112251   -1.9093312918   -0.4517716941
H       -2.1700342263    0.4320182961   -0.2438539905
H       -0.8196596618    2.4719592347   -0.3892421574
C       -0.8911276186   -0.5182685546    1.2517795326
H       -1.6383896693   -0.9578947826    1.9017109321
13   
From optimize.out: Frame 40 / 46, Energy=    -286.8549042142
C        1.6753383452    0.3297883249   -0.3281335474
C        1.0817943473   -0.8835148684   -0.3032961002
C       -0.3477462285   -1.0522977346    0.0061727670
C       -1.1395718759    0.3620327759    0.1032630114
C       -0.2935533897    1.5311270364   -0.2019960630
N        0.9891148051    1.5460065645   -0.3179926379
H        2.7445712123    0.4249600908   -0.5019301139
H        1.6559493910   -1.7779205312   -0.5315767506
H       -0.8440905715   -1.9113718777   -0.4465503971
H       -2.1704107449    0.4283673033   -0.2486190156
H       -0.8181495275    2.4719871989   -0.3838360965
C       -0.8927285954   -0.5149734955    1.2520358564
H       -1.6405171675   -0.9541907873    1.9024590874
13   
From optimize.out: Frame 39 / 46, Energy=    -286.8548815558
C        1.6752878477    0.3299826877   -0.3285523536
C        1.0826127076   -0.8836663176   -0.3031757481
C       -0.3472538854   -1.0522678825    0.0080886005
C       -1.1399890402    0.3599831064    0.0988521536
C       -0.2935416801    1.5306944995   -0.2018989216
N        0.9898004043    1.5476706331   -0.3144421333
H        2.7444640647    0.4249093122   -0.5010810482
H        1.6530640960   -1.7785435859   -0.5387212236
H       -0.8416671602   -1.9134976934   -0.4416341197
H       -2.1709548060    0.4254878197   -0.2530502980
H       -0.8173285641    2.4721283849   -0.3800773137
C       -0.8936575102   -0.5123820942    1.2518427755
H       -1.6408364740   -0.9504988701    1.9038496303
13   
From optimize.out: Frame 38 / 46, Energy=    -286.8548603203
C        1.6748006201    0.3302457107   -0.3296010477
C        1.0832912250   -0.8838420628   -0.3034680156
C       -0.3466234900   -1.0525960236    0.0092331933
C       -1.1403509769    0.3582023348    0.0955207863
C       -0.2934247993    1.5307483821   -0.2016651695
N        0.9904629464    1.5492959581   -0.3103811872
H        2.7441229200    0.4247146989   -0.4997544051
H        1.6508104562   -1.7794588981   -0.5439576125
H       -0.8402315520   -1.9157674399   -0.4376542449
H       -2.1716116371    0.4238425553   -0.2568450725
H       -0.8172343910    2.4727631487   -0.3778740884
C       -0.8938514801   -0.5110929075    1.2511875673
H       -1.6401598412   -0.9470554566    1.9052592967
13   
From optimize.out: Frame 37 / 46, Energy=    -286.8548366883
C        1.6736926714    0.3304023900   -0.3312024435
C        1.0834149546   -0.8839000716   -0.3044736858
C       -0.3458833829   -1.0533851198    0.0098151386
C       -1.1410544828    0.3566877518    0.0929230330
C       -0.2931091286    1.5310312538   -0.2010357104
N        0.9909812120    1.5503922908   -0.3054947496
H        2.7433934540    0.4245014338   -0.4982646791
H        1.6491720094   -1.7802070059   -0.5476648764
H       -0.8393580037   -1.9185869721   -0.4338626566
H       -2.1725316534    0.4228686826   -0.2613637624
H       -0.8170957953    2.4739766791   -0.3761939545
C       -0.8936179475   -0.5102066778    1.2501653132
H       -1.6380039072   -0.9435746347    1.9066530334
13   
From optimize.out: Frame 36 / 46, Energy=    -286.8547896838
C        1.6720354453    0.3305315903   -0.3339320440
C        1.0826947221   -0.8839795571   -0.3063308615
C       -0.3442438726   -1.0553428653    0.0111218822
C       -1.1434174873    0.3557244672    0.0904066339
C       -0.2927402865    1.5314016290   -0.1982112243
N        0.9913394856    1.5499544314   -0.2974427899
H        2.7419902553    0.4245760781   -0.4983837897
H        1.6489249187   -1.7793913190   -0.5532213109
H       -0.8384436891   -1.9242608416   -0.4266786755
H       -2.1737364684    0.4216368283   -0.2718365293
H       -0.8149945042    2.4766070113   -0.3731911405
C       -0.8942990745   -0.5089319527    1.2483983137
H       -1.6351094444   -0.9385255000    1.9093015357
13   
From optimize.out: Frame 35 / 46, Energy=    -286.8546950526
C        1.6699569220    0.3300570062   -0.3353121681
C        1.0803046698   -0.8835452855   -0.3086705197
C       -0.3426628013   -1.0579688370    0.0135735076
C       -1.1481218445    0.3561940771    0.0886451225
C       -0.2924851250    1.5307933487   -0.1931181003
N        0.9912978662    1.5471020237   -0.2875745852
H        2.7395231462    0.4244511189   -0.5012459486
H        1.6504154985   -1.7742949431   -0.5616842772
H       -0.8373930188   -1.9316258861   -0.4162628291
H       -2.1740491247    0.4189942607   -0.2891191753
H       -0.8089047466    2.4792480816   -0.3692831281
C       -0.8968973417   -0.5053445746    1.2467132478
H       -1.6309841000   -0.9340603905    1.9133388536
13   
From optimize.out: Frame 34 / 46, Energy=    -286.8545722417
C        1.6699296684    0.3295828414   -0.3338367241
C        1.0780934947   -0.8830842078   -0.3091239902
C       -0.3417986730   -1.0590943801    0.0166369188
C       -1.1531899860    0.3580986592    0.0880223820
C       -0.2930015779    1.5293780688   -0.1876505474
N        0.9912577309    1.5433878352   -0.2800231004
H        2.7378188525    0.4237309942   -0.5073399814
H        1.6527291084   -1.7667645094   -0.5718099143
H       -0.8364530640   -1.9370429356   -0.4054471762
H       -2.1727660084    0.4159688306   -0.3061949956
H       -0.8018287484    2.4802606498   -0.3666752906
C       -0.9012880686   -0.5010832146    1.2459905014
H       -1.6295027286   -0.9333386317    1.9174519180
13   
From optimize.out: Frame 33 / 46, Energy=    -286.8544185059
C        1.6712961831    0.3286772099   -0.3277260430
C        1.0762409863   -0.8815345073   -0.3091299835
C       -0.3426497325   -1.0580748333    0.0191622394
C       -1.1577253759    0.3602675194    0.0878982130
C       -0.2937414045    1.5265767902   -0.1840701226
N        0.9916246008    1.5404731739   -0.2737812272
H        2.7368912483    0.4211415772   -0.5140835558
H        1.6537303690   -1.7578449889   -0.5824958380
H       -0.8349614430   -1.9391528901   -0.3961964843
H       -2.1708491347    0.4136725570   -0.3189230958
H       -0.7959986496    2.4778534885   -0.3676485862
C       -0.9056500221   -0.4955090972    1.2459660161
H       -1.6282076252   -0.9365459992    1.9210284678
13   
From optimize.out: Frame 32 / 46, Energy=    -286.8542042816
C        1.6756354084    0.3285441389   -0.3187240050
C        1.0756700947   -0.8800455945   -0.3078998067
C       -0.3438408826   -1.0535356412    0.0201269532
C       -1.1621147057    0.3623234505    0.0857343062
C       -0.2957854665    1.5238917600   -0.1821195216
N        0.9931589742    1.5394780634   -0.2648652823
H        2.7375191479    0.4159039585   -0.5228556446
H        1.6511690016   -1.7516729139   -0.5912542272
H       -0.8317582249   -1.9395854380   -0.3879447020
H       -2.1701373583    0.4149802777   -0.3273971133
H       -0.7952488787    2.4729753981   -0.3719557041
C       -0.9088133872   -0.4900111874    1.2446784343
H       -1.6254537228   -0.9432462721    1.9244763132
13   
From optimize.out: Frame 31 / 46, Energy=    -286.8539353649
C        1.6789584676    0.3280270387   -0.3080059313
C        1.0773845340   -0.8761964870   -0.3078073157
C       -0.3446554576   -1.0493968538    0.0217517656
C       -1.1661064388    0.3634794577    0.0812840006
C       -0.2953867986    1.5217739062   -0.1831749518
N        0.9942802362    1.5405563463   -0.2529535605
H        2.7395175034    0.4091994621   -0.5331721961
H        1.6478618354   -1.7488766946   -0.5986612214
H       -0.8249030221   -1.9400477230   -0.3764927922
H       -2.1734954138    0.4248185615   -0.3294274230
H       -0.7984597881    2.4667492014   -0.3790890782
C       -0.9113643838   -0.4881057367    1.2411869944
H       -1.6236312738   -0.9519804789    1.9245617096
13   
From optimize.out: Frame 30 / 46, Energy=    -286.8532412382
C        1.6828265596    0.3296000342   -0.2916139522
C        1.0752220507   -0.8749856253   -0.3082379398
C       -0.3474070987   -1.0392278038    0.0184613807
C       -1.1693738077    0.3627599834    0.0675473851
C       -0.2964601425    1.5230396258   -0.1887391252
N        0.9955171624    1.5455744427   -0.2267139656
H        2.7401020198    0.3955605865   -0.5377174360
H        1.6304041222   -1.7556685482   -0.5934832958
H       -0.8195646027   -1.9425909068   -0.3801197480
H       -2.1816268278    0.4376327466   -0.3321607998
H       -0.8148556708    2.4588866255   -0.3911299332
C       -0.9048399662   -0.4779651554    1.2369522509
H       -1.5899437982   -0.9626160054    1.9269551790
13   
From optimize.out: Frame 29 / 46, Energy=    -286.8522590141
C        1.6852596573    0.3296939559   -0.2803471315
C        1.0776297246   -0.8750810471   -0.2960496215
C       -0.3459778572   -1.0342669699    0.0251800118
C       -1.1704768445    0.3635739844    0.0587124143
C       -0.2962545476    1.5276225378   -0.1884426473
N        0.9920837791    1.5460451502   -0.2133348062
H        2.7419611587    0.3869699545   -0.5510514984
H        1.6260545598   -1.7611366456   -0.6010241295
H       -0.8174400080   -1.9430880963   -0.3665883982
H       -2.1860771191    0.4524489265   -0.3402829320
H       -0.8256705363    2.4600105572   -0.3975195206
C       -0.9105256498   -0.4769674377    1.2350916648
H       -1.5705663170   -0.9758248698    1.9156565944
13   
From optimize.out: Frame 28 / 46, Energy=    -286.8507938357
C        1.6826084723    0.3305910401   -0.2590137627
C        1.0726670439   -0.8730697609   -0.2926322074
C       -0.3533142732   -1.0365599114   -0.0033874862
C       -1.1595785366    0.3559193196    0.0595129796
C       -0.2940036825    1.5337972647   -0.1893106380
N        0.9924286316    1.5506716000   -0.1932377329
H        2.7411152336    0.3792756387   -0.5447841937
H        1.6204848470   -1.7677747164   -0.6204638505
H       -0.8160140936   -1.9461521428   -0.3804789345
H       -2.1834747168    0.4440277277   -0.3388122118
H       -0.8403238898    2.4585897224   -0.4220874556
C       -0.9006507070   -0.4636676135    1.2523831660
H       -1.5619443290   -0.9656481682    1.9323123276
13   
From optimize.out: Frame 27 / 46, Energy=    -286.8495777652
C        1.6800162429    0.3349694540   -0.2642876746
C        1.0703681313   -0.8710658379   -0.3167347420
C       -0.3466687793   -1.0347165422   -0.0070006367
C       -1.1740292715    0.3574384597    0.0432102204
C       -0.2911137169    1.5235725771   -0.2016992616
N        0.9946958320    1.5532554863   -0.1720780573
H        2.7401598880    0.3794059138   -0.5420240408
H        1.6107666334   -1.7820822006   -0.5883896844
H       -0.7919205072   -1.9347211585   -0.3877754813
H       -2.2094753193    0.4688440520   -0.3261771262
H       -0.8390837587    2.4490791668   -0.4221364186
C       -0.8872240857   -0.4775157401    1.2214738027
H       -1.5564912892   -0.9664636305    1.9636191005
13   
From optimize.out: Frame 26 / 46, Energy=    -286.8476463981
C        1.6740415166    0.3317736280   -0.2873248376
C        1.0617641695   -0.8720069144   -0.3276516109
C       -0.3474416533   -1.0127678128    0.0008747015
C       -1.1848798036    0.3589909732    0.0280831602
C       -0.2947802840    1.5130977072   -0.2175107656
N        0.9958660033    1.5478019119   -0.1982597203
H        2.7359712354    0.3793891573   -0.5214864453
H        1.5940637088   -1.7937685478   -0.5086558458
H       -0.8015202122   -1.9139844578   -0.4037465112
H       -2.2288323750    0.4862815871   -0.3221162226
H       -0.8342297597    2.4441355716   -0.3911003106
C       -0.9018779418   -0.4517030615    1.2238928392
H       -1.4681446039   -1.0172397420    1.9250015691
13   
From optimize.out: Frame 25 / 46, Energy=    -286.8424396834
C        1.6737868675    0.3342725153   -0.3253948442
C        1.0528450028   -0.8699594121   -0.3504917991
C       -0.3547832936   -0.9944812469   -0.0065541222
C       -1.2008049319    0.3620641686    0.0151311859
C       -0.2850916295    1.4996800397   -0.2369560047
N        0.9978610555    1.5464141710   -0.2412966602
H        2.7390500405    0.3903370012   -0.4972185880
H        1.5879232662   -1.8020863248   -0.4245004414
H       -0.8131168597   -1.8823245622   -0.4114510973
H       -2.2411717299    0.4913912569   -0.3136777739
H       -0.8120518636    2.4442244081   -0.3592139174
C       -0.9237489206   -0.4280883441    1.2324282772
H       -1.4206970036   -1.0914436705    1.9191957851
13   
From optimize.out: Frame 24 / 46, Energy=    -286.8371158843
C        1.6728373096    0.3309449003   -0.3565062914
C        1.0486183618   -0.8625642781   -0.3402780944
C       -0.3592433848   -0.9850990887    0.0050730829
C       -1.2169355266    0.3719125759    0.0026576540
C       -0.2831340995    1.4975608929   -0.2416411268
N        0.9978043202    1.5432321336   -0.2829669861
H        2.7379850393    0.3984753143   -0.5032753879
H        1.5887207229   -1.8103016227   -0.3529455919
H       -0.8227943638   -1.8866939559   -0.4269143834
H       -2.2502924045    0.5033395348   -0.3126619289
H       -0.7933975212    2.4551236635   -0.3195182960
C       -0.9352685918   -0.4105669429    1.2399489668
H       -1.3848998616   -1.1453631271    1.8890283832
13   
From optimize.out: Frame 23 / 46, Energy=    -286.8298358374
C        1.6824001680    0.3305820241   -0.3724357436
C        1.0719108227   -0.8617481373   -0.3066940531
C       -0.3493304197   -0.9866286509    0.0379844273
C       -1.2333532363    0.3783890316   -0.0134527175
C       -0.2729533430    1.5000057562   -0.2327223430
N        0.9923166061    1.5344015210   -0.3124845390
H        2.7567629896    0.4135718947   -0.5452693684
H        1.6123849734   -1.8080812786   -0.3585744085
H       -0.8358077571   -1.9194355696   -0.4343247556
H       -2.2619374294    0.5178810843   -0.3432398163
H       -0.7726734414    2.4771161950   -0.2858603923
C       -0.9754593332   -0.3846881082    1.2628466421
H       -1.4142605997   -1.1913657622    1.9042270678
13   
From optimize.out: Frame 22 / 46, Energy=    -286.8271578630
C        1.6777322418    0.3229149404   -0.3637527184
C        1.0698957075   -0.8748567199   -0.2819556399
C       -0.3248374941   -0.9520191455    0.0129464839
C       -1.2153635361    0.3577553827    0.0000547505
C       -0.2826735976    1.4888587052   -0.2291231265
N        0.9757800337    1.5170138526   -0.3462674041
H        2.7488946019    0.4120237020   -0.5277462812
H        1.6122501057   -1.8105589272   -0.3932922395
H       -0.8341803644   -1.8557251405   -0.3683380950
H       -2.2305936533    0.5286695083   -0.3467394581
H       -0.7779856719    2.4685364867   -0.2876121817
C       -1.0431662663   -0.3861616065    1.2597335177
H       -1.3757521069   -1.2164510386    1.8720923923
13   
From optimize.out: Frame 21 / 46, Energy=    -286.8252089152
C        1.6768141674    0.3303771147   -0.3861137721
C        1.0435653989   -0.8590658882   -0.2704041135
C       -0.3796263997   -0.9288495307   -0.0002887754
C       -1.1968045917    0.3561527433    0.0233081502
C       -0.2701711771    1.5029121816   -0.2529950222
N        0.9859224134    1.5288429352   -0.3989315814
H        2.7562760683    0.4032765751   -0.4976172134
H        1.5930264470   -1.7959155065   -0.3073682355
H       -0.8869212795   -1.8360538568   -0.3605678309
H       -2.2223457508    0.5069134156   -0.3087645699
H       -0.7798979704    2.4727436541   -0.2902656563
C       -0.9964850755   -0.3894647119    1.2770771357
H       -1.3233522503   -1.2918691256    1.7729314847
13   
From optimize.out: Frame 20 / 46, Energy=    -286.8224850763
C        1.6768961752    0.3287586913   -0.3892219035
C        1.0515161611   -0.8627280911   -0.2554394286
C       -0.3765942519   -0.9472842170   -0.0093745489
C       -1.1896885096    0.3586408403    0.0273762198
C       -0.2709745111    1.5197713202   -0.2403840127
N        0.9847372145    1.5288452607   -0.4138757395
H        2.7534286176    0.4020617876   -0.5216028557
H        1.6113257753   -1.7920848915   -0.3186971386
H       -0.8830372696   -1.8681265310   -0.3206005270
H       -2.2132602093    0.5213315676   -0.3094850838
H       -0.7787123420    2.4887229036   -0.2756522320
C       -1.0231858695   -0.3690060282    1.3002553455
H       -1.3424509808   -1.3089026125    1.7267019049
13   
From optimize.out: Frame 19 / 46, Energy=    -286.8152770673
C        1.6725823596    0.3280199226   -0.3734757980
C        1.0338318532   -0.8655143436   -0.2660932989
C       -0.4084818663   -0.9401332358   -0.0933871302
C       -1.1522056974    0.3385791114    0.0515111465
C       -0.2718510764    1.5352063787   -0.2392257405
N        0.9929348270    1.5384127050   -0.4186128844
H        2.7524778118    0.3983876986   -0.4711679603
H        1.5994815834   -1.7910622065   -0.3316029473
H       -0.9164217811   -1.8692881042   -0.3468831416
H       -2.1781277446    0.4638611262   -0.3086963031
H       -0.7986551901    2.4890396557   -0.3083768497
C       -1.0164484670   -0.3218851777    1.3747497931
H       -1.3091166122   -1.3036235304    1.7312611145
13   
From optimize.out: Frame 18 / 46, Energy=    -286.8076921593
C        1.6697584346    0.3249105876   -0.3627897125
C        1.0302707197   -0.8724869945   -0.2716490081
C       -0.4173453900   -0.9472332858   -0.1484263093
C       -1.1257999576    0.3268613141    0.0673873159
C       -0.2764870235    1.5511648470   -0.2274841594
N        0.9955001237    1.5416127199   -0.4215624375
H        2.7495179586    0.3973967962   -0.4524387623
H        1.6051937983   -1.7900742765   -0.3641012321
H       -0.9282672869   -1.8840019535   -0.3310584090
H       -2.1481277440    0.4381652459   -0.3193446937
H       -0.8106596971    2.4962290459   -0.3205352330
C       -1.0391769523   -0.2850887608    1.4272199348
H       -1.3043769836   -1.2974552853    1.7247827062
13   
From optimize.out: Frame 17 / 46, Energy=    -286.8023044781
C        1.6653828835    0.3196190605   -0.3361027180
C        1.0305860080   -0.8770297364   -0.2505034104
C       -0.4141711524   -0.9539544297   -0.1696576635
C       -1.1014729862    0.3131553439    0.0739274239
C       -0.2836199374    1.5626453904   -0.2213175905
N        0.9931255186    1.5412188618   -0.4223079531
H        2.7433841909    0.3890749257   -0.4380172032
H        1.6060467217   -1.7820274991   -0.4276307079
H       -0.9369379389   -1.8853270480   -0.3212149474
H       -2.1193426700    0.4228284975   -0.3291058793
H       -0.8232508751    2.4999630701   -0.3418222530
C       -1.0650921013   -0.2609785340    1.4542342163
H       -1.2946376614   -1.2891879027    1.7295186862
13   
From optimize.out: Frame 16 / 46, Energy=    -286.7963620446
C        1.6628135568    0.3278190192   -0.3476148220
C        1.0257513657   -0.8655906126   -0.2490696462
C       -0.4067438134   -0.9559519871   -0.1617560420
C       -1.0782293414    0.3191283864    0.0668301865
C       -0.2713726526    1.5773211442   -0.2254474183
N        0.9997030049    1.5583146912   -0.4364611769
H        2.7400602298    0.3836925915   -0.4623703343
H        1.6040658230   -1.7677639830   -0.4342762760
H       -0.9168532274   -1.9090904195   -0.1697082297
H       -2.1005150587    0.4955290297   -0.3008437598
H       -0.8261086777    2.5073914290   -0.3425835497
C       -1.1003540816   -0.3170096580    1.4160875015
H       -1.3322171274   -1.3537896309    1.6472135669
13   
From optimize.out: Frame 15 / 46, Energy=    -286.7939594609
C        1.6794481805    0.3362830877   -0.3564016508
C        1.0412860601   -0.8778188511   -0.3360337454
C       -0.3683552440   -0.9657302470   -0.2404499698
C       -1.0792027234    0.2929563264    0.0701278835
C       -0.2683239445    1.5519161630   -0.2171327343
N        1.0035580081    1.5540756677   -0.4055183834
H        2.7600864173    0.4040492412   -0.4267565297
H        1.6262162057   -1.7782160867   -0.5074121782
H       -0.8723565560   -1.9227621104   -0.1797317164
H       -2.0955860903    0.4775459847   -0.3122509751
H       -0.8268920561    2.4805110076   -0.3366439620
C       -1.1621319494   -0.2844828283    1.4423988895
H       -1.4377463079   -1.2683273549    1.8058050719
13   
From optimize.out: Frame 14 / 46, Energy=    -286.7901283509
C        1.6912230776    0.3357503953   -0.3397506444
C        1.0583128041   -0.8967645928   -0.4063974511
C       -0.3339979558   -0.9815892247   -0.3212815876
C       -1.0875659642    0.2564089037    0.0751729031
C       -0.2787489313    1.5174248396   -0.2061196926
N        0.9992121846    1.5361391861   -0.3597676329
H        2.7731205517    0.4174365835   -0.3686071727
H        1.6488027455   -1.7895240647   -0.5956852566
H       -0.8431752235   -1.9388564187   -0.3150049058
H       -2.1000471833    0.4073012275   -0.3333061547
H       -0.8352086623    2.4472119681   -0.3304416378
C       -1.1881304083   -0.2089207437    1.4884880235
H       -1.5037970347   -1.1020180593    2.0127012096
13   
From optimize.out: Frame 13 / 46, Energy=    -286.7871011210
C        1.6895369308    0.3325184138   -0.3133681587
C        1.0622790605   -0.9092700871   -0.4631012269
C       -0.3173054248   -0.9980847924   -0.3834794416
C       -1.0975135986    0.2217406339    0.0747502292
C       -0.2904786415    1.4803045379   -0.2083390932
N        0.9892843964    1.5181057420   -0.3160143303
H        2.7718301052    0.4217797026   -0.2956188749
H        1.6604601776   -1.7976500963   -0.6483615779
H       -0.8266888790   -1.9553485100   -0.4675468780
H       -2.1162724182    0.3503880906   -0.3247963459
H       -0.8447837443    2.4125278666   -0.3297576315
C       -1.1707242403   -0.1393283885    1.5154462381
H       -1.5096237239   -0.9376831130    2.1601870915
13   
From optimize.out: Frame 12 / 46, Energy=    -286.7842167838
C        1.6896372314    0.3186816295   -0.2678700336
C        1.0647933103   -0.9246220788   -0.5057930634
C       -0.3111814784   -1.0125547044   -0.4196143297
C       -1.1018099671    0.1859972334    0.0871327212
C       -0.3137229881    1.4517797741   -0.2062641372
N        0.9824622526    1.4981378934   -0.2599572752
H        2.7701176714    0.4108814559   -0.2048483995
H        1.6654673069   -1.8010888109   -0.7314753472
H       -0.8423584683   -1.9323004616   -0.6388671593
H       -2.1217367262    0.2528488384   -0.3265590037
H       -0.8735831296    2.3745925070   -0.3628221535
C       -1.1346945314   -0.0460748129    1.5550643029
H       -1.4733904834   -0.7762784631    2.2818738781
13   
From optimize.out: Frame 11 / 46, Energy=    -286.7795320067
C        1.6638763836    0.3042458119   -0.2366460140
C        1.0549518273   -0.9411882206   -0.5034987064
C       -0.3183834561   -1.0359197975   -0.4550350699
C       -1.1205820127    0.1684679117    0.0881168775
C       -0.3320371862    1.4269869740   -0.2133723619
N        0.9601224866    1.4748948792   -0.2345687435
H        2.7423425946    0.4055138310   -0.1419347184
H        1.6695851970   -1.8131628615   -0.7120784567
H       -0.8404864716   -1.9249538094   -0.8132015161
H       -2.1537563374    0.2177098530   -0.2889377692
H       -0.8761294273    2.3594063444   -0.3738412304
C       -1.0646018432    0.0196027116    1.5545675646
H       -1.3849017546   -0.6616036279    2.3304301444
13   
From optimize.out: Frame 10 / 46, Energy=    -286.7734539290
C        1.6387564159    0.2829568772   -0.1642080301
C        1.0392000114   -0.9494409176   -0.5074582652
C       -0.3355985921   -1.0418693808   -0.4802430102
C       -1.1204127444    0.1382824875    0.1072285600
C       -0.3494093617    1.3958797297   -0.2296624741
N        0.9439918090    1.4537095222   -0.2016020703
H        2.7157101668    0.3862063757   -0.0514062308
H        1.6624595943   -1.8060193093   -0.7539771848
H       -0.8717886094   -1.8505751385   -0.9852749016
H       -2.1566523743    0.1215393394   -0.2583275650
H       -0.8896679811    2.3229363316   -0.4308231749
C       -0.9927055284    0.0952691219    1.5675228540
H       -1.2838828061   -0.5488750390    2.3882314930
13   
From optimize.out: Frame 9 / 46, Energy=    -286.7649103197
C        1.6255124372    0.2611517892   -0.1535039783
C        1.0439331073   -0.9765813896   -0.4985926324
C       -0.3309302705   -1.0590292623   -0.5040109802
C       -1.1555378258    0.1348670980    0.1165614796
C       -0.3789553812    1.3842911564   -0.2283761375
N        0.9229598955    1.4270189035   -0.1813354266
H        2.6987333606    0.3727203770   -0.0128260123
H        1.6822094403   -1.8308653648   -0.7178784349
H       -0.8796045865   -1.7875732091   -1.1118547324
H       -2.1935451877    0.0690973146   -0.2305523368
H       -0.8957868419    2.3240083780   -0.4355960440
C       -0.9388653163    0.1561673003    1.5576491690
H       -1.2001228310   -0.4752730911    2.4003160668
13   
From optimize.out: Frame 8 / 46, Energy=    -286.7540980745
C        1.5928517708    0.2427217822   -0.1134031111
C        1.0224462698   -0.9882325366   -0.4842937830
C       -0.3495170504   -1.0644566709   -0.5259799592
C       -1.1743869992    0.1328274361    0.1310734456
C       -0.3964897374    1.3692850137   -0.2446750781
N        0.9038050036    1.4112010280   -0.1752691227
H        2.6624142560    0.3476883922    0.0560047263
H        1.6753439860   -1.8366734480   -0.6902932328
H       -0.9018620163   -1.7006242913   -1.2303430457
H       -2.2071414780   -0.0085652210   -0.1994183356
H       -0.8908556650    2.3182299077   -0.4664954052
C       -0.8595765629    0.2033440976    1.5431338081
H       -1.0770317770   -0.4267454896    2.3999590935
13   
From optimize.out: Frame 7 / 46, Energy=    -286.7388763401
C        1.5786387453    0.2233699796   -0.0878834105
C        1.0135786947   -0.9990712612   -0.4673838369
C       -0.3480015077   -1.0390377346   -0.5437134011
C       -1.2115169110    0.1264760466    0.1385651228
C       -0.4190601205    1.3502385515   -0.2647101507
N        0.8864009560    1.3945590723   -0.1713668109
H        2.6434998765    0.3204618231    0.1111470531
H        1.6723563137   -1.8522513665   -0.6420220752
H       -0.9489567786   -1.5733648706   -1.2922810032
H       -2.2384433901   -0.0722375614   -0.1640016299
H       -0.8901366986    2.3094903938   -0.4924949802
C       -0.7845348777    0.2307604422    1.5102629798
H       -0.9538243019   -0.4193935148    2.3658821428
13   