13   
From optimize.out: Frame 2 / 3, Energy=    -286.8549693703
C        1.6724632058    0.3311160337   -0.3250581421
C        1.0799246500   -0.8827735733   -0.3043633466
C       -0.3513940272   -1.0536564506   -0.0024302983
C       -1.1382218189    0.3660142204    0.1145343891
C       -0.2937296476    1.5327570016   -0.2046341556
N        0.9889836982    1.5484623459   -0.3224042152
H        2.7439088975    0.4214526934   -0.4842405892
H        1.6596517633   -1.7760802000   -0.5235045788
H       -0.8555977654   -1.9047507362   -0.4640319070
H       -2.1712900106    0.4414158576   -0.2307127162
H       -0.8220975223    2.4664347263   -0.4127188969
C       -0.8868972542   -0.5249655330    1.2503662136
H       -1.6257041688   -0.9654263854    1.9091982433
13   
From optimize.out: Frame 1 / 3, Energy=    -286.8549634740
C        1.6719244300    0.3314353749   -0.3263684304
C        1.0804919954   -0.8827368243   -0.3028906980
C       -0.3507527567   -1.0539018818   -0.0009283149
C       -1.1374459887    0.3655191549    0.1144997203
C       -0.2933788805    1.5329140740   -0.2044643277
N        0.9893830326    1.5494008634   -0.3207906253
H        2.7422075792    0.4208289921   -0.4904210172
H        1.6607263659   -1.7761400112   -0.5208781153
H       -0.8552749424   -1.9042885575   -0.4636294932
H       -2.1694564510    0.4405403106   -0.2337429960
H       -0.8217658925    2.4674880807   -0.4096236613
C       -0.8881700081   -0.5252253241    1.2509821549
H       -1.6284884833   -0.9658342518    1.9082558041
13   
From optimize.out: Frame 45 / 46, Energy=    -286.8549634740
C        1.6719244300    0.3314353749   -0.3263684304
C        1.0804919954   -0.8827368243   -0.3028906980
C       -0.3507527567   -1.0539018818   -0.0009283149
C       -1.1374459887    0.3655191549    0.1144997203
C       -0.2933788805    1.5329140740   -0.2044643277
N        0.9893830326    1.5494008634   -0.3207906253
H        2.7422075792    0.4208289921   -0.4904210172
H        1.6607263659   -1.7761400112   -0.5208781153
H       -0.8552749424   -1.9042885575   -0.4636294932
H       -2.1694564510    0.4405403106   -0.2337429960
H       -0.8217658925    2.4674880807   -0.4096236613
C       -0.8881700081   -0.5252253241    1.2509821549
H       -1.6284884833   -0.9658342518    1.9082558041
13   
From optimize.out: Frame 44 / 46, Energy=    -286.8549599020
C        1.6704119833    0.3292547460   -0.3316882726
C        1.0774312402   -0.8825411971   -0.3091390433
C       -0.3421055063   -1.0587321462    0.0175265120
C       -1.1547900957    0.3588714629    0.0879892902
C       -0.2932555496    1.5283907372   -0.1863749005
N        0.9913942611    1.5423534008   -0.2778166939
H        2.7374895579    0.4228025131   -0.5097421976
H        1.6530682187   -1.7636188451   -0.5756084971
H       -0.8359403312   -1.9377816394   -0.4021815063
H       -2.1720885226    0.4151716105   -0.3106743917
H       -0.7997566274    2.4794165124   -0.3670001225
C       -0.9028229599   -0.4991144656    1.2459862050
H       -1.6290356684   -0.9344726894    1.9187236183
13   
From optimize.out: Frame 43 / 46, Energy=    -286.8549523897
C        1.6848390122    0.3296781343   -0.2822949378
C        1.0772131457   -0.8750639587   -0.2981593063
C       -0.3462249945   -1.0351239670    0.0240167749
C       -1.1702861121    0.3634334790    0.0602414168
C       -0.2962899448    1.5268314402   -0.1884889682
N        0.9926770040    1.5459642155   -0.2156429906
H        2.7416393096    0.3884549576   -0.5487506638
H        1.6268046881   -1.7601906485   -0.5997288537
H       -0.8178080517   -1.9430009147   -0.3689305770
H       -2.1853086663    0.4498908878   -0.3388753993
H       -0.8238021391    2.4598177625   -0.3964073049
C       -0.9095418014   -0.4771431967    1.2354129673
H       -1.5739114495   -0.9735481913    1.9176078424
13   
From optimize.out: Frame 42 / 46, Energy=    -286.8549403722
C        1.6793603307    0.3346197828   -0.2668188484
C        1.0694231377   -0.8711677765   -0.3179414456
C       -0.3467540999   -1.0323110007   -0.0061417062
C       -1.1752179397    0.3576090340    0.0415604523
C       -0.2915156818    1.5224259838   -0.2034218890
N        0.9948240747    1.5526582650   -0.1749434542
H        2.7396983535    0.3794055706   -0.5397850674
H        1.6089322482   -1.7833605108   -0.5796701037
H       -0.7929755925   -1.9324460076   -0.3895326715
H       -2.2115979879    0.4707581069   -0.3257182522
H       -0.8385525323    2.4485402686   -0.4187171079
C       -0.8888240640   -0.4746934182    1.2217406958
H       -1.5468002468   -0.9720382978    1.9593893978
13   
From optimize.out: Frame 41 / 46, Energy=    -286.8549243670
C        1.6739733692    0.3324408465   -0.2973747295
C        1.0594124654   -0.8714609981   -0.3336853536
C       -0.3493766382   -1.0079402170   -0.0010914646
C       -1.1890864450    0.3597980408    0.0246631715
C       -0.2922271326    1.5095543801   -0.2226397905
N        0.9963873779    1.5474399605   -0.2096170038
H        2.7367833907    0.3822922448   -0.5150736528
H        1.5924493260   -1.7959571817   -0.4864388028
H       -0.8045750805   -1.9056254385   -0.4057896233
H       -2.2320922358    0.4876239928   -0.3198883033
H       -0.8283818733    2.4441575452   -0.3826711396
C       -0.9076530080   -0.4454755056    1.2261439916
H       -1.4556135158   -1.0368476698    1.9234627007
13   
From optimize.out: Frame 40 / 46, Energy=    -286.8549042142
C        1.6733046046    0.3325997446   -0.3411544817
C        1.0507113595   -0.8662025339   -0.3453113666
C       -0.3570359315   -0.9897289434   -0.0006642247
C       -1.2089833184    0.3670460043    0.0088039564
C       -0.2841102449    1.4986040750   -0.2393298365
N        0.9978212990    1.5448097119   -0.2624093900
H        2.7385095411    0.3944841560   -0.5002746343
H        1.5883436424   -1.8062369171   -0.3882293466
H       -0.8180047120   -1.8845450021   -0.4192948670
H       -2.2457967833    0.4974295823   -0.3131730157
H       -0.8026151443    2.4497425518   -0.3390955331
C       -0.9295900206   -0.4192171113    1.2362349209
H       -1.4025542918   -1.1187853183    1.9038978190
13   
From optimize.out: Frame 39 / 46, Energy=    -286.8548815558
C        1.6811714331    0.3306464756   -0.3703833649
C        1.0689319992   -0.8618412582   -0.3110013236
C       -0.3505927170   -0.9864359832    0.0337568645
C       -1.2312503045    0.3775457559   -0.0113897693
C       -0.2742736230    1.4996900147   -0.2338634257
N        0.9930068054    1.5355454645   -0.3086879695
H        2.7543517513    0.4116638744   -0.5398675483
H        1.6093680894   -1.8083490486   -0.3578505522
H       -0.8341169315   -1.9152413189   -0.4333833501
H       -2.2604468483    0.5159936595   -0.3393245605
H       -0.7753560670    2.4742873567   -0.2901751383
C       -0.9703038980   -0.3880222568    1.2599030795
H       -1.4104896891   -1.1854827357    1.9022670585
13   
From optimize.out: Frame 38 / 46, Energy=    -286.8548603203
C        1.6777007925    0.3231876626   -0.3644783543
C        1.0690358348   -0.8743160234   -0.2815628494
C       -0.3266451313   -0.9512537194    0.0125012000
C       -1.2147517815    0.3576848100    0.0008161986
C       -0.2822769447    1.4893222949   -0.2299161511
N        0.9760990327    1.5174216915   -0.3480046920
H        2.7491393823    0.4117732804   -0.5267162838
H        1.6116408665   -1.8100484007   -0.3904240637
H       -0.8359032261   -1.8550824107   -0.3680923097
H       -2.2303235537    0.5279153732   -0.3454985496
H       -0.7780815002    2.4686658715   -0.2877027968
C       -1.0416218713   -0.3862889941    1.2602986495
H       -1.3740119001   -1.2189814359    1.8687800024
13   
From optimize.out: Frame 37 / 46, Energy=    -286.8548366883
C        1.6769130673    0.3296329443   -0.3837407878
C        1.0463363064   -0.8606909146   -0.2715681688
C       -0.3738959555   -0.9312724186    0.0010912842
C       -1.1987472174    0.3562927702    0.0208472015
C       -0.2715011112    1.5014385179   -0.2505332551
N        0.9848418064    1.5276278693   -0.3934347198
H        2.7555116803    0.4042445882   -0.5006847824
H        1.5950793280   -1.7974090440   -0.3162556261
H       -0.8813735235   -1.8381281300   -0.3613798265
H       -2.2232080602    0.5091262239   -0.3127900535
H       -0.7797467585    2.4722840076   -0.2900409602
C       -1.0013763044   -0.3891277648    1.2752465887
H       -1.3288332575   -1.2840186493    1.7832431056
13   
From optimize.out: Frame 36 / 46, Energy=    -286.8547896838
C        1.6754550886    0.3285455737   -0.3838943687
C        1.0456188132   -0.8636407263   -0.2589610203
C       -0.3872573087   -0.9448975942   -0.0375290476
C       -1.1771356354    0.3518888595    0.0354202740
C       -0.2712975608    1.5249338605   -0.2400302949
N        0.9874610910    1.5320690242   -0.4154562604
H        2.7531169095    0.4008891664   -0.5046145626
H        1.6074105656   -1.7917082883   -0.3229393321
H       -0.8941697881   -1.8685431750   -0.3294077894
H       -2.2014872973    0.5020110135   -0.3093021658
H       -0.7854475798    2.4888051012   -0.2866877841
C       -1.0209631347   -0.3532159058    1.3251947310
H       -1.3313041632   -1.3071369093    1.7282076209
13   
From optimize.out: Frame 35 / 46, Energy=    -286.8546950526
C        1.6710021230    0.3263046401   -0.3674336933
C        1.0318629343   -0.8694098385   -0.2691533646
C       -0.4134290734   -0.9441303749   -0.1242589193
C       -1.1373985832    0.3319787732    0.0603734053
C       -0.2744812236    1.5441482894   -0.2326881283
N        0.9943517156    1.5402203646   -0.4202771737
H        2.7508226656    0.3978840632   -0.4605792401
H        1.6027405375   -1.7904795421   -0.3497374818
H       -0.9230132371   -1.8775753552   -0.3379827779
H       -2.1612942849    0.4493830080   -0.3147543593
H       -0.8054396975    2.4930462531   -0.3152932405
C       -1.0292408732   -0.3012239645    1.4041665700
H       -1.3064830031   -1.3001463163    1.7276184034
13   
From optimize.out: Frame 34 / 46, Energy=    -286.8545722417
C        1.6650969101    0.3205704044   -0.3373549219
C        1.0300716607   -0.8757266895   -0.2502799315
C       -0.4133073036   -0.9541947922   -0.1687502698
C       -1.0988691650    0.3138027094    0.0730837390
C       -0.2822737359    1.5642813902   -0.2218435023
N        0.9938411007    1.5431513093   -0.4239196008
H        2.7430149987    0.3885217024   -0.4406813037
H        1.6058810014   -1.7803987906   -0.4282670375
H       -0.9346236728   -1.8880322678   -0.3041441391
H       -2.1172255652    0.4309413117   -0.3260097449
H       -0.8236222547    2.5007668646   -0.3420180647
C       -1.0690971283   -0.2672567373    1.4499194027
H       -1.2988868462   -1.2964264145    1.7202653744
13   
From optimize.out: Frame 33 / 46, Energy=    -286.8544185059
C        1.6630230231    0.3272081164   -0.3466347234
C        1.0261751123   -0.8664769332   -0.2491125211
C       -0.4072980196   -0.9558107657   -0.1623743068
C       -1.0800944391    0.3186200904    0.0673386585
C       -0.2723888731    1.5761362705   -0.2251783635
N        0.9991483540    1.5569711210   -0.4353372191
H        2.7403329863    0.3841947666   -0.4603216596
H        1.6042990422   -1.7688625404   -0.4336225742
H       -0.9183847559   -1.9072318450   -0.1817619132
H       -2.1020175277    0.4896601917   -0.3032025914
H       -0.8259458949    2.5067627780   -0.3426355139
C       -1.0975966847   -0.3125369650    1.4190883942
H       -1.3292523228   -1.3486342852    1.6537543336
13   
From optimize.out: Frame 32 / 46, Energy=    -286.8542042816
C        1.6725843311    0.3328226301   -0.3527333259
C        1.0349043843   -0.8727529770   -0.3000884364
C       -0.3841704757   -0.9617084781   -0.2079578860
C       -1.0788104649    0.3037339464    0.0687280462
C       -0.2696143445    1.5623904658   -0.2206084987
N        1.0019407803    1.5558404290   -0.4182964682
H        2.7518237415    0.3957046352   -0.4413844820
H        1.6171312955   -1.7738730374   -0.4771366885
H       -0.8906703322   -1.9171450529   -0.1755765930
H       -2.0976234566    0.4849097848   -0.3076154113
H       -0.8266201672    2.4915778484   -0.3391771297
C       -1.1366675988   -0.2979035374    1.4315121779
H       -1.3942076927   -1.3035966571    1.7403346958
13   
From optimize.out: Frame 31 / 46, Energy=    -286.8539353649
C        1.6815563860    0.3362076997   -0.3534039366
C        1.0443535499   -0.8812018641   -0.3486089515
C       -0.3621835460   -0.9685804610   -0.2549161181
C       -1.0807059255    0.2863949742    0.0710133374
C       -0.2702122033    1.5457308206   -0.2151889698
N        1.0027607603    1.5508719821   -0.3973370826
H        2.7624198650    0.4064826045   -0.4163138566
H        1.6302954767   -1.7802249868   -0.5231730311
H       -0.8670978450   -1.9256613916   -0.2039393200
H       -2.0963883160    0.4649272257   -0.3160558314
H       -0.8284154563    2.4745286611   -0.3355840353
C       -1.1668023527   -0.2709431755    1.4506437408
H       -1.4495803931   -1.2385320887    1.8428640548
13   
From optimize.out: Frame 30 / 46, Energy=    -286.8532412382
C        1.6873089405    0.3359319216   -0.3452925489
C        1.0526606396   -0.8904712450   -0.3830206371
C       -0.3454053796   -0.9763273691   -0.2944208627
C       -1.0847893274    0.2685428130    0.0734986446
C       -0.2752953877    1.5288765888   -0.2097953319
N        1.0006458322    1.5420971482   -0.3749866215
H        2.7687875852    0.4129999356   -0.3879378276
H        1.6413078950   -1.7857666698   -0.5663515225
H       -0.8528583757   -1.9335187730   -0.2700480729
H       -2.0985691811    0.4306169190   -0.3263092097
H       -0.8324608191    2.4582632546   -0.3325285994
C       -1.1794877522   -0.2340055287    1.4731881989
H       -1.4818446696   -1.1572389950    1.9440043908
13   
From optimize.out: Frame 29 / 46, Energy=    -286.8522590141
C        1.6909126529    0.3351544171   -0.3350113681
C        1.0590182442   -0.8990371790   -0.4166764353
C       -0.3309872841   -0.9845769068   -0.3325264906
C       -1.0893641795    0.2501383968    0.0751161146
C       -0.2808695216    1.5107041632   -0.2065290563
N        0.9974149903    1.5328666867   -0.3518801035
H        2.7728817425    0.4182067306   -0.3554529689
H        1.6508926010   -1.7910082292   -0.6052392230
H       -0.8402065743   -1.9418411699   -0.3425869094
H       -2.1029893807    0.3970047497   -0.3317267128
H       -0.8369373084    2.4409338629   -0.3303223251
C       -1.1849501007   -0.1963032502    1.4933940481
H       -1.5048158816   -1.0722422718    2.0394414304
13   
From optimize.out: Frame 28 / 46, Energy=    -286.8507938357
C        1.6899590520    0.3333128638   -0.3201296748
C        1.0612429036   -0.9061116553   -0.4487294866
C       -0.3215726333   -0.9938922054   -0.3676639822
C       -1.0949808812    0.2305630328    0.0748940332
C       -0.2874846297    1.4897363698   -0.2077739395
N        0.9918170717    1.5226700200   -0.3271708725
H        2.7721531937    0.4206342594   -0.3142564145
H        1.6574509990   -1.7956138460   -0.6350283217
H       -0.8309197954   -1.9511497198   -0.4287603415
H       -2.1121570400    0.3648733990   -0.3268871482
H       -0.8423276363    2.4213482884   -0.3299161489
C       -1.1750958017   -0.1569795776    1.5086400767
H       -1.5080848024   -0.9793912290    2.1227822206
13   
From optimize.out: Frame 27 / 46, Energy=    -286.8495777652
C        1.6895593133    0.3285172441   -0.3004281670
C        1.0629550673   -0.9136912896   -0.4753628902
C       -0.3155946569   -1.0022208291   -0.3937998176
C       -1.0987345449    0.2115376786    0.0783438202
C       -0.2971060185    1.4721469493   -0.2077403441
N        0.9873534003    1.5123663945   -0.3000269949
H        2.7713372525    0.4185943792   -0.2697737240
H        1.6618197305   -1.7986771285   -0.6722138358
H       -0.8312428878   -1.9487362621   -0.5165251264
H       -2.1178438277    0.3225216521   -0.3252040051
H       -0.8529852666    2.4016893360   -0.3391948887
C       -1.1603446331   -0.1126044961    1.5268390011
H       -1.4991729285   -0.8914436284    2.1950869724
13   
From optimize.out: Frame 26 / 46, Energy=    -286.8476463981
C        1.6896120688    0.3213085890   -0.2767895302
C        1.0642486933   -0.9216838440   -0.4975690475
C       -0.3124237823   -1.0097436015   -0.4125821515
C       -1.1009662068    0.1929616531    0.0847932462
C       -0.3091830320    1.4573173332   -0.2066621748
N        0.9838163546    1.5019755592   -0.2708943498
H        2.7704498814    0.4129054256   -0.2226068070
H        1.6643995006   -1.8004808617   -0.7154412957
H       -0.8394159131   -1.9367478401   -0.6055894934
H       -2.1206875066    0.2718210761   -0.3260989115
H       -0.8679458758    2.3819705050   -0.3563847432
C       -1.1415930161   -0.0641028921    1.5474496492
H       -1.4803111661   -0.8075011019    2.2583756091
13   
From optimize.out: Frame 25 / 46, Energy=    -286.8424396834
C        1.6791291585    0.3127282111   -0.2552541370
C        1.0607112459   -0.9314228714   -0.5049179374
C       -0.3141861657   -1.0220736755   -0.4340242265
C       -1.1094509941    0.1788939854    0.0876056614
C       -0.3211482302    1.4416813943   -0.2091565486
N        0.9733948324    1.4886209320   -0.2496864859
H        2.7587970969    0.4085844239   -0.1793846424
H        1.6670284557   -1.8060838755   -0.7236579610
H       -0.8417168697   -1.9292802140   -0.7098702107
H       -2.1348032053    0.2386010893   -0.3110809892
H       -0.8745541548    2.3684306307   -0.3672823785
C       -1.1060138831   -0.0192372224    1.5549353641
H       -1.4371872864   -0.7294428080    2.3017744916
13   
From optimize.out: Frame 24 / 46, Energy=    -286.8371158843
C        1.6626467179    0.3031283475   -0.2332391476
C        1.0541024620   -0.9416450970   -0.5037594919
C       -0.3193049784   -1.0362012282   -0.4562286950
C       -1.1205594731    0.1670467855    0.0891316174
C       -0.3328362574    1.4254813217   -0.2141598735
N        0.9593847922    1.4738144575   -0.2330498279
H        2.7410508905    0.4044451957   -0.1377270853
H        1.6691014193   -1.8128988816   -0.7142263053
H       -0.8421631564   -1.9212955653   -0.8215127637
H       -2.1539095410    0.2131107546   -0.2872849069
H       -0.8767111903    2.3576617132   -0.3765852961
C       -1.0609752739    0.0233628567    1.5552791393
H       -1.3798264114   -0.6560106603    2.3333626363
13   
From optimize.out: Frame 23 / 46, Energy=    -286.8298358374
C        1.6488655016    0.2914379108   -0.1935050289
C        1.0454503081   -0.9461828075   -0.5059309461
C       -0.3287610970   -1.0394680572   -0.4700483475
C       -1.1204650598    0.1504902432    0.0996256987
C       -0.3423646391    1.4084124146   -0.2231073719
N        0.9505402448    1.4621836946   -0.2149796289
H        2.7264418603    0.3938376824   -0.0880753188
H        1.6651753491   -1.8089940646   -0.7372130442
H       -0.8593606153   -1.8804869811   -0.9159082626
H       -2.1555009860    0.1603493516   -0.2704732262
H       -0.8841345128    2.3376509162   -0.4078652316
C       -1.0215103306    0.0648992584    1.5623914682
H       -1.3243760232   -0.5941295616    2.3650892398
13   
From optimize.out: Frame 22 / 46, Energy=    -286.8271578630
C        1.6359915306    0.2783070158   -0.1621270418
C        1.0400899334   -0.9551817637   -0.5056720742
C       -0.3347254065   -1.0454485232   -0.4851464851
C       -1.1277309357    0.1376353166    0.1092746009
C       -0.3555226151    1.3934727124   -0.2294024836
N        0.9396625813    1.4480771854   -0.1974956543
H        2.7121821732    0.3832372842   -0.0436028384
H        1.6664163346   -1.8113229332   -0.7465347213
H       -0.8736139992   -1.8373982247   -1.0115787462
H       -2.1643736130    0.1107006245   -0.2523364206
H       -0.8908548511    2.3231974015   -0.4318077046
C       -0.9813152287    0.1080875479    1.5655454825
H       -1.2662059038   -0.5333636434    2.3908840867
13   
From optimize.out: Frame 21 / 46, Energy=    -286.8252089152
C        1.6256133451    0.2612100396   -0.1537483666
C        1.0437898668   -0.9764591919   -0.4987248388
C       -0.3310785936   -1.0588974755   -0.5037642178
C       -1.1552546303    0.1349679726    0.1165968277
C       -0.3786699710    1.3843935949   -0.2283977147
N        0.9231884703    1.4271561585   -0.1816251074
H        2.6988825528    0.3726548931   -0.0133859013
H        1.6818798674   -1.8308073299   -0.7182463425
H       -0.8797619452   -1.7880306481   -1.1107583200
H       -2.1932858391    0.0696182746   -0.2305542767
H       -0.8956392067    2.3240404116   -0.4355554311
C       -0.9391115554    0.1558218802    1.5578074322
H       -1.2005523610   -0.4756685796    2.4003562569
13   
From optimize.out: Frame 20 / 46, Energy=    -286.8224850763
C        1.6031507160    0.2484223192   -0.1262183237
C        1.0291068350   -0.9846494235   -0.4888580224
C       -0.3437787593   -1.0627486060   -0.5189687646
C       -1.1684237289    0.1335516635    0.1266105648
C       -0.3908981588    1.3740290811   -0.2395636187
N        0.9099164396    1.4161202817   -0.1773415246
H        2.6738895602    0.3554089052    0.0340194663
H        1.6773194408   -1.8349840722   -0.6990704657
H       -0.8950775828   -1.7280332089   -1.1928180461
H       -2.2028756042    0.0160482430   -0.2090107481
H       -0.8923070649    2.3200869296   -0.4567761676
C       -0.8844023030    0.1886037215    1.5477899296
H       -1.1156197899   -0.4418558342    2.4002057208
13   
From optimize.out: Frame 19 / 46, Energy=    -286.8152770673
C        1.5872971467    0.2350420084   -0.1036018621
C        1.0188628063   -0.9925684855   -0.4777244856
C       -0.3490491277   -1.0545245967   -0.5328141925
C       -1.1888873058    0.1304295086    0.1341198288
C       -0.4052548716    1.3618461500   -0.2525537789
N        0.8970716439    1.4046220956   -0.1739237590
H        2.6550463469    0.3368696919    0.0772745874
H        1.6739843348   -1.8429180900   -0.6714730473
H       -0.9205218819   -1.6508660075   -1.2543705406
H       -2.2194063687   -0.0333357053   -0.1853316135
H       -0.8904723741    2.3148403821   -0.4767155418
C       -0.8300510787    0.2142171595    1.5303502525
H       -1.0286192702   -0.4236541112    2.3867641525
13   
From optimize.out: Frame 18 / 46, Energy=    -286.8076921593
C        1.5744783099    0.2224882261   -0.0867392243
C        1.0095106676   -1.0019598291   -0.4657817424
C       -0.3510056029   -1.0477615964   -0.5431910294
C       -1.2122572049    0.1308284169    0.1370757116
C       -0.4211234369    1.3557551792   -0.2647102642
N        0.8850873783    1.3968121281   -0.1689582824
H        2.6388384282    0.3176932632    0.1148594969
H        1.6714164954   -1.8533408426   -0.6368917142
H       -0.9544019697   -1.5760979300   -1.2927602896
H       -2.2364004471   -0.0778674198   -0.1654954048
H       -0.8900787037    2.3161016409   -0.4912548633
C       -0.7753005041    0.2366350221    1.5052093401
H       -0.9387634100   -0.4192862586    2.3586382659
13   
From optimize.out: Frame 17 / 46, Energy=    -286.8023044781
C        1.5472661529    0.2174484867   -0.0780684272
C        0.9836880232   -1.0201662769   -0.4551041430
C       -0.3698086800   -1.1046326416   -0.5405238557
C       -1.2172427804    0.1586718805    0.1265728266
C       -0.4349982775    1.3917402516   -0.2643429717
N        0.8760267046    1.4119935275   -0.1519356432
H        2.6081747308    0.3006885716    0.1410880550
H        1.6665143810   -1.8594273540   -0.6031280033
H       -0.9884057848   -1.5937291411   -1.2973109446
H       -2.2229115107   -0.1155235901   -0.1768305495
H       -0.8903511311    2.3591459373   -0.4826438566
C       -0.7161191792    0.2739372222    1.4717691872
H       -0.8418326489   -0.4201468738    2.3104583260
13   
From optimize.out: Frame 16 / 46, Energy=    -286.7963620446
C        1.5285383339    0.2132003061   -0.0661247932
C        0.9606450729   -1.0285652063   -0.4361501998
C       -0.3835226452   -1.1038691283   -0.5366142190
C       -1.2215639228    0.1668947963    0.1168735708
C       -0.4446158983    1.4014544521   -0.2772524635
N        0.8672690951    1.4158708124   -0.1464362397
H        2.5849425800    0.2910818190    0.1712296095
H        1.6433724574   -1.8722130134   -0.5583252961
H       -1.0333431763   -1.5473988773   -1.2900786011
H       -2.2168630078   -0.1489202789   -0.1729820437
H       -0.8929296594    2.3729259721   -0.4858255758
C       -0.6523976794    0.2839435639    1.4289704457
H       -0.7395315502   -0.4444052178    2.2527158059
13   
From optimize.out: Frame 15 / 46, Energy=    -286.7939594609
C        1.5111526476    0.2096283158   -0.0523670282
C        0.9362144833   -1.0335609341   -0.4188397217
C       -0.3980387988   -1.0910386289   -0.5484527946
C       -1.2211254920    0.1675243232    0.1141137885
C       -0.4523785410    1.4029069275   -0.2915910839
N        0.8601771748    1.4181232655   -0.1454926886
H        2.5616242891    0.2814115521    0.2069357359
H        1.6130919646   -1.8851905631   -0.5118234305
H       -1.0664267671   -1.4966982113   -1.3038247255
H       -2.2085623041   -0.1826852506   -0.1587264191
H       -0.8989749259    2.3748953362   -0.4952051562
C       -0.5928631344    0.2936608603    1.3952895606
H       -0.6438905961   -0.4589769926    2.2099839631
13   
From optimize.out: Frame 14 / 46, Energy=    -286.7901283509
C        1.4937076164    0.2075894429   -0.0350123823
C        0.9066616169   -1.0334546577   -0.4098332555
C       -0.4170789645   -1.0703763135   -0.6048264443
C       -1.2076939539    0.1557546248    0.1303735680
C       -0.4568721698    1.3930783529   -0.3039613721
N        0.8576008901    1.4209113121   -0.1521003987
H        2.5347311352    0.2682437288    0.2564244869
H        1.5710630663   -1.8956980782   -0.4655313820
H       -1.0615002903   -1.4624987432   -1.3814393917
H       -2.1906333530   -0.2193901369   -0.1222216633
H       -0.9136667943    2.3570157793   -0.5165991660
C       -0.5470590978    0.3148215824    1.3912692893
H       -0.5692597015   -0.4359968935    2.2134581117
13   
From optimize.out: Frame 13 / 46, Energy=    -286.7871011210
C        1.4762625690    0.2055507606   -0.0176577620
C        0.8771085315   -1.0333482909   -0.4008266694
C       -0.4361190847   -1.0497152705   -0.6612004326
C       -1.1942624837    0.1439855052    0.1466336201
C       -0.4613655376    1.3832495386   -0.3163317093
N        0.8550249104    1.4236990216   -0.1587084417
H        2.5078378368    0.2550767468    0.3059134455
H        1.5290336348   -1.9062047113   -0.4192388300
H       -1.0565737181   -1.4283011749   -1.4590545805
H       -2.1727047054   -0.2560938481   -0.0857159758
H       -0.9283582255    2.3391358640   -0.5379932497
C       -0.5012549087    0.3359823752    1.3872485827
H       -0.4946288187   -0.4130165163    2.2169320027
13   
From optimize.out: Frame 12 / 46, Energy=    -286.7842167838
C        1.4588175058    0.2035122725   -0.0003031673
C        0.8475552154   -1.0332418245   -0.3918199548
C       -0.4551591570   -1.0290555221   -0.7175747633
C       -1.1808310872    0.1322169806    0.1628939497
C       -0.4658586343    1.3734204827   -0.3287021019
N        0.8524492535    1.4264863809   -0.1653168310
H        2.4809443875    0.2419106248    0.3554026182
H        1.4870036413   -1.9167104318   -0.3729457522
H       -1.0516470434   -1.3941055545   -1.5366702999
H       -2.1547763867   -0.2927963500   -0.0492093342
H       -0.9430492029    2.3212555925   -0.5593874184
C       -0.4554505517    0.3571432270    1.3832274266
H       -0.4199979403   -0.3900358781    2.2204056284
13   
From optimize.out: Frame 11 / 46, Energy=    -286.7795320067
C        1.4534521955    0.2103410495    0.0073969746
C        0.8091564068   -1.0216899810   -0.3759394859
C       -0.4952900115   -1.0075532889   -0.7263218851
C       -1.1501933165    0.1160795561    0.1537843315
C       -0.4658074846    1.3748370363   -0.3335464193
N        0.8575622600    1.4399631901   -0.1568892357
H        2.4703101976    0.2364218631    0.3761143098
H        1.4314839658   -1.9141216835   -0.3300928270
H       -1.0986384803   -1.3610472714   -1.5380193599
H       -2.1049897685   -0.3499852318   -0.0559364829
H       -0.9609833096    2.3120386080   -0.5604962339
C       -0.4078322058    0.3664041859    1.3582907959
H       -0.3382304489   -0.4016880325    2.1816555178
13   
From optimize.out: Frame 10 / 46, Energy=    -286.7734539290
C        1.4496561963    0.2183220225    0.0138435692
C        0.7696078685   -1.0086509317   -0.3591665886
C       -0.5381606330   -0.9859418909   -0.7288827318
C       -1.1173194442    0.0993743540    0.1413788344
C       -0.4651653824    1.3777146132   -0.3374138448
N        0.8636740391    1.4548290599   -0.1465077983
H        2.4617876665    0.2319309355    0.3930886463
H        1.3742100486   -1.9098310553   -0.2876872515
H       -1.1523749835   -1.3281371227   -1.5294619276
H       -2.0510630030   -0.4098361505   -0.0682796551
H       -0.9793382717    2.3039471281   -0.5589716524
C       -0.3599782706    0.3741190519    1.3306378048
H       -0.2555358305   -0.4178400140    2.1374225955
13   
From optimize.out: Frame 9 / 46, Energy=    -286.7649103197
C        1.4506107583    0.2216856839    0.0135255435
C        0.7526762934   -1.0093006500   -0.3474543936
C       -0.5595682945   -0.9944685992   -0.7245211498
C       -1.1108611417    0.1031734887    0.1315755078
C       -0.4691974587    1.3903585504   -0.3374296384
N        0.8671389120    1.4630197762   -0.1409398749
H        2.4607292010    0.2322427925    0.3953318660
H        1.3530894042   -1.9102585582   -0.2592198490
H       -1.1816095279   -1.3351801578   -1.5113560212
H       -2.0363532823   -0.4254637526   -0.0759394742
H       -0.9878789007    2.3141549043   -0.5482282806
C       -0.3319792088    0.3821733603    1.3071279402
H       -0.2067967543   -0.4321368387    2.0975278242
13   