13   
From optimize.out: Frame 45 / 46, Energy=    -286.8549634740
C        1.6719244309    0.3314353752   -0.3263684253
C        1.0804919964   -0.8827368240   -0.3028906952
C       -0.3507527566   -1.0539018818   -0.0009283164
C       -1.1374459891    0.3655191548    0.1144997171
C       -0.2933788800    1.5329140741   -0.2044643278
N        0.9893830334    1.5494008637   -0.3207906216
H        2.7422075806    0.4208289926   -0.4904210088
H        1.6607263676   -1.7761400108   -0.5208781112
H       -0.8552749409   -1.9042885573   -0.4636294966
H       -2.1694564504    0.4405403106   -0.2337430022
H       -0.8217658915    2.4674880809   -0.4096236625
C       -0.8881700118   -0.5252253247    1.2509821520
H       -1.6284884889   -0.9658342528    1.9082557988
13   
From optimize.out: Frame 44 / 46, Energy=    -286.8549599020
C        1.6704126188    0.3292627752   -0.3316771017
C        1.0774387855   -0.8825365163   -0.3091261083
C       -0.3420994525   -1.0587340543    0.0175294116
C       -1.1547928727    0.3588651726    0.0879784985
C       -0.2932630456    1.5283880475   -0.1863851621
N        0.9913873892    1.5423577425   -0.2778171124
H        2.7374910208    0.4228158486   -0.5097232794
H        1.6530829716   -1.7636121936   -0.5755865081
H       -0.8359258989   -1.9377886307   -0.4021778186
H       -2.1720885515    0.4151572870   -0.3106933306
H       -0.7997682887    2.4794099165   -0.3670192704
C       -0.9028296599   -0.4991132232    1.2459818479
H       -1.6290450163   -0.9344721719    1.9187159338
13   
From optimize.out: Frame 43 / 46, Energy=    -286.8549523897
C        1.6848393250    0.3296777303   -0.2822935426
C        1.0772137844   -0.8750645624   -0.2981552268
C       -0.3462247673   -1.0351239838    0.0240193279
C       -1.1702862882    0.3634333608    0.0602387087
C       -0.2962900653    1.5268308122   -0.1884938657
N        0.9926769167    1.5459638327   -0.2156461365
H        2.7416399813    0.3884540378   -0.5487479589
H        1.6268059729   -1.7601919989   -0.5997214051
H       -0.8178070445   -1.9430022038   -0.3689260203
H       -2.1853083045    0.4498893422   -0.3388797848
H       -0.8238022032    2.4598163912   -0.3964156809
C       -0.9095434138   -0.4771397994    1.2354130923
H       -1.5739138935   -0.9735429590    1.9176084928
13   
From optimize.out: Frame 42 / 46, Energy=    -286.8549403722
C        1.6793614872    0.3346192312   -0.2668122611
C        1.0694252441   -0.8711689681   -0.3179310950
C       -0.3467534767   -1.0323112345   -0.0061375976
C       -1.1752183548    0.3576085958    0.0415524827
C       -0.2915155270    1.5224246616   -0.2034320057
N        0.9948240682    1.5526578424   -0.1749472419
H        2.7397008637    0.3794040775   -0.5397733758
H        1.6089362006   -1.7833628789   -0.5796518476
H       -0.7929725155   -1.9324486741   -0.3895257075
H       -2.2115966118    0.4707549890   -0.3257321017
H       -0.8385518208    2.4485374103   -0.4187352472
C       -0.8888299660   -0.4746869916    1.2217388990
H       -1.5468095914   -0.9720280607    1.9593870994
13   
From optimize.out: Frame 41 / 46, Energy=    -286.8549243670
C        1.6739742722    0.3324335008   -0.2973778577
C        1.0594089148   -0.8714662373   -0.3336829435
C       -0.3493803359   -1.0079389402   -0.0010870033
C       -1.1890850993    0.3598025017    0.0246629754
C       -0.2922218332    1.5095545483   -0.2226456052
N        0.9963928301    1.5474354558   -0.2096243419
H        2.7367842452    0.3822801180   -0.5150781129
H        1.5924422226   -1.7959649955   -0.4864332079
H       -0.8045825004   -1.9056241344   -0.4057810357
H       -2.2320907875    0.4876308806   -0.3198879095
H       -0.8283733164    2.4441590304   -0.3826801768
C       -0.9076533385   -0.4454672016    1.2261467639
H       -1.4556152739   -1.0368345267    1.9234684551
13   
From optimize.out: Frame 40 / 46, Energy=    -286.8549042142
C        1.6733056054    0.3325859882   -0.3411629844
C        1.0507028245   -0.8662113541   -0.3453152117
C       -0.3570437909   -0.9897261102   -0.0006611337
C       -1.2089803625    0.3670556132    0.0088092557
C       -0.2840994992    1.4986059976   -0.2393305539
N        0.9978323005    1.5448014266   -0.2624163314
H        2.7385102685    0.3944617229   -0.5002883414
H        1.5883274393   -1.8062500645   -0.3882344687
H       -0.8180216859   -1.8845390915   -0.4192883175
H       -2.2457943395    0.4974469739   -0.3131629156
H       -0.8025973280    2.4497484515   -0.3390950808
C       -0.9295874079   -0.4192080144    1.2362399703
H       -1.4025540240   -1.1187715393    1.9039061132
13   
From optimize.out: Frame 39 / 46, Energy=    -286.8548815558
C        1.6811731046    0.3306285867   -0.3703917472
C        1.0689220379   -0.8618528609   -0.3110034078
C       -0.3506024072   -0.9864323843    0.0337613901
C       -1.2312465889    0.3775580016   -0.0113855064
C       -0.2742596923    1.4996920422   -0.2338667616
N        0.9930207651    1.5355346259   -0.3086969781
H        2.7543534866    0.4116347687   -0.5398808878
H        1.6093484822   -1.8083661832   -0.3578521438
H       -0.8341379364   -1.9152343116   -0.4333738896
H       -2.2604431916    0.5160151774   -0.3393161979
H       -0.7753326631    2.4742942113   -0.2901792246
C       -0.9703022362   -0.3880087650    1.2599085143
H       -1.4104931606   -1.1854629089    1.9022768403
13   
From optimize.out: Frame 38 / 46, Energy=    -286.8548603203
C        1.6777017270    0.3231629664   -0.3644959499
C        1.0690205468   -0.8743318679   -0.2815716929
C       -0.3266585551   -0.9512490392    0.0125065734
C       -1.2147466782    0.3577021146    0.0008276416
C       -0.2822580451    1.4893258114   -0.2299165750
N        0.9761171438    1.5174070249   -0.3480178438
H        2.7491399454    0.4117329670   -0.5267448582
H        1.6116111542   -1.8100722125   -0.3904363174
H       -0.8359333548   -1.8550713109   -0.3680798288
H       -2.2303195114    0.5279463844   -0.3454772576
H       -0.7780492324    2.4686763235   -0.2877003773
C       -1.0416146877   -0.3862713943    1.2603099809
H       -1.3740104526   -1.2189577675    1.8687965050
13   
From optimize.out: Frame 37 / 46, Energy=    -286.8548366883
C        1.6769098360    0.3295995131   -0.3837836213
C        1.0463091689   -0.8607113839   -0.2716078492
C       -0.3739170799   -0.9312639381    0.0010904149
C       -1.1987385407    0.3563197476    0.0208850119
C       -0.2714740014    1.5014477283   -0.2505074330
N        0.9848655189    1.5276102765   -0.3934436705
H        2.7555068769    0.4041880762   -0.5007568360
H        1.5950296631   -1.7974414353   -0.3163220121
H       -0.8814253721   -1.8381037180   -0.3613775372
H       -2.2232052298    0.5091805259   -0.3127217722
H       -0.7796986978    2.4723052430   -0.2899891490
C       -1.0013495247   -0.3891205092    1.2752698307
H       -1.3288126175   -1.2840101261    1.7832646230
13   
From optimize.out: Frame 36 / 46, Energy=    -286.8547896838
C        1.6754503681    0.3285110875   -0.3839444800
C        1.0455891348   -0.8636619242   -0.2590101518
C       -0.3872816212   -0.9448875129   -0.0375319856
C       -1.1771258684    0.3519170038    0.0354652187
C       -0.2712682984    1.5249444940   -0.2399958092
N        0.9874847048    1.5320518603   -0.4154634286
H        2.7531099480    0.4008303896   -0.5046992283
H        1.6073561069   -1.7917421311   -0.3230226156
H       -0.8942263351   -1.8685158409   -0.3294093393
H       -2.2014853044    0.5020699250   -0.3092207181
H       -0.7853963347    2.4888290654   -0.2866201291
C       -1.0209277793   -0.3532131273    1.3252227094
H       -1.3312787211   -1.3071332892    1.7282299577
13   
From optimize.out: Frame 35 / 46, Energy=    -286.8546950526
C        1.6709977845    0.3262751967   -0.3674795675
C        1.0318336119   -0.8694268729   -0.2692107466
C       -0.4134554117   -0.9441172519   -0.1242709936
C       -1.1373887747    0.3320039615    0.0604196632
C       -0.2744524225    1.5441610754   -0.2326372450
N        0.9943742793    1.5402083136   -0.4202679526
H        2.7508169639    0.3978316784   -0.4606585377
H        1.6026868504   -1.7905078542   -0.3498385498
H       -0.9230685914   -1.8775444140   -0.3380034873
H       -2.1612939920    0.4494425235   -0.3146713820
H       -0.8053912199    2.4930738028   -0.3151992235
C       -1.0292019900   -0.3012377856    1.4041921052
H       -1.3064570878   -1.3001623734    1.7276259172
13   
From optimize.out: Frame 34 / 46, Energy=    -286.8545722417
C        1.6650939571    0.3205411636   -0.3373972791
C        1.0300423420   -0.8757433821   -0.2503421806
C       -0.4133359320   -0.9541790594   -0.1687691090
C       -1.0988591880    0.3138270255    0.0731293242
C       -0.2822427037    1.5642957107   -0.2217819986
N        0.9938651712    1.5431413249   -0.4238995138
H        2.7430104043    0.3884696705   -0.4407557655
H        1.6058239653   -1.7804235359   -0.4283780164
H       -0.9346793696   -1.8879992905   -0.3041776889
H       -2.1172254644    0.4310038298   -0.3259277427
H       -0.8235722412    2.5007984052   -0.3419078625
C       -1.0690573874   -0.2672793552    1.4499445357
H       -1.2988635537   -1.2964525070    1.7202632973
13   
From optimize.out: Frame 33 / 46, Energy=    -286.8544185059
C        1.6630182736    0.3271656693   -0.3466975696
C        1.0261365765   -0.8665020502   -0.2491838846
C       -0.4073356031   -0.9557928273   -0.1623856212
C       -1.0800813304    0.3186524710    0.0673956746
C       -0.2723484822    1.5761518210   -0.2251183651
N        0.9991789291    1.5569525431   -0.4353334874
H        2.7403250737    0.3841214409   -0.4604299446
H        1.6042236555   -1.7689004602   -0.4337467756
H       -0.9184535213   -1.9071970202   -0.1817798633
H       -2.1020151904    0.4897364536   -0.3030956068
H       -0.8258809760    2.5067995580   -0.3425228917
C       -1.0975445051   -0.3125452540    1.4191269256
H       -1.3292229001   -1.3486423450    1.6537714097
13   
From optimize.out: Frame 32 / 46, Energy=    -286.8542042816
C        1.6725821650    0.3327895055   -0.3527748478
C        1.0348740454   -0.8727715908   -0.3001389236
C       -0.3842002981   -0.9616942264   -0.2079686984
C       -1.0788009556    0.3037589615    0.0687667443
C       -0.2695823124    1.5624021828   -0.2205646574
N        1.0019668382    1.5558253437   -0.4182901601
H        2.7518205186    0.3956469428   -0.4414562872
H        1.6170735359   -1.7739019340   -0.4772250067
H       -0.8907227566   -1.9171190587   -0.1755944774
H       -2.0976205441    0.4849685671   -0.3075425959
H       -0.8265687132    2.4916060220   -0.3390955534
C       -1.1366328575   -0.2979084231    1.4315387462
H       -1.3941886656   -1.3036022924    1.7403457174
13   
From optimize.out: Frame 31 / 46, Energy=    -286.8539353649
C        1.6815571538    0.3361876785   -0.3534193293
C        1.0443356790   -0.8812121770   -0.3486364183
C       -0.3622015933   -0.9685707101   -0.2549275251
C       -1.0807006432    0.2864104060    0.0710314848
C       -0.2701911386    1.5457385056   -0.2151602150
N        1.0027796381    1.5508631079   -0.3973240772
H        2.7624209295    0.4064470157   -0.4163415392
H        1.6302616261   -1.7802414312   -0.5232225555
H       -0.8671299582   -1.9256447230   -0.2039601698
H       -2.0963851059    0.4649646163   -0.3160221173
H       -0.8283816233    2.4745468973   -0.3355330787
C       -1.1667884704   -0.2709490863    1.4506538027
H       -1.4495764936   -1.2385400997    1.8428617381
13   
From optimize.out: Frame 30 / 46, Energy=    -286.8532412382
C        1.6873122110    0.3359273216   -0.3452810421
C        1.0526576104   -0.8904720309   -0.3830271351
C       -0.3454092462   -0.9763218881   -0.2944345018
C       -1.0847882313    0.2685476165    0.0734972708
C       -0.2752864185    1.5288806479   -0.2097775196
N        1.0006555888    1.5420965364   -0.3749631017
H        2.7687914471    0.4129901659   -0.3879206644
H        1.6413009437   -1.7857682788   -0.5663665943
H       -0.8528673930   -1.9335109204   -0.2700758172
H       -2.0985654940    0.4306320364   -0.3263129727
H       -0.8324464184    2.4582717761   -0.3325016526
C       -1.1794953856   -0.2340176281    1.4731801654
H       -1.4818592141   -1.1572553544    1.9439835653
13   
From optimize.out: Frame 29 / 46, Energy=    -286.8522590141
C        1.6909178209    0.3351652836   -0.3349744104
C        1.0590308475   -0.8990285632   -0.4166629925
C       -0.3309759724   -0.9845755502   -0.3325417663
C       -1.0893668646    0.2501326274    0.0750963830
C       -0.2808724553    1.5107046523   -0.2065214885
N        0.9974148771    1.5328744464   -0.3518466200
H        2.7728869317    0.4182228533   -0.3553935130
H        1.6509131844   -1.7909951857   -0.6052216755
H       -0.8401905677   -1.9418421149   -0.3426208082
H       -2.1029845683    0.3969977838   -0.3317655554
H       -0.8369421165    2.4409328257   -0.3303178066
C       -1.1849792294   -0.1963218788    1.4933684863
H       -1.5048518872   -1.0722671798    2.0394017672
13   
From optimize.out: Frame 28 / 46, Energy=    -286.8507938357
C        1.6899652241    0.3333393601   -0.3200694981
C        1.0612716031   -0.9060936024   -0.4486980638
C       -0.3215454467   -0.9938948007   -0.3676807435
C       -1.0949868286    0.2305466214    0.0748575914
C       -0.2874992115    1.4897333591   -0.2077753496
N        0.9918061253    1.5226863653   -0.3271279810
H        2.7721578878    0.4206765194   -0.3141584226
H        1.6574991068   -1.7955860264   -0.6349814170
H       -0.8308765280   -1.9511594013   -0.4288001301
H       -2.1121510929    0.3648444329   -0.3269578980
H       -0.8423516052    2.4213378755   -0.3299313740
C       -1.1751455310   -0.1570053426    1.5085986595
H       -1.5081437033   -0.9794253603    2.1227246266
13   
From optimize.out: Frame 27 / 46, Energy=    -286.8495777652
C        1.6895656350    0.3285585732   -0.3003474077
C        1.0629985939   -0.9136635530   -0.4753188682
C       -0.3155528607   -1.0022258229   -0.3938206014
C       -1.0987431426    0.2115115109    0.0782938774
C       -0.2971307585    1.4721412598   -0.2077452778
N        0.9873320206    1.5123913002   -0.2999718020
H        2.7713400372    0.4186608189   -0.2696419855
H        1.6618931286   -1.7986341951   -0.6721472547
H       -0.8311732357   -1.9487525701   -0.5165756836
H       -2.1178362056    0.3224740982   -0.3253007871
H       -0.8530256141    2.4016714440   -0.3392201073
C       -1.1604131809   -0.1126408802    1.5267842209
H       -1.4992544174   -0.8914919840    2.1950116771
13   
From optimize.out: Frame 26 / 46, Energy=    -286.8476463981
C        1.6896177872    0.3213640157   -0.2766902582
C        1.0643059002   -0.9216459558   -0.4975168634
C       -0.3123686610   -1.0097495806   -0.4126092536
C       -1.1009770771    0.1929264161    0.0847322628
C       -0.3092168605    1.4573095585   -0.2066663862
N        0.9837847871    1.5020088421   -0.2708244442
H        2.7704496423    0.4129941799   -0.2224450801
H        1.6644966294   -1.8004221849   -0.7153629886
H       -0.8393207762   -1.9367685350   -0.6056551676
H       -2.1206774205    0.2717577078   -0.3262172965
H       -0.8680001073    2.3819466208   -0.3564122957
C       -1.1416792175   -0.0641528650    1.5473839815
H       -1.4804146260   -0.8075682196    2.2582837899
13   
From optimize.out: Frame 25 / 46, Energy=    -286.8424396834
C        1.6791340040    0.3127958498   -0.2551393587
C        1.0607807353   -0.9313764355   -0.5048576069
C       -0.3141178729   -1.0220811334   -0.4340560939
C       -1.1094637161    0.1788501685    0.0875339820
C       -0.3211900633    1.4416712396   -0.2091623066
N        0.9733538706    1.4886612385   -0.2496058487
H        2.7587932014    0.4086929648   -0.1791971978
H        1.6671462554   -1.8060116497   -0.7235668361
H       -0.8415952168   -1.9293050804   -0.7099468619
H       -2.1347917802    0.2385219514   -0.3112200527
H       -0.8746213075    2.3684007962   -0.3673148578
C       -1.1061163009   -0.0192967355    1.5548617725
H       -1.4373118088   -0.7295231744    2.3016712664
13   
From optimize.out: Frame 24 / 46, Energy=    -286.8371158843
C        1.6626504198    0.3032068192   -0.2331107249
C        1.0541830701   -0.9415909882   -0.5036919501
C       -0.3192236298   -1.0362101631   -0.4562653272
C       -1.1205737516    0.1669947315    0.0890496109
C       -0.3328850241    1.4254688049   -0.2141673903
N        0.9593352393    1.4738609415   -0.2329598262
H        2.7410428162    0.4045715431   -0.1375165338
H        1.6692374366   -1.8128142251   -0.7141232972
H       -0.8420141523   -1.9213238062   -0.8215994469
H       -2.1538976766    0.2130163130   -0.2874438579
H       -0.8767901677    2.3576264489   -0.3766221976
C       -1.0610929899    0.0232955621    1.5551998392
H       -1.3799715899   -0.6561019817    2.3332511020
13   
From optimize.out: Frame 23 / 46, Energy=    -286.8298358374
C        1.6488667268    0.2915252699   -0.1933629455
C        1.0455398187   -0.9461193635   -0.5058646178
C       -0.3286698262   -1.0394747863   -0.4700972921
C       -1.1204808717    0.1504315486    0.0995364700
C       -0.3424173904    1.4083998059   -0.2231060127
N        0.9504841010    1.4622362268   -0.2148705314
H        2.7264292142    0.3939772605   -0.0878422311
H        1.6653275143   -1.8088944537   -0.7371137409
H       -0.8591900923   -1.8805111437   -0.9160186256
H       -2.1554867744    0.1602461482   -0.2706475920
H       -0.8842189698    2.3376148204   -0.4078890223
C       -1.0216424323    0.0648148261    1.5623085956
H       -1.3245410181   -0.5942461592    2.3649675458
13   
From optimize.out: Frame 22 / 46, Energy=    -286.8271578630
C        1.6359904970    0.2784030262   -0.1619725584
C        1.0401884877   -0.9551090289   -0.5056067354
C       -0.3346236434   -1.0454531106   -0.4852067964
C       -1.1277483895    0.1375692056    0.1091776796
C       -0.3555798560    1.3934595314   -0.2293938311
N        0.9395994305    1.4481353599   -0.1973695134
H        2.7121646711    0.3833899124   -0.0433490028
H        1.6665842214   -1.8112082466   -0.7464381953
H       -0.8734209254   -1.8374175948   -1.0117102771
H       -2.1643571988    0.1105871631   -0.2525268890
H       -0.8909458655    2.3231602215   -0.4318199576
C       -0.9814613498    0.1079873109    1.5654607990
H       -1.2663900794   -0.5335037503    2.3907552778
13   
From optimize.out: Frame 21 / 46, Energy=    -286.8252089152
C        1.6256118933    0.2613155353   -0.1535843607
C        1.0438975640   -0.9763775772   -0.4986592092
C       -0.3309653274   -1.0589003996   -0.5038324937
C       -1.1552740527    0.1348927460    0.1164913937
C       -0.3787335044    1.3843781812   -0.2283857973
N        0.9231178354    1.4272193377   -0.1814876197
H        2.6988608486    0.3728216505   -0.0131157318
H        1.6820611281   -1.8306787825   -0.7181495197
H       -0.8795458921   -1.7880463244   -1.1109041766
H       -2.1932681398    0.0694911299   -0.2307609159
H       -0.8957408921    2.3240003274   -0.4355602020
C       -0.9392696313    0.1557099832    1.5577233158
H       -1.2007518296   -0.4758258076    2.4002253173
13   
From optimize.out: Frame 20 / 46, Energy=    -286.8224850763
C        1.6031474873    0.2485315267   -0.1260442236
C        1.0292196279   -0.9845597118   -0.4888012507
C       -0.3436578859   -1.0627457732   -0.5190546143
C       -1.1684451197    0.1334704046    0.1264987965
C       -0.3909623315    1.3740154435   -0.2395371159
N        0.9098432557    1.4161873427   -0.1771814212
H        2.6738632325    0.3555792972    0.0343070132
H        1.6775082030   -1.8348425491   -0.6989889959
H       -0.8948457422   -1.7280334505   -1.1929916315
H       -2.2028554801    0.0159165650   -0.2092327970
H       -0.8924101342    2.3200514716   -0.4567549101
C       -0.8845709863    0.1884724191    1.5477095273
H       -1.1158341265   -0.4420429860    2.4000716232
13   
From optimize.out: Frame 19 / 46, Energy=    -286.8152770673
C        1.5872925362    0.2351525837   -0.1034214219
C        1.0189778365   -0.9924719586   -0.4776796839
C       -0.3489242662   -1.0545143943   -0.5329161575
C       -1.1889098671    0.1303431751    0.1340037149
C       -0.4053178406    1.3618352450   -0.2525115285
N        0.8969976434    1.4046917498   -0.1737427857
H        2.6550161497    0.3370390842    0.0775729091
H        1.6741753980   -1.8427665422   -0.6714126158
H       -0.9202825021   -1.6508484726   -1.2545692486
H       -2.2193848019   -0.0334698045   -0.1855655654
H       -0.8905744509    2.3148115639   -0.4766647909
C       -0.8302250124    0.2140676337    1.5302768237
H       -1.0288408226   -0.4238698631    2.3866303504
13   
From optimize.out: Frame 18 / 46, Energy=    -286.8076921593
C        1.5744728189    0.2225981619   -0.0865566463
C        1.0096254516   -1.0018581952   -0.4657515681
C       -0.3508796560   -1.0477433918   -0.5433075027
C       -1.2122802086    0.1307384346    0.1369580727
C       -0.4211845837    1.3557476263   -0.2646516563
N        0.8850134503    1.3968830474   -0.1687591020
H        2.6388054650    0.3178577592    0.1151613065
H        1.6716051727   -1.8531827648   -0.6368565165
H       -0.9541624574   -1.5760624222   -1.2929803623
H       -2.2363779032   -0.0780016559   -0.1657366579
H       -0.8901790545    2.3160804998   -0.4911726986
C       -0.7754744234    0.2364698509    1.5051457043
H       -0.9389840717   -0.4195269502    2.3585076271
13   
From optimize.out: Frame 17 / 46, Energy=    -286.8023044781
C        1.5472599723    0.2175564603   -0.0778898994
C        0.9838019040   -1.0200631267   -0.4550891909
C       -0.3696804224   -1.1046108657   -0.5406560755
C       -1.2172662545    0.1585813916    0.1264604299
C       -0.4350620950    1.3917342458   -0.2642695569
N        0.8759499255    1.4120638185   -0.1517249122
H        2.6081404247    0.3008473788    0.1413833881
H        1.6666985371   -1.8592668856   -0.6031138281
H       -0.9881672193   -1.5936834862   -1.2975487467
H       -2.2228856394   -0.1156541258   -0.1770702830
H       -0.8904557336    2.3591286777   -0.4825352329
C       -0.7162893278    0.2737650999    1.4717184139
H       -0.8420440716   -0.4203985826    2.3103354937
13   
From optimize.out: Frame 16 / 46, Energy=    -286.7963620446
C        1.5285312176    0.2133034179   -0.0659565447
C        0.9607525552   -1.0284632645   -0.4361538463
C       -0.3834006408   -1.1038429362   -0.5367552632
C       -1.2215858250    0.1668063651    0.1167708468
C       -0.4446778661    1.4014523494   -0.2771636962
N        0.8671935231    1.4159395573   -0.1462189340
H        2.5849075098    0.2912295583    0.1715075992
H        1.6435452636   -1.8720562929   -0.5583421357
H       -1.0331200076   -1.5473429718   -1.2903243701
H       -2.2168367828   -0.1490445224   -0.1732109726
H       -0.8930329933    2.3729150724   -0.4856888593
C       -0.6525542019    0.2837677412    1.4289339022
H       -0.7397217517   -0.4446640738    2.2526022741
13   
From optimize.out: Frame 15 / 46, Energy=    -286.7939594609
C        1.5111443756    0.2097276944   -0.0522075769
C        0.9363169003   -1.0334592413   -0.4188617129
C       -0.3979209911   -1.0910064254   -0.5486023217
C       -1.2211462973    0.1674365613    0.1140199162
C       -0.4524391993    1.4029090672   -0.2914866580
N        0.8601022516    1.4181918345   -0.1452670911
H        2.5615879229    0.2815493138    0.2071983505
H        1.6132558001   -1.8850371313   -0.5118721583
H       -1.0662149123   -1.4966291338   -1.3040772587
H       -2.2085364707   -0.1828060694   -0.1589466157
H       -0.8990774650    2.3748908446   -0.4950405139
C       -0.5930085121    0.2934791432    1.3952660148
H       -0.6440634028   -0.4592464577    2.2098776258
13   
From optimize.out: Frame 14 / 46, Energy=    -286.7901283509
C        1.4936974025    0.2076895061   -0.0348543535
C        0.9067648375   -1.0333490463   -0.4098711899
C       -0.4169558625   -1.0703332850   -0.6049874466
C       -1.2077156611    0.1556619347    0.1302831565
C       -0.4569344564    1.3930840650   -0.3038415422
N        0.8575231773    1.4209839913   -0.1518593814
H        2.5346908605    0.2683770652    0.2566829484
H        1.5712267195   -1.8955433178   -0.4656092313
H       -1.0612822766   -1.4624074730   -1.3817034941
H       -2.1906082653   -0.2195168481   -0.1224436028
H       -0.9137719717    2.3570166685   -0.5164090447
C       -0.5472041938    0.3146257814    1.3912565215
H       -0.5694303099   -0.4362890420    2.2133566602
13   
From optimize.out: Frame 13 / 46, Energy=    -286.7871011210
C        1.4762504294    0.2056513178   -0.0175011301
C        0.8772127747   -1.0332388514   -0.4008806669
C       -0.4359907340   -1.0496601445   -0.6613725715
C       -1.1942850248    0.1438873080    0.1465463968
C       -0.4614297136    1.3832590629   -0.3161964264
N        0.8549441029    1.4237761480   -0.1584516717
H        2.5077937981    0.2552048166    0.3061675463
H        1.5291976389   -1.9060495042   -0.4193463044
H       -1.0563496408   -1.4281858121   -1.4593297295
H       -2.1726800599   -0.2562276268   -0.0859405900
H       -0.9284664784    2.3391424924   -0.5377775754
C       -0.5013998756    0.3357724196    1.3872470281
H       -0.4947972169   -0.4133316263    2.2168356945
13   
From optimize.out: Frame 12 / 46, Energy=    -286.7842167838
C        1.4588034562    0.2036131295   -0.0001479066
C        0.8476607119   -1.0331286564   -0.3918901439
C       -0.4550256054   -1.0289870040   -0.7177576963
C       -1.1808543885    0.1321126814    0.1628096371
C       -0.4659249708    1.3734340607   -0.3285513106
N        0.8523650285    1.4265683047   -0.1650439619
H        2.4808967357    0.2420325680    0.3556521443
H        1.4871685582   -1.9165556907   -0.3730833774
H       -1.0514170051   -1.3939641513   -1.5369559649
H       -2.1547518545   -0.2929384054   -0.0494375772
H       -0.9431609851    2.3212683164   -0.5591461061
C       -0.4555955574    0.3569190577    1.3832375348
H       -0.4201641239   -0.3903742106    2.2203147289
13   
From optimize.out: Frame 11 / 46, Energy=    -286.7795320067
C        1.4534372592    0.2104395862    0.0075280234
C        0.8092522038   -1.0215781863   -0.3760370793
C       -0.4951711837   -1.0074784481   -0.7265066975
C       -1.1502118016    0.1159776654    0.1537229382
C       -0.4658789131    1.3748550387   -0.3333724100
N        0.8574742622    1.4400454621   -0.1566148379
H        2.4702682187    0.2365348903    0.3763189040
H        1.4316378138   -1.9139740771   -0.3302814565
H       -1.0984398264   -1.3608922201   -1.5382984268
H       -2.1049619298   -0.3501211655   -0.0561330689
H       -0.9611034578    2.3120566399   -0.5602157724
C       -0.4079503429    0.3661727843    1.3583177212
H       -0.3383523022   -0.4020379700    2.1815721626
13   
From optimize.out: Frame 10 / 46, Energy=    -286.7734539290
C        1.4496407717    0.2184178662    0.0139465392
C        0.7696929378   -1.0085412297   -0.3592923338
C       -0.5380597714   -0.9858613428   -0.7290661225
C       -1.1173327885    0.0992760844    0.1413424075
C       -0.4652427819    1.3777372577   -0.3372146108
N        0.8635824724    1.4549109698   -0.1462339138
H        2.4617535470    0.2320344042    0.3932412321
H        1.3743527373   -1.9096919066   -0.2879292397
H       -1.1522134543   -1.3279696785   -1.5297289943
H       -2.0510320684   -0.4099639425   -0.0684415370
H       -0.9794679534    2.3039705211   -0.5586479158
C       -0.3600659325    0.3738812114    1.3306809354
H       -0.2556077159   -0.4182002147    2.1373435535
13   
From optimize.out: Frame 9 / 46, Energy=    -286.7649103197
C        1.4505954959    0.2217803489    0.0136102524
C        0.7527553842   -1.0091941766   -0.3475922983
C       -0.5594774964   -0.9943887513   -0.7247008416
C       -1.1108724575    0.1030780328    0.1315547851
C       -0.4692789385    1.3903817820   -0.3372205408
N        0.8670459617    1.4631004497   -0.1406740243
H        2.4607003772    0.2323431433    0.3954522942
H        1.3532256840   -1.9101262543   -0.2594832674
H       -1.1814694881   -1.3350145638   -1.5116117610
H       -2.0363223099   -0.4255874283   -0.0760768693
H       -0.9880149686    2.3141775873   -0.5478872212
C       -0.3320487323    0.3819397546    1.3071785600
H       -0.2068385118   -0.4324899243    2.0974509324
13   
From optimize.out: Frame 8 / 46, Energy=    -286.7540980745
C        1.4603314836    0.2166118428    0.0007896341
C        0.7776276321   -1.0351490166   -0.3452159748
C       -0.5412124385   -1.0586297200   -0.7075372111
C       -1.1532395467    0.1447749240    0.1265594160
C       -0.4819504903    1.4210691510   -0.3301362153
N        0.8656214367    1.4589511910   -0.1440244463
H        2.4734376714    0.2415403671    0.3704737649
H        1.3989264530   -1.9192777441   -0.2567390329
H       -1.1654117222   -1.4159278704   -1.4758481334
H       -2.0940997570   -0.3594841308   -0.0750752392
H       -0.9784171637    2.3581944035   -0.5201361800
C       -0.3407504196    0.3906453880    1.2913174661
H       -0.2208631387   -0.4433187854    2.0655721518
13   
From optimize.out: Frame 7 / 46, Energy=    -286.7388763401
C        1.4700674712    0.2114433367   -0.0120309842
C        0.8024998799   -1.0611038567   -0.3428396513
C       -0.5229473805   -1.1228706887   -0.6903735806
C       -1.1956066359    0.1864718151    0.1215640470
C       -0.4946220422    1.4517565201   -0.3230518897
N        0.8641969117    1.4548019322   -0.1473748683
H        2.4861749657    0.2507375910    0.3454952356
H        1.4446272219   -1.9284292339   -0.2539947984
H       -1.1493539564   -1.4968411771   -1.4400845058
H       -2.1518772041   -0.2933808333   -0.0740736090
H       -0.9688193588    2.4022112196   -0.4923851387
C       -0.3494521070    0.3993510213    1.2754563723
H       -0.2348877655   -0.4541476466    2.0336933713
13   