
Running Job 1 of 1 irc_product.in
qchem irc_product.in_43367.0 ./irc_product.d/ 1
/home/leeping/opt/qchem/5.0.2-openmp/exe/qcprog.exe_s irc_product.in_43367.0 ./irc_product.d/
Check license passed

                  Welcome to Q-Chem
     A Quantum Leap Into The Future Of Chemistry


 Q-Chem 5.0, Q-Chem, Inc., Pleasanton, CA (2017)

 Yihan Shao,  Zhengting Gan,  E. Epifanovsky,  A. T. B. Gilbert,  M. Wormit,  
 J. Kussmann,  A. W. Lange,  A. Behn,  Jia Deng,  Xintian Feng,  D. Ghosh,  
 M. Goldey,  P. R. Horn,  L. D. Jacobson,  I. Kaliman,  T. Kus,  A. Landau,  
 Jie Liu,  E. I. Proynov,  R. M. Richard,  R. P. Steele,  E. J. Sundstrom,  
 H. L. Woodcock III,  P. M. Zimmerman,  D. Zuev,  B. Albrecht,  E. Alguire,  
 S. A. Baeppler,  D. Barton,  Z. Benda,  Y. A. Bernard,  E. J. Berquist,  
 K. B. Bravaya,  H. Burton,  D. Casanova,  Chun-Min Chang,  Yunqing Chen,  
 A. Chien,  K. D. Closser,  M. P. Coons,  S. Dasgupta,  A. L. Dempwolff,  
 M. Diedenhofen,  Hainam Do,  R. G. Edgar,  Po-Tung Fang,  S. Fatehi,  
 Qingguo Feng,  J. Fosso-Tande,  Qinghui Ge,  A. Ghysels,  G. Gidofalvi,  
 J. Gomes,  J. Gonthier,  A. Gunina,  M. W. D. Hanson-Heine,  
 P. H. P. Harbach,  A. W. Hauser,  J. E. Herr,  E. G. Hohenstein,  
 Z. C. Holden,  Kerwin Hui,  T.-C. Jagau,  Hyunjun Ji,  B. Kaduk,  
 K. Khistyaev,  Jaehoon Kim,  P. Klunzinger,  K. Koh,  D. Kosenkov,  
 L. Koulias,  T. Kowalczyk,  C. M. Krauter,  A. Kunitsa,  Ka Un Lao,  
 A. Laurent,  K. V. Lawler,  Joonho Lee,  D. Lefrancois,  S. Lehtola,  
 D. S. Levine,  Yi-Pei Li,  You-Sheng Lin,  Fenglai Liu,  E. Livshits,  
 A. Luenser,  P. Manohar,  E. Mansoor,  S. F. Manzer,  Shan-Ping Mao,  
 Yuezhi Mao,  N. Mardirossian,  A. V. Marenich,  T. Markovich,  
 L. A. Martinez-Martinez,  S. A. Maurer,  N. J. Mayhall,  S. C. McKenzie,  
 J.-M. Mewes,  A. F. Morrison,  J. W. Mullinax,  K. Nanda,  
 T. S. Nguyen-Beck,  R. Olivares-Amaya,  J. A. Parkhill,  T. M. Perrine,  
 F. Plasser,  S. Prager,  A. Prociuk,  E. Ramos,  D. R. Rehn,  F. Rob,  
 M. Schneider,  N. Sergueev,  S. M. Sharada,  S. Sharma,  D. W. Small,  
 T. Stauch,  T. Stein,  Yu-Chuan Su,  A. J. W. Thom,  A. Tkatchenko,  
 T. Tsuchimochi,  L. Vogt,  O. Vydrov,  M. A. Watson,  J. Wenzel,  
 M. de Wergifosse,  T. A. Wesolowski,  A. White,  J. Witte,  A. Yamada,  
 Jun Yang,  K. Yao,  S. Yeganeh,  S. R. Yost,  Zhi-Qiang You,  A. Zech,  
 Igor Ying Zhang,  Xing Zhang,  Yan Zhao,  Ying Zhu,  B. R. Brooks,  
 G. K. L. Chan,  C. J. Cramer,  M. S. Gordon,  W. J. Hehre,  A. Klamt,  
 M. W. Schmidt,  C. D. Sherrill,  D. G. Truhlar,  A. Aspuru-Guzik,  R. Baer,  
 A. T. Bell,  N. A. Besley,  Jeng-Da Chai,  R. A. DiStasio Jr.,  A. Dreuw,  
 B. D. Dunietz,  T. R. Furlani,  Chao-Ping Hsu,  Yousung Jung,  Jing Kong,  
 D. S. Lambrecht,  WanZhen Liang,  C. Ochsenfeld,  V. A. Rassolov,  
 L. V. Slipchenko,  J. E. Subotnik,  T. Van Voorhis,  J. M. Herbert,  
 A. I. Krylov,  P. M. W. Gill,  M. Head-Gordon

 Contributors to earlier versions of Q-Chem not listed above: 
 R. D. Adamson,  B. Austin,  J. Baker,  G. J. O. Beran,  K. Brandhorst,  
 S. T. Brown,  E. F. C. Byrd,  A. K. Chakraborty,  C.-L. Cheng,  
 Siu Hung Chien,  D. M. Chipman,  D. L. Crittenden,  H. Dachsel,  
 R. J. Doerksen,  A. D. Dutoi,  L. Fusti-Molnar,  W. A. Goddard III,  
 A. Golubeva-Zadorozhnaya,  S. R. Gwaltney,  G. Hawkins,  A. Heyden,  
 S. Hirata,  G. Kedziora,  F. J. Keil,  C. Kelley,  Jihan Kim,  R. A. King,  
 R. Z. Khaliullin,  P. P. Korambath,  W. Kurlancheek,  A. M. Lee,  M. S. Lee,  
 S. V. Levchenko,  Ching Yeh Lin,  D. Liotard,  R. C. Lochan,  I. Lotan,  
 P. E. Maslen,  N. Nair,  D. P. O'Neill,  D. Neuhauser,  E. Neuscamman,  
 C. M. Oana,  R. Olson,  B. Peters,  R. Peverati,  P. A. Pieniazek,  
 Y. M. Rhee,  J. Ritchie,  M. A. Rohrdanz,  E. Rosta,  N. J. Russ,  
 H. F. Schaefer III,  N. E. Schultz,  N. Shenvi,  A. C. Simmonett,  A. Sodt,  
 D. Stuck,  K. S. Thanthiriwatte,  V. Vanovschi,  Tao Wang,  A. Warshel,  
 C. F. Williams,  Q. Wu,  X. Xu,  W. Zhang

 Please cite Q-Chem as follows:
 Y. Shao et al., Mol. Phys. 113, 184-215 (2015)
 DOI: 10.1080/00268976.2014.952696

 Q-Chem 5.0.2 for Intel X86 EM64T Linux

 Parts of Q-Chem use Armadillo 5.200.1 (Boston Tea Smuggler).
 http://arma.sourceforge.net/

 Q-Chem begins on Wed Mar  2 23:58:39 2022  

Host: 
0

     Scratch files written to ./irc_product.d//
 Dec517 15110_ 26548  26544 5633   
Processing $rem in /home/leeping/opt/qchem/5.0.2-openmp/config/preferences.
 MEM_STATIC 2000
 MEM_TOTAL  8000
 SYMMETRY   OFF
 SYM_IGNORE TRUE 

Checking the input file for inconsistencies... 	...done.

--------------------------------------------------------------
User input:
--------------------------------------------------------------
$molecule
0 2
C        0.6306851241   -0.0078315587    0.3192927897
C        1.0085150912   -1.2392780196   -0.4826126645
C        0.2895449529   -2.3326656526   -0.5968148789
C       -1.3310823940    1.1876160335    0.4427329062
C       -0.3192377021    1.8586192971   -0.3871206540
N        0.7938978362    1.2119605552   -0.4921204525
H        1.3513300193    0.0824900885    1.1510730420
H        1.9752601365   -1.1585814376   -0.9929070835
H        0.3680396157   -3.2916794127   -1.0911916668
H       -2.3272046852    1.5604368448    0.6504284253
H       -0.4582329634    2.8158075126   -0.8861689394
C       -0.7707021251    0.0385101092    0.8682765853
H       -1.2108129061   -0.7254043597    1.4971325910
$end

$rem
method                b3lyp
basis                 6-31+g(d,p)
unrestricted          true
symmetry              off
sym_ignore            true
incdft                false
incfock               0
scf_convergence       8
thresh                14
jobtype               sp
scf_guess             read
scf_algorithm         diis
max_scf_cycles        100
scf_final_print       1
$end

--------------------------------------------------------------
 ----------------------------------------------------------------
             Standard Nuclear Orientation (Angstroms)
    I     Atom           X                Y                Z
 ----------------------------------------------------------------
    1      C       0.6306851241    -0.0078315587     0.3192927897
    2      C       1.0085150912    -1.2392780196    -0.4826126645
    3      C       0.2895449529    -2.3326656526    -0.5968148789
    4      C      -1.3310823940     1.1876160335     0.4427329062
    5      C      -0.3192377021     1.8586192971    -0.3871206540
    6      N       0.7938978362     1.2119605552    -0.4921204525
    7      H       1.3513300193     0.0824900885     1.1510730420
    8      H       1.9752601365    -1.1585814376    -0.9929070835
    9      H       0.3680396157    -3.2916794127    -1.0911916668
   10      H      -2.3272046852     1.5604368448     0.6504284253
   11      H      -0.4582329634     2.8158075126    -0.8861689394
   12      C      -0.7707021251     0.0385101092     0.8682765853
   13      H      -1.2108129061    -0.7254043597     1.4971325910
 ----------------------------------------------------------------
 Nuclear Repulsion Energy =   259.4591485659 hartrees
 There are       25 alpha and       24 beta electrons
 Requested basis set is 6-31+G(d,p)
 There are 53 shells and 163 basis functions

 Total QAlloc Memory Limit   8000 MB
 Mega-Array Size      1956 MB
 MEM_STATIC part      2000 MB

                       Distance Matrix (Angstroms)
             C (  1)   C (  2)   C (  3)   C (  4)   C (  5)   N (  6)
   C (  2)  1.517323
   C (  3)  2.522000  1.313566
   C (  4)  2.300623  3.495682  4.012415
   C (  5)  2.210206  3.371797  4.240455  1.470623
   N (  6)  1.474084  2.460634  3.581858  2.321656  1.291613
   H (  7)  1.104240  2.129207  3.164724  2.986367  2.882962  2.070391
   H (  8)  2.203174  1.096133  2.092128  4.300884  3.838645  2.695528
   H (  9)  3.583588  2.234486  1.081794  5.030311  5.243438  4.563224
   H ( 10)  3.364258  4.499912  4.853786  1.083694  2.279770  3.341876
   H ( 11)  3.257579  4.331042  5.210535  2.275710  1.088383  2.072542
   C ( 12)  1.505794  2.573569  2.982129  1.347426  2.256688  2.382360
   H ( 13)  2.300724  3.018091  3.036277  2.187663  3.320014  3.424818
             H (  7)   H (  8)   H (  9)   H ( 10)   H ( 11)   C ( 12)
   H (  8)  2.554642
   H (  9)  4.168888  2.672625
   H ( 10)  3.995821  5.348347  5.817269
   H ( 11)  3.859520  4.661443  6.166535  2.725829
   C ( 12)  2.141245  3.526662  4.028202  2.187789  3.299863
   H ( 13)  2.708695  4.066817  3.972149  2.681102  4.334361  1.082923

 
 A cutoff of  1.0D-14 yielded   1365 shell pairs
 There are     13278 function pairs
 
 -------------------------------------------------------
 OpenMP Integral Computing Module                       
 Release: version 1.0, May 2013, Q-Chem Inc. Pittsburgh 
 -------------------------------------------------------
 Integral Job Info:
 Integral job number is                      11
 Integral operator is                         1
 short-range coefficients                     0
 long-range coefficients              100000000
 Omega coefficients                           0
 if combine SR and LR in K                    0
 Integral screening is                        0
 Integral computing path is                   2
 max size of driver memory is            800000
 size of driver memory is                593474
 size of scratch memory is              2361544
 max col of scratch BK array               1296
 max len of scratch array in speh3          155
 max len of scratch index in speh4           18
 max int batch size is                      520
 min int batch size is                       52
 fixed nKL is                                52
 max L of basis functions is                  2
 order of int derivative is                   0
 number of shells is                         53
 number of basis is                         163
 number of cartesian basis is               163
 number of contracted shell pairs          1365
 number of primitive shell pairs           4543
 maxK2 (contraction) of shell pair           36
 max number of K2 of shell pair               1
 max number of CS2 of shell pair            127
 max number of PS2 of shell pair            660
 mem total for path MDJ                  531564
 -------------------------------------------------------
 Smallest overlap matrix eigenvalue = 1.27E-05

 Scale SEOQF with 1.000000e-01/1.000000e-01/1.000000e-01

 Standard Electronic Orientation quadrupole field applied
 Nucleus-field energy     =     0.0000000069 hartrees
 Guess MOs from SCF MO coefficient file
 Reading MOs from coefficient file
 Reading MOs from coefficient file
 An unrestricted hybrid HF-DFT SCF calculation will be
 performed using Pulay DIIS extrapolation
 Exchange:     0.2000 Hartree-Fock + 0.0800 Slater + 0.7200 B88
 Correlation:  0.1900 VWN1RPA + 0.8100 LYP
 Using SG-1 standard quadrature grid
 SCF converges when DIIS error is below 1.0E-08
Using Q-Chem read-in guess as SCF_GUESS READ specified.

 using 4 threads for integral computing
 -------------------------------------------------------
 OpenMP Integral computing Module                
 Release: version 1.0, May 2013, Q-Chem Inc. Pittsburgh 
 -------------------------------------------------------
 -------------------------------------------------------
 OpenMP BLAS3 based DFT computing Module                
 Release: version 1.0, May 2013, Q-Chem Inc. Pittsburgh 
 -------------------------------------------------------
 ---------------------------------------
  Cycle       Energy         DIIS Error
 ---------------------------------------
    1    -286.8748335197      1.50E-09
    2    -286.8748335197      2.23E-09 Convergence criterion met
 ---------------------------------------
 One-Electron    Energy =  -899.4132652981
 Total Coulomb   Energy =   394.6343681860
 Alpha Exchange  Energy =    -4.0133296251
 Beta  Exchange  Energy =    -3.9227281162
 DFT   Exchange  Energy =   -31.5248003430
 DFT Correlation Energy =    -2.0942268961
 Nuclear Repu.   Energy =   259.4591485728
 Nuclear Attr.   Energy = -1183.4980068298
 Kinetic         Energy =   284.0847415317
 <S^2> = 0.7601
 SCF time:  CPU 10.08 s  wall 3.18 s
 Final Alpha MO Eigenvalues
            1           2           3           4           5           6
    1 -14.3362369 -10.2386387 -10.2352965 -10.2219363 -10.2149991 -10.2126018
            7           8           9          10          11          12
    1 -10.2076546  -0.9555305  -0.8026091  -0.7761401  -0.7153607  -0.6055561
           13          14          15          16          17          18
    1  -0.5661041  -0.5473631  -0.5166640  -0.4780287  -0.4576958  -0.4169993
           19          20          21          22          23          24
    1  -0.4082865  -0.3812694  -0.3369196  -0.2858784  -0.2778744  -0.2662408
           25          26          27          28          29          30
    1  -0.2448409  -0.0528123  -0.0080569   0.0102285   0.0199833   0.0300303
 Final Beta MO Eigenvalues
            1           2           3           4           5           6
    1 -14.3363444 -10.2376395 -10.2352240 -10.2166006 -10.2125278 -10.2076514
            7           8           9          10          11          12
    1 -10.2070408  -0.9553031  -0.7941125  -0.7749957  -0.7044264  -0.5971669
           13          14          15          16          17          18
    1  -0.5649817  -0.5386062  -0.5135732  -0.4669207  -0.4527190  -0.4146124
           19          20          21          22          23          24
    1  -0.4072486  -0.3762038  -0.3350126  -0.2805308  -0.2743686  -0.2643756
           25          26          27          28          29
    1  -0.0908792  -0.0525816  -0.0000415   0.0118891   0.0217469
 SCF   energy in the final basis set = -286.87483352
 Total energy in the final basis set = -286.87483352
 
 --------------------------------------------------------------
 
                    Orbital Energies (a.u.)
 --------------------------------------------------------------
 
 Alpha MOs
 -- Occupied --
-14.336 -10.239 -10.235 -10.222 -10.215 -10.213 -10.208  -0.956
 -0.803  -0.776  -0.715  -0.606  -0.566  -0.547  -0.517  -0.478
 -0.458  -0.417  -0.408  -0.381  -0.337  -0.286  -0.278  -0.266
 -0.245
 -- Virtual --
 -0.053  -0.008   0.010   0.020   0.030   0.033   0.042   0.048
  0.051   0.063   0.068   0.076   0.096   0.101   0.105   0.115
  0.123   0.134   0.141   0.147   0.157   0.166   0.171   0.191
  0.192   0.192   0.204   0.212   0.219   0.227   0.236   0.247
  0.250   0.258   0.279   0.285   0.298   0.318   0.342   0.384
  0.402   0.409   0.454   0.504   0.620   0.641   0.662   0.679
  0.692   0.704   0.711   0.719   0.732   0.751   0.763   0.786
  0.794   0.846   0.870   0.882   0.904   0.919   0.936   0.960
  1.007   1.030   1.036   1.045   1.070   1.089   1.104   1.137
  1.172   1.203   1.232   1.318   1.363   1.368   1.391   1.458
  1.468   1.494   1.554   1.600   1.629   1.708   1.752   1.820
  1.831   1.865   1.900   1.914   1.976   1.993   2.007   2.026
  2.065   2.116   2.125   2.214   2.233   2.262   2.322   2.363
  2.411   2.426   2.429   2.454   2.460   2.503   2.530   2.533
  2.614   2.623   2.656   2.671   2.707   2.745   2.771   2.801
  2.841   2.869   2.942   3.024   3.198   3.242   3.298   3.389
  3.432   3.602   3.731   4.127   4.274   4.369   4.393   4.481
  4.645   4.742
 
 Beta MOs
 -- Occupied --
-14.336 -10.238 -10.235 -10.217 -10.213 -10.208 -10.207  -0.955
 -0.794  -0.775  -0.704  -0.597  -0.565  -0.539  -0.514  -0.467
 -0.453  -0.415  -0.407  -0.376  -0.335  -0.281  -0.274  -0.264
 -- Virtual --
 -0.091  -0.053  -0.000   0.012   0.022   0.031   0.034   0.042
  0.049   0.051   0.064   0.069   0.077   0.097   0.102   0.109
  0.117   0.125   0.135   0.141   0.148   0.159   0.168   0.171
  0.191   0.193   0.197   0.204   0.213   0.224   0.228   0.238
  0.248   0.252   0.260   0.280   0.285   0.299   0.319   0.348
  0.386   0.403   0.413   0.467   0.506   0.623   0.659   0.667
  0.685   0.697   0.707   0.713   0.720   0.745   0.756   0.765
  0.791   0.803   0.847   0.870   0.885   0.904   0.928   0.941
  0.961   1.013   1.034   1.042   1.047   1.081   1.091   1.106
  1.140   1.180   1.203   1.236   1.319   1.365   1.369   1.394
  1.462   1.468   1.502   1.559   1.628   1.652   1.734   1.763
  1.824   1.843   1.867   1.901   1.927   1.984   1.995   2.012
  2.027   2.076   2.120   2.131   2.216   2.234   2.269   2.328
  2.364   2.419   2.429   2.434   2.456   2.465   2.506   2.530
  2.533   2.619   2.633   2.661   2.678   2.710   2.749   2.780
  2.802   2.846   2.871   2.943   3.033   3.198   3.243   3.311
  3.390   3.432   3.619   3.731   4.127   4.285   4.370   4.398
  4.500   4.645   4.742
 --------------------------------------------------------------
 
          Ground-State Mulliken Net Atomic Charges

     Atom                 Charge (a.u.)    Spin (a.u.)
  --------------------------------------------------------
      1 C                    -0.038978       0.082322
      2 C                    -0.110473      -0.310593
      3 C                    -0.225339       1.162200
      4 C                     0.030779      -0.030220
      5 C                    -0.147944       0.014361
      6 N                    -0.207943      -0.004008
      7 H                     0.178403      -0.004875
      8 H                     0.158962       0.078749
      9 H                     0.154771       0.008728
     10 H                     0.134529       0.000245
     11 H                     0.131662      -0.000083
     12 C                    -0.204128       0.003184
     13 H                     0.145699      -0.000011
  --------------------------------------------------------
  Sum of atomic charges =     0.000000
  Sum of spin   charges =     1.000000

 -----------------------------------------------------------------
                    Cartesian Multipole Moments
 -----------------------------------------------------------------
    Charge (ESU x 10^10)
                 0.0000
    Dipole Moment (Debye)
         X      -1.1232      Y      -0.5702      Z       0.9575
       Tot       1.5823
    Quadrupole Moments (Debye-Ang)
        XX     -41.0963     XY      -4.9596     YY     -38.4212
        XZ       0.1057     YZ       1.4539     ZZ     -42.4580
    Octopole Moments (Debye-Ang^2)
       XXX      -8.9874    XXY      -3.5742    XYY      -8.5789
       YYY     -10.6884    XXZ       5.4082    XYZ       5.5474
       YYZ      -7.8553    XZZ      -1.8002    YZZ      -6.3809
       ZZZ       7.5616
    Hexadecapole Moments (Debye-Ang^3)
      XXXX    -241.3450   XXXY      48.0276   XXYY    -143.0376
      XYYY      46.0332   YYYY    -511.1039   XXXZ      34.7250
      XXYZ      -1.5607   XYYZ      11.3567   YYYZ      -7.3094
      XXZZ     -64.0506   XYZZ      19.8763   YYZZ    -114.9508
      XZZZ      42.9329   YZZZ     -27.3455   ZZZZ    -152.7601
 -----------------------------------------------------------------
 Mayer SCF Bond Order, atomic valence on the diagonal:

            1           2           3           4           5           6
    1   3.7706384   0.8878107  -0.0659717  -0.0804082   0.0653036   1.0672444
    2   0.8878107   3.8124335   1.9396320   0.0734722   0.0586926  -0.0609386
    3  -0.0659717   1.9396320   3.0015847  -0.0614554   0.0005925   0.0466173
    4  -0.0804082   0.0734722  -0.0614554   3.9244506   1.1173419   0.0234501
    5   0.0653036   0.0586926   0.0005925   1.1173419   3.9759636   1.6009165
    6   1.0672444  -0.0609386   0.0466173   0.0234501   1.6009165   2.6649130
    7   0.8423766   0.0163152   0.0074299   0.0257907   0.0181419  -0.0230371
    8   0.0258182   0.7901301   0.1006458  -0.0096425   0.0130230   0.0006395
    9   0.0212720   0.0407421   0.8874691   0.0000734  -0.0001216   0.0004162
   10   0.0107110   0.0001737   0.0005551   0.8514066   0.0369176   0.0081112
   11   0.0120956  -0.0022543   0.0033595  -0.0395413   0.9767046  -0.0340263
   12   0.9495222   0.0828742   0.1260211   1.9838160   0.0826701   0.0235325
   13   0.0348640  -0.0142164   0.0166896   0.0401473   0.0057809   0.0119875
            7           8           9          10          11          12
    1   0.8423766   0.0258182   0.0212720   0.0107110   0.0120956   0.9495222
    2   0.0163152   0.7901301   0.0407421   0.0001737  -0.0022543   0.0828742
    3   0.0074299   0.1006458   0.8874691   0.0005551   0.0033595   0.1260211
    4   0.0257907  -0.0096425   0.0000734   0.8514066  -0.0395413   1.9838160
    5   0.0181419   0.0130230  -0.0001216   0.0369176   0.9767046   0.0826701
    6  -0.0230371   0.0006395   0.0004162   0.0081112  -0.0340263   0.0235325
    7   0.9274450  -0.0000112   0.0003914   0.0005118   0.0006877   0.0388466
    8  -0.0000112   0.9399949   0.0017480   0.0002694   0.0000256   0.0173079
    9   0.0003914   0.0017480   0.9498753   0.0000051   0.0000612  -0.0021950
   10   0.0005118   0.0002694   0.0000051   0.9528929   0.0001289   0.0432439
   11   0.0006877   0.0000256   0.0000612   0.0001289   0.9450031   0.0263437
   12   0.0388466   0.0173079  -0.0021950   0.0432439   0.0263437   4.2265742
   13   0.0000014   0.0000410   0.0000134   0.0008585   0.0014182   0.8545909
           13
    1   0.0348640
    2  -0.0142164
    3   0.0166896
    4   0.0401473
    5   0.0057809
    6   0.0119875
    7   0.0000014
    8   0.0000410
    9   0.0000134
   10   0.0008585
   11   0.0014182
   12   0.8545909
   13   0.9521762


Archival summary:
1\1\c8-73\SP\ProcedureUnspecified\6-31+G**\166(2)\hpark21\WedMar223:58:432022WedMar223:58:432022\0\\#,ProcedureUnspecified,6-31+G**,\\0,2\N\C,1,1.29161\H,2,1.08838,1,120.87\C,2,1.47062,1,114.23,3,179.959,0\H,4,1.08369,2,125.705,1,-179.665,0\C,4,1.34743,2,106.331,1,-0.0742552,0\H,6,1.08292,4,128.022,2,-179.627,0\C,1,1.47408,2,105.91,3,179.091,0\H,8,1.10424,1,105.944,2,-114.601,0\C,8,1.51732,1,110.677,2,129.072,0\H,10,1.09613,8,113.948,1,49.2486,0\C,10,1.31357,8,125.818,1,-130.718,0\H,12,1.08179,10,137.555,8,-179.508,0\\\@

 Total job time:  3.95s(wall), 11.53s(cpu) 
 Wed Mar  2 23:58:43 2022

        *************************************************************
        *                                                           *
        *  Thank you very much for using Q-Chem.  Have a nice day.  *
        *                                                           *
        *************************************************************


