
Running Job 1 of 1 irc_transition.in
qchem irc_transition.in_43526.0 ./irc_transition.d/ 1
/home/leeping/opt/qchem/5.0.2-openmp/exe/qcprog.exe_s irc_transition.in_43526.0 ./irc_transition.d/
Check license passed

                  Welcome to Q-Chem
     A Quantum Leap Into The Future Of Chemistry


 Q-Chem 5.0, Q-Chem, Inc., Pleasanton, CA (2017)

 Yihan Shao,  Zhengting Gan,  E. Epifanovsky,  A. T. B. Gilbert,  M. Wormit,  
 J. Kussmann,  A. W. Lange,  A. Behn,  Jia Deng,  Xintian Feng,  D. Ghosh,  
 M. Goldey,  P. R. Horn,  L. D. Jacobson,  I. Kaliman,  T. Kus,  A. Landau,  
 Jie Liu,  E. I. Proynov,  R. M. Richard,  R. P. Steele,  E. J. Sundstrom,  
 H. L. Woodcock III,  P. M. Zimmerman,  D. Zuev,  B. Albrecht,  E. Alguire,  
 S. A. Baeppler,  D. Barton,  Z. Benda,  Y. A. Bernard,  E. J. Berquist,  
 K. B. Bravaya,  H. Burton,  D. Casanova,  Chun-Min Chang,  Yunqing Chen,  
 A. Chien,  K. D. Closser,  M. P. Coons,  S. Dasgupta,  A. L. Dempwolff,  
 M. Diedenhofen,  Hainam Do,  R. G. Edgar,  Po-Tung Fang,  S. Fatehi,  
 Qingguo Feng,  J. Fosso-Tande,  Qinghui Ge,  A. Ghysels,  G. Gidofalvi,  
 J. Gomes,  J. Gonthier,  A. Gunina,  M. W. D. Hanson-Heine,  
 P. H. P. Harbach,  A. W. Hauser,  J. E. Herr,  E. G. Hohenstein,  
 Z. C. Holden,  Kerwin Hui,  T.-C. Jagau,  Hyunjun Ji,  B. Kaduk,  
 K. Khistyaev,  Jaehoon Kim,  P. Klunzinger,  K. Koh,  D. Kosenkov,  
 L. Koulias,  T. Kowalczyk,  C. M. Krauter,  A. Kunitsa,  Ka Un Lao,  
 A. Laurent,  K. V. Lawler,  Joonho Lee,  D. Lefrancois,  S. Lehtola,  
 D. S. Levine,  Yi-Pei Li,  You-Sheng Lin,  Fenglai Liu,  E. Livshits,  
 A. Luenser,  P. Manohar,  E. Mansoor,  S. F. Manzer,  Shan-Ping Mao,  
 Yuezhi Mao,  N. Mardirossian,  A. V. Marenich,  T. Markovich,  
 L. A. Martinez-Martinez,  S. A. Maurer,  N. J. Mayhall,  S. C. McKenzie,  
 J.-M. Mewes,  A. F. Morrison,  J. W. Mullinax,  K. Nanda,  
 T. S. Nguyen-Beck,  R. Olivares-Amaya,  J. A. Parkhill,  T. M. Perrine,  
 F. Plasser,  S. Prager,  A. Prociuk,  E. Ramos,  D. R. Rehn,  F. Rob,  
 M. Schneider,  N. Sergueev,  S. M. Sharada,  S. Sharma,  D. W. Small,  
 T. Stauch,  T. Stein,  Yu-Chuan Su,  A. J. W. Thom,  A. Tkatchenko,  
 T. Tsuchimochi,  L. Vogt,  O. Vydrov,  M. A. Watson,  J. Wenzel,  
 M. de Wergifosse,  T. A. Wesolowski,  A. White,  J. Witte,  A. Yamada,  
 Jun Yang,  K. Yao,  S. Yeganeh,  S. R. Yost,  Zhi-Qiang You,  A. Zech,  
 Igor Ying Zhang,  Xing Zhang,  Yan Zhao,  Ying Zhu,  B. R. Brooks,  
 G. K. L. Chan,  C. J. Cramer,  M. S. Gordon,  W. J. Hehre,  A. Klamt,  
 M. W. Schmidt,  C. D. Sherrill,  D. G. Truhlar,  A. Aspuru-Guzik,  R. Baer,  
 A. T. Bell,  N. A. Besley,  Jeng-Da Chai,  R. A. DiStasio Jr.,  A. Dreuw,  
 B. D. Dunietz,  T. R. Furlani,  Chao-Ping Hsu,  Yousung Jung,  Jing Kong,  
 D. S. Lambrecht,  WanZhen Liang,  C. Ochsenfeld,  V. A. Rassolov,  
 L. V. Slipchenko,  J. E. Subotnik,  T. Van Voorhis,  J. M. Herbert,  
 A. I. Krylov,  P. M. W. Gill,  M. Head-Gordon

 Contributors to earlier versions of Q-Chem not listed above: 
 R. D. Adamson,  B. Austin,  J. Baker,  G. J. O. Beran,  K. Brandhorst,  
 S. T. Brown,  E. F. C. Byrd,  A. K. Chakraborty,  C.-L. Cheng,  
 Siu Hung Chien,  D. M. Chipman,  D. L. Crittenden,  H. Dachsel,  
 R. J. Doerksen,  A. D. Dutoi,  L. Fusti-Molnar,  W. A. Goddard III,  
 A. Golubeva-Zadorozhnaya,  S. R. Gwaltney,  G. Hawkins,  A. Heyden,  
 S. Hirata,  G. Kedziora,  F. J. Keil,  C. Kelley,  Jihan Kim,  R. A. King,  
 R. Z. Khaliullin,  P. P. Korambath,  W. Kurlancheek,  A. M. Lee,  M. S. Lee,  
 S. V. Levchenko,  Ching Yeh Lin,  D. Liotard,  R. C. Lochan,  I. Lotan,  
 P. E. Maslen,  N. Nair,  D. P. O'Neill,  D. Neuhauser,  E. Neuscamman,  
 C. M. Oana,  R. Olson,  B. Peters,  R. Peverati,  P. A. Pieniazek,  
 Y. M. Rhee,  J. Ritchie,  M. A. Rohrdanz,  E. Rosta,  N. J. Russ,  
 H. F. Schaefer III,  N. E. Schultz,  N. Shenvi,  A. C. Simmonett,  A. Sodt,  
 D. Stuck,  K. S. Thanthiriwatte,  V. Vanovschi,  Tao Wang,  A. Warshel,  
 C. F. Williams,  Q. Wu,  X. Xu,  W. Zhang

 Please cite Q-Chem as follows:
 Y. Shao et al., Mol. Phys. 113, 184-215 (2015)
 DOI: 10.1080/00268976.2014.952696

 Q-Chem 5.0.2 for Intel X86 EM64T Linux

 Parts of Q-Chem use Armadillo 5.200.1 (Boston Tea Smuggler).
 http://arma.sourceforge.net/

 Q-Chem begins on Wed Mar  2 23:59:28 2022  

Host: 
0

     Scratch files written to ./irc_transition.d//
 Dec517 15110_ 26548  26544 5633   
Processing $rem in /home/leeping/opt/qchem/5.0.2-openmp/config/preferences.
 MEM_STATIC 2000
 MEM_TOTAL  8000
 SYMMETRY   OFF
 SYM_IGNORE TRUE 

Checking the input file for inconsistencies... 	...done.

--------------------------------------------------------------
User input:
--------------------------------------------------------------
$molecule
0 2
C        0.5790544799   -0.0352893116    0.2311747782
C        0.8307935072   -1.2536009814   -0.6523237532
C        0.7682008494   -2.5052669198   -0.2609792757
C       -1.3102393635    1.2579465512    0.5061931094
C       -0.2877865073    1.9236155324   -0.3163840418
N        0.7783120848    1.2206772000   -0.5076226091
H        1.3236673354   -0.0396890026    1.0433333656
H        1.0868829714   -1.0153558992   -1.6907845300
H        0.9040669756   -3.4887008517   -0.6893610225
H       -2.2756881208    1.6714468289    0.7730542678
H       -0.3860945744    2.9185566255   -0.7462793586
C       -0.8034700230    0.0535144506    0.8332604179
H       -1.2620467596   -0.7325635364    1.4204040629
$end

$rem
method                b3lyp
basis                 6-31+g(d,p)
unrestricted          true
symmetry              off
sym_ignore            true
incdft                false
incfock               0
scf_convergence       6
thresh                14
jobtype               sp
scf_guess             read
scf_algorithm         diis
max_scf_cycles        100
stability_analysis    true
max_cis_cycles        100
cis_n_roots           4
$end

--------------------------------------------------------------
 ----------------------------------------------------------------
             Standard Nuclear Orientation (Angstroms)
    I     Atom           X                Y                Z
 ----------------------------------------------------------------
    1      C       0.5790544799    -0.0352893116     0.2311747782
    2      C       0.8307935072    -1.2536009814    -0.6523237532
    3      C       0.7682008494    -2.5052669198    -0.2609792757
    4      C      -1.3102393635     1.2579465512     0.5061931094
    5      C      -0.2877865073     1.9236155324    -0.3163840418
    6      N       0.7783120848     1.2206772000    -0.5076226091
    7      H       1.3236673354    -0.0396890026     1.0433333656
    8      H       1.0868829714    -1.0153558992    -1.6907845300
    9      H       0.9040669756    -3.4887008517    -0.6893610225
   10      H      -2.2756881208     1.6714468289     0.7730542678
   11      H      -0.3860945744     2.9185566255    -0.7462793586
   12      C      -0.8034700230     0.0535144506     0.8332604179
   13      H      -1.2620467596    -0.7325635364     1.4204040629
 ----------------------------------------------------------------
 Nuclear Repulsion Energy =   258.0262036097 hartrees
 There are       25 alpha and       24 beta electrons
 Requested basis set is 6-31+G(d,p)
 There are 53 shells and 163 basis functions

 Total QAlloc Memory Limit   8000 MB
 Mega-Array Size      1956 MB
 MEM_STATIC part      2000 MB

                       Distance Matrix (Angstroms)
             C (  1)   C (  2)   C (  3)   C (  4)   C (  5)   N (  6)
   C (  2)  1.525852
   C (  3)  2.525625  1.312911
   C (  4)  2.305976  3.497721  4.366949
   C (  5)  2.211005  3.385082  4.553370  1.471448
   N (  6)  1.470706  2.479061  3.734112  2.321908  1.291224
   H (  7)  1.101848  2.142839  2.844090  2.984936  2.881003  2.071569
   H (  8)  2.216382  1.095784  2.089434  3.967469  3.523669  2.548516
   H (  9)  3.588742  2.236607  1.081255  5.372445  5.554529  4.714561
   H ( 10)  3.369887  4.498648  5.270619  1.083646  2.280837  3.342191
   H ( 11)  3.257627  4.347015  5.566487  2.276040  1.088293  2.072582
   C ( 12)  1.510552  2.566384  3.196071  1.347013  2.254970  2.379553
   H ( 13)  2.300024  2.991264  3.176702  2.190944  3.319775  3.419868
             H (  7)   H (  8)   H (  9)   H ( 10)   H ( 11)   C ( 12)
   H (  8)  2.912627
   H (  9)  3.882522  2.674641
   H ( 10)  3.994546  4.959465  6.235112
   H ( 11)  3.857100  4.305510  6.536108  2.726577
   C ( 12)  2.139517  3.329673  4.216794  2.188323  3.298123
   H ( 13)  2.703364  3.908572  4.091387  2.688084  4.335030  1.083028

 
 A cutoff of  1.0D-14 yielded   1358 shell pairs
 There are     13240 function pairs
 Smallest overlap matrix eigenvalue = 1.76E-05

 Scale SEOQF with 1.000000e-01/1.000000e-01/1.000000e-01

 Standard Electronic Orientation quadrupole field applied
 Nucleus-field energy     =     0.0000000075 hartrees
 Guess MOs from SCF MO coefficient file
 Reading MOs from coefficient file
 Reading MOs from coefficient file
 An unrestricted hybrid HF-DFT SCF calculation will be
 performed using Pulay DIIS extrapolation
 Exchange:     0.2000 Hartree-Fock + 0.0800 Slater + 0.7200 B88
 Correlation:  0.1900 VWN1RPA + 0.8100 LYP
 Using SG-1 standard quadrature grid
 SCF converges when DIIS error is below 1.0E-06
Using Q-Chem read-in guess as SCF_GUESS READ specified.

 -------------------------------------------------------
 OpenMP BLAS3 based DFT computing Module                
 -------------------------------------------------------
 ---------------------------------------
  Cycle       Energy         DIIS Error
 ---------------------------------------
    1    -286.8730185621      2.10E-09
    2    -286.8730185623      1.55E-09 Convergence criterion met
 ---------------------------------------
 <S^2> = 0.7606
 SCF time:  CPU 6.47 s  wall 6.92 s
 SCF   energy in the final basis set = -286.87301856
 Total energy in the final basis set = -286.87301856
 
 Direct TDDFT/TDA calculation will be performed
 Exchange:     0.2000 Hartree-Fock + 0.0800 Slater + 0.7200 B88
 Correlation:  0.1900 VWN1RPA + 0.8100 LYP
 Using SG-1 standard quadrature grid
 CIS energy converged when residual is below 10e- 6
 ---------------------------------------------------
 Iter    Rts Conv    Rts Left    Ttl Dev     Max Dev
 ---------------------------------------------------
   1         0           4      0.001563    0.000570
   2         0           4      0.001561    0.000505
   3         0           4      0.001123    0.000595
   4         0           4      0.000743    0.000371
   5         0           4      0.000310    0.000178
   6         0           4      0.000178    0.000117
   7         1           3      0.000056    0.000041
   8         1           3      0.000013    0.000010
   9         3           1      0.000003    0.000002
  10         4           0      0.000002    0.000001    Roots Converged
 ---------------------------------------------------
 
 ---------------------------------------------------
         TDDFT/TDA Excitation Energies              
 ---------------------------------------------------

 Excited state   1: excitation energy (eV) =    2.8587
 Total energy for state  1:                  -286.76796464 au
    <S**2>     :  0.7699
    Trans. Mom.: -0.1223 X  -0.0206 Y  -0.0307 Z
    Strength   :     0.0011435277
    D( 22) --> S(  1) amplitude =  0.4018 beta
    D( 23) --> S(  1) amplitude =  0.5700 beta
    D( 24) --> S(  1) amplitude =  0.6899 beta

 Excited state   2: excitation energy (eV) =    3.3629
 Total energy for state  2:                  -286.74943328 au
    <S**2>     :  2.6834
    Trans. Mom.:  0.0086 X   0.0008 Y   0.0042 Z
    Strength   :     0.0000076926
    D( 24) --> V(  1) amplitude = -0.6225 alpha
    S(  1) --> V(  1) amplitude =  0.1918 alpha
    D( 23) --> S(  1) amplitude = -0.1562 beta
    D( 23) --> V(  1) amplitude = -0.2786 beta
    D( 24) --> V(  1) amplitude =  0.6021 beta

 Excited state   3: excitation energy (eV) =    3.9529
 Total energy for state  3:                  -286.72775203 au
    <S**2>     :  0.8742
    Trans. Mom.:  0.0526 X  -0.0741 Y   0.0223 Z
    Strength   :     0.0008474707
    D( 22) --> S(  1) amplitude = -0.3055 beta
    D( 23) --> S(  1) amplitude = -0.5963 beta
    D( 24) --> S(  1) amplitude =  0.6994 beta
    D( 24) --> V(  1) amplitude = -0.1645 beta

 Excited state   4: excitation energy (eV) =    4.0654
 Total energy for state  4:                  -286.72361719 au
    <S**2>     :  2.3389
    Trans. Mom.: -0.0067 X   0.0154 Y  -0.0129 Z
    Strength   :     0.0000445559
    D( 23) --> V(  1) amplitude =  0.5455 alpha
    S(  1) --> V(  1) amplitude =  0.2150 alpha
    D( 22) --> S(  1) amplitude =  0.4100 beta
    D( 22) --> V(  1) amplitude =  0.4743 beta
    D( 23) --> S(  1) amplitude = -0.1843 beta
    D( 23) --> V(  1) amplitude = -0.3661 beta
 
 ---------------------------------------------------

 Stability analysis will be performed
 ---------------------------------------------------
 Iter    Rts Conv    Rts Left    Ttl Dev     Max Dev
 ---------------------------------------------------
   1         0           8      0.003457    0.000660
   2         0           8      0.000997    0.000191
   3         0           8      0.000569    0.000171
   4         1           7      0.000361    0.000109
   5         2           6      0.001698    0.001389
   6         2           6      0.000657    0.000577
   7         4           4      0.000228    0.000192
   8         6           2      0.000061    0.000049
   9         6           2      0.000020    0.000015
  10         7           1      0.000006    0.000003
  11         8           0      0.000004    0.000001    Roots Converged
 UKS-> UKS   stable,    smallest eigenvalue:      0.0743591
 UKS->CUKS   stable,    smallest eigenvalue:      0.1102569
 ---------------------------------------------------
  SETman timing summary (seconds)
  CPU time               189.85s
  System time              0.00s
  Wall time              195.53s
 
 --------------------------------------------------------------
 
                    Orbital Energies (a.u.)
 --------------------------------------------------------------
 
 Alpha MOs
 -- Occupied --
-14.336 -10.239 -10.237 -10.222 -10.215 -10.214 -10.208  -0.956
 -0.802  -0.777  -0.716  -0.602  -0.567  -0.553  -0.517  -0.480
 -0.453  -0.415  -0.408  -0.387  -0.340  -0.285  -0.279  -0.264
 -0.246
 -- Virtual --
 -0.054  -0.013   0.010   0.019   0.028   0.037   0.043   0.045
  0.049   0.063   0.069   0.077   0.090   0.098   0.106   0.112
  0.125   0.130   0.138   0.145   0.154   0.162   0.170   0.181
  0.191   0.200   0.210   0.214   0.216   0.227   0.241   0.251
  0.257   0.268   0.270   0.289   0.304   0.311   0.342   0.380
  0.394   0.421   0.424   0.503   0.624   0.647   0.661   0.668
  0.682   0.709   0.717   0.726   0.732   0.759   0.764   0.777
  0.796   0.822   0.864   0.880   0.904   0.917   0.944   0.958
  0.999   1.022   1.041   1.053   1.060   1.091   1.119   1.164
  1.181   1.210   1.212   1.321   1.355   1.369   1.387   1.444
  1.471   1.525   1.567   1.601   1.613   1.731   1.747   1.811
  1.815   1.863   1.881   1.956   1.978   1.989   2.003   2.017
  2.035   2.058   2.128   2.211   2.224   2.266   2.352   2.381
  2.396   2.401   2.435   2.454   2.468   2.503   2.514   2.555
  2.577   2.628   2.647   2.685   2.715   2.740   2.779   2.812
  2.839   2.866   2.939   3.015   3.190   3.241   3.299   3.395
  3.434   3.604   3.728   4.141   4.294   4.370   4.386   4.492
  4.639   4.730
 
 Beta MOs
 -- Occupied --
-14.336 -10.238 -10.237 -10.217 -10.214 -10.208 -10.207  -0.956
 -0.794  -0.776  -0.705  -0.593  -0.566  -0.543  -0.516  -0.471
 -0.444  -0.414  -0.405  -0.385  -0.337  -0.280  -0.276  -0.261
 -- Virtual --
 -0.093  -0.054  -0.006   0.011   0.022   0.029   0.038   0.044
  0.045   0.050   0.063   0.072   0.077   0.092   0.103   0.107
  0.114   0.126   0.130   0.140   0.147   0.157   0.163   0.170
  0.182   0.192   0.203   0.211   0.216   0.218   0.230   0.242
  0.252   0.257   0.269   0.272   0.289   0.306   0.312   0.346
  0.383   0.399   0.421   0.438   0.503   0.636   0.654   0.663
  0.676   0.686   0.712   0.719   0.731   0.747   0.761   0.772
  0.781   0.802   0.823   0.865   0.882   0.905   0.925   0.949
  0.963   1.002   1.028   1.043   1.058   1.072   1.092   1.120
  1.169   1.187   1.211   1.215   1.322   1.356   1.372   1.391
  1.446   1.473   1.535   1.571   1.614   1.644   1.745   1.778
  1.814   1.827   1.865   1.883   1.966   1.985   1.990   2.006
  2.021   2.049   2.062   2.129   2.214   2.224   2.271   2.352
  2.386   2.402   2.410   2.435   2.457   2.471   2.504   2.515
  2.558   2.581   2.636   2.656   2.694   2.716   2.746   2.780
  2.820   2.841   2.868   2.940   3.025   3.190   3.241   3.313
  3.395   3.435   3.621   3.728   4.142   4.303   4.371   4.394
  4.508   4.641   4.731
 --------------------------------------------------------------
 
          Ground-State Mulliken Net Atomic Charges

     Atom                 Charge (a.u.)    Spin (a.u.)
  --------------------------------------------------------
      1 C                    -0.098440       0.083576
      2 C                    -0.007202      -0.311782
      3 C                    -0.327854       1.170431
      4 C                    -0.049746      -0.000877
      5 C                    -0.092623      -0.002365
      6 N                    -0.204057      -0.003472
      7 H                     0.191812      -0.004706
      8 H                     0.169406       0.080912
      9 H                     0.154754       0.005925
     10 H                     0.135144      -0.000152
     11 H                     0.132133       0.000470
     12 C                    -0.150239      -0.017770
     13 H                     0.146914      -0.000190
  --------------------------------------------------------
  Sum of atomic charges =    -0.000000
  Sum of spin   charges =     1.000000

 -----------------------------------------------------------------
                    Cartesian Multipole Moments
 -----------------------------------------------------------------
    Charge (ESU x 10^10)
                -0.0000
    Dipole Moment (Debye)
         X      -1.5890      Y      -0.4447      Z       0.6349
       Tot       1.7680
    Quadrupole Moments (Debye-Ang)
        XX     -43.1075     XY      -4.5600     YY     -37.9284
        XZ      -0.1285     YZ       1.7962     ZZ     -41.6998
    Octopole Moments (Debye-Ang^2)
       XXX     -18.2191    XXY      -1.5274    XYY      -8.2913
       YYY      -9.6458    XXZ       6.2296    XYZ       5.1434
       YYZ      -6.5780    XZZ      -2.5872    YZZ      -6.1701
       ZZZ       1.4402
    Hexadecapole Moments (Debye-Ang^3)
      XXXX    -250.3052   XXXY      77.9593   XXYY    -149.8077
      XYYY      55.2209   YYYY    -541.1339   XXXZ      44.2622
      XXYZ       0.0669   XYYZ       9.9950   YYYZ      -4.0230
      XXZZ     -62.7924   XYZZ      26.1528   YYZZ    -129.2407
      XZZZ      45.2716   YZZZ     -17.4438   ZZZZ    -144.0052
 -----------------------------------------------------------------
Archival summary:
1\1\c8-73\SP\ProcedureUnspecified\6-31+G**\166(2)\hpark21\ThuMar300:02:532022ThuMar300:02:532022\0\\#,ProcedureUnspecified,6-31+G**,\\0,2\N\C,1,1.29122\H,2,1.08829,1,120.916\C,1,1.47071,2,106.179,3,178.815,0\H,4,1.10185,1,106.387,2,-113.836,0\C,2,1.47145,1,114.219,3,179.807,0\H,6,1.08365,2,125.74,1,-179.316,0\C,6,1.34701,2,106.19,1,0.102188,0\H,8,1.08303,6,128.413,2,-179.151,0\C,4,1.52585,1,111.632,2,128.35,0\H,10,1.09578,4,114.437,1,-1.74556,0\C,10,1.31291,4,125.503,1,177.931,0\H,12,1.08126,10,137.989,4,-179.763,0\\\@

 Total job time:  204.63s(wall), 196.55s(cpu) 
 Thu Mar  3 00:02:53 2022

        *************************************************************
        *                                                           *
        *  Thank you very much for using Q-Chem.  Have a nice day.  *
        *                                                           *
        *************************************************************


