
Running Job 1 of 1 qcfsm.in
qchem qcfsm.in_12380.0 ./qcfsm.d/ 1
/home/leeping/opt/qchem/5.0.2-openmp/exe/qcprog.exe_s qcfsm.in_12380.0 ./qcfsm.d/
Check license passed

                  Welcome to Q-Chem
     A Quantum Leap Into The Future Of Chemistry


 Q-Chem 5.0, Q-Chem, Inc., Pleasanton, CA (2017)

 Yihan Shao,  Zhengting Gan,  E. Epifanovsky,  A. T. B. Gilbert,  M. Wormit,  
 J. Kussmann,  A. W. Lange,  A. Behn,  Jia Deng,  Xintian Feng,  D. Ghosh,  
 M. Goldey,  P. R. Horn,  L. D. Jacobson,  I. Kaliman,  T. Kus,  A. Landau,  
 Jie Liu,  E. I. Proynov,  R. M. Richard,  R. P. Steele,  E. J. Sundstrom,  
 H. L. Woodcock III,  P. M. Zimmerman,  D. Zuev,  B. Albrecht,  E. Alguire,  
 S. A. Baeppler,  D. Barton,  Z. Benda,  Y. A. Bernard,  E. J. Berquist,  
 K. B. Bravaya,  H. Burton,  D. Casanova,  Chun-Min Chang,  Yunqing Chen,  
 A. Chien,  K. D. Closser,  M. P. Coons,  S. Dasgupta,  A. L. Dempwolff,  
 M. Diedenhofen,  Hainam Do,  R. G. Edgar,  Po-Tung Fang,  S. Fatehi,  
 Qingguo Feng,  J. Fosso-Tande,  Qinghui Ge,  A. Ghysels,  G. Gidofalvi,  
 J. Gomes,  J. Gonthier,  A. Gunina,  M. W. D. Hanson-Heine,  
 P. H. P. Harbach,  A. W. Hauser,  J. E. Herr,  E. G. Hohenstein,  
 Z. C. Holden,  Kerwin Hui,  T.-C. Jagau,  Hyunjun Ji,  B. Kaduk,  
 K. Khistyaev,  Jaehoon Kim,  P. Klunzinger,  K. Koh,  D. Kosenkov,  
 L. Koulias,  T. Kowalczyk,  C. M. Krauter,  A. Kunitsa,  Ka Un Lao,  
 A. Laurent,  K. V. Lawler,  Joonho Lee,  D. Lefrancois,  S. Lehtola,  
 D. S. Levine,  Yi-Pei Li,  You-Sheng Lin,  Fenglai Liu,  E. Livshits,  
 A. Luenser,  P. Manohar,  E. Mansoor,  S. F. Manzer,  Shan-Ping Mao,  
 Yuezhi Mao,  N. Mardirossian,  A. V. Marenich,  T. Markovich,  
 L. A. Martinez-Martinez,  S. A. Maurer,  N. J. Mayhall,  S. C. McKenzie,  
 J.-M. Mewes,  A. F. Morrison,  J. W. Mullinax,  K. Nanda,  
 T. S. Nguyen-Beck,  R. Olivares-Amaya,  J. A. Parkhill,  T. M. Perrine,  
 F. Plasser,  S. Prager,  A. Prociuk,  E. Ramos,  D. R. Rehn,  F. Rob,  
 M. Schneider,  N. Sergueev,  S. M. Sharada,  S. Sharma,  D. W. Small,  
 T. Stauch,  T. Stein,  Yu-Chuan Su,  A. J. W. Thom,  A. Tkatchenko,  
 T. Tsuchimochi,  L. Vogt,  O. Vydrov,  M. A. Watson,  J. Wenzel,  
 M. de Wergifosse,  T. A. Wesolowski,  A. White,  J. Witte,  A. Yamada,  
 Jun Yang,  K. Yao,  S. Yeganeh,  S. R. Yost,  Zhi-Qiang You,  A. Zech,  
 Igor Ying Zhang,  Xing Zhang,  Yan Zhao,  Ying Zhu,  B. R. Brooks,  
 G. K. L. Chan,  C. J. Cramer,  M. S. Gordon,  W. J. Hehre,  A. Klamt,  
 M. W. Schmidt,  C. D. Sherrill,  D. G. Truhlar,  A. Aspuru-Guzik,  R. Baer,  
 A. T. Bell,  N. A. Besley,  Jeng-Da Chai,  R. A. DiStasio Jr.,  A. Dreuw,  
 B. D. Dunietz,  T. R. Furlani,  Chao-Ping Hsu,  Yousung Jung,  Jing Kong,  
 D. S. Lambrecht,  WanZhen Liang,  C. Ochsenfeld,  V. A. Rassolov,  
 L. V. Slipchenko,  J. E. Subotnik,  T. Van Voorhis,  J. M. Herbert,  
 A. I. Krylov,  P. M. W. Gill,  M. Head-Gordon

 Contributors to earlier versions of Q-Chem not listed above: 
 R. D. Adamson,  B. Austin,  J. Baker,  G. J. O. Beran,  K. Brandhorst,  
 S. T. Brown,  E. F. C. Byrd,  A. K. Chakraborty,  C.-L. Cheng,  
 Siu Hung Chien,  D. M. Chipman,  D. L. Crittenden,  H. Dachsel,  
 R. J. Doerksen,  A. D. Dutoi,  L. Fusti-Molnar,  W. A. Goddard III,  
 A. Golubeva-Zadorozhnaya,  S. R. Gwaltney,  G. Hawkins,  A. Heyden,  
 S. Hirata,  G. Kedziora,  F. J. Keil,  C. Kelley,  Jihan Kim,  R. A. King,  
 R. Z. Khaliullin,  P. P. Korambath,  W. Kurlancheek,  A. M. Lee,  M. S. Lee,  
 S. V. Levchenko,  Ching Yeh Lin,  D. Liotard,  R. C. Lochan,  I. Lotan,  
 P. E. Maslen,  N. Nair,  D. P. O'Neill,  D. Neuhauser,  E. Neuscamman,  
 C. M. Oana,  R. Olson,  B. Peters,  R. Peverati,  P. A. Pieniazek,  
 Y. M. Rhee,  J. Ritchie,  M. A. Rohrdanz,  E. Rosta,  N. J. Russ,  
 H. F. Schaefer III,  N. E. Schultz,  N. Shenvi,  A. C. Simmonett,  A. Sodt,  
 D. Stuck,  K. S. Thanthiriwatte,  V. Vanovschi,  Tao Wang,  A. Warshel,  
 C. F. Williams,  Q. Wu,  X. Xu,  W. Zhang

 Please cite Q-Chem as follows:
 Y. Shao et al., Mol. Phys. 113, 184-215 (2015)
 DOI: 10.1080/00268976.2014.952696

 Q-Chem 5.0.2 for Intel X86 EM64T Linux

 Parts of Q-Chem use Armadillo 5.200.1 (Boston Tea Smuggler).
 http://arma.sourceforge.net/

 Q-Chem begins on Wed Mar  2 17:09:26 2022  

Host: 
0

     Scratch files written to ./qcfsm.d//
 Dec517 15110_ 26548  26544 5633   
Processing $rem in /home/leeping/opt/qchem/5.0.2-openmp/config/preferences.
 MEM_STATIC 2000
 MEM_TOTAL  8000
 SYMMETRY   OFF
 SYM_IGNORE TRUE 
 Now reading second FSM geometry

Checking the input file for inconsistencies... 	...done.

--------------------------------------------------------------
User input:
--------------------------------------------------------------
$molecule
0 2
C        1.6803072342    0.3945463122   -0.1790683170
C        1.1263490106   -0.8348011062   -0.2673907334
C       -0.3164220115   -1.0621630924   -0.0827497347
C       -1.1559921890    0.3283053733    0.0476775594
C       -0.3270390790    1.5323805493   -0.1490913060
N        0.9598779594    1.5896965768   -0.1665298860
H        2.7571846633    0.5230636471   -0.2509313291
H        1.7481625718   -1.6980040683   -0.4919427787
H       -0.7580703293   -1.9017057218   -0.6227678223
H       -2.1629936635    0.3924217203   -0.3692168243
H       -0.8669858804    2.4604237218   -0.3527428824
C       -0.9581665579   -0.6145042569    1.1513137541
H       -1.7262117293   -1.1096596548    1.7334402998
****
C        0.6600150368    0.0217165596    0.2819036946
C        1.0082375913   -1.2163559005   -0.5239922443
C        0.3011655536   -2.3207575819   -0.5674222112
C       -1.3310395665    1.1494414632    0.5064902769
C       -0.4007858027    1.8290878732   -0.4066090903
N        0.7273857165    1.2250845079   -0.5678448455
H        1.4364215398    0.1496580123    1.0566952574
H        1.9355650069   -1.1238902186   -1.1014598469
H        0.3713647542   -3.2860812697   -1.0527676720
H       -2.3248181208    1.4943473167    0.7691293313
H       -0.6105859327    2.7669064780   -0.9200369027
C       -0.7023045007    0.0362492066    0.9246451061
H       -1.0706212760   -0.7254064469    1.6012691466
$end

$rem
method                b3lyp
basis                 6-31g(d)
unrestricted          true
symmetry              off
sym_ignore            true
incdft                false
incfock               0
scf_convergence       8
thresh                14
jobtype               fsm
scf_guess             core
scf_guess_mix         5
scf_algorithm         diis
max_scf_cycles        100
fsm_nnode             21
fsm_ngrad             6
fsm_mode              2
fsm_opt_mode          2
$end

--------------------------------------------------------------
 ----------------------------------------------------------------
             Standard Nuclear Orientation (Angstroms)
    I     Atom           X                Y                Z
 ----------------------------------------------------------------
    1      C       1.6803072342     0.3945463122    -0.1790683170
    2      C       1.1263490106    -0.8348011062    -0.2673907334
    3      C      -0.3164220115    -1.0621630924    -0.0827497347
    4      C      -1.1559921890     0.3283053733     0.0476775594
    5      C      -0.3270390790     1.5323805493    -0.1490913060
    6      N       0.9598779594     1.5896965768    -0.1665298860
    7      H       2.7571846633     0.5230636471    -0.2509313291
    8      H       1.7481625718    -1.6980040683    -0.4919427787
    9      H      -0.7580703293    -1.9017057218    -0.6227678223
   10      H      -2.1629936635     0.3924217203    -0.3692168243
   11      H      -0.8669858804     2.4604237218    -0.3527428824
   12      C      -0.9581665579    -0.6145042569     1.1513137541
   13      H      -1.7262117293    -1.1096596548     1.7334402998
 ----------------------------------------------------------------
 Nuclear Repulsion Energy =   269.1134027959 hartrees
 There are       25 alpha and       24 beta electrons
 Requested basis set is 6-31G(d)
 There are 40 shells and 117 basis functions

 Total QAlloc Memory Limit   8000 MB
 Mega-Array Size      1956 MB
 MEM_STATIC part      2000 MB
 beginning FSman 

*******************************************
*******************************************
******** Starting FSM Calculation *********
*******************************************
*******************************************
-FSM parameters:
 Maximum displacement of each coordinate during optimization (Angstrom)      0.05
 Maximum optimization steps for each new node                                6
 The scaling factor for optimization (hartrees/Angstrom^2)                   1.75
 The number of LST interpolations used for reparameterization                100
-Aligning product structure to maximum coincidence with the reactant structure
 Total R --> P Distance 4.135395
 New node interpolation distace (Angstroms): 0.20
-Performing force calculation on reactant structure in state:0
 ----------------------------------------------------------------
             Standard Nuclear Orientation (Angstroms)
    I     Atom           X                Y                Z
 ----------------------------------------------------------------
    1      C       1.6803072342     0.3945463122    -0.1790683170
    2      C       1.1263490106    -0.8348011062    -0.2673907334
    3      C      -0.3164220115    -1.0621630924    -0.0827497347
    4      C      -1.1559921890     0.3283053733     0.0476775594
    5      C      -0.3270390790     1.5323805493    -0.1490913060
    6      N       0.9598779594     1.5896965768    -0.1665298860
    7      H       2.7571846633     0.5230636471    -0.2509313291
    8      H       1.7481625718    -1.6980040683    -0.4919427787
    9      H      -0.7580703293    -1.9017057218    -0.6227678223
   10      H      -2.1629936635     0.3924217203    -0.3692168243
   11      H      -0.8669858804     2.4604237218    -0.3527428824
   12      C      -0.9581665579    -0.6145042569     1.1513137541
   13      H      -1.7262117293    -1.1096596548     1.7334402998
 ----------------------------------------------------------------
 Nuclear Repulsion Energy =   269.1134027959 hartrees
 There are       25 alpha and       24 beta electrons

                       Distance Matrix (Angstroms)
             C (  1)   C (  2)   C (  3)   C (  4)   C (  5)   N (  6)
   C (  2)  1.351283
   C (  3)  2.473501  1.472200
   C (  4)  2.846119  2.580923  1.629507
   C (  5)  2.307597  2.780266  2.595413  1.475018
   N (  6)  1.395550  2.432298  2.944201  2.472630  1.288311
   H (  7)  1.086897  2.122191  3.462411  3.929383  3.246772  2.091684
   H (  8)  2.116899  1.087288  2.198691  3.582071  3.854788  3.396507
   H (  9)  3.378658  2.194451  1.091561  2.362369  3.493294  3.917830
   H ( 10)  3.848002  3.512295  2.368060  1.091771  2.172255  3.350653
   H ( 11)  3.284313  3.852165  3.575561  2.188559  1.092831  2.032307
   C ( 12)  3.122442  2.531098  1.461214  1.464936  2.588144  3.205325
   H ( 13)  4.186251  3.495136  2.299632  2.287944  3.532985  4.255759
             H (  7)   H (  8)   H (  9)   H ( 10)   H ( 11)   C ( 12)
   H (  8)  2.451398
   H (  9)  4.286582  2.517899
   H ( 10)  4.923334  4.436450  2.702058
   H ( 11)  4.110759  4.914356  4.371836  2.440602
   C ( 12)  4.130882  3.346413  2.200975  2.185754  3.424278
   H ( 13)  5.167626  4.167704  2.667649  2.620724  4.223260  1.083487

 
 Requested basis set is 6-31G(d)
 There are 40 shells and 117 basis functions
 A cutoff of  1.0D-14 yielded    804 shell pairs
 There are      7076 function pairs
 
 -------------------------------------------------------
 OpenMP Integral Computing Module                       
 Release: version 1.0, May 2013, Q-Chem Inc. Pittsburgh 
 -------------------------------------------------------
 Integral Job Info:
 Integral job number is                      11
 Integral operator is                         1
 short-range coefficients                     0
 long-range coefficients              100000000
 Omega coefficients                           0
 if combine SR and LR in K                    0
 Integral screening is                        0
 Integral computing path is                   2
 max size of driver memory is            800000
 size of driver memory is                593474
 size of scratch memory is              2361544
 max col of scratch BK array               1296
 max len of scratch array in speh3          155
 max len of scratch index in speh4           18
 max int batch size is                      520
 min int batch size is                       52
 fixed nKL is                                52
 max L of basis functions is                  2
 order of int derivative is                   0
 number of shells is                         40
 number of basis is                         117
 number of cartesian basis is               117
 number of contracted shell pairs           804
 number of primitive shell pairs           3486
 maxK2 (contraction) of shell pair           36
 max number of K2 of shell pair               1
 max number of CS2 of shell pair             86
 max number of PS2 of shell pair            390
 mem total for path MDJ                  535308
 -------------------------------------------------------
 Smallest overlap matrix eigenvalue = 1.47E-03

 Scale SEOQF with 1.000000e-01/1.000000e-01/1.000000e-01

 Standard Electronic Orientation quadrupole field applied
 Nucleus-field energy     =     0.0000000053 hartrees
 Guess MOs from core Hamiltonian diagonalization
 Mixing HOMO and LUMO in initial guess
 Adding  50% of the LUMO to the HOMO
 An unrestricted hybrid HF-DFT SCF calculation will be
 performed using Pulay DIIS extrapolation
 Exchange:     0.2000 Hartree-Fock + 0.0800 Slater + 0.7200 B88
 Correlation:  0.1900 VWN1RPA + 0.8100 LYP
 Using SG-1 standard quadrature grid
 SCF converges when DIIS error is below 1.0E-08
 using 4 threads for integral computing
 -------------------------------------------------------
 OpenMP Integral computing Module                
 Release: version 1.0, May 2013, Q-Chem Inc. Pittsburgh 
 -------------------------------------------------------
 -------------------------------------------------------
 OpenMP BLAS3 based DFT computing Module                
 Release: version 1.0, May 2013, Q-Chem Inc. Pittsburgh 
 -------------------------------------------------------
 ---------------------------------------
  Cycle       Energy         DIIS Error
 ---------------------------------------
    1    -237.9493561106      1.30E-01
    2    -233.1051683555      1.00E-01
    3    -251.2675114130      1.06E-01
    4    -279.8769397205      6.24E-02
    5    -282.0571025399      4.59E-02
    6    -286.1795841868      1.66E-02
    7    -286.3551656899      1.58E-02
    8    -286.8310832241      3.31E-03
    9    -286.8535209059      8.67E-04
   10    -286.8545794842      4.14E-04
   11    -286.8548910159      8.05E-05
   12    -286.8549072340      3.41E-05
   13    -286.8549106954      1.23E-05
   14    -286.8549116550      2.56E-06
   15    -286.8549117478      1.26E-06
   16    -286.8549117722      3.69E-07
   17    -286.8549117817      1.49E-07
   18    -286.8549117841      4.27E-08
   19    -286.8549117853      1.85E-08
   20    -286.8549117856      8.20E-09 Convergence criterion met
 ---------------------------------------
 <S^2> = 0.7532
 SCF time:  CPU 50.18 s  wall 18.21 s
 SCF   energy in the final basis set = -286.85491179
 Total energy in the final basis set = -286.85491179
 
 --------------------------------------------------------------
 
                    Orbital Energies (a.u.)
 --------------------------------------------------------------
 
 Alpha MOs
 -- Occupied --
-14.323 -10.230 -10.224 -10.221 -10.219 -10.206 -10.195  -0.934
 -0.868  -0.765  -0.667  -0.641  -0.570  -0.532  -0.491  -0.482
 -0.451  -0.425  -0.377  -0.373  -0.359  -0.300  -0.255  -0.229
 -0.219
 -- Virtual --
 -0.031   0.048   0.085   0.130   0.135   0.151   0.156   0.173
  0.184   0.228   0.244   0.286   0.296   0.328   0.400   0.437
  0.504   0.506   0.529   0.551   0.552   0.581   0.592   0.605
  0.617   0.630   0.647   0.669   0.672   0.713   0.754   0.803
  0.832   0.845   0.860   0.867   0.879   0.896   0.902   0.924
  0.937   1.001   1.077   1.099   1.114   1.170   1.212   1.328
  1.350   1.434   1.488   1.522   1.548   1.567   1.602   1.700
  1.724   1.766   1.816   1.828   1.897   1.914   1.949   2.021
  2.032   2.055   2.147   2.203   2.220   2.242   2.295   2.344
  2.437   2.469   2.504   2.529   2.545   2.579   2.633   2.673
  2.733   2.806   2.838   3.019   3.234   4.027   4.106   4.140
  4.276   4.317   4.397   4.609
 
 Beta MOs
 -- Occupied --
-14.323 -10.229 -10.224 -10.221 -10.207 -10.204 -10.194  -0.932
 -0.858  -0.763  -0.659  -0.639  -0.556  -0.527  -0.488  -0.473
 -0.447  -0.422  -0.375  -0.371  -0.351  -0.291  -0.250  -0.225
 -- Virtual --
 -0.072  -0.029   0.051   0.091   0.131   0.137   0.154   0.162
  0.179   0.186   0.233   0.246   0.291   0.311   0.330   0.403
  0.439   0.508   0.531   0.541   0.557   0.558   0.587   0.595
  0.611   0.622   0.640   0.650   0.673   0.674   0.719   0.766
  0.806   0.833   0.847   0.862   0.869   0.884   0.902   0.906
  0.925   0.941   1.013   1.079   1.104   1.119   1.175   1.215
  1.331   1.351   1.440   1.496   1.526   1.550   1.570   1.609
  1.705   1.730   1.787   1.821   1.830   1.920   1.925   1.963
  2.025   2.039   2.064   2.158   2.213   2.230   2.252   2.300
  2.354   2.440   2.474   2.514   2.535   2.547   2.589   2.637
  2.674   2.737   2.816   2.848   3.019   3.236   4.028   4.112
  4.141   4.300   4.321   4.401   4.610
 --------------------------------------------------------------
 
          Ground-State Mulliken Net Atomic Charges

     Atom                 Charge (a.u.)    Spin (a.u.)
  --------------------------------------------------------
      1 C                    -0.009203      -0.014665
      2 C                    -0.083864       0.041060
      3 C                    -0.175836      -0.016689
      4 C                    -0.194266      -0.017107
      5 C                     0.088613       0.019267
      6 N                    -0.391558       0.002506
      7 H                     0.136782       0.000774
      8 H                     0.139543       0.003633
      9 H                     0.155137       0.017055
     10 H                     0.155355       0.022638
     11 H                     0.142799       0.005883
     12 C                    -0.121298       0.958853
     13 H                     0.157796      -0.023207
  --------------------------------------------------------
  Sum of atomic charges =    -0.000000
  Sum of spin   charges =     1.000000

 -----------------------------------------------------------------
                    Cartesian Multipole Moments
 -----------------------------------------------------------------
    Charge (ESU x 10^10)
                 0.0000
    Dipole Moment (Debye)
         X      -1.9386      Y      -2.0362      Z      -0.3370
       Tot       2.8315
    Quadrupole Moments (Debye-Ang)
        XX     -36.9973     XY      -2.9635     YY     -41.5667
        XZ      -0.4184     YZ       0.3088     ZZ     -42.3369
    Octopole Moments (Debye-Ang^2)
       XXX     -13.2579    XXY     -10.5850    XYY     -13.7774
       YYY     -28.3672    XXZ      -1.6108    XYZ       3.2832
       YYZ      -2.8396    XZZ      -7.8391    YZZ      -8.0477
       ZZZ      -3.9795
    Hexadecapole Moments (Debye-Ang^3)
      XXXX    -325.2173   XXXY     -19.4061   XXYY    -115.5702
      XYYY     -41.3767   YYYY    -337.4817   XXXZ      30.7337
      XXYZ       3.6130   XYYZ      12.1906   YYYZ      20.6253
      XXZZ     -75.9414   XYZZ      -3.2074   YYZZ     -72.9748
      XZZZ      32.7949   YZZZ      15.2109   ZZZZ    -107.6152
 -----------------------------------------------------------------
 Calculating analytic gradient of the SCF energy
 Gradient of SCF Energy
            1           2           3           4           5           6
    1   0.0000387   0.0000120   0.0000107  -0.0000144   0.0000561  -0.0000636
    2  -0.0000241  -0.0000190   0.0001350  -0.0001705   0.0000427   0.0000156
    3  -0.0000276   0.0000539  -0.0000096  -0.0000317   0.0000205   0.0000214
            7           8           9          10          11          12
    1  -0.0000053   0.0000120  -0.0000164  -0.0000021  -0.0000029  -0.0000515
    2   0.0000221   0.0000092  -0.0000024   0.0000103   0.0000033  -0.0000079
    3   0.0000129   0.0000114   0.0000068  -0.0000311  -0.0000024  -0.0000475
           13
    1   0.0000266
    2  -0.0000144
    3   0.0000231
 Max gradient component =       1.705E-04
 RMS gradient           =       4.356E-05
 Gradient time:  CPU 7.87 s  wall 2.73 s
-Performing force calculation on product structure in state0
 ----------------------------------------------------------------
             Standard Nuclear Orientation (Angstroms)
    I     Atom           X                Y                Z
 ----------------------------------------------------------------
    1      C       0.6601068356     0.0216159615     0.2816964085
    2      C       1.0078699534    -1.2165430749    -0.5242649074
    3      C       0.3005994907    -2.3208278909    -0.5674348043
    4      C      -1.3306885863     1.1496820659     0.5068662935
    5      C      -0.4006068058     1.8291406668    -0.4065479899
    6      N       0.7274130810     1.2249427767    -0.5681154848
    7      H       1.4367771323     0.1494546354     1.0562405084
    8      H       1.9350321057    -1.1242529187    -1.1020258792
    9      H       0.3704852284    -3.2861803586    -1.0527682599
   10      H      -2.3243271623     1.4947635091     0.7698041442
   11      H      -0.6104105750     2.7669763539    -0.9199431118
   12      C      -0.7020090758     0.0363992486     0.9248635257
   13      H      -1.0702416226    -0.7251709744     1.6016295566
 ----------------------------------------------------------------
 Nuclear Repulsion Energy =   259.7654553669 hartrees
 There are       25 alpha and       24 beta electrons

                       Distance Matrix (Angstroms)
             C (  1)   C (  2)   C (  3)   C (  4)   C (  5)   N (  6)
   C (  2)  1.517745
   C (  3)  2.517402  1.312075
   C (  4)  2.299239  3.482974  3.982419
   C (  5)  2.205887  3.357656  4.211866  1.470048
   N (  6)  1.474688  2.457932  3.571367  2.323151  1.289802
   H (  7)  1.104300  2.132583  3.166941  2.993515  2.887399  2.073259
   H (  8)  2.202984  1.096337  2.094982  4.292347  3.829025  2.694833
   H (  9)  3.578574  2.229119  1.082746  5.000333  5.213319  4.551101
   H ( 10)  3.363816  4.486573  4.820496  1.084221  2.279542  3.343045
   H ( 11)  3.255020  4.317849  5.180729  2.273813  1.089554  2.071575
   C ( 12)  1.506400  2.567786  2.964574  1.345124  2.253314  2.384296
   H ( 13)  2.300874  3.013208  3.021617  2.186644  3.317483  3.426704
             H (  7)   H (  8)   H (  9)   H ( 10)   H ( 11)   C ( 12)
   H (  8)  2.555133
   H (  9)  4.169950  2.669113
   H ( 10)  4.004723  5.339020  5.782837
   H ( 11)  3.866225  4.653396  6.133556  2.722367
   C ( 12)  2.145798  3.522695  4.012581  2.186958  3.296628
   H ( 13)  2.710639  4.062104  3.959835  2.681935  4.331843  1.083327

 
 Applying Cartesian multipole field
    Component          Value
    ---------          -----
     (2,0,0)        1.00000E-11
     (0,2,0)        2.00000E-11
     (0,0,2)       -3.00000E-11
 Nucleus-field energy     =     0.0000000064 hartrees
 Requested basis set is 6-31G(d)
 There are 40 shells and 117 basis functions
 A cutoff of  1.0D-14 yielded    791 shell pairs
 There are      7028 function pairs
 Smallest overlap matrix eigenvalue = 1.47E-03
 Guess MOs from core Hamiltonian diagonalization
 Mixing HOMO and LUMO in initial guess
 Adding  50% of the LUMO to the HOMO
 An unrestricted hybrid HF-DFT SCF calculation will be
 performed using Pulay DIIS extrapolation
 Exchange:     0.2000 Hartree-Fock + 0.0800 Slater + 0.7200 B88
 Correlation:  0.1900 VWN1RPA + 0.8100 LYP
 Using SG-1 standard quadrature grid
 SCF converges when DIIS error is below 1.0E-08
 using 4 threads for integral computing
 -------------------------------------------------------
 OpenMP Integral computing Module                
 Release: version 1.0, May 2013, Q-Chem Inc. Pittsburgh 
 -------------------------------------------------------
 -------------------------------------------------------
 OpenMP BLAS3 based DFT computing Module                
 Release: version 1.0, May 2013, Q-Chem Inc. Pittsburgh 
 -------------------------------------------------------
 ---------------------------------------
  Cycle       Energy         DIIS Error
 ---------------------------------------
    1    -227.9519695712      1.38E-01
    2    -162.9666034327      1.55E-01
    3    -238.2780151953      1.06E-01
    4    -226.4524440221      1.31E-01
    5    -285.5846579209      2.28E-02
    6    -282.8051223759      3.81E-02
    7    -286.6577154584      9.47E-03
    8    -286.7541378571      7.34E-03
    9    -286.8466839840      1.25E-03
   10    -286.8490404085      8.26E-04
   11    -286.8502589399      2.11E-04
   12    -286.8504273432      9.36E-05
   13    -286.8504841579      5.19E-05
   14    -286.8505153938      1.73E-05
   15    -286.8505248775      6.35E-06
   16    -286.8505292998      1.06E-06
   17    -286.8505308122      5.74E-07
   18    -286.8505314987      3.28E-07
   19    -286.8505317205      6.78E-08
   20    -286.8505317241      3.18E-08
   21    -286.8505317246      1.07E-08
   22    -286.8505317250      5.72E-09 Convergence criterion met
 ---------------------------------------
 <S^2> = 0.7608
 SCF time:  CPU 54.02 s  wall 18.07 s
 SCF   energy in the final basis set = -286.85053172
 Total energy in the final basis set = -286.85053172
 
 --------------------------------------------------------------
 
                    Orbital Energies (a.u.)
 --------------------------------------------------------------
 
 Alpha MOs
 -- Occupied --
-14.321 -10.227 -10.224 -10.209 -10.202 -10.201 -10.196  -0.943
 -0.790  -0.765  -0.704  -0.595  -0.556  -0.538  -0.507  -0.469
 -0.446  -0.405  -0.398  -0.370  -0.326  -0.274  -0.265  -0.254
 -0.234
 -- Virtual --
 -0.035   0.017   0.072   0.119   0.123   0.151   0.158   0.161
  0.166   0.200   0.239   0.281   0.302   0.351   0.405   0.445
  0.498   0.521   0.537   0.540   0.557   0.571   0.605   0.610
  0.625   0.640   0.657   0.674   0.703   0.724   0.749   0.798
  0.803   0.842   0.848   0.854   0.883   0.894   0.898   0.908
  0.950   1.008   1.024   1.035   1.109   1.114   1.164   1.327
  1.401   1.418   1.465   1.491   1.530   1.539   1.570   1.631
  1.658   1.738   1.817   1.852   1.888   1.918   1.968   1.995
  2.022   2.079   2.089   2.177   2.194   2.254   2.277   2.303
  2.328   2.403   2.490   2.549   2.567   2.585   2.625   2.730
  2.759   2.848   2.898   2.961   3.036   3.925   4.056   4.086
  4.188   4.280   4.409   4.565
 
 Beta MOs
 -- Occupied --
-14.321 -10.226 -10.224 -10.204 -10.201 -10.196 -10.193  -0.943
 -0.782  -0.764  -0.692  -0.587  -0.555  -0.529  -0.504  -0.457
 -0.441  -0.403  -0.397  -0.365  -0.324  -0.268  -0.261  -0.252
 -- Virtual --
 -0.072  -0.035   0.028   0.073   0.120   0.130   0.153   0.158
  0.161   0.172   0.201   0.240   0.282   0.308   0.355   0.425
  0.446   0.506   0.527   0.539   0.553   0.565   0.580   0.611
  0.622   0.631   0.643   0.659   0.677   0.706   0.724   0.757
  0.798   0.805   0.843   0.848   0.855   0.895   0.900   0.903
  0.911   0.953   1.012   1.037   1.041   1.112   1.123   1.165
  1.328   1.402   1.421   1.467   1.494   1.534   1.542   1.575
  1.634   1.704   1.761   1.839   1.859   1.903   1.922   1.976
  2.009   2.028   2.083   2.093   2.183   2.198   2.257   2.278
  2.311   2.328   2.412   2.495   2.550   2.570   2.588   2.626
  2.737   2.763   2.859   2.906   2.961   3.039   3.925   4.069
  4.100   4.195   4.283   4.409   4.566
 --------------------------------------------------------------
 
          Ground-State Mulliken Net Atomic Charges

     Atom                 Charge (a.u.)    Spin (a.u.)
  --------------------------------------------------------
      1 C                    -0.069402       0.042925
      2 C                    -0.103333      -0.167501
      3 C                    -0.198483       1.040369
      4 C                    -0.142391       0.000325
      5 C                     0.055922       0.004770
      6 N                    -0.377554      -0.003480
      7 H                     0.181034      -0.004354
      8 H                     0.164030       0.078639
      9 H                     0.163966       0.004927
     10 H                     0.140222       0.000134
     11 H                     0.143438      -0.000135
     12 C                    -0.110680       0.002900
     13 H                     0.153231       0.000482
  --------------------------------------------------------
  Sum of atomic charges =    -0.000000
  Sum of spin   charges =     1.000000

 -----------------------------------------------------------------
                    Cartesian Multipole Moments
 -----------------------------------------------------------------
    Charge (ESU x 10^10)
                -0.0000
    Dipole Moment (Debye)
         X      -0.9630      Y      -0.6219      Z       0.9953
       Tot       1.5181
    Quadrupole Moments (Debye-Ang)
        XX     -39.3470     XY      -4.3705     YY     -37.4941
        XZ       0.0406     YZ       1.5214     ZZ     -40.8852
    Octopole Moments (Debye-Ang^2)
       XXX      -6.8156    XXY      -2.7900    XYY      -7.6956
       YYY     -13.1894    XXZ       4.8007    XYZ       4.9491
       YYZ      -5.9669    XZZ      -1.9935    YZZ      -6.5612
       ZZZ       7.5319
    Hexadecapole Moments (Debye-Ang^3)
      XXXX    -222.1912   XXXY      53.5228   XXYY    -131.8517
      XYYY      48.9627   YYYY    -481.3741   XXXZ      35.7186
      XXYZ      -1.0091   XYYZ      12.9169   YYYZ      -7.2059
      XXZZ     -59.8315   XYZZ      19.5665   YYZZ    -108.9578
      XZZZ      41.9181   YZZZ     -24.2344   ZZZZ    -147.1730
 -----------------------------------------------------------------
 Calculating analytic gradient of the SCF energy
 Gradient of SCF Energy
            1           2           3           4           5           6
    1   0.0000210   0.0000004  -0.0000027   0.0000114  -0.0000387   0.0000014
    2  -0.0000241   0.0000150  -0.0000218   0.0001006  -0.0001900   0.0001139
    3  -0.0000769   0.0000274   0.0000100   0.0000435  -0.0000904   0.0000708
            7           8           9          10          11          12
    1  -0.0000059   0.0000197   0.0000061  -0.0000065   0.0000306   0.0000036
    2  -0.0000064   0.0000035  -0.0000018   0.0000107   0.0000165  -0.0000085
    3   0.0000438   0.0000131   0.0000001  -0.0000266   0.0000124  -0.0000032
           13
    1  -0.0000404
    2  -0.0000075
    3  -0.0000240
 Max gradient component =       1.900E-04
 RMS gradient           =       4.846E-05
 Gradient time:  CPU 7.10 s  wall 2.18 s

STARTING FREEZING STRING ITERATION # 1
 The distance between the innermost nodes (Angstroms): 4.135
-Adding two new nodes
 The distance between the previous and current R_nodes (Angstroms): 0.2007
 The distance between the previous and current P_nodes (Angstroms): 0.1935
-Optimizing new reactant side node
 Using BFGS, step: 2 E_tol 0.0044
 max_steps 6, node_spacing 0.1969, sigma 0.7000
 ----------------------------------------------------------------
             Standard Nuclear Orientation (Angstroms)
    I     Atom           X                Y                Z
 ----------------------------------------------------------------
    1      C       1.6501507690     0.3837211999    -0.1469601534
    2      C       1.1224618986    -0.8576037847    -0.2838502399
    3      C      -0.3008696708    -1.1334948689    -0.1214337312
    4      C      -1.1768156073     0.3638533607     0.0645903792
    5      C      -0.3376233740     1.5518480524    -0.1624220657
    6      N       0.9473852943     1.5875049182    -0.1877849688
    7      H       2.7290015269     0.5187339549    -0.1787484934
    8      H       1.7690820672    -1.6969007164    -0.5276351690
    9      H      -0.7278835794    -1.9849615150    -0.6515453487
   10      H      -2.1959783196     0.4421485480    -0.3188740063
   11      H      -0.8595199198     2.4865518839    -0.3816642519
   12      C      -0.9421348976    -0.5757372669     1.1550439079
   13      H      -1.6934217345    -1.0914694196     1.7415059785
 ----------------------------------------------------------------
 Nuclear Repulsion Energy =   267.2980118507 hartrees
 There are       25 alpha and       24 beta electrons

                       Distance Matrix (Angstroms)
             C (  1)   C (  2)   C (  3)   C (  4)   C (  5)   N (  6)
   C (  2)  1.355759
   C (  3)  2.471655  1.458893
   C (  4)  2.834940  2.626794  1.744689
   C (  5)  2.305646  2.819938  2.685907  1.472111
   N (  6)  1.394504  2.453250  2.994392  2.464396  1.285753
   H (  7)  1.087731  2.118094  3.451560  3.916454  3.236013  2.077621
   H (  8)  2.118501  1.087184  2.183375  3.643590  3.889210  3.402647
   H (  9)  3.394158  2.197706  1.090117  2.496262  3.591736  3.972923
   H ( 10)  3.850413  3.564075  2.472463  1.091727  2.170114  3.348098
   H ( 11)  3.282595  3.888598  3.672131  2.192184  1.092755  2.027506
   C ( 12)  3.055441  2.532277  1.533529  1.458422  2.574446  3.170661
   H ( 13)  4.113632  3.476487  2.326266  2.279669  3.528492  4.227639
             H (  7)   H (  8)   H (  9)   H ( 10)   H ( 11)   C ( 12)
   H (  8)  2.439714
   H (  9)  4.294425  2.516579
   H ( 10)  4.927568  4.510079  2.856017
   H ( 11)  4.097678  4.942887  4.481584  2.443286
   C ( 12)  4.056367  3.382176  2.301213  2.186470  3.427231
   H ( 13)  5.083105  4.183836  2.730803  2.617196  4.243287  1.083674

 
 Applying Cartesian multipole field
    Component          Value
    ---------          -----
     (2,0,0)        1.00000E-11
     (0,2,0)        2.00000E-11
     (0,0,2)       -3.00000E-11
 Nucleus-field energy     =     0.0000000054 hartrees
 Requested basis set is 6-31G(d)
 There are 40 shells and 117 basis functions
 A cutoff of  1.0D-14 yielded    804 shell pairs
 There are      7076 function pairs
 Smallest overlap matrix eigenvalue = 1.58E-03
 Guess MOs from core Hamiltonian diagonalization
 Mixing HOMO and LUMO in initial guess
 Adding  50% of the LUMO to the HOMO
 An unrestricted hybrid HF-DFT SCF calculation will be
 performed using Pulay DIIS extrapolation
 Exchange:     0.2000 Hartree-Fock + 0.0800 Slater + 0.7200 B88
 Correlation:  0.1900 VWN1RPA + 0.8100 LYP
 Using SG-1 standard quadrature grid
 SCF converges when DIIS error is below 1.0E-08
 using 4 threads for integral computing
 -------------------------------------------------------
 OpenMP Integral computing Module                
 Release: version 1.0, May 2013, Q-Chem Inc. Pittsburgh 
 -------------------------------------------------------
 -------------------------------------------------------
 OpenMP BLAS3 based DFT computing Module                
 Release: version 1.0, May 2013, Q-Chem Inc. Pittsburgh 
 -------------------------------------------------------
 ---------------------------------------
  Cycle       Energy         DIIS Error
 ---------------------------------------
    1    -238.5111295852      1.28E-01
    2    -232.6875503391      1.00E-01
    3    -250.5423891349      1.06E-01
    4    -281.0775257830      5.58E-02
    5    -281.7452819811      4.74E-02
    6    -285.7973112820      1.92E-02
    7    -286.5705365903      1.20E-02
    8    -286.8130219327      4.18E-03
    9    -286.8457648283      1.27E-03
   10    -286.8486156882      5.21E-04
   11    -286.8491879353      2.27E-04
   12    -286.8493208191      7.77E-05
   13    -286.8493474355      1.54E-05
   14    -286.8493520834      7.64E-06
   15    -286.8493536317      2.71E-06
   16    -286.8493545712      8.83E-07
   17    -286.8493552799      3.72E-07
   18    -286.8493554977      2.54E-07
   19    -286.8493556241      1.84E-07
   20    -286.8493557031      4.66E-08
   21    -286.8493557074      1.73E-08
   22    -286.8493557075      4.95E-09 Convergence criterion met
 ---------------------------------------
 <S^2> = 0.7533
 SCF time:  CPU 55.20 s  wall 17.78 s
 SCF   energy in the final basis set = -286.84935571
 Total energy in the final basis set = -286.84935571
 
 --------------------------------------------------------------
 
                    Orbital Energies (a.u.)
 --------------------------------------------------------------
 
 Alpha MOs
 -- Occupied --
-14.323 -10.232 -10.227 -10.226 -10.224 -10.205 -10.196  -0.931
 -0.850  -0.767  -0.664  -0.646  -0.568  -0.528  -0.490  -0.476
 -0.450  -0.431  -0.377  -0.371  -0.358  -0.295  -0.256  -0.227
 -0.221
 -- Virtual --
 -0.027   0.031   0.087   0.115   0.129   0.149   0.154   0.168
  0.185   0.216   0.243   0.287   0.289   0.330   0.394   0.436
  0.503   0.513   0.525   0.534   0.545   0.576   0.592   0.610
  0.618   0.625   0.654   0.666   0.673   0.708   0.759   0.808
  0.830   0.840   0.861   0.869   0.880   0.890   0.901   0.928
  0.939   1.009   1.071   1.094   1.113   1.163   1.215   1.323
  1.341   1.435   1.460   1.501   1.544   1.552   1.601   1.700
  1.746   1.768   1.802   1.820   1.860   1.911   1.940   1.974
  2.035   2.072   2.124   2.191   2.210   2.236   2.284   2.342
  2.434   2.475   2.488   2.509   2.537   2.566   2.599   2.663
  2.726   2.778   2.845   3.015   3.220   4.022   4.087   4.144
  4.266   4.317   4.393   4.579
 
 Beta MOs
 -- Occupied --
-14.323 -10.232 -10.227 -10.226 -10.209 -10.205 -10.195  -0.929
 -0.839  -0.765  -0.655  -0.644  -0.555  -0.524  -0.487  -0.466
 -0.445  -0.428  -0.375  -0.368  -0.351  -0.282  -0.252  -0.223
 -- Virtual --
 -0.074  -0.023   0.034   0.093   0.116   0.130   0.152   0.161
  0.174   0.187   0.222   0.244   0.292   0.304   0.333   0.397
  0.438   0.509   0.528   0.538   0.546   0.552   0.581   0.594
  0.613   0.624   0.635   0.657   0.670   0.674   0.715   0.772
  0.810   0.833   0.841   0.863   0.871   0.884   0.894   0.906
  0.929   0.942   1.022   1.073   1.099   1.117   1.167   1.219
  1.325   1.345   1.446   1.463   1.503   1.547   1.554   1.608
  1.704   1.750   1.787   1.809   1.827   1.892   1.917   1.952
  1.978   2.039   2.082   2.139   2.197   2.219   2.244   2.289
  2.352   2.438   2.480   2.497   2.519   2.539   2.573   2.605
  2.664   2.731   2.786   2.854   3.016   3.221   4.023   4.092
  4.145   4.291   4.321   4.397   4.580
 --------------------------------------------------------------
 
          Ground-State Mulliken Net Atomic Charges

     Atom                 Charge (a.u.)    Spin (a.u.)
  --------------------------------------------------------
      1 C                    -0.016825      -0.015719
      2 C                    -0.075923       0.040250
      3 C                    -0.186697      -0.006860
      4 C                    -0.197130      -0.017676
      5 C                     0.084379       0.019288
      6 N                    -0.383922       0.002555
      7 H                     0.133235       0.000707
      8 H                     0.142846       0.003490
      9 H                     0.158270       0.010730
     10 H                     0.156491       0.025686
     11 H                     0.142483       0.005070
     12 C                    -0.114735       0.953513
     13 H                     0.157528      -0.021035
  --------------------------------------------------------
  Sum of atomic charges =    -0.000000
  Sum of spin   charges =     1.000000

 -----------------------------------------------------------------
                    Cartesian Multipole Moments
 -----------------------------------------------------------------
    Charge (ESU x 10^10)
                 0.0000
    Dipole Moment (Debye)
         X      -2.0205      Y      -2.0820      Z      -0.2614
       Tot       2.9130
    Quadrupole Moments (Debye-Ang)
        XX     -37.1518     XY      -3.0930     YY     -41.2984
        XZ      -0.4127     YZ       0.5732     ZZ     -42.4287
    Octopole Moments (Debye-Ang^2)
       XXX     -13.1917    XXY     -10.4760    XYY     -13.4572
       YYY     -28.1927    XXZ      -1.0868    XYZ       3.4288
       YYZ      -3.1236    XZZ      -7.6072    YZZ      -8.1278
       ZZZ      -3.2916
    Hexadecapole Moments (Debye-Ang^3)
      XXXX    -323.0930   XXXY     -17.6678   XXYY    -116.3837
      XYYY     -37.2721   YYYY    -343.0180   XXXZ      31.0634
      XXYZ       3.8384   XYYZ      12.3282   YYYZ      20.2793
      XXZZ     -75.9095   XYZZ      -2.2910   YYZZ     -74.4580
      XZZZ      31.8853   YZZZ      13.9397   ZZZZ    -108.8306
 -----------------------------------------------------------------
 Calculating analytic gradient of the SCF energy
 Gradient of SCF Energy
            1           2           3           4           5           6
    1  -0.0066009   0.0058303   0.0106132  -0.0050430   0.0065502  -0.0074560
    2  -0.0076023  -0.0003383  -0.0291493   0.0062095   0.0045347   0.0066671
    3   0.0048246   0.0005212  -0.0319258  -0.0014097   0.0036731  -0.0064506
            7           8           9          10          11          12
    1   0.0000049  -0.0008742   0.0039131   0.0006614   0.0012051  -0.0101755
    2   0.0010552  -0.0001361  -0.0021552   0.0005603   0.0011852   0.0205858
    3   0.0004827  -0.0000681  -0.0025418  -0.0005541   0.0019680   0.0325798
           13
    1   0.0013715
    2  -0.0014166
    3  -0.0010994
 Max gradient component =       3.258E-02
 RMS gradient           =       1.020E-02
 Gradient time:  CPU 7.48 s  wall 2.29 s
 ----------------------------------------------------------------
             Standard Nuclear Orientation (Angstroms)
    I     Atom           X                Y                Z
 ----------------------------------------------------------------
    1      C       1.6543498142     0.3922078082    -0.1466623771
    2      C       1.1136735176    -0.8607135151    -0.2880537115
    3      C      -0.3127661233    -1.1056013595    -0.0846147931
    4      C      -1.1735075680     0.3615935617     0.0692029899
    5      C      -0.3483476147     1.5489303255    -0.1699669144
    6      N       0.9556687403     1.5774910327    -0.1834494998
    7      H       2.7242700035     0.5164340044    -0.1655553639
    8      H       1.7739213550    -1.6960173349    -0.5340561954
    9      H      -0.7279324271    -1.9966085243    -0.6532281326
   10      H      -2.2027841056     0.4500675080    -0.3089172951
   11      H      -0.8597847708     2.4893610845    -0.3894122721
   12      C      -0.9245380209    -0.5971570302     1.1102458950
   13      H      -1.6883883543    -1.0857932154     1.7446889721
 ----------------------------------------------------------------
 Nuclear Repulsion Energy =   268.6794006475 hartrees
 There are       25 alpha and       24 beta electrons

                       Distance Matrix (Angstroms)
             C (  1)   C (  2)   C (  3)   C (  4)   C (  5)   N (  6)
   C (  2)  1.371909
   C (  3)  2.473222  1.461536
   C (  4)  2.836250  2.617798  1.707980
   C (  5)  2.312866  2.820963  2.656142  1.465558
   N (  6)  1.376374  2.445557  2.969458  2.464880  1.304399
   H (  7)  1.077274  2.122631  3.444000  3.907910  3.241458  2.062550
   H (  8)  2.127218  1.092784  2.214690  3.644862  3.894390  3.392391
   H (  9)  3.411498  2.194339  1.135596  2.506304  3.598399  3.978617
   H ( 10)  3.860979  3.566157  2.458167  1.100097  2.160033  3.355987
   H ( 11)  3.282964  3.889449  3.649094  2.199124  1.092764  2.042009
   C ( 12)  3.034687  2.485761  1.435435  1.436996  2.564494  3.152447
   H ( 13)  4.115288  3.469042  2.288904  2.273166  3.521844  4.219223
             H (  7)   H (  8)   H (  9)   H ( 10)   H ( 11)   C ( 12)
   H (  8)  2.435959
   H (  9)  4.297780  2.522663
   H ( 10)  4.929586  4.524440  2.877492
   H ( 11)  4.097316  4.947193  4.495654  2.443122
   C ( 12)  4.022630  3.345580  2.259858  2.178214  3.432166
   H ( 13)  5.068305  4.189587  2.738990  2.615487  4.245315  1.106685

 
 Applying Cartesian multipole field
    Component          Value
    ---------          -----
     (2,0,0)        1.00000E-11
     (0,2,0)        2.00000E-11
     (0,0,2)       -3.00000E-11
 Nucleus-field energy     =     0.0000000054 hartrees
 Requested basis set is 6-31G(d)
 There are 40 shells and 117 basis functions
 A cutoff of  1.0D-14 yielded    805 shell pairs
 There are      7077 function pairs
 Smallest overlap matrix eigenvalue = 1.56E-03
 Guess MOs from core Hamiltonian diagonalization
 Mixing HOMO and LUMO in initial guess
 Adding  50% of the LUMO to the HOMO
 An unrestricted hybrid HF-DFT SCF calculation will be
 performed using Pulay DIIS extrapolation
 Exchange:     0.2000 Hartree-Fock + 0.0800 Slater + 0.7200 B88
 Correlation:  0.1900 VWN1RPA + 0.8100 LYP
 Using SG-1 standard quadrature grid
 SCF converges when DIIS error is below 1.0E-08
 using 4 threads for integral computing
 -------------------------------------------------------
 OpenMP Integral computing Module                
 Release: version 1.0, May 2013, Q-Chem Inc. Pittsburgh 
 -------------------------------------------------------
 -------------------------------------------------------
 OpenMP BLAS3 based DFT computing Module                
 Release: version 1.0, May 2013, Q-Chem Inc. Pittsburgh 
 -------------------------------------------------------
 ---------------------------------------
  Cycle       Energy         DIIS Error
 ---------------------------------------
    1    -239.0892181428      1.29E-01
    2    -233.6583434449      9.93E-02
    3    -249.7748916202      1.10E-01
    4    -281.2918848377      5.46E-02
    5    -281.7092360180      4.74E-02
    6    -285.6910848017      2.05E-02
    7    -286.7190432105      8.61E-03
    8    -286.7805104237      6.45E-03
    9    -286.8446726997      1.70E-03
   10    -286.8501414164      4.38E-04
   11    -286.8506108535      1.44E-04
   12    -286.8506544650      7.36E-05
   13    -286.8506681573      6.33E-06
   14    -286.8506701002      1.97E-06
   15    -286.8506706972      9.29E-07
   16    -286.8506709394      5.05E-07
   17    -286.8506711015      2.02E-07
   18    -286.8506711951      1.43E-07
   19    -286.8506712402      8.73E-08
   20    -286.8506712532      2.79E-08
   21    -286.8506712543      1.20E-08
   22    -286.8506712544      3.50E-09 Convergence criterion met
 ---------------------------------------
 <S^2> = 0.7534
 SCF time:  CPU 54.52 s  wall 17.67 s
 SCF   energy in the final basis set = -286.85067125
 Total energy in the final basis set = -286.85067125
 
 --------------------------------------------------------------
 
                    Orbital Energies (a.u.)
 --------------------------------------------------------------
 
 Alpha MOs
 -- Occupied --
-14.322 -10.232 -10.229 -10.225 -10.217 -10.206 -10.197  -0.932
 -0.867  -0.765  -0.669  -0.643  -0.563  -0.529  -0.493  -0.479
 -0.447  -0.428  -0.381  -0.373  -0.366  -0.295  -0.254  -0.227
 -0.214
 -- Virtual --
 -0.030   0.034   0.080   0.119   0.128   0.146   0.154   0.173
  0.186   0.234   0.246   0.293   0.303   0.328   0.390   0.433
  0.506   0.507   0.529   0.543   0.558   0.579   0.588   0.609
  0.616   0.634   0.652   0.662   0.671   0.714   0.758   0.796
  0.823   0.831   0.859   0.864   0.874   0.890   0.896   0.925
  0.942   1.014   1.075   1.092   1.115   1.171   1.217   1.324
  1.343   1.427   1.460   1.506   1.546   1.549   1.603   1.706
  1.746   1.769   1.806   1.818   1.890   1.909   1.954   1.998
  2.030   2.072   2.144   2.187   2.229   2.252   2.298   2.350
  2.433   2.472   2.514   2.520   2.543   2.571   2.625   2.658
  2.735   2.805   2.858   3.009   3.219   4.022   4.094   4.141
  4.272   4.316   4.387   4.594
 
 Beta MOs
 -- Occupied --
-14.322 -10.232 -10.228 -10.225 -10.206 -10.203 -10.196  -0.930
 -0.857  -0.763  -0.661  -0.641  -0.550  -0.524  -0.490  -0.468
 -0.442  -0.425  -0.378  -0.366  -0.363  -0.283  -0.251  -0.223
 -- Virtual --
 -0.072  -0.026   0.037   0.088   0.120   0.130   0.148   0.161
  0.177   0.188   0.241   0.248   0.298   0.314   0.334   0.394
  0.435   0.508   0.531   0.541   0.551   0.563   0.584   0.591
  0.613   0.624   0.639   0.655   0.671   0.673   0.721   0.770
  0.799   0.826   0.833   0.861   0.867   0.878   0.894   0.899
  0.926   0.945   1.025   1.077   1.095   1.121   1.178   1.221
  1.327   1.346   1.437   1.465   1.508   1.550   1.550   1.610
  1.711   1.753   1.788   1.811   1.823   1.907   1.920   1.969
  2.003   2.036   2.082   2.154   2.201   2.237   2.260   2.303
  2.365   2.437   2.476   2.520   2.527   2.547   2.579   2.630
  2.660   2.741   2.815   2.870   3.009   3.220   4.022   4.098
  4.142   4.301   4.317   4.392   4.595
 --------------------------------------------------------------
 
          Ground-State Mulliken Net Atomic Charges

     Atom                 Charge (a.u.)    Spin (a.u.)
  --------------------------------------------------------
      1 C                    -0.006942      -0.019144
      2 C                    -0.088202       0.056238
      3 C                    -0.168570      -0.017259
      4 C                    -0.191091      -0.013326
      5 C                     0.078981       0.018444
      6 N                    -0.388736       0.005864
      7 H                     0.134267       0.000822
      8 H                     0.143326       0.003941
      9 H                     0.149567       0.022233
     10 H                     0.155158       0.028340
     11 H                     0.145664       0.005808
     12 C                    -0.116967       0.933961
     13 H                     0.153543      -0.025921
  --------------------------------------------------------
  Sum of atomic charges =    -0.000000
  Sum of spin   charges =     1.000000

 -----------------------------------------------------------------
                    Cartesian Multipole Moments
 -----------------------------------------------------------------
    Charge (ESU x 10^10)
                 0.0000
    Dipole Moment (Debye)
         X      -1.9581      Y      -2.0409      Z      -0.2231
       Tot       2.8371
    Quadrupole Moments (Debye-Ang)
        XX     -37.1362     XY      -3.2411     YY     -41.3448
        XZ      -0.4061     YZ       0.4339     ZZ     -42.4179
    Octopole Moments (Debye-Ang^2)
       XXX     -12.7996    XXY     -10.2578    XYY     -13.4343
       YYY     -27.4410    XXZ      -0.9029    XYZ       3.4633
       YYZ      -2.9170    XZZ      -7.5447    YZZ      -8.0612
       ZZZ      -2.8937
    Hexadecapole Moments (Debye-Ang^3)
      XXXX    -322.2069   XXXY     -18.5805   XXYY    -116.3806
      XYYY     -38.4820   YYYY    -341.6800   XXXZ      30.1776
      XXYZ       4.1181   XYYZ      12.0529   YYYZ      19.8733
      XXZZ     -75.2945   XYZZ      -2.5314   YYZZ     -73.8263
      XZZZ      30.9952   YZZZ      14.3418   ZZZZ    -105.6073
 -----------------------------------------------------------------
 Calculating analytic gradient of the SCF energy
 Gradient of SCF Energy
            1           2           3           4           5           6
    1   0.0048800  -0.0057833  -0.0037360   0.0066762  -0.0147970   0.0141349
    2   0.0136324  -0.0143663   0.0214425  -0.0133346   0.0056697  -0.0048872
    3   0.0051499  -0.0041686   0.0242342   0.0114457   0.0004146  -0.0054293
            7           8           9          10          11          12
    1  -0.0075544   0.0045288  -0.0030852  -0.0038272   0.0010704   0.0176834
    2  -0.0002114  -0.0015760  -0.0207980   0.0026305   0.0024886   0.0156596
    3   0.0016902  -0.0004433  -0.0148006  -0.0020428   0.0023755  -0.0264264
           13
    1  -0.0101907
    2  -0.0063497
    3   0.0080008
 Max gradient component =       2.643E-02
 RMS gradient           =       1.093E-02
 Gradient time:  CPU 7.36 s  wall 1.97 s
 ----------------------------------------------------------------
             Standard Nuclear Orientation (Angstroms)
    I     Atom           X                Y                Z
 ----------------------------------------------------------------
    1      C       1.6490237435     0.3784246097    -0.1511312893
    2      C       1.1193758925    -0.8467199158    -0.2842091961
    3      C      -0.3087802304    -1.1281439684    -0.1094645683
    4      C      -1.1805092988     0.3754829829     0.0580247101
    5      C      -0.3337470804     1.5435880008    -0.1706193516
    6      N       0.9413835620     1.5822898648    -0.1784568470
    7      H       2.7313630732     0.5165679398    -0.1659172242
    8      H       1.7697516064    -1.6943800102    -0.5342023519
    9      H      -0.7243457965    -1.9772372464    -0.6389555113
   10      H      -2.1995161987     0.4482552028    -0.3060423004
   11      H      -0.8607196385     2.4872936999    -0.3922672209
   12      C      -0.9418526428    -0.6121174947     1.1366111590
   13      H      -1.6775925429    -1.0791093339     1.7368510958
 ----------------------------------------------------------------
 Nuclear Repulsion Energy =   268.0880563216 hartrees
 There are       25 alpha and       24 beta electrons

                       Distance Matrix (Angstroms)
             C (  1)   C (  2)   C (  3)   C (  4)   C (  5)   N (  6)
   C (  2)  1.341348
   C (  3)  2.470725  1.466071
   C (  4)  2.837254  2.626857  1.746098
   C (  5)  2.299862  2.799650  2.672548  1.460737
   N (  6)  1.396708  2.437817  2.985653  2.452496  1.275742
   H (  7)  1.091220  2.114486  3.456984  3.920816  3.232598  2.083254
   H (  8)  2.111359  1.097275  2.195750  3.652274  3.878316  3.398428
   H (  9)  3.379349  2.191626  1.083520  2.495828  3.573250  3.956886
   H ( 10)  3.852289  3.562651  2.469526  1.084535  2.167761  3.341791
   H ( 11)  3.286988  3.879188  3.668243  2.182836  1.103362  2.027886
   C ( 12)  3.058119  2.514445  1.489889  1.481776  2.593397  3.176697
   H ( 13)  4.093319  3.458572  2.298898  2.276266  3.510400  4.196485
             H (  7)   H (  8)   H (  9)   H ( 10)   H ( 11)   C ( 12)
   H (  8)  2.438980
   H (  9)  4.287745  2.512271
   H ( 10)  4.933343  4.516418  2.858316
   H ( 11)  4.103420  4.942259  4.473420  2.440797
   C ( 12)  4.057465  3.363883  2.250222  2.188003  3.456935
   H ( 13)  5.060198  4.173778  2.712890  2.603586  4.233162  1.058151

 
 Applying Cartesian multipole field
    Component          Value
    ---------          -----
     (2,0,0)        1.00000E-11
     (0,2,0)        2.00000E-11
     (0,0,2)       -3.00000E-11
 Nucleus-field energy     =     0.0000000054 hartrees
 Requested basis set is 6-31G(d)
 There are 40 shells and 117 basis functions
 A cutoff of  1.0D-14 yielded    804 shell pairs
 There are      7076 function pairs
 Smallest overlap matrix eigenvalue = 1.53E-03
 Guess MOs from core Hamiltonian diagonalization
 Mixing HOMO and LUMO in initial guess
 Adding  50% of the LUMO to the HOMO
 An unrestricted hybrid HF-DFT SCF calculation will be
 performed using Pulay DIIS extrapolation
 Exchange:     0.2000 Hartree-Fock + 0.0800 Slater + 0.7200 B88
 Correlation:  0.1900 VWN1RPA + 0.8100 LYP
 Using SG-1 standard quadrature grid
 SCF converges when DIIS error is below 1.0E-08
 using 4 threads for integral computing
 -------------------------------------------------------
 OpenMP Integral computing Module                
 Release: version 1.0, May 2013, Q-Chem Inc. Pittsburgh 
 -------------------------------------------------------
 -------------------------------------------------------
 OpenMP BLAS3 based DFT computing Module                
 Release: version 1.0, May 2013, Q-Chem Inc. Pittsburgh 
 -------------------------------------------------------
 ---------------------------------------
  Cycle       Energy         DIIS Error
 ---------------------------------------
    1    -238.2322026293      1.29E-01
    2    -232.6239715465      1.01E-01
    3    -250.2887596953      1.07E-01
    4    -281.0427983181      5.61E-02
    5    -281.6594854875      4.79E-02
    6    -285.7360888418      1.99E-02
    7    -286.6676876917      9.97E-03
    8    -286.7942401522      5.64E-03
    9    -286.8452294107      1.61E-03
   10    -286.8503004017      4.08E-04
   11    -286.8507369173      1.80E-04
   12    -286.8508171160      6.86E-05
   13    -286.8508341709      1.17E-05
   14    -286.8508370031      7.12E-06
   15    -286.8508378138      1.83E-06
   16    -286.8508382797      5.47E-07
   17    -286.8508385914      2.64E-07
   18    -286.8508387036      1.71E-07
   19    -286.8508387540      1.23E-07
   20    -286.8508387809      3.64E-08
   21    -286.8508387831      1.02E-08
   22    -286.8508387832      3.91E-09 Convergence criterion met
 ---------------------------------------
 <S^2> = 0.7532
 SCF time:  CPU 56.60 s  wall 21.34 s
 SCF   energy in the final basis set = -286.85083878
 Total energy in the final basis set = -286.85083878
 
 --------------------------------------------------------------
 
                    Orbital Energies (a.u.)
 --------------------------------------------------------------
 
 Alpha MOs
 -- Occupied --
-14.321 -10.231 -10.227 -10.225 -10.219 -10.205 -10.195  -0.933
 -0.852  -0.769  -0.666  -0.647  -0.570  -0.530  -0.490  -0.479
 -0.450  -0.431  -0.379  -0.369  -0.361  -0.294  -0.255  -0.231
 -0.216
 -- Virtual --
 -0.023   0.030   0.090   0.117   0.129   0.149   0.158   0.171
  0.185   0.222   0.242   0.291   0.294   0.332   0.400   0.436
  0.502   0.513   0.526   0.533   0.545   0.577   0.590   0.609
  0.619   0.629   0.655   0.671   0.674   0.711   0.762   0.808
  0.831   0.841   0.860   0.869   0.886   0.892   0.906   0.925
  0.944   1.019   1.075   1.095   1.116   1.167   1.215   1.318
  1.337   1.431   1.462   1.499   1.542   1.554   1.606   1.699
  1.746   1.787   1.798   1.822   1.881   1.914   1.944   1.981
  2.036   2.073   2.125   2.196   2.217   2.239   2.294   2.349
  2.432   2.479   2.506   2.519   2.546   2.568   2.608   2.668
  2.738   2.787   2.863   3.024   3.235   4.030   4.093   4.147
  4.273   4.316   4.395   4.584
 
 Beta MOs
 -- Occupied --
-14.320 -10.231 -10.226 -10.225 -10.205 -10.205 -10.194  -0.932
 -0.842  -0.766  -0.657  -0.645  -0.557  -0.525  -0.487  -0.471
 -0.445  -0.428  -0.377  -0.366  -0.354  -0.281  -0.251  -0.227
 -- Virtual --
 -0.070  -0.020   0.034   0.096   0.118   0.130   0.151   0.165
  0.176   0.187   0.229   0.244   0.298   0.307   0.335   0.403
  0.438   0.508   0.528   0.536   0.547   0.551   0.584   0.593
  0.612   0.626   0.640   0.658   0.674   0.677   0.717   0.774
  0.810   0.833   0.843   0.861   0.871   0.888   0.896   0.913
  0.926   0.948   1.033   1.079   1.100   1.119   1.171   1.219
  1.321   1.340   1.444   1.463   1.501   1.546   1.555   1.613
  1.703   1.751   1.801   1.807   1.833   1.910   1.921   1.954
  1.987   2.041   2.085   2.139   2.203   2.225   2.250   2.299
  2.361   2.436   2.482   2.512   2.529   2.550   2.576   2.615
  2.669   2.743   2.795   2.872   3.025   3.237   4.030   4.098
  4.148   4.300   4.317   4.400   4.585
 --------------------------------------------------------------
 
          Ground-State Mulliken Net Atomic Charges

     Atom                 Charge (a.u.)    Spin (a.u.)
  --------------------------------------------------------
      1 C                    -0.014063      -0.016396
      2 C                    -0.077972       0.045400
      3 C                    -0.181749      -0.014757
      4 C                    -0.201691      -0.011627
      5 C                     0.089904       0.015897
      6 N                    -0.386545       0.004863
      7 H                     0.134166       0.000764
      8 H                     0.141210       0.003740
      9 H                     0.157492       0.014149
     10 H                     0.156493       0.021963
     11 H                     0.139380       0.005326
     12 C                    -0.115157       0.955897
     13 H                     0.158531      -0.025219
  --------------------------------------------------------
  Sum of atomic charges =    -0.000000
  Sum of spin   charges =     1.000000

 -----------------------------------------------------------------
                    Cartesian Multipole Moments
 -----------------------------------------------------------------
    Charge (ESU x 10^10)
                 0.0000
    Dipole Moment (Debye)
         X      -1.9657      Y      -2.1103      Z      -0.2392
       Tot       2.8939
    Quadrupole Moments (Debye-Ang)
        XX     -37.0707     XY      -3.0096     YY     -41.3400
        XZ      -0.4330     YZ       0.4680     ZZ     -42.3360
    Octopole Moments (Debye-Ang^2)
       XXX     -12.8780    XXY     -10.2293    XYY     -13.2971
       YYY     -28.0192    XXZ      -0.8342    XYZ       3.4002
       YYZ      -2.9319    XZZ      -7.5208    YZZ      -8.0160
       ZZZ      -2.8124
    Hexadecapole Moments (Debye-Ang^3)
      XXXX    -321.4666   XXXY     -17.4800   XXYY    -116.3604
      XYYY     -36.9181   YYYY    -342.6411   XXXZ      30.4905
      XXYZ       4.1028   XYYZ      12.0570   YYYZ      20.4267
      XXZZ     -75.3843   XYZZ      -2.2807   YYZZ     -73.9652
      XZZZ      31.0293   YZZZ      14.4271   ZZZZ    -106.4499
 -----------------------------------------------------------------
 Calculating analytic gradient of the SCF energy
 Gradient of SCF Energy
            1           2           3           4           5           6
    1  -0.0111493   0.0067823   0.0030236  -0.0078788   0.0212287  -0.0213199
    2  -0.0208398   0.0188786  -0.0238616   0.0192968  -0.0049677   0.0059389
    3   0.0005141   0.0029445  -0.0205906  -0.0111947   0.0025082  -0.0041642
            7           8           9          10          11          12
    1   0.0023796   0.0035211   0.0049937   0.0040664  -0.0019153  -0.0177517
    2   0.0013652  -0.0045376   0.0018968  -0.0002586   0.0060419  -0.0076407
    3   0.0016569  -0.0016398   0.0015306   0.0020467   0.0006928   0.0358098
           13
    1   0.0140196
    2   0.0086879
    3  -0.0101143
 Max gradient component =       3.581E-02
 RMS gradient           =       1.208E-02
 Gradient time:  CPU 7.31 s  wall 2.01 s
 ----------------------------------------------------------------
             Standard Nuclear Orientation (Angstroms)
    I     Atom           X                Y                Z
 ----------------------------------------------------------------
    1      C       1.6544278070     0.3899035775    -0.1506338210
    2      C       1.1168937763    -0.8599545044    -0.2860249198
    3      C      -0.3059405323    -1.1271910072    -0.1124910142
    4      C      -1.1784832985     0.3663420658     0.0640764930
    5      C      -0.3464983313     1.5481990513    -0.1730658928
    6      N       0.9531457585     1.5804433479    -0.1748533858
    7      H       2.7312715421     0.5153357867    -0.1640080845
    8      H       1.7647523061    -1.6887946042    -0.5343233227
    9      H      -0.7250469024    -1.9739066196    -0.6354316169
   10      H      -2.2033642628     0.4500570861    -0.3044314854
   11      H      -0.8585075210     2.4816158887    -0.3951664023
   12      C      -0.9346093285    -0.6038304814     1.1232443048
   13      H      -1.6842065689    -1.0840252504     1.7433300864
 ----------------------------------------------------------------
 Nuclear Repulsion Energy =   267.9524486476 hartrees
 There are       25 alpha and       24 beta electrons

                       Distance Matrix (Angstroms)
             C (  1)   C (  2)   C (  3)   C (  4)   C (  5)   N (  6)
   C (  2)  1.367267
   C (  3)  2.479128  1.458076
   C (  4)  2.841134  2.625858  1.738720
   C (  5)  2.312111  2.820191  2.676383  1.464657
   N (  6)  1.381944  2.448411  2.986716  2.464746  1.300045
   H (  7)  1.084207  2.124271  3.453289  3.919235  3.246468  2.072753
   H (  8)  2.116690  1.080902  2.186575  3.639273  3.881496  3.387601
   H (  9)  3.388883  2.180761  1.079835  2.484287  3.572437  3.957508
   H ( 10)  3.861325  3.569395  2.474827  1.092331  2.161278  3.355312
   H ( 11)  3.278704  3.883325  3.661792  2.188075  1.087543  2.035372
   C ( 12)  3.051784  2.502060  1.481949  1.456896  2.580218  3.165396
   H ( 13)  4.111696  3.466216  2.312045  2.275789  3.520034  4.211229
             H (  7)   H (  8)   H (  9)   H ( 10)   H ( 11)   C ( 12)
   H (  8)  2.435053
   H (  9)  4.285406  2.508109
   H ( 10)  4.937065  4.513700  2.858423
   H ( 11)  4.099537  4.928811  4.463991  2.438053
   C ( 12)  4.043295  3.348318  2.239189  2.181439  3.439672
   H ( 13)  5.068761  4.177172  2.714845  2.610797  4.238955  1.084891

 
 Applying Cartesian multipole field
    Component          Value
    ---------          -----
     (2,0,0)        1.00000E-11
     (0,2,0)        2.00000E-11
     (0,0,2)       -3.00000E-11
 Nucleus-field energy     =     0.0000000054 hartrees
 Requested basis set is 6-31G(d)
 There are 40 shells and 117 basis functions
 A cutoff of  1.0D-14 yielded    804 shell pairs
 There are      7076 function pairs
 Smallest overlap matrix eigenvalue = 1.55E-03
 Guess MOs from core Hamiltonian diagonalization
 Mixing HOMO and LUMO in initial guess
 Adding  50% of the LUMO to the HOMO
 An unrestricted hybrid HF-DFT SCF calculation will be
 performed using Pulay DIIS extrapolation
 Exchange:     0.2000 Hartree-Fock + 0.0800 Slater + 0.7200 B88
 Correlation:  0.1900 VWN1RPA + 0.8100 LYP
 Using SG-1 standard quadrature grid
 SCF converges when DIIS error is below 1.0E-08
 using 4 threads for integral computing
 -------------------------------------------------------
 OpenMP Integral computing Module                
 Release: version 1.0, May 2013, Q-Chem Inc. Pittsburgh 
 -------------------------------------------------------
 -------------------------------------------------------
 OpenMP BLAS3 based DFT computing Module                
 Release: version 1.0, May 2013, Q-Chem Inc. Pittsburgh 
 -------------------------------------------------------
 ---------------------------------------
  Cycle       Energy         DIIS Error
 ---------------------------------------
    1    -238.5891865047      1.29E-01
    2    -232.9627665610      1.00E-01
    3    -250.1626599326      1.07E-01
    4    -281.1620820496      5.57E-02
    5    -281.4899227507      4.87E-02
    6    -285.6173892706      2.11E-02
    7    -286.6746280104      9.92E-03
    8    -286.7675365390      6.99E-03
    9    -286.8476579706      1.49E-03
   10    -286.8518935973      4.93E-04
   11    -286.8524971173      1.57E-04
   12    -286.8525464044      7.84E-05
   13    -286.8525606426      1.02E-05
   14    -286.8525621251      6.58E-06
   15    -286.8525625277      1.63E-06
   16    -286.8525627610      4.14E-07
   17    -286.8525628949      1.86E-07
   18    -286.8525629526      9.88E-08
   19    -286.8525629800      7.22E-08
   20    -286.8525629888      4.24E-08
   21    -286.8525629912      1.35E-08
   22    -286.8525629914      3.41E-09 Convergence criterion met
 ---------------------------------------
 <S^2> = 0.7533
 SCF time:  CPU 56.32 s  wall 21.85 s
 SCF   energy in the final basis set = -286.85256299
 Total energy in the final basis set = -286.85256299
 
 --------------------------------------------------------------
 
                    Orbital Energies (a.u.)
 --------------------------------------------------------------
 
 Alpha MOs
 -- Occupied --
-14.322 -10.230 -10.227 -10.225 -10.219 -10.206 -10.196  -0.930
 -0.856  -0.766  -0.668  -0.646  -0.567  -0.531  -0.493  -0.477
 -0.448  -0.432  -0.379  -0.371  -0.364  -0.294  -0.254  -0.226
 -0.215
 -- Virtual --
 -0.029   0.031   0.089   0.116   0.131   0.149   0.157   0.174
  0.186   0.225   0.244   0.292   0.296   0.329   0.392   0.434
  0.506   0.511   0.528   0.537   0.548   0.578   0.589   0.610
  0.617   0.628   0.652   0.662   0.672   0.710   0.761   0.809
  0.832   0.842   0.865   0.869   0.882   0.891   0.900   0.929
  0.943   1.013   1.075   1.088   1.111   1.169   1.214   1.319
  1.335   1.431   1.462   1.499   1.544   1.550   1.602   1.704
  1.752   1.784   1.803   1.823   1.888   1.907   1.955   1.986
  2.031   2.072   2.128   2.186   2.222   2.241   2.289   2.344
  2.434   2.474   2.507   2.515   2.539   2.566   2.612   2.660
  2.729   2.788   2.857   3.011   3.222   4.023   4.093   4.144
  4.271   4.317   4.392   4.585
 
 Beta MOs
 -- Occupied --
-14.322 -10.230 -10.227 -10.225 -10.206 -10.205 -10.194  -0.928
 -0.846  -0.764  -0.659  -0.644  -0.554  -0.526  -0.490  -0.468
 -0.444  -0.429  -0.377  -0.368  -0.357  -0.282  -0.251  -0.223
 -- Virtual --
 -0.070  -0.025   0.034   0.095   0.117   0.132   0.152   0.163
  0.178   0.188   0.233   0.245   0.298   0.308   0.333   0.395
  0.437   0.511   0.530   0.539   0.549   0.553   0.583   0.592
  0.614   0.626   0.634   0.656   0.669   0.674   0.717   0.773
  0.812   0.835   0.844   0.866   0.871   0.886   0.895   0.905
  0.930   0.946   1.026   1.078   1.093   1.116   1.174   1.218
  1.322   1.339   1.444   1.463   1.501   1.548   1.550   1.608
  1.708   1.757   1.805   1.806   1.831   1.912   1.917   1.967
  1.991   2.035   2.083   2.140   2.196   2.231   2.249   2.294
  2.357   2.438   2.478   2.513   2.524   2.543   2.573   2.618
  2.661   2.734   2.797   2.867   3.011   3.223   4.024   4.097
  4.145   4.297   4.320   4.397   4.586
 --------------------------------------------------------------
 
          Ground-State Mulliken Net Atomic Charges

     Atom                 Charge (a.u.)    Spin (a.u.)
  --------------------------------------------------------
      1 C                    -0.008820      -0.018087
      2 C                    -0.084647       0.049491
      3 C                    -0.177583      -0.012758
      4 C                    -0.195950      -0.016592
      5 C                     0.081774       0.017584
      6 N                    -0.389648       0.005084
      7 H                     0.134251       0.000789
      8 H                     0.142469       0.003514
      9 H                     0.157812       0.014069
     10 H                     0.155223       0.026141
     11 H                     0.145018       0.005074
     12 C                    -0.116249       0.950595
     13 H                     0.156351      -0.024905
  --------------------------------------------------------
  Sum of atomic charges =    -0.000000
  Sum of spin   charges =     1.000000

 -----------------------------------------------------------------
                    Cartesian Multipole Moments
 -----------------------------------------------------------------
    Charge (ESU x 10^10)
                -0.0000
    Dipole Moment (Debye)
         X      -2.0009      Y      -2.0984      Z      -0.2485
       Tot       2.9101
    Quadrupole Moments (Debye-Ang)
        XX     -37.0738     XY      -3.1454     YY     -41.2584
        XZ      -0.4288     YZ       0.4433     ZZ     -42.3846
    Octopole Moments (Debye-Ang^2)
       XXX     -12.9631    XXY     -10.2882    XYY     -13.5822
       YYY     -27.7516    XXZ      -0.8215    XYZ       3.4183
       YYZ      -3.0019    XZZ      -7.6043    YZZ      -8.0279
       ZZZ      -2.7148
    Hexadecapole Moments (Debye-Ang^3)
      XXXX    -322.5062   XXXY     -18.2053   XXYY    -116.4842
      XYYY     -37.9509   YYYY    -341.7595   XXXZ      30.3067
      XXYZ       4.0136   XYYZ      12.0633   YYYZ      19.8259
      XXZZ     -75.4443   XYZZ      -2.4503   YYZZ     -73.9229
      XZZZ      30.9134   YZZZ      14.1849   ZZZZ    -106.0304
 -----------------------------------------------------------------
 Calculating analytic gradient of the SCF energy
 Gradient of SCF Energy
            1           2           3           4           5           6
    1   0.0010765   0.0015908   0.0001037  -0.0012963  -0.0100358   0.0068968
    2   0.0058926  -0.0126317  -0.0193549   0.0011495   0.0083360  -0.0002073
    3   0.0015815  -0.0012352  -0.0183328   0.0003937  -0.0010937  -0.0030267
            7           8           9          10          11          12
    1  -0.0024352  -0.0021440   0.0062609   0.0002824   0.0024079  -0.0026494
    2   0.0002752   0.0038357   0.0041356   0.0014816  -0.0010852   0.0081079
    3   0.0015977   0.0015152   0.0027267   0.0000673   0.0029118   0.0120073
           13
    1  -0.0000584
    2   0.0000649
    3   0.0008872
 Max gradient component =       1.935E-02
 RMS gradient           =       6.147E-03
 Gradient time:  CPU 7.84 s  wall 2.19 s
 FSM gradient convergence criteria satisfied
done with opt_step_by_gradient, Reactant, iter1
-Optimizing new product side node
 Using BFGS, step: 2 E_tol 0.0043801
 max_steps 6, node_spacing 0.1969236, sigma 0.7000000
 ----------------------------------------------------------------
             Standard Nuclear Orientation (Angstroms)
    I     Atom           X                Y                Z
 ----------------------------------------------------------------
    1      C       0.7231721882     0.0463274918     0.2763788254
    2      C       1.0133032051    -1.1968650825    -0.5226560637
    3      C       0.2542072170    -2.2752643022    -0.5470422632
    4      C      -1.3334313694     1.1124349446     0.4835245057
    5      C      -0.3988982962     1.8191008362    -0.4017884979
    6      N       0.7432101565     1.2456396121    -0.5691926636
    7      H       1.5187784751     0.1772971832     1.0287656046
    8      H       1.9465647298    -1.1520910917    -1.0938535739
    9      H       0.3033003982    -3.2381135856    -1.0403527805
   10      H      -2.3379018336     1.4455767000     0.7200774072
   11      H      -0.6228982514     2.7625377200    -0.8988032876
   12      C      -0.7157027118     0.0015585451     0.9353837299
   13      H      -1.0993475605    -0.7497636153     1.6144523771
 ----------------------------------------------------------------
 Nuclear Repulsion Energy =   259.2628200204 hartrees
 There are       25 alpha and       24 beta electrons

                       Distance Matrix (Angstroms)
             C (  1)   C (  2)   C (  3)   C (  4)   C (  5)   N (  6)
   C (  2)  1.506041
   C (  3)  2.507536  1.319002
   C (  4)  2.325750  3.442736  3.880615
   C (  5)  2.204921  3.332412  4.148671  1.468505
   N (  6)  1.467563  2.457833  3.554768  2.332037  1.288912
   H (  7)  1.102827  2.133246  3.177636  3.050717  2.901635  2.072760
   H (  8)  2.193270  1.095102  2.103472  4.286557  3.848134  2.733577
   H (  9)  3.563373  2.222343  1.082979  4.891663  5.145509  4.529852
   H ( 10)  3.394840  4.444936  4.708426  1.084390  2.271087  3.345959
   H ( 11)  3.251270  4.300641  5.125671  2.266832  1.089621  2.067819
   C ( 12)  1.583241  2.559602  2.884828  1.349004  2.278564  2.437194
   H ( 13)  2.397036  3.038162  2.971754  2.191250  3.339898  3.484962
             H (  7)   H (  8)   H (  9)   H ( 10)   H ( 11)   C ( 12)
   H (  8)  2.540824
   H (  9)  4.174167  2.656063
   H ( 10)  4.071585  5.328684  5.657916
   H ( 11)  3.871146  4.686630  6.073360  2.701185
   C ( 12)  2.243326  3.540675  3.929043  2.182447  3.316001
   H ( 13)  2.838495  4.095653  3.899653  2.674592  4.345080  1.082960

 
 Applying Cartesian multipole field
    Component          Value
    ---------          -----
     (2,0,0)        1.00000E-11
     (0,2,0)        2.00000E-11
     (0,0,2)       -3.00000E-11
 Nucleus-field energy     =     0.0000000064 hartrees
 Requested basis set is 6-31G(d)
 There are 40 shells and 117 basis functions
 A cutoff of  1.0D-14 yielded    792 shell pairs
 There are      7034 function pairs
 Smallest overlap matrix eigenvalue = 1.59E-03
 Guess MOs from core Hamiltonian diagonalization
 Mixing HOMO and LUMO in initial guess
 Adding  50% of the LUMO to the HOMO
 An unrestricted hybrid HF-DFT SCF calculation will be
 performed using Pulay DIIS extrapolation
 Exchange:     0.2000 Hartree-Fock + 0.0800 Slater + 0.7200 B88
 Correlation:  0.1900 VWN1RPA + 0.8100 LYP
 Using SG-1 standard quadrature grid
 SCF converges when DIIS error is below 1.0E-08
 using 4 threads for integral computing
 -------------------------------------------------------
 OpenMP Integral computing Module                
 Release: version 1.0, May 2013, Q-Chem Inc. Pittsburgh 
 -------------------------------------------------------
 -------------------------------------------------------
 OpenMP BLAS3 based DFT computing Module                
 Release: version 1.0, May 2013, Q-Chem Inc. Pittsburgh 
 -------------------------------------------------------
 ---------------------------------------
  Cycle       Energy         DIIS Error
 ---------------------------------------
    1    -228.4986145761      1.37E-01
    2    -164.6339587086      1.54E-01
    3    -239.5134045454      1.04E-01
    4    -225.1876311152      1.31E-01
    5    -285.7450060600      2.33E-02
    6    -284.3874514964      3.34E-02
    7    -286.6741011595      8.92E-03
    8    -286.8094074311      4.61E-03
    9    -286.8446703655      1.10E-03
   10    -286.8461496091      6.28E-04
   11    -286.8468536844      1.98E-04
   12    -286.8469418007      5.75E-05
   13    -286.8469604408      1.29E-05
   14    -286.8469709649      4.19E-06
   15    -286.8469755288      1.72E-06
   16    -286.8469778307      8.71E-07
   17    -286.8469791396      4.64E-07
   18    -286.8469796201      1.68E-07
   19    -286.8469796569      4.44E-08
   20    -286.8469796633      1.88E-08
   21    -286.8469796664      1.07E-08
   22    -286.8469796680      4.60E-09 Convergence criterion met
 ---------------------------------------
 <S^2> = 0.7613
 SCF time:  CPU 55.49 s  wall 22.53 s
 SCF   energy in the final basis set = -286.84697967
 Total energy in the final basis set = -286.84697967
 
 --------------------------------------------------------------
 
                    Orbital Energies (a.u.)
 --------------------------------------------------------------
 
 Alpha MOs
 -- Occupied --
-14.323 -10.231 -10.225 -10.209 -10.205 -10.201 -10.196  -0.941
 -0.789  -0.763  -0.699  -0.597  -0.553  -0.535  -0.507  -0.468
 -0.443  -0.411  -0.398  -0.358  -0.327  -0.273  -0.265  -0.257
 -0.234
 -- Virtual --
 -0.037   0.015   0.073   0.120   0.123   0.147   0.158   0.160
  0.169   0.192   0.228   0.279   0.305   0.350   0.397   0.440
  0.503   0.521   0.534   0.538   0.561   0.570   0.604   0.607
  0.623   0.639   0.657   0.669   0.697   0.720   0.745   0.798
  0.805   0.844   0.850   0.855   0.880   0.895   0.896   0.909
  0.945   1.014   1.025   1.035   1.112   1.120   1.161   1.327
  1.402   1.422   1.470   1.489   1.528   1.541   1.564   1.616
  1.666   1.735   1.817   1.844   1.878   1.916   1.962   1.995
  2.011   2.064   2.070   2.170   2.192   2.258   2.267   2.291
  2.329   2.400   2.494   2.550   2.567   2.574   2.623   2.723
  2.737   2.831   2.884   2.956   3.019   3.929   4.053   4.088
  4.180   4.288   4.408   4.557
 
 Beta MOs
 -- Occupied --
-14.323 -10.230 -10.225 -10.205 -10.202 -10.196 -10.194  -0.941
 -0.780  -0.763  -0.688  -0.590  -0.551  -0.526  -0.504  -0.457
 -0.439  -0.409  -0.397  -0.353  -0.325  -0.269  -0.260  -0.252
 -- Virtual --
 -0.074  -0.036   0.027   0.074   0.121   0.130   0.148   0.159
  0.161   0.175   0.193   0.229   0.280   0.311   0.352   0.418
  0.441   0.509   0.526   0.534   0.554   0.567   0.581   0.609
  0.617   0.629   0.644   0.659   0.670   0.700   0.720   0.753
  0.799   0.807   0.845   0.851   0.855   0.892   0.898   0.903
  0.911   0.949   1.017   1.033   1.045   1.113   1.131   1.163
  1.329   1.403   1.425   1.472   1.492   1.530   1.548   1.569
  1.621   1.711   1.758   1.835   1.852   1.894   1.919   1.971
  2.008   2.018   2.069   2.074   2.175   2.200   2.260   2.271
  2.297   2.330   2.408   2.498   2.551   2.568   2.578   2.626
[...]
  --------------------------------------------------------
      1 C                    -0.055179       0.040396
      2 C                    -0.098756      -0.137797
      3 C                    -0.176713       0.863076
      4 C                    -0.113813       0.267310
      5 C                     0.067443      -0.083385
      6 N                    -0.361252       0.143442
      7 H                     0.160894       0.006007
      8 H                     0.147980       0.053291
      9 H                     0.152119       0.013886
     10 H                     0.146059      -0.012518
     11 H                     0.139268       0.002752
     12 C                    -0.176616      -0.172203
     13 H                     0.168566       0.015745
  --------------------------------------------------------
  Sum of atomic charges =     0.000000
  Sum of spin   charges =     1.000000

 -----------------------------------------------------------------
                    Cartesian Multipole Moments
 -----------------------------------------------------------------
    Charge (ESU x 10^10)
                 0.0000
    Dipole Moment (Debye)
         X      -1.3113      Y      -1.3118      Z       0.5659
       Tot       1.9392
    Quadrupole Moments (Debye-Ang)
        XX     -37.8215     XY      -3.4398     YY     -39.7792
        XZ       0.8477     YZ       0.8837     ZZ     -41.7228
    Octopole Moments (Debye-Ang^2)
       XXX      -9.3875    XXY      -7.9545    XYY     -12.6416
       YYY     -21.0572    XXZ       2.2808    XYZ       4.9650
       YYZ      -4.0765    XZZ      -3.6486    YZZ      -8.1193
       ZZZ       2.8401
    Hexadecapole Moments (Debye-Ang^3)
      XXXX    -236.5983   XXXY      19.7326   XXYY    -120.8320
      XYYY      22.6033   YYYY    -417.3701   XXXZ      23.1704
      XXYZ       1.9409   XYYZ      13.0159   YYYZ       0.4247
      XXZZ     -62.8911   XYZZ      10.8972   YYZZ     -92.2940
      XZZZ      22.8317   YZZZ      -8.8255   ZZZZ    -125.7256
 -----------------------------------------------------------------
 Calculating analytic gradient of the SCF energy
 Gradient of SCF Energy
            1           2           3           4           5           6
    1   0.0188881  -0.0029437   0.0025680  -0.0013125   0.0166454  -0.0135245
    2   0.0091431  -0.0028417   0.0059568   0.0054609  -0.0139304   0.0082729
    3  -0.0089327   0.0056452   0.0062105  -0.0038844   0.0045792   0.0085633
            7           8           9          10          11          12
    1   0.0232906  -0.0031996  -0.0014526  -0.0061165  -0.0037385  -0.0148759
    2   0.0051213  -0.0038019   0.0004193  -0.0022852   0.0011185  -0.0124840
    3  -0.0141212   0.0021505  -0.0001115  -0.0053421   0.0037222   0.0067549
           13
    1  -0.0142283
    2  -0.0001495
    3  -0.0052338
 Max gradient component =       2.329E-02
 RMS gradient           =       8.866E-03
 Gradient time:  CPU 7.37 s  wall 1.98 s
 ----------------------------------------------------------------
             Standard Nuclear Orientation (Angstroms)
    I     Atom           X                Y                Z
 ----------------------------------------------------------------
    1      C       0.9939891887     0.1819707859     0.3343975008
    2      C       1.0687652359    -1.1090440366    -0.4737991297
    3      C      -0.0402849633    -1.8108947397    -0.4351289536
    4      C      -1.3075683062     0.8376421677     0.3232044599
    5      C      -0.4218776406     1.7437397298    -0.3729208577
    6      N       0.8196814547     1.4342334285    -0.4017325856
    7      H       1.9807715263     0.3168338155     0.8498021244
    8      H       1.9802479504    -1.4326087360    -0.9774398515
    9      H      -0.4200101504    -2.7421811944    -0.8442894421
   10      H      -2.3990324319     0.8603295063     0.2583148822
   11      H      -0.7902720915     2.6741697186    -0.8114295116
   12      C      -0.5343541426    -0.1080361272     0.9319916162
   13      H      -0.9846299007    -0.8709819865     1.5626946610
 ----------------------------------------------------------------
 Nuclear Repulsion Energy =   264.7829943097 hartrees
 There are       25 alpha and       24 beta electrons

                       Distance Matrix (Angstroms)
             C (  1)   C (  2)   C (  3)   C (  4)   C (  5)   N (  6)
   C (  2)  1.524957
   C (  3)  2.373480  1.313043
   C (  4)  2.393156  3.173604  3.032462
   C (  5)  2.223533  3.220337  3.575599  1.445701
   N (  6)  1.463022  2.556462  3.357308  2.325220  1.279880
   H (  7)  1.121414  2.148675  3.203583  3.370716  3.050219  2.040356
   H (  8)  2.302279  1.090481  2.125971  4.201839  4.028007  3.145972
   H (  9)  3.455338  2.240726  1.085771  3.868583  4.510618  4.378942
   H ( 10)  3.461005  4.054632  3.630426  1.093627  2.255662  3.335438
   H ( 11)  3.272241  4.228797  4.562881  2.219870  1.092568  2.072979
   C ( 12)  1.666450  2.355474  2.238940  1.364840  2.268154  2.447617
   H ( 13)  2.555848  2.901795  2.401358  2.135421  3.301525  3.525412
             H (  7)   H (  8)   H (  9)   H ( 10)   H ( 11)   C ( 12)
   H (  8)  2.529696
   H (  9)  4.241612  2.737508
   H ( 10)  4.452856  5.095366  4.255626
   H ( 11)  3.999426  4.956710  5.429091  2.649996
   C ( 12)  2.552083  3.423981  3.179146  2.206490  3.293278
   H ( 13)  3.273030  3.944390  3.100605  2.588316  4.271105  1.087484

 
 Applying Cartesian multipole field
    Component          Value
    ---------          -----
     (2,0,0)        1.00000E-11
     (0,2,0)        2.00000E-11
     (0,0,2)       -3.00000E-11
 Nucleus-field energy     =     0.0000000058 hartrees
 Requested basis set is 6-31G(d)
 There are 40 shells and 117 basis functions
 A cutoff of  1.0D-14 yielded    802 shell pairs
 There are      7074 function pairs
 Smallest overlap matrix eigenvalue = 1.48E-03
 Guess MOs from core Hamiltonian diagonalization
 Mixing HOMO and LUMO in initial guess
 Adding  50% of the LUMO to the HOMO
 An unrestricted hybrid HF-DFT SCF calculation will be
 performed using Pulay DIIS extrapolation
 Exchange:     0.2000 Hartree-Fock + 0.0800 Slater + 0.7200 B88
 Correlation:  0.1900 VWN1RPA + 0.8100 LYP
 Using SG-1 standard quadrature grid
 SCF converges when DIIS error is below 1.0E-08
 using 4 threads for integral computing
 -------------------------------------------------------
 OpenMP Integral computing Module                
 Release: version 1.0, May 2013, Q-Chem Inc. Pittsburgh 
 -------------------------------------------------------
 -------------------------------------------------------
 OpenMP BLAS3 based DFT computing Module                
 Release: version 1.0, May 2013, Q-Chem Inc. Pittsburgh 
 -------------------------------------------------------
 ---------------------------------------
  Cycle       Energy         DIIS Error
 ---------------------------------------
    1    -230.4259505745      1.37E-01
    2    -198.7068184640      1.15E-01
    3    -248.1537911656      9.82E-02
    4    -265.8100329439      9.01E-02
    5    -283.6127226189      3.64E-02
    6    -285.8349511015      1.95E-02
    7    -286.5110542623      1.10E-02
    8    -286.7715494581      4.24E-03
    9    -286.7973481958      2.26E-03
   10    -286.8072275993      1.03E-03
   11    -286.8096564309      2.72E-04
   12    -286.8101690751      9.72E-05
   13    -286.8102735618      5.34E-05
   14    -286.8103214739      2.03E-05
   15    -286.8103353741      8.10E-06
   16    -286.8103404890      2.46E-06
   17    -286.8103416141      1.17E-06
   18    -286.8103421701      6.23E-07
   19    -286.8103424408      2.51E-07
   20    -286.8103425234      9.03E-08
   21    -286.8103425305      3.50E-08
   22    -286.8103425318      1.73E-08
   23    -286.8103425321      7.19E-09 Convergence criterion met
 ---------------------------------------
 <S^2> = 0.7845
 SCF time:  CPU 57.40 s  wall 22.25 s
 SCF   energy in the final basis set = -286.81034253
 Total energy in the final basis set = -286.81034253
 
 --------------------------------------------------------------
 
                    Orbital Energies (a.u.)
 --------------------------------------------------------------
 
 Alpha MOs
 -- Occupied --
-14.322 -10.240 -10.221 -10.218 -10.204 -10.198 -10.195  -0.943
 -0.799  -0.763  -0.686  -0.604  -0.551  -0.526  -0.514  -0.475
 -0.424  -0.413  -0.393  -0.359  -0.323  -0.284  -0.278  -0.256
 -0.195
 -- Virtual --
 -0.030   0.013   0.068   0.106   0.116   0.132   0.155   0.160
  0.168   0.190   0.235   0.277   0.296   0.347   0.395   0.433
  0.491   0.502   0.533   0.545   0.564   0.580   0.603   0.616
  0.626   0.649   0.674   0.682   0.687   0.727   0.762   0.794
  0.811   0.832   0.846   0.855   0.874   0.877   0.903   0.927
  0.949   0.994   1.044   1.063   1.133   1.228   1.241   1.323
  1.402   1.448   1.475   1.488   1.529   1.535   1.591   1.631
  1.692   1.710   1.809   1.838   1.897   1.926   1.954   2.013
  2.049   2.061   2.101   2.189   2.196   2.250   2.285   2.319
  2.341   2.419   2.524   2.552   2.576   2.587   2.658   2.683
  2.733   2.790   2.856   2.978   2.987   3.928   4.053   4.168
  4.227   4.308   4.428   4.589
 
 Beta MOs
 -- Occupied --
-14.319 -10.239 -10.223 -10.220 -10.200 -10.191 -10.190  -0.938
 -0.791  -0.757  -0.679  -0.597  -0.545  -0.518  -0.511  -0.468
 -0.416  -0.411  -0.392  -0.356  -0.315  -0.274  -0.258  -0.250
 -- Virtual --
 -0.077  -0.018   0.024   0.076   0.108   0.118   0.138   0.158
  0.163   0.170   0.192   0.236   0.280   0.301   0.349   0.411
  0.434   0.496   0.516   0.534   0.545   0.577   0.582   0.608
  0.621   0.629   0.651   0.681   0.688   0.689   0.733   0.770
  0.800   0.812   0.834   0.848   0.861   0.877   0.889   0.906
  0.933   0.954   0.999   1.050   1.071   1.138   1.231   1.245
  1.330   1.406   1.452   1.485   1.491   1.534   1.544   1.597
  1.632   1.696   1.735   1.828   1.852   1.905   1.944   1.953
  2.022   2.054   2.079   2.107   2.198   2.203   2.255   2.287
  2.324   2.345   2.427   2.527   2.556   2.579   2.592   2.663
  2.688   2.736   2.801   2.869   2.979   2.989   3.932   4.066
  4.182   4.227   4.312   4.432   4.588
 --------------------------------------------------------------
 
          Ground-State Mulliken Net Atomic Charges

     Atom                 Charge (a.u.)    Spin (a.u.)
  --------------------------------------------------------
      1 C                    -0.054821       0.039811
      2 C                    -0.097498      -0.135531
      3 C                    -0.176949       0.851072
      4 C                    -0.113274       0.280382
      5 C                     0.067426      -0.087596
      6 N                    -0.361292       0.151430
      7 H                     0.160787       0.006504
      8 H                     0.147580       0.052325
      9 H                     0.151784       0.014576
     10 H                     0.146125      -0.013135
     11 H                     0.139300       0.002901
     12 C                    -0.178190      -0.179311
     13 H                     0.169023       0.016571
  --------------------------------------------------------
  Sum of atomic charges =    -0.000000
  Sum of spin   charges =     1.000000

 -----------------------------------------------------------------
                    Cartesian Multipole Moments
 -----------------------------------------------------------------
    Charge (ESU x 10^10)
                -0.0000
    Dipole Moment (Debye)
         X      -1.3132      Y      -1.3087      Z       0.5701
       Tot       1.9396
    Quadrupole Moments (Debye-Ang)
        XX     -37.8178     XY      -3.4377     YY     -39.7991
        XZ       0.8346     YZ       0.8796     ZZ     -41.7220
    Octopole Moments (Debye-Ang^2)
       XXX      -9.3837    XXY      -7.9467    XYY     -12.6273
       YYY     -20.9959    XXZ       2.2873    XYZ       4.9692
       YYZ      -4.0544    XZZ      -3.6709    YZZ      -8.0988
       ZZZ       2.8550
    Hexadecapole Moments (Debye-Ang^3)
      XXXX    -236.9009   XXXY      19.6429   XXYY    -120.7565
      XYYY      22.4247   YYYY    -416.8753   XXXZ      23.1117
      XXYZ       1.9904   XYYZ      12.9671   YYYZ       0.5341
      XXZZ     -62.8972   XYZZ      10.8566   YYZZ     -92.1273
      XZZZ      22.7246   YZZZ      -8.6309   ZZZZ    -125.3468
 -----------------------------------------------------------------
 Calculating analytic gradient of the SCF energy
 Gradient of SCF Energy
            1           2           3           4           5           6
    1   0.0185188  -0.0031384   0.0025978  -0.0009723   0.0164179  -0.0134282
    2   0.0089912  -0.0028135   0.0055816   0.0054826  -0.0137657   0.0083959
    3  -0.0083683   0.0056574   0.0060315  -0.0038026   0.0046003   0.0083911
            7           8           9          10          11          12
    1   0.0234784  -0.0031319  -0.0012763  -0.0064548  -0.0036922  -0.0145440
    2   0.0051806  -0.0038207   0.0001329  -0.0021410   0.0011009  -0.0121940
    3  -0.0144145   0.0022096  -0.0003449  -0.0053596   0.0036529   0.0072489
           13
    1  -0.0143747
    2  -0.0001309
    3  -0.0055017
 Max gradient component =       2.348E-02
 RMS gradient           =       8.821E-03
 Gradient time:  CPU 7.49 s  wall 1.99 s
 E1 = -286.8109072, E2 = -286.8103425, Emax = -286.8106232
 Iteration 5, Curvature = -0.0897926
 Curvature, final (in Hartree/Bohr^2) = -0.0251445
 ----------------------------------------------------------------
             Standard Nuclear Orientation (Angstroms)
    I     Atom           X                Y                Z
 ----------------------------------------------------------------
    1      C       0.9929780737     0.1820544661     0.3343983497
    2      C       1.0681846415    -1.1093284242    -0.4734940780
    3      C      -0.0394912854    -1.8132808023    -0.4367887053
    4      C      -1.3076068150     0.8385105303     0.3239721635
    5      C      -0.4215619749     1.7440618469    -0.3733477677
    6      N       0.8196298006     1.4340235882    -0.4021906229
    7      H       1.9790125192     0.3164580430     0.8510653333
    8      H       1.9801612053    -1.4315800162    -0.9770723613
    9      H      -0.4191901647    -2.7443295788    -0.8457465807
   10      H      -2.3988316374     0.8606089006     0.2591884030
   11      H      -0.7899031256     2.6745697576    -0.8117736442
   12      C      -0.5343411457    -0.1055103375     0.9334569697
   13      H      -0.9833872364    -0.8709672883     1.5620179519
 ----------------------------------------------------------------
 Nuclear Repulsion Energy =   264.7571261970 hartrees
 There are       25 alpha and       24 beta electrons
 Requested basis set is 6-31G(d)
 There are 40 shells and 117 basis functions
 Geometry Optimization Parameters
   NAtoms,    NIC,     NZ,  NCons,   NDum,   NFix, NCnnct, MaxDiis
       13      86       0       0       0       0       0       0


** GEOMETRY OPTIMIZATION IN DELOCALIZED INTERNAL COORDINATES **
   Searching for a Minimum

   Optimization Cycle:   1

                       Coordinates (Angstroms)
     ATOM                X               Y               Z
      1  C         0.9929780737    0.1820544661    0.3343983497
      2  C         1.0681846415   -1.1093284242   -0.4734940780
      3  C        -0.0394912854   -1.8132808023   -0.4367887053
      4  C        -1.3076068150    0.8385105303    0.3239721635
      5  C        -0.4215619749    1.7440618469   -0.3733477677
      6  N         0.8196298006    1.4340235882   -0.4021906229
      7  H         1.9790125192    0.3164580430    0.8510653333
      8  H         1.9801612053   -1.4315800162   -0.9770723613
      9  H        -0.4191901647   -2.7443295788   -0.8457465807
     10  H        -2.3988316374    0.8606089006    0.2591884030
     11  H        -0.7899031256    2.6745697576   -0.8117736442
     12  C        -0.5343411457   -0.1055103375    0.9334569697
     13  H        -0.9833872364   -0.8709672883    1.5620179519
   Point Group: c1    Number of degrees of freedom:    33


   Energy is   -286.810342532


 Attempting to Generate Delocalized Internal Coordinates

 33 Hessian modes will be used to form the next step
  Hessian Eigenvalues:
     0.005855    0.007260    0.010363    0.013159    0.020400    0.020663
     0.024138    0.033922    0.049148    0.070224    0.090640    0.129927
     0.157914    0.158877    0.159839    0.159852    0.160000    0.195399
     0.204950    0.220035    0.223065    0.298780    0.314341    0.344261
     0.344363    0.345158    0.347577    0.351032    0.353401    0.373821
     0.499412    0.637209    0.690866

 Minimum Search - Taking Simple RFO Step
 Searching for Lamda that Minimizes Along All modes
 Value Taken    Lamda =  -0.03186082
 Calculated Step too Large.  Step scaled by  0.609649
 Step Taken.  Stepsize is  0.300000

                             Maximum     Tolerance    Cnvgd?
         Gradient           0.032418      0.000300      NO
         Displacement       0.124045      0.001200      NO
         Energy change     *********      0.000001      NO


 New Cartesian Coordinates Obtained by Inverse Iteration

 Displacement from previous Coordinates is:  0.780640
 ----------------------------------------------------------------
             Standard Nuclear Orientation (Angstroms)
    I     Atom           X                Y                Z
 ----------------------------------------------------------------
    1      C       0.9327496154     0.1509550163     0.3465291766
    2      C       1.0644469533    -1.1312007005    -0.4808630164
    3      C      -0.0170161168    -1.8760574933    -0.5483727795
    4      C      -1.3089864745     0.8903444688     0.3793148352
    5      C      -0.4340963717     1.7272872441    -0.4210101310
    6      N       0.8000649916     1.3722995682    -0.4503065900
    7      H       1.8626320430     0.2877496458     0.9326189468
    8      H       2.0159680678    -1.3982731507    -0.9467818467
    9      H      -0.3249545460    -2.8041374809    -1.0187684640
   10      H      -2.3946049199     0.9555296561     0.3880385520
   11      H      -0.7750245053     2.6431793825    -0.9081502615
   12      C      -0.5397235176    -0.0597518050     0.9828695796
   13      H      -0.9358023642    -0.7826336659     1.6885674101
 ----------------------------------------------------------------
 Nuclear Repulsion Energy =   263.5592546056 hartrees
 There are       25 alpha and       24 beta electrons

































 Eigenvalues after right structure
 -0.0355319 -0.0000000 0.0000000 0.0000000 0.0000000 0.0000000 0.0000962 0.0021537 0.0057597 0.0153176 0.0219051 0.0314266 0.0450027 0.0566103 0.0624314 0.0660464 0.0706354 0.0835046 0.0860547 0.1012075 0.1302238 0.1537819 0.1803423 0.2081089 0.2205797 0.2618233 0.2867215 0.3888821 0.4577329 0.6039845 0.6476626 0.8055642 0.8833926 1.0187918 1.0664858 1.1932188 1.4431380 1.6237479 1.7783838
Archival summary:
1\1\c8-73\JobtypUnspecified\ProcedureUnspecified\6-31G*\166(2)\hpark21\WedMar217:40:052022WedMar217:40:052022\0\\#,JobtypUnspecified,ProcedureUnspecified,6-31G*,\\0,2\N\C,1,1.28453\H,2,1.09197,1,121.439\C,2,1.45135,1,115.619,3,-175.551,0\H,4,1.08761,2,124.86,1,-169.996,0\C,4,1.36335,2,107.81,1,3.52612,0\H,6,1.0851,4,123.107,2,176.213,0\C,1,1.46432,2,107.767,3,177.105,0\H,8,1.10765,1,105.129,2,-137.775,0\C,8,1.53162,1,114.334,2,103.363,0\H,10,1.09261,8,120.655,1,78.2702,0\C,10,1.31489,8,115.546,1,-103.53,0\H,12,1.08509,10,137.746,8,179.013,0\\\@

 Total job time:  1838.69s(wall), 4994.90s(cpu) 
 Wed Mar  2 17:40:05 2022

        *************************************************************
        *                                                           *
        *  Thank you very much for using Q-Chem.  Have a nice day.  *
        *                                                           *
        *************************************************************


