
Running Job 1 of 1 qcts2.in
qchem qcts2.in_16462.0 ./qcts2.d/ 1
/home/leeping/opt/qchem/5.0.2-openmp/exe/qcprog.exe_s qcts2.in_16462.0 ./qcts2.d/
Check license passed

                  Welcome to Q-Chem
     A Quantum Leap Into The Future Of Chemistry


 Q-Chem 5.0, Q-Chem, Inc., Pleasanton, CA (2017)

 Yihan Shao,  Zhengting Gan,  E. Epifanovsky,  A. T. B. Gilbert,  M. Wormit,  
 J. Kussmann,  A. W. Lange,  A. Behn,  Jia Deng,  Xintian Feng,  D. Ghosh,  
 M. Goldey,  P. R. Horn,  L. D. Jacobson,  I. Kaliman,  T. Kus,  A. Landau,  
 Jie Liu,  E. I. Proynov,  R. M. Richard,  R. P. Steele,  E. J. Sundstrom,  
 H. L. Woodcock III,  P. M. Zimmerman,  D. Zuev,  B. Albrecht,  E. Alguire,  
 S. A. Baeppler,  D. Barton,  Z. Benda,  Y. A. Bernard,  E. J. Berquist,  
 K. B. Bravaya,  H. Burton,  D. Casanova,  Chun-Min Chang,  Yunqing Chen,  
 A. Chien,  K. D. Closser,  M. P. Coons,  S. Dasgupta,  A. L. Dempwolff,  
 M. Diedenhofen,  Hainam Do,  R. G. Edgar,  Po-Tung Fang,  S. Fatehi,  
 Qingguo Feng,  J. Fosso-Tande,  Qinghui Ge,  A. Ghysels,  G. Gidofalvi,  
 J. Gomes,  J. Gonthier,  A. Gunina,  M. W. D. Hanson-Heine,  
 P. H. P. Harbach,  A. W. Hauser,  J. E. Herr,  E. G. Hohenstein,  
 Z. C. Holden,  Kerwin Hui,  T.-C. Jagau,  Hyunjun Ji,  B. Kaduk,  
 K. Khistyaev,  Jaehoon Kim,  P. Klunzinger,  K. Koh,  D. Kosenkov,  
 L. Koulias,  T. Kowalczyk,  C. M. Krauter,  A. Kunitsa,  Ka Un Lao,  
 A. Laurent,  K. V. Lawler,  Joonho Lee,  D. Lefrancois,  S. Lehtola,  
 D. S. Levine,  Yi-Pei Li,  You-Sheng Lin,  Fenglai Liu,  E. Livshits,  
 A. Luenser,  P. Manohar,  E. Mansoor,  S. F. Manzer,  Shan-Ping Mao,  
 Yuezhi Mao,  N. Mardirossian,  A. V. Marenich,  T. Markovich,  
 L. A. Martinez-Martinez,  S. A. Maurer,  N. J. Mayhall,  S. C. McKenzie,  
 J.-M. Mewes,  A. F. Morrison,  J. W. Mullinax,  K. Nanda,  
 T. S. Nguyen-Beck,  R. Olivares-Amaya,  J. A. Parkhill,  T. M. Perrine,  
 F. Plasser,  S. Prager,  A. Prociuk,  E. Ramos,  D. R. Rehn,  F. Rob,  
 M. Schneider,  N. Sergueev,  S. M. Sharada,  S. Sharma,  D. W. Small,  
 T. Stauch,  T. Stein,  Yu-Chuan Su,  A. J. W. Thom,  A. Tkatchenko,  
 T. Tsuchimochi,  L. Vogt,  O. Vydrov,  M. A. Watson,  J. Wenzel,  
 M. de Wergifosse,  T. A. Wesolowski,  A. White,  J. Witte,  A. Yamada,  
 Jun Yang,  K. Yao,  S. Yeganeh,  S. R. Yost,  Zhi-Qiang You,  A. Zech,  
 Igor Ying Zhang,  Xing Zhang,  Yan Zhao,  Ying Zhu,  B. R. Brooks,  
 G. K. L. Chan,  C. J. Cramer,  M. S. Gordon,  W. J. Hehre,  A. Klamt,  
 M. W. Schmidt,  C. D. Sherrill,  D. G. Truhlar,  A. Aspuru-Guzik,  R. Baer,  
 A. T. Bell,  N. A. Besley,  Jeng-Da Chai,  R. A. DiStasio Jr.,  A. Dreuw,  
 B. D. Dunietz,  T. R. Furlani,  Chao-Ping Hsu,  Yousung Jung,  Jing Kong,  
 D. S. Lambrecht,  WanZhen Liang,  C. Ochsenfeld,  V. A. Rassolov,  
 L. V. Slipchenko,  J. E. Subotnik,  T. Van Voorhis,  J. M. Herbert,  
 A. I. Krylov,  P. M. W. Gill,  M. Head-Gordon

 Contributors to earlier versions of Q-Chem not listed above: 
 R. D. Adamson,  B. Austin,  J. Baker,  G. J. O. Beran,  K. Brandhorst,  
 S. T. Brown,  E. F. C. Byrd,  A. K. Chakraborty,  C.-L. Cheng,  
 Siu Hung Chien,  D. M. Chipman,  D. L. Crittenden,  H. Dachsel,  
 R. J. Doerksen,  A. D. Dutoi,  L. Fusti-Molnar,  W. A. Goddard III,  
 A. Golubeva-Zadorozhnaya,  S. R. Gwaltney,  G. Hawkins,  A. Heyden,  
 S. Hirata,  G. Kedziora,  F. J. Keil,  C. Kelley,  Jihan Kim,  R. A. King,  
 R. Z. Khaliullin,  P. P. Korambath,  W. Kurlancheek,  A. M. Lee,  M. S. Lee,  
 S. V. Levchenko,  Ching Yeh Lin,  D. Liotard,  R. C. Lochan,  I. Lotan,  
 P. E. Maslen,  N. Nair,  D. P. O'Neill,  D. Neuhauser,  E. Neuscamman,  
 C. M. Oana,  R. Olson,  B. Peters,  R. Peverati,  P. A. Pieniazek,  
 Y. M. Rhee,  J. Ritchie,  M. A. Rohrdanz,  E. Rosta,  N. J. Russ,  
 H. F. Schaefer III,  N. E. Schultz,  N. Shenvi,  A. C. Simmonett,  A. Sodt,  
 D. Stuck,  K. S. Thanthiriwatte,  V. Vanovschi,  Tao Wang,  A. Warshel,  
 C. F. Williams,  Q. Wu,  X. Xu,  W. Zhang

 Please cite Q-Chem as follows:
 Y. Shao et al., Mol. Phys. 113, 184-215 (2015)
 DOI: 10.1080/00268976.2014.952696

 Q-Chem 5.0.2 for Intel X86 EM64T Linux

 Parts of Q-Chem use Armadillo 5.200.1 (Boston Tea Smuggler).
 http://arma.sourceforge.net/

 Q-Chem begins on Wed Mar  2 18:15:45 2022  

Host: 
0

     Scratch files written to ./qcts2.d//
 Dec517 15110_ 26548  26544 5633   
Processing $rem in /home/leeping/opt/qchem/5.0.2-openmp/config/preferences.
 MEM_STATIC 2000
 MEM_TOTAL  8000
 SYMMETRY   OFF
 SYM_IGNORE TRUE 

Checking the input file for inconsistencies... 	...done.

--------------------------------------------------------------
User input:
--------------------------------------------------------------
$molecule
0 2
C        0.5858571679   -0.0330371068    0.2406904452
C        0.8271227805   -1.2496449176   -0.6504958050
C        0.7668773048   -2.4996108904   -0.2579918086
C       -1.3099222646    1.2517377402    0.5002193020
C       -0.2844451446    1.9163148678   -0.3185843456
N        0.7874998005    1.2225018772   -0.4991511003
H        1.3309318193   -0.0428711435    1.0521560137
H        1.0675515572   -1.0063435902   -1.6913914663
H        0.8974958539   -3.4791052438   -0.6991635327
H       -2.2788433693    1.6637830810    0.7586592878
H       -0.3876965091    2.9094170082   -0.7543724116
C       -0.7995991612    0.0543137503    0.8374678093
H       -1.2571769802   -0.7321647468    1.4256430232
$end

$rem
method                b3lyp
basis                 6-31+g(d,p)
unrestricted          true
symmetry              off
sym_ignore            true
incdft                false
incfock               0
scf_convergence       8
thresh                14
jobtype               ts
scf_guess             read
scf_algorithm         diis
max_scf_cycles        100
geom_opt_max_cycles   500
geom_opt_dmax         100
geom_opt_tol_gradient 10
geom_opt_hessian      read
$end

--------------------------------------------------------------
 ----------------------------------------------------------------
             Standard Nuclear Orientation (Angstroms)
    I     Atom           X                Y                Z
 ----------------------------------------------------------------
    1      C       0.5858571679    -0.0330371068     0.2406904452
    2      C       0.8271227805    -1.2496449176    -0.6504958050
    3      C       0.7668773048    -2.4996108904    -0.2579918086
    4      C      -1.3099222646     1.2517377402     0.5002193020
    5      C      -0.2844451446     1.9163148678    -0.3185843456
    6      N       0.7874998005     1.2225018772    -0.4991511003
    7      H       1.3309318193    -0.0428711435     1.0521560137
    8      H       1.0675515572    -1.0063435902    -1.6913914663
    9      H       0.8974958539    -3.4791052438    -0.6991635327
   10      H      -2.2788433693     1.6637830810     0.7586592878
   11      H      -0.3876965091     2.9094170082    -0.7543724116
   12      C      -0.7995991612     0.0543137503     0.8374678093
   13      H      -1.2571769802    -0.7321647468     1.4256430232
 ----------------------------------------------------------------
 Nuclear Repulsion Energy =   258.2317288897 hartrees
 There are       25 alpha and       24 beta electrons
 Requested basis set is 6-31+G(d,p)
 There are 53 shells and 163 basis functions

 Total QAlloc Memory Limit   8000 MB
 Mega-Array Size      1956 MB
 MEM_STATIC part      2000 MB
 A cutoff of  1.0D-14 yielded   1359 shell pairs
 There are     13243 function pairs
 
 -------------------------------------------------------
 OpenMP Integral Computing Module                       
 Release: version 1.0, May 2013, Q-Chem Inc. Pittsburgh 
 -------------------------------------------------------
 Integral Job Info:
 Integral job number is                      11
 Integral operator is                         1
 short-range coefficients                     0
 long-range coefficients              100000000
 Omega coefficients                           0
 if combine SR and LR in K                    0
 Integral screening is                        0
 Integral computing path is                   2
 max size of driver memory is            800000
 size of driver memory is                593474
 size of scratch memory is              2361544
 max col of scratch BK array               1296
 max len of scratch array in speh3          155
 max len of scratch index in speh4           18
 max int batch size is                      520
 min int batch size is                       52
 fixed nKL is                                52
 max L of basis functions is                  2
 order of int derivative is                   0
 number of shells is                         53
 number of basis is                         163
 number of cartesian basis is               163
 number of contracted shell pairs          1359
 number of primitive shell pairs           4535
 maxK2 (contraction) of shell pair           36
 max number of K2 of shell pair               1
 max number of CS2 of shell pair            127
 max number of PS2 of shell pair            660
 mem total for path MDJ                  531564
 -------------------------------------------------------
 Smallest overlap matrix eigenvalue = 1.76E-05

 Scale SEOQF with 1.000000e-01/1.000000e-01/1.000000e-01

 Standard Electronic Orientation quadrupole field applied
 Nucleus-field energy     =     0.0000000075 hartrees
 Guess MOs from SCF MO coefficient file
 Reading MOs from coefficient file
 Reading MOs from coefficient file
 An unrestricted hybrid HF-DFT SCF calculation will be
 performed using Pulay DIIS extrapolation
 Exchange:     0.2000 Hartree-Fock + 0.0800 Slater + 0.7200 B88
 Correlation:  0.1900 VWN1RPA + 0.8100 LYP
 Using SG-1 standard quadrature grid
 SCF converges when DIIS error is below 1.0E-08
Using Q-Chem read-in guess as SCF_GUESS READ specified.

 using 4 threads for integral computing
 -------------------------------------------------------
 OpenMP Integral computing Module                
 Release: version 1.0, May 2013, Q-Chem Inc. Pittsburgh 
 -------------------------------------------------------
 -------------------------------------------------------
 OpenMP BLAS3 based DFT computing Module                
 Release: version 1.0, May 2013, Q-Chem Inc. Pittsburgh 
 -------------------------------------------------------
 ---------------------------------------
  Cycle       Energy         DIIS Error
 ---------------------------------------
    1    -286.8729768981      6.75E-10
    2    -286.8729768982      7.28E-10 Convergence criterion met
 ---------------------------------------
 <S^2> = 0.7605
 SCF time:  CPU 9.53 s  wall 2.48 s
 SCF   energy in the final basis set = -286.87297690
 Total energy in the final basis set = -286.87297690
 
 --------------------------------------------------------------
 
                    Orbital Energies (a.u.)
 --------------------------------------------------------------
 
 Alpha MOs
 -- Occupied --
-14.336 -10.239 -10.236 -10.222 -10.215 -10.214 -10.208  -0.957
 -0.803  -0.778  -0.715  -0.601  -0.567  -0.553  -0.518  -0.480
 -0.453  -0.415  -0.408  -0.386  -0.340  -0.286  -0.279  -0.264
 -0.247
 -- Virtual --
 -0.054  -0.013   0.010   0.020   0.028   0.037   0.044   0.045
  0.049   0.063   0.069   0.077   0.090   0.098   0.106   0.112
  0.125   0.130   0.138   0.145   0.154   0.162   0.170   0.181
  0.191   0.200   0.211   0.214   0.216   0.227   0.241   0.251
  0.257   0.268   0.270   0.289   0.304   0.311   0.342   0.380
  0.394   0.421   0.424   0.504   0.624   0.647   0.660   0.667
  0.683   0.709   0.718   0.727   0.733   0.759   0.764   0.777
  0.795   0.823   0.863   0.879   0.904   0.917   0.943   0.959
  0.998   1.022   1.041   1.054   1.060   1.092   1.121   1.165
  1.183   1.209   1.212   1.322   1.356   1.369   1.387   1.444
  1.470   1.527   1.566   1.600   1.613   1.735   1.747   1.811
  1.816   1.863   1.880   1.956   1.979   1.990   2.003   2.018
  2.037   2.060   2.128   2.213   2.228   2.269   2.352   2.382
  2.397   2.400   2.436   2.454   2.468   2.503   2.515   2.557
  2.576   2.626   2.647   2.685   2.715   2.739   2.777   2.810
  2.839   2.869   2.940   3.018   3.191   3.239   3.294   3.395
  3.433   3.604   3.728   4.142   4.295   4.371   4.387   4.491
  4.640   4.731
 
 Beta MOs
 -- Occupied --
-14.336 -10.238 -10.236 -10.217 -10.214 -10.208 -10.207  -0.957
 -0.794  -0.776  -0.705  -0.593  -0.566  -0.543  -0.516  -0.471
 -0.444  -0.413  -0.405  -0.384  -0.337  -0.281  -0.277  -0.261
 -- Virtual --
 -0.094  -0.053  -0.005   0.011   0.022   0.029   0.038   0.044
  0.045   0.050   0.063   0.072   0.077   0.092   0.103   0.107
  0.114   0.126   0.130   0.140   0.147   0.157   0.163   0.170
  0.182   0.192   0.203   0.211   0.217   0.217   0.230   0.242
  0.253   0.258   0.269   0.272   0.289   0.306   0.313   0.347
  0.383   0.399   0.422   0.438   0.504   0.636   0.653   0.663
  0.676   0.687   0.712   0.719   0.732   0.748   0.761   0.773
  0.780   0.802   0.825   0.864   0.882   0.905   0.925   0.948
  0.963   1.002   1.028   1.043   1.058   1.072   1.092   1.122
  1.170   1.189   1.209   1.215   1.323   1.357   1.373   1.391
  1.446   1.473   1.538   1.570   1.613   1.643   1.748   1.777
  1.813   1.829   1.865   1.883   1.966   1.985   1.991   2.006
  2.022   2.051   2.065   2.130   2.216   2.229   2.275   2.352
  2.388   2.402   2.410   2.437   2.458   2.470   2.504   2.516
  2.560   2.579   2.635   2.655   2.695   2.716   2.745   2.778
  2.818   2.841   2.871   2.941   3.028   3.191   3.239   3.307
  3.395   3.434   3.621   3.729   4.143   4.304   4.372   4.395
  4.507   4.641   4.731
 --------------------------------------------------------------
 
          Ground-State Mulliken Net Atomic Charges

     Atom                 Charge (a.u.)    Spin (a.u.)
  --------------------------------------------------------
      1 C                    -0.092507       0.083759
      2 C                    -0.008655      -0.312547
      3 C                    -0.327538       1.169688
      4 C                    -0.048658      -0.000845
      5 C                    -0.093374      -0.002560
      6 N                    -0.205440      -0.003574
      7 H                     0.190687      -0.004643
      8 H                     0.169503       0.080902
      9 H                     0.154149       0.007204
     10 H                     0.135283      -0.000147
     11 H                     0.131656       0.000490
     12 C                    -0.151921      -0.017527
     13 H                     0.146814      -0.000200
  --------------------------------------------------------
  Sum of atomic charges =     0.000000
  Sum of spin   charges =     1.000000

 -----------------------------------------------------------------
                    Cartesian Multipole Moments
 -----------------------------------------------------------------
    Charge (ESU x 10^10)
                 0.0000
    Dipole Moment (Debye)
         X      -1.6167      Y      -0.4524      Z       0.6115
       Tot       1.7867
    Quadrupole Moments (Debye-Ang)
        XX     -43.1414     XY      -4.5389     YY     -38.0633
        XZ      -0.0948     YZ       1.7758     ZZ     -41.6173
    Octopole Moments (Debye-Ang^2)
       XXX     -18.6334    XXY      -1.5010    XYY      -8.5282
       YYY      -9.6637    XXZ       6.1744    XYZ       5.1237
       YYZ      -6.7373    XZZ      -2.6528    YZZ      -6.2030
       ZZZ       1.1190
    Hexadecapole Moments (Debye-Ang^3)
      XXXX    -250.2390   XXXY      76.9978   XXYY    -149.5994
      XYYY      55.0359   YYYY    -540.6392   XXXZ      43.9413
      XXYZ       0.0100   XYYZ       9.9335   YYYZ      -3.5216
      XXZZ     -62.8914   XYZZ      25.9685   YYZZ    -128.4564
      XZZZ      44.7591   YZZZ     -17.1096   ZZZZ    -143.6122
 -----------------------------------------------------------------
 Calculating analytic gradient of the SCF energy
 Gradient of SCF Energy
            1           2           3           4           5           6
    1  -0.0004854   0.0000432  -0.0004228   0.0009697   0.0013351  -0.0002238
    2   0.0006520  -0.0023875   0.0023342  -0.0017989  -0.0035265   0.0015302
    3   0.0003683  -0.0009015   0.0010425   0.0002128   0.0007699  -0.0003857
            7           8           9          10          11          12
    1   0.0000959  -0.0000284   0.0001623  -0.0003137  -0.0001296  -0.0008862
    2   0.0001468   0.0003894  -0.0001101   0.0001459   0.0005147   0.0023117
    3   0.0001255   0.0000427  -0.0006745   0.0001600  -0.0002281  -0.0006901
           13
    1  -0.0001163
    2  -0.0002020
    3   0.0001583
 Max gradient component =       3.527E-03
 RMS gradient           =       1.056E-03
 Gradient time:  CPU 16.42 s  wall 4.94 s
 Geometry Optimization Parameters
   NAtoms,    NIC,     NZ,  NCons,   NDum,   NFix, NCnnct, MaxDiis
       13      86       0       0       0       0       0       0

 Cartesian Hessian read from HESS file


** GEOMETRY OPTIMIZATION IN DELOCALIZED INTERNAL COORDINATES **
   Searching for a Transition State

   Optimization Cycle:   1

                       Coordinates (Angstroms)
     ATOM                X               Y               Z
      1  C         0.5858571679   -0.0330371068    0.2406904452
      2  C         0.8271227805   -1.2496449176   -0.6504958050
      3  C         0.7668773048   -2.4996108904   -0.2579918086
      4  C        -1.3099222646    1.2517377402    0.5002193020
      5  C        -0.2844451446    1.9163148678   -0.3185843456
      6  N         0.7874998005    1.2225018772   -0.4991511003
      7  H         1.3309318193   -0.0428711435    1.0521560137
      8  H         1.0675515572   -1.0063435902   -1.6913914663
      9  H         0.8974958539   -3.4791052438   -0.6991635327
     10  H        -2.2788433693    1.6637830810    0.7586592878
     11  H        -0.3876965091    2.9094170082   -0.7543724116
     12  C        -0.7995991612    0.0543137503    0.8374678093
     13  H        -1.2571769802   -0.7321647468    1.4256430232
   Point Group: c1    Number of degrees of freedom:    33


   Energy is   -286.872976898


 Attempting to Generate Delocalized Internal Coordinates

 Transforming Cartesian Hessian to Internal Coordinates
 Hessian Transformation does not Include Derivative of B-matrix

 33 Hessian modes will be used to form the next step
  Hessian Eigenvalues:
    -0.001881    0.008907    0.013125    0.013616    0.014699    0.024421
     0.029563    0.045226    0.046771    0.058913    0.068193    0.076595
     0.092479    0.102448    0.106174    0.119017    0.122078    0.137556
     0.192690    0.220446    0.230045    0.287074    0.300804    0.325381
     0.328522    0.336474    0.356275    0.368572    0.371042    0.372630
     0.546520    0.622651    0.661749

 Transition State Search - Taking P-RFO Step
 Searching for Lamda that Maximizes Along the Lowest mode
 Value Taken    Lamda =   0.00000242
 Searching for Lamda that Minimizes Along All other modes
 Value Taken    Lamda =  -0.00008629
 Step Taken.  Stepsize is  0.059177

                             Maximum     Tolerance    Cnvgd?
         Gradient           0.002541      0.000010      NO
         Displacement       0.027204      0.001200      NO
         Energy change     *********      0.000001      NO


 New Cartesian Coordinates Obtained by Inverse Iteration

 Displacement from previous Coordinates is:  0.084939
 ----------------------------------------------------------------
             Standard Nuclear Orientation (Angstroms)
    I     Atom           X                Y                Z
 ----------------------------------------------------------------
    1      C       0.5789319813    -0.0352820533     0.2307486947
    2      C       0.8311365227    -1.2537150917    -0.6523598745
    3      C       0.7675583327    -2.5053016799    -0.2609046796
    4      C      -1.3102090583     1.2580035440     0.5065256401
    5      C      -0.2879835946     1.9237311613    -0.3162792940
    6      N       0.7778999491     1.2206687427    -0.5081399450
    7      H       1.3235680314    -0.0392244509     1.0429142355
    8      H       1.0888201440    -1.0157379921    -1.6904809091
    9      H       0.9033758296    -3.4887648109    -0.6892146420
   10      H      -2.2755735993     1.6715119689     0.7736840361
   11      H      -0.3864130806     2.9187044203    -0.7460606497
   12      C      -0.8035012572     0.0534219806     0.8330546058
   13      H      -1.2619573457    -0.7327250532     1.4201981929
 ----------------------------------------------------------------
 Nuclear Repulsion Energy =   258.0263608774 hartrees
 There are       25 alpha and       24 beta electrons
 Applying Cartesian multipole field
    Component          Value
    ---------          -----
     (2,0,0)        1.00000E-11
     (0,2,0)        2.00000E-11
     (0,0,2)       -3.00000E-11
 Nucleus-field energy     =     0.0000000075 hartrees
 Requested basis set is 6-31+G(d,p)
 There are 53 shells and 163 basis functions
 A cutoff of  1.0D-14 yielded   1358 shell pairs
 There are     13240 function pairs
 Smallest overlap matrix eigenvalue = 1.75E-05
 Guess MOs from SCF MO coefficient file
 Reading MOs from coefficient file
 Reading MOs from coefficient file
 An unrestricted hybrid HF-DFT SCF calculation will be
 performed using Pulay DIIS extrapolation
 Exchange:     0.2000 Hartree-Fock + 0.0800 Slater + 0.7200 B88
 Correlation:  0.1900 VWN1RPA + 0.8100 LYP
 Using SG-1 standard quadrature grid
 SCF converges when DIIS error is below 1.0E-08
 Geometry optimization detected.  Setting ReadMinima to 0
 Setting SaveMinima to 0
Using Q-Chem read-in guess as SCF_GUESS READ specified.

 using 4 threads for integral computing
 -------------------------------------------------------
 OpenMP Integral computing Module                
 Release: version 1.0, May 2013, Q-Chem Inc. Pittsburgh 
 -------------------------------------------------------
 -------------------------------------------------------
 OpenMP BLAS3 based DFT computing Module                
 Release: version 1.0, May 2013, Q-Chem Inc. Pittsburgh 
 -------------------------------------------------------
 ---------------------------------------
  Cycle       Energy         DIIS Error
 ---------------------------------------
    1    -286.8704410654      3.52E-04
    2    -286.8730033501      4.58E-05
    3    -286.8730091506      4.93E-05
    4    -286.8730176309      9.36E-06
    5    -286.8730181184      6.45E-06
    6    -286.8730184078      2.64E-06
    7    -286.8730185048      1.26E-06
    8    -286.8730185309      6.75E-07
    9    -286.8730185433      2.98E-07
   10    -286.8730185450      1.02E-07
   11    -286.8730185451      4.81E-08
   12    -286.8730185451      1.25E-08
   13    -286.8730185451      3.15E-09 Convergence criterion met
 ---------------------------------------
 <S^2> = 0.7606
 SCF time:  CPU 63.62 s  wall 24.51 s
 SCF   energy in the final basis set = -286.87301855
 Total energy in the final basis set = -286.87301855
 
 --------------------------------------------------------------
 
                    Orbital Energies (a.u.)
 --------------------------------------------------------------
 
 Alpha MOs
 -- Occupied --
-14.336 -10.239 -10.237 -10.222 -10.215 -10.214 -10.208  -0.956
 -0.802  -0.777  -0.716  -0.602  -0.567  -0.553  -0.517  -0.480
 -0.453  -0.415  -0.408  -0.387  -0.340  -0.285  -0.279  -0.264
 -0.246
 -- Virtual --
 -0.054  -0.013   0.010   0.019   0.028   0.037   0.043   0.045
  0.049   0.063   0.069   0.077   0.090   0.098   0.106   0.112
  0.125   0.130   0.138   0.145   0.154   0.162   0.170   0.181
  0.191   0.200   0.210   0.214   0.216   0.227   0.241   0.251
  0.257   0.268   0.270   0.289   0.304   0.311   0.342   0.380
  0.394   0.421   0.424   0.503   0.624   0.647   0.661   0.668
  0.682   0.709   0.717   0.726   0.732   0.759   0.764   0.777
  0.796   0.822   0.864   0.880   0.904   0.917   0.944   0.958
  0.999   1.022   1.041   1.053   1.060   1.091   1.119   1.164
  1.181   1.210   1.212   1.321   1.355   1.369   1.387   1.444
  1.471   1.525   1.567   1.601   1.613   1.731   1.747   1.811
  1.815   1.863   1.881   1.956   1.978   1.989   2.003   2.017
  2.035   2.058   2.128   2.211   2.224   2.266   2.352   2.381
  2.396   2.401   2.435   2.454   2.468   2.503   2.514   2.555
  2.577   2.628   2.647   2.685   2.715   2.740   2.779   2.812
  2.839   2.866   2.939   3.015   3.190   3.241   3.299   3.395
  3.434   3.604   3.728   4.141   4.294   4.370   4.386   4.492
  4.639   4.730
 
 Beta MOs
 -- Occupied --
-14.336 -10.238 -10.237 -10.217 -10.214 -10.208 -10.207  -0.956
 -0.794  -0.776  -0.705  -0.593  -0.566  -0.543  -0.516  -0.471
 -0.444  -0.414  -0.405  -0.385  -0.337  -0.280  -0.276  -0.261
 -- Virtual --
 -0.093  -0.054  -0.006   0.011   0.022   0.029   0.038   0.044
  0.045   0.050   0.063   0.072   0.077   0.092   0.103   0.107
  0.114   0.126   0.130   0.140   0.147   0.157   0.163   0.170
  0.182   0.192   0.203   0.211   0.216   0.218   0.230   0.242
  0.252   0.257   0.269   0.272   0.289   0.306   0.312   0.346
  0.383   0.399   0.421   0.438   0.503   0.636   0.654   0.663
  0.676   0.686   0.712   0.719   0.731   0.747   0.761   0.772
  0.781   0.802   0.823   0.865   0.882   0.905   0.925   0.949
  0.962   1.002   1.028   1.043   1.058   1.072   1.092   1.120
  1.169   1.187   1.211   1.215   1.322   1.356   1.372   1.391
  1.446   1.473   1.535   1.571   1.614   1.644   1.745   1.778
  1.814   1.827   1.865   1.883   1.966   1.985   1.990   2.005
  2.021   2.049   2.062   2.129   2.214   2.224   2.271   2.352
  2.386   2.402   2.410   2.435   2.457   2.471   2.504   2.514
  2.557   2.581   2.636   2.656   2.694   2.716   2.746   2.780
  2.820   2.841   2.868   2.940   3.025   3.190   3.241   3.313
  3.395   3.435   3.621   3.728   4.142   4.303   4.371   4.394
  4.508   4.641   4.731
 --------------------------------------------------------------
 
          Ground-State Mulliken Net Atomic Charges

     Atom                 Charge (a.u.)    Spin (a.u.)
  --------------------------------------------------------
      1 C                    -0.098361       0.083559
      2 C                    -0.007483      -0.311733
      3 C                    -0.327632       1.170386
      4 C                    -0.049571      -0.000947
      5 C                    -0.092762      -0.002301
      6 N                    -0.204028      -0.003529
      7 H                     0.191860      -0.004712
      8 H                     0.169422       0.080904
      9 H                     0.154744       0.005943
     10 H                     0.135140      -0.000148
     11 H                     0.132130       0.000467
     12 C                    -0.150378      -0.017695
     13 H                     0.146919      -0.000196
  --------------------------------------------------------
  Sum of atomic charges =     0.000000
  Sum of spin   charges =     1.000000

 -----------------------------------------------------------------
                    Cartesian Multipole Moments
 -----------------------------------------------------------------
    Charge (ESU x 10^10)
                 0.0000
    Dipole Moment (Debye)
         X      -1.5873      Y      -0.4445      Z       0.6360
       Tot       1.7668
    Quadrupole Moments (Debye-Ang)
        XX     -43.1032     XY      -4.5598     YY     -37.9279
        XZ      -0.1307     YZ       1.7984     ZZ     -41.7030
    Octopole Moments (Debye-Ang^2)
       XXX     -18.1929    XXY      -1.5254    XYY      -8.2897
       YYY      -9.6417    XXZ       6.2275    XYZ       5.1458
       YYZ      -6.5698    XZZ      -2.5804    YZZ      -6.1703
       ZZZ       1.4535
    Hexadecapole Moments (Debye-Ang^3)
      XXXX    -250.2621   XXXY      77.9574   XXYY    -149.8100
      XYYY      55.2281   YYYY    -541.1725   XXXZ      44.2676
      XXYZ       0.0763   XYYZ      10.0036   YYYZ      -4.0232
      XXZZ     -62.7764   XYZZ      26.1415   YYZZ    -129.2525
      XZZZ      45.2862   YZZZ     -17.4427   ZZZZ    -144.0216
 -----------------------------------------------------------------
 Calculating analytic gradient of the SCF energy
 Gradient of SCF Energy
            1           2           3           4           5           6
    1   0.0000104  -0.0000078   0.0000181   0.0000121   0.0000295  -0.0000335
    2  -0.0000179   0.0000041  -0.0000009  -0.0000151   0.0000040   0.0000004
    3   0.0000020  -0.0000091   0.0000219   0.0000185   0.0000202  -0.0000025
            7           8           9          10          11          12
    1  -0.0000013   0.0000068  -0.0000039  -0.0000051  -0.0000034  -0.0000201
    2   0.0000033  -0.0000039   0.0000135  -0.0000008  -0.0000059   0.0000190
    3   0.0000040   0.0000047  -0.0000055  -0.0000105  -0.0000037  -0.0000366
           13
    1  -0.0000019
    2   0.0000001
    3  -0.0000034
 Max gradient component =       3.657E-05
 RMS gradient           =       1.358E-05
 Gradient time:  CPU 15.84 s  wall 4.20 s
 Geometry Optimization Parameters
   NAtoms,    NIC,     NZ,  NCons,   NDum,   NFix, NCnnct, MaxDiis
       13      86       0       0       0       0       0       0

 Cartesian Hessian Update
 Hessian Updated using Powell/Murtagh-Sargent Update
  Mixing factors:     0.998005 Powell
                      0.001995 Murtagh-Sargent


** GEOMETRY OPTIMIZATION IN DELOCALIZED INTERNAL COORDINATES **
   Searching for a Transition State

   Optimization Cycle:   2

                       Coordinates (Angstroms)
     ATOM                X               Y               Z
      1  C         0.5789319813   -0.0352820533    0.2307486947
      2  C         0.8311365227   -1.2537150917   -0.6523598745
      3  C         0.7675583327   -2.5053016799   -0.2609046796
      4  C        -1.3102090583    1.2580035440    0.5065256401
      5  C        -0.2879835946    1.9237311613   -0.3162792940
      6  N         0.7778999491    1.2206687427   -0.5081399450
      7  H         1.3235680314   -0.0392244509    1.0429142355
      8  H         1.0888201440   -1.0157379921   -1.6904809091
      9  H         0.9033758296   -3.4887648109   -0.6892146420
     10  H        -2.2755735993    1.6715119689    0.7736840361
     11  H        -0.3864130806    2.9187044203   -0.7460606497
     12  C        -0.8035012572    0.0534219806    0.8330546058
     13  H        -1.2619573457   -0.7327250532    1.4201981929
   Point Group: c1    Number of degrees of freedom:    33


   Energy is   -286.873018545

 Hessian Updated using Powell/Murtagh-Sargent Update
  Mixing factors:     0.981658 Powell
                      0.018342 Murtagh-Sargent

 33 Hessian modes will be used to form the next step
  Hessian Eigenvalues:
    -0.002082    0.009277    0.013186    0.013737    0.014700    0.024430
     0.029554    0.045236    0.046767    0.058913    0.068202    0.076554
     0.092473    0.102446    0.106184    0.119006    0.122042    0.137524
     0.192686    0.220490    0.230057    0.287085    0.300798    0.325408
     0.328522    0.336475    0.356275    0.368573    0.371043    0.372639
     0.546507    0.622603    0.661734

 Transition State Search - Taking P-RFO Step
 Searching for Lamda that Maximizes Along the Lowest mode
 Value Taken    Lamda =   0.00000003
 Searching for Lamda that Minimizes Along All other modes
 Value Taken    Lamda =   0.00000000
 Step Taken.  Stepsize is  0.004329

                             Maximum     Tolerance    Cnvgd?
         Gradient           0.000023      0.000010      NO
         Displacement       0.002292      0.001200      NO
         Energy change     -0.000042      0.000001      NO


 New Cartesian Coordinates Obtained by Inverse Iteration

 Displacement from previous Coordinates is:  0.004990
 ----------------------------------------------------------------
             Standard Nuclear Orientation (Angstroms)
    I     Atom           X                Y                Z
 ----------------------------------------------------------------
    1      C       0.5790544799    -0.0352893116     0.2311747782
    2      C       0.8307935072    -1.2536009814    -0.6523237532
    3      C       0.7682008494    -2.5052669198    -0.2609792757
    4      C      -1.3102393635     1.2579465512     0.5061931094
    5      C      -0.2877865073     1.9236155324    -0.3163840418
    6      N       0.7783120848     1.2206772000    -0.5076226091
    7      H       1.3236673354    -0.0396890026     1.0433333656
    8      H       1.0868829714    -1.0153558992    -1.6907845300
    9      H       0.9040669756    -3.4887008517    -0.6893610225
   10      H      -2.2756881208     1.6714468289     0.7730542678
   11      H      -0.3860945744     2.9185566255    -0.7462793586
   12      C      -0.8034700230     0.0535144506     0.8332604179
   13      H      -1.2620467596    -0.7325635364     1.4204040629
 ----------------------------------------------------------------
 Nuclear Repulsion Energy =   258.0262036109 hartrees
 There are       25 alpha and       24 beta electrons
 Applying Cartesian multipole field
    Component          Value
    ---------          -----
     (2,0,0)        1.00000E-11
     (0,2,0)        2.00000E-11
     (0,0,2)       -3.00000E-11
 Nucleus-field energy     =     0.0000000075 hartrees
 Requested basis set is 6-31+G(d,p)
 There are 53 shells and 163 basis functions
 A cutoff of  1.0D-14 yielded   1358 shell pairs
 There are     13240 function pairs
 Smallest overlap matrix eigenvalue = 1.76E-05
 Guess MOs from SCF MO coefficient file
 Reading MOs from coefficient file
 Reading MOs from coefficient file
 An unrestricted hybrid HF-DFT SCF calculation will be
 performed using Pulay DIIS extrapolation
 Exchange:     0.2000 Hartree-Fock + 0.0800 Slater + 0.7200 B88
 Correlation:  0.1900 VWN1RPA + 0.8100 LYP
 Using SG-1 standard quadrature grid
 SCF converges when DIIS error is below 1.0E-08
 Geometry optimization detected.  Setting ReadMinima to 0
 Setting SaveMinima to 0
Using Q-Chem read-in guess as SCF_GUESS READ specified.

 using 4 threads for integral computing
 -------------------------------------------------------
 OpenMP Integral computing Module                
 Release: version 1.0, May 2013, Q-Chem Inc. Pittsburgh 
 -------------------------------------------------------
 -------------------------------------------------------
 OpenMP BLAS3 based DFT computing Module                
 Release: version 1.0, May 2013, Q-Chem Inc. Pittsburgh 
 -------------------------------------------------------
 ---------------------------------------
  Cycle       Energy         DIIS Error
 ---------------------------------------
    1    -286.8729606052      1.99E-05
    2    -286.8730185088      1.77E-06
    3    -286.8730185427      1.78E-06
    4    -286.8730185566      6.26E-07
    5    -286.8730185600      4.00E-07
    6    -286.8730185618      1.41E-07
    7    -286.8730185624      8.68E-08
    8    -286.8730185625      4.84E-08
    9    -286.8730185625      1.62E-08
   10    -286.8730185625      3.13E-09 Convergence criterion met
 ---------------------------------------
 <S^2> = 0.7606
 SCF time:  CPU 48.69 s  wall 18.71 s
 SCF   energy in the final basis set = -286.87301856
 Total energy in the final basis set = -286.87301856
 
 --------------------------------------------------------------
 
                    Orbital Energies (a.u.)
 --------------------------------------------------------------
 
 Alpha MOs
 -- Occupied --
-14.336 -10.239 -10.237 -10.222 -10.215 -10.214 -10.208  -0.956
 -0.802  -0.777  -0.716  -0.602  -0.567  -0.553  -0.517  -0.480
 -0.453  -0.415  -0.408  -0.387  -0.340  -0.285  -0.279  -0.264
 -0.246
 -- Virtual --
 -0.054  -0.013   0.010   0.019   0.028   0.037   0.043   0.045
  0.049   0.063   0.069   0.077   0.090   0.098   0.106   0.112
  0.125   0.130   0.138   0.145   0.154   0.162   0.170   0.181
  0.191   0.200   0.210   0.214   0.216   0.227   0.241   0.251
  0.257   0.268   0.270   0.289   0.304   0.311   0.342   0.380
  0.394   0.421   0.424   0.503   0.624   0.647   0.661   0.668
  0.682   0.709   0.717   0.726   0.732   0.759   0.764   0.777
  0.796   0.822   0.864   0.880   0.904   0.917   0.944   0.958
  0.999   1.022   1.041   1.053   1.060   1.091   1.119   1.164
  1.181   1.210   1.212   1.321   1.355   1.369   1.387   1.444
  1.471   1.525   1.567   1.601   1.613   1.731   1.747   1.811
  1.815   1.863   1.881   1.956   1.978   1.989   2.003   2.017
  2.035   2.058   2.128   2.211   2.224   2.266   2.352   2.381
  2.396   2.401   2.435   2.454   2.468   2.503   2.514   2.555
  2.577   2.628   2.647   2.685   2.715   2.740   2.779   2.812
  2.839   2.866   2.939   3.015   3.190   3.241   3.299   3.395
  3.434   3.604   3.728   4.141   4.294   4.370   4.386   4.492
  4.639   4.730
 
 Beta MOs
 -- Occupied --
-14.336 -10.238 -10.237 -10.217 -10.214 -10.208 -10.207  -0.956
 -0.794  -0.776  -0.705  -0.593  -0.566  -0.543  -0.516  -0.471
 -0.444  -0.414  -0.405  -0.385  -0.337  -0.280  -0.276  -0.261
 -- Virtual --
 -0.093  -0.054  -0.006   0.011   0.022   0.029   0.038   0.044
  0.045   0.050   0.063   0.072   0.077   0.092   0.103   0.107
  0.114   0.126   0.130   0.140   0.147   0.157   0.163   0.170
  0.182   0.192   0.203   0.211   0.216   0.218   0.230   0.242
  0.252   0.257   0.269   0.272   0.289   0.306   0.312   0.346
  0.383   0.399   0.421   0.438   0.503   0.636   0.654   0.663
  0.676   0.686   0.712   0.719   0.731   0.747   0.761   0.772
  0.781   0.802   0.823   0.865   0.882   0.905   0.925   0.949
  0.963   1.002   1.028   1.043   1.058   1.072   1.092   1.120
  1.169   1.187   1.211   1.215   1.322   1.356   1.372   1.391
  1.446   1.473   1.535   1.571   1.614   1.644   1.745   1.778
  1.814   1.827   1.865   1.883   1.966   1.985   1.990   2.006
  2.021   2.049   2.062   2.129   2.214   2.224   2.271   2.352
  2.386   2.402   2.410   2.435   2.457   2.471   2.504   2.515
  2.558   2.581   2.636   2.656   2.694   2.716   2.746   2.780
  2.820   2.841   2.868   2.940   3.025   3.190   3.241   3.313
  3.395   3.435   3.621   3.728   4.142   4.303   4.371   4.394
  4.508   4.641   4.731
 --------------------------------------------------------------
 
          Ground-State Mulliken Net Atomic Charges

     Atom                 Charge (a.u.)    Spin (a.u.)
  --------------------------------------------------------
      1 C                    -0.098440       0.083574
      2 C                    -0.007202      -0.311777
      3 C                    -0.327854       1.170424
      4 C                    -0.049746      -0.000933
      5 C                    -0.092623      -0.002319
      6 N                    -0.204057      -0.003519
      7 H                     0.191812      -0.004707
      8 H                     0.169406       0.080911
      9 H                     0.154754       0.005925
     10 H                     0.135144      -0.000149
     11 H                     0.132133       0.000467
     12 C                    -0.150239      -0.017706
     13 H                     0.146914      -0.000194
  --------------------------------------------------------
  Sum of atomic charges =     0.000000
  Sum of spin   charges =     1.000000

 -----------------------------------------------------------------
                    Cartesian Multipole Moments
 -----------------------------------------------------------------
    Charge (ESU x 10^10)
                 0.0000
    Dipole Moment (Debye)
         X      -1.5890      Y      -0.4447      Z       0.6349
       Tot       1.7680
    Quadrupole Moments (Debye-Ang)
        XX     -43.1075     XY      -4.5600     YY     -37.9284
        XZ      -0.1285     YZ       1.7962     ZZ     -41.6998
    Octopole Moments (Debye-Ang^2)
       XXX     -18.2191    XXY      -1.5274    XYY      -8.2913
       YYY      -9.6459    XXZ       6.2296    XYZ       5.1434
       YYZ      -6.5780    XZZ      -2.5872    YZZ      -6.1701
       ZZZ       1.4402
    Hexadecapole Moments (Debye-Ang^3)
      XXXX    -250.3052   XXXY      77.9593   XXYY    -149.8077
      XYYY      55.2209   YYYY    -541.1338   XXXZ      44.2622
      XXYZ       0.0669   XYYZ       9.9950   YYYZ      -4.0230
      XXZZ     -62.7924   XYZZ      26.1528   YYZZ    -129.2407
      XZZZ      45.2716   YZZZ     -17.4438   ZZZZ    -144.0052
 -----------------------------------------------------------------
 Calculating analytic gradient of the SCF energy
 Gradient of SCF Energy
            1           2           3           4           5           6
    1  -0.0000009   0.0000007   0.0000024  -0.0000008   0.0000018  -0.0000003
    2  -0.0000001   0.0000000   0.0000005  -0.0000017   0.0000004   0.0000007
    3   0.0000010   0.0000018   0.0000014  -0.0000021   0.0000007   0.0000026
            7           8           9          10          11          12
    1  -0.0000025   0.0000047   0.0000029  -0.0000025   0.0000006  -0.0000030
    2  -0.0000002   0.0000014   0.0000015  -0.0000012  -0.0000001  -0.0000000
    3   0.0000031   0.0000022  -0.0000003  -0.0000048   0.0000005  -0.0000026
           13
    1  -0.0000032
    2  -0.0000012
    3  -0.0000035
 Max gradient component =       4.831E-06
 RMS gradient           =       2.027E-06
 Gradient time:  CPU 16.29 s  wall 4.25 s
 Geometry Optimization Parameters
   NAtoms,    NIC,     NZ,  NCons,   NDum,   NFix, NCnnct, MaxDiis
       13      86       0       0       0       0       0       0

 Cartesian Hessian Update
 Hessian Updated using Powell/Murtagh-Sargent Update
**WARNING** Small Scalar Product
 Hessian Update Skipped this cycle


** GEOMETRY OPTIMIZATION IN DELOCALIZED INTERNAL COORDINATES **
   Searching for a Transition State

   Optimization Cycle:   3

                       Coordinates (Angstroms)
     ATOM                X               Y               Z
      1  C         0.5790544799   -0.0352893116    0.2311747782
      2  C         0.8307935072   -1.2536009814   -0.6523237532
      3  C         0.7682008494   -2.5052669198   -0.2609792757
      4  C        -1.3102393635    1.2579465512    0.5061931094
      5  C        -0.2877865073    1.9236155324   -0.3163840418
      6  N         0.7783120848    1.2206772000   -0.5076226091
      7  H         1.3236673354   -0.0396890026    1.0433333656
      8  H         1.0868829714   -1.0153558992   -1.6907845300
      9  H         0.9040669756   -3.4887008517   -0.6893610225
     10  H        -2.2756881208    1.6714468289    0.7730542678
     11  H        -0.3860945744    2.9185566255   -0.7462793586
     12  C        -0.8034700230    0.0535144506    0.8332604179
     13  H        -1.2620467596   -0.7325635364    1.4204040629
   Point Group: c1    Number of degrees of freedom:    33


   Energy is   -286.873018563

 Hessian Updated using Powell/Murtagh-Sargent Update
**WARNING** Small Scalar Product
 Hessian Update Skipped this cycle

 33 Hessian modes will be used to form the next step
  Hessian Eigenvalues:
    -0.002082    0.009277    0.013186    0.013737    0.014700    0.024430
     0.029554    0.045236    0.046767    0.058913    0.068202    0.076554
     0.092473    0.102446    0.106184    0.119006    0.122042    0.137524
     0.192686    0.220490    0.230057    0.287085    0.300798    0.325408
     0.328522    0.336475    0.356275    0.368573    0.371043    0.372639
     0.546507    0.622603    0.661734

 Transition State Search - Taking P-RFO Step
 Searching for Lamda that Maximizes Along the Lowest mode
 Value Taken    Lamda =   0.00000000
 Searching for Lamda that Minimizes Along All other modes
 Value Taken    Lamda =   0.00000000
 Step Taken.  Stepsize is  0.000339

                             Maximum     Tolerance    Cnvgd?
         Gradient           0.000002      0.000010     YES
         Displacement       0.000165      0.001200     YES
         Energy change     -0.000000      0.000001     YES


                       Distance Matrix (Angstroms)
             C (  1)   C (  2)   C (  3)   C (  4)   C (  5)   N (  6)
   C (  2)  1.525852
   C (  3)  2.525625  1.312911
   C (  4)  2.305976  3.497721  4.366949
   C (  5)  2.211005  3.385082  4.553370  1.471448
   N (  6)  1.470706  2.479061  3.734112  2.321908  1.291224
   H (  7)  1.101848  2.142839  2.844090  2.984936  2.881003  2.071569
   H (  8)  2.216382  1.095784  2.089434  3.967469  3.523669  2.548516
   H (  9)  3.588742  2.236607  1.081255  5.372445  5.554529  4.714561
   H ( 10)  3.369887  4.498648  5.270619  1.083646  2.280837  3.342191
   H ( 11)  3.257627  4.347015  5.566487  2.276040  1.088293  2.072582
   C ( 12)  1.510552  2.566384  3.196071  1.347013  2.254970  2.379553
   H ( 13)  2.300024  2.991264  3.176702  2.190944  3.319775  3.419868
             H (  7)   H (  8)   H (  9)   H ( 10)   H ( 11)   C ( 12)
   H (  8)  2.912627
   H (  9)  3.882522  2.674641
   H ( 10)  3.994546  4.959465  6.235112
   H ( 11)  3.857100  4.305510  6.536108  2.726577
   C ( 12)  2.139517  3.329673  4.216794  2.188323  3.298123
   H ( 13)  2.703364  3.908572  4.091387  2.688084  4.335030  1.083028

 
 Final energy is   -286.873018562535     


 ******************************
 **  OPTIMIZATION CONVERGED  **
 ******************************

                       Coordinates (Angstroms)
     ATOM                X               Y               Z
      1  C         0.5790544799   -0.0352893116    0.2311747782
      2  C         0.8307935072   -1.2536009814   -0.6523237532
      3  C         0.7682008494   -2.5052669198   -0.2609792757
      4  C        -1.3102393635    1.2579465512    0.5061931094
      5  C        -0.2877865073    1.9236155324   -0.3163840418
      6  N         0.7783120848    1.2206772000   -0.5076226091
      7  H         1.3236673354   -0.0396890026    1.0433333656
      8  H         1.0868829714   -1.0153558992   -1.6907845300
      9  H         0.9040669756   -3.4887008517   -0.6893610225
     10  H        -2.2756881208    1.6714468289    0.7730542678
     11  H        -0.3860945744    2.9185566255   -0.7462793586
     12  C        -0.8034700230    0.0535144506    0.8332604179
     13  H        -1.2620467596   -0.7325635364    1.4204040629

Z-matrix Print:
$molecule
0 2
N 
C  1 1.291224
H  2 1.088293 1 120.915763
C  1 1.470706 2 106.179413 3 178.814521 0
H  4 1.101848 1 106.386873 2 -113.836499 0
C  2 1.471448 1 114.219132 3 179.807053 0
H  6 1.083646 2 125.740382 1 -179.315829 0
C  6 1.347013 2 106.189959 1 0.102188 0
H  8 1.083028 6 128.412897 2 -179.151372 0
C  4 1.525852 1 111.632135 2 128.350267 0
H  10 1.095784 4 114.436760 1 -1.745565 0
C  10 1.312911 4 125.502902 1 177.930894 0
H  12 1.081255 10 137.989093 4 -179.763210 0
$end

 
 --------------------------------------------------------------
 
                    Orbital Energies (a.u.)
 --------------------------------------------------------------
 
 Alpha MOs
 -- Occupied --
-14.336 -10.239 -10.237 -10.222 -10.215 -10.214 -10.208  -0.956
 -0.802  -0.777  -0.716  -0.602  -0.567  -0.553  -0.517  -0.480
 -0.453  -0.415  -0.408  -0.387  -0.340  -0.285  -0.279  -0.264
 -0.246
 -- Virtual --
 -0.054  -0.013   0.010   0.019   0.028   0.037   0.043   0.045
  0.049   0.063   0.069   0.077   0.090   0.098   0.106   0.112
  0.125   0.130   0.138   0.145   0.154   0.162   0.170   0.181
  0.191   0.200   0.210   0.214   0.216   0.227   0.241   0.251
  0.257   0.268   0.270   0.289   0.304   0.311   0.342   0.380
  0.394   0.421   0.424   0.503   0.624   0.647   0.661   0.668
  0.682   0.709   0.717   0.726   0.732   0.759   0.764   0.777
  0.796   0.822   0.864   0.880   0.904   0.917   0.944   0.958
  0.999   1.022   1.041   1.053   1.060   1.091   1.119   1.164
  1.181   1.210   1.212   1.321   1.355   1.369   1.387   1.444
  1.471   1.525   1.567   1.601   1.613   1.731   1.747   1.811
  1.815   1.863   1.881   1.956   1.978   1.989   2.003   2.017
  2.035   2.058   2.128   2.211   2.224   2.266   2.352   2.381
  2.396   2.401   2.435   2.454   2.468   2.503   2.514   2.555
  2.577   2.628   2.647   2.685   2.715   2.740   2.779   2.812
  2.839   2.866   2.939   3.015   3.190   3.241   3.299   3.395
  3.434   3.604   3.728   4.141   4.294   4.370   4.386   4.492
  4.639   4.730
 
 Beta MOs
 -- Occupied --
-14.336 -10.238 -10.237 -10.217 -10.214 -10.208 -10.207  -0.956
 -0.794  -0.776  -0.705  -0.593  -0.566  -0.543  -0.516  -0.471
 -0.444  -0.414  -0.405  -0.385  -0.337  -0.280  -0.276  -0.261
 -- Virtual --
 -0.093  -0.054  -0.006   0.011   0.022   0.029   0.038   0.044
  0.045   0.050   0.063   0.072   0.077   0.092   0.103   0.107
  0.114   0.126   0.130   0.140   0.147   0.157   0.163   0.170
  0.182   0.192   0.203   0.211   0.216   0.218   0.230   0.242
  0.252   0.257   0.269   0.272   0.289   0.306   0.312   0.346
  0.383   0.399   0.421   0.438   0.503   0.636   0.654   0.663
  0.676   0.686   0.712   0.719   0.731   0.747   0.761   0.772
  0.781   0.802   0.823   0.865   0.882   0.905   0.925   0.949
  0.963   1.002   1.028   1.043   1.058   1.072   1.092   1.120
  1.169   1.187   1.211   1.215   1.322   1.356   1.372   1.391
  1.446   1.473   1.535   1.571   1.614   1.644   1.745   1.778
  1.814   1.827   1.865   1.883   1.966   1.985   1.990   2.006
  2.021   2.049   2.062   2.129   2.214   2.224   2.271   2.352
  2.386   2.402   2.410   2.435   2.457   2.471   2.504   2.515
  2.558   2.581   2.636   2.656   2.694   2.716   2.746   2.780
  2.820   2.841   2.868   2.940   3.025   3.190   3.241   3.313
  3.395   3.435   3.621   3.728   4.142   4.303   4.371   4.394
  4.508   4.641   4.731
 --------------------------------------------------------------
 
          Ground-State Mulliken Net Atomic Charges

     Atom                 Charge (a.u.)    Spin (a.u.)
  --------------------------------------------------------
      1 C                    -0.098440       0.083574
      2 C                    -0.007202      -0.311777
      3 C                    -0.327854       1.170424
      4 C                    -0.049746      -0.000933
      5 C                    -0.092623      -0.002319
      6 N                    -0.204057      -0.003519
      7 H                     0.191812      -0.004707
      8 H                     0.169406       0.080911
      9 H                     0.154754       0.005925
     10 H                     0.135144      -0.000149
     11 H                     0.132133       0.000467
     12 C                    -0.150239      -0.017706
     13 H                     0.146914      -0.000194
  --------------------------------------------------------
  Sum of atomic charges =     0.000000
  Sum of spin   charges =     1.000000

 -----------------------------------------------------------------
                    Cartesian Multipole Moments
 -----------------------------------------------------------------
    Charge (ESU x 10^10)
                 0.0000
    Dipole Moment (Debye)
         X      -1.5890      Y      -0.4447      Z       0.6349
       Tot       1.7680
    Quadrupole Moments (Debye-Ang)
        XX     -43.1075     XY      -4.5600     YY     -37.9284
        XZ      -0.1285     YZ       1.7962     ZZ     -41.6998
    Octopole Moments (Debye-Ang^2)
       XXX     -18.2191    XXY      -1.5274    XYY      -8.2913
       YYY      -9.6459    XXZ       6.2296    XYZ       5.1434
       YYZ      -6.5780    XZZ      -2.5872    YZZ      -6.1701
       ZZZ       1.4402
    Hexadecapole Moments (Debye-Ang^3)
      XXXX    -250.3052   XXXY      77.9593   XXYY    -149.8077
      XYYY      55.2209   YYYY    -541.1338   XXXZ      44.2622
      XXYZ       0.0669   XYYZ       9.9950   YYYZ      -4.0230
      XXZZ     -62.7924   XYZZ      26.1528   YYZZ    -129.2407
      XZZZ      45.2716   YZZZ     -17.4438   ZZZZ    -144.0052
 -----------------------------------------------------------------
Archival summary:
1\1\c8-73\TS\ProcedureUnspecified\6-31+G**\166(2)\hpark21\WedMar218:16:502022WedMar218:16:502022\0\\#,TS,ProcedureUnspecified,6-31+G**,\\0,2\N\C,1,1.29122\H,2,1.08829,1,120.916\C,1,1.47071,2,106.179,3,178.815,0\H,4,1.10185,1,106.387,2,-113.836,0\C,2,1.47145,1,114.219,3,179.807,0\H,6,1.08365,2,125.74,1,-179.316,0\C,6,1.34701,2,106.19,1,0.102188,0\H,8,1.08303,6,128.413,2,-179.151,0\C,4,1.52585,1,111.632,2,128.35,0\H,10,1.09578,4,114.437,1,-1.74556,0\C,10,1.31291,4,125.503,1,177.931,0\H,12,1.08126,10,137.989,4,-179.763,0\\\@

 Total job time:  65.38s(wall), 175.44s(cpu) 
 Wed Mar  2 18:16:50 2022

        *************************************************************
        *                                                           *
        *  Thank you very much for using Q-Chem.  Have a nice day.  *
        *                                                           *
        *************************************************************


