
Running Job 1 of 1 qcts1.in
qchem qcts1.in_14888.0 ./qcts1.d/ 1
/home/leeping/opt/qchem/5.0.2-openmp/exe/qcprog.exe_s qcts1.in_14888.0 ./qcts1.d/
Check license passed

                  Welcome to Q-Chem
     A Quantum Leap Into The Future Of Chemistry


 Q-Chem 5.0, Q-Chem, Inc., Pleasanton, CA (2017)

 Yihan Shao,  Zhengting Gan,  E. Epifanovsky,  A. T. B. Gilbert,  M. Wormit,  
 J. Kussmann,  A. W. Lange,  A. Behn,  Jia Deng,  Xintian Feng,  D. Ghosh,  
 M. Goldey,  P. R. Horn,  L. D. Jacobson,  I. Kaliman,  T. Kus,  A. Landau,  
 Jie Liu,  E. I. Proynov,  R. M. Richard,  R. P. Steele,  E. J. Sundstrom,  
 H. L. Woodcock III,  P. M. Zimmerman,  D. Zuev,  B. Albrecht,  E. Alguire,  
 S. A. Baeppler,  D. Barton,  Z. Benda,  Y. A. Bernard,  E. J. Berquist,  
 K. B. Bravaya,  H. Burton,  D. Casanova,  Chun-Min Chang,  Yunqing Chen,  
 A. Chien,  K. D. Closser,  M. P. Coons,  S. Dasgupta,  A. L. Dempwolff,  
 M. Diedenhofen,  Hainam Do,  R. G. Edgar,  Po-Tung Fang,  S. Fatehi,  
 Qingguo Feng,  J. Fosso-Tande,  Qinghui Ge,  A. Ghysels,  G. Gidofalvi,  
 J. Gomes,  J. Gonthier,  A. Gunina,  M. W. D. Hanson-Heine,  
 P. H. P. Harbach,  A. W. Hauser,  J. E. Herr,  E. G. Hohenstein,  
 Z. C. Holden,  Kerwin Hui,  T.-C. Jagau,  Hyunjun Ji,  B. Kaduk,  
 K. Khistyaev,  Jaehoon Kim,  P. Klunzinger,  K. Koh,  D. Kosenkov,  
 L. Koulias,  T. Kowalczyk,  C. M. Krauter,  A. Kunitsa,  Ka Un Lao,  
 A. Laurent,  K. V. Lawler,  Joonho Lee,  D. Lefrancois,  S. Lehtola,  
 D. S. Levine,  Yi-Pei Li,  You-Sheng Lin,  Fenglai Liu,  E. Livshits,  
 A. Luenser,  P. Manohar,  E. Mansoor,  S. F. Manzer,  Shan-Ping Mao,  
 Yuezhi Mao,  N. Mardirossian,  A. V. Marenich,  T. Markovich,  
 L. A. Martinez-Martinez,  S. A. Maurer,  N. J. Mayhall,  S. C. McKenzie,  
 J.-M. Mewes,  A. F. Morrison,  J. W. Mullinax,  K. Nanda,  
 T. S. Nguyen-Beck,  R. Olivares-Amaya,  J. A. Parkhill,  T. M. Perrine,  
 F. Plasser,  S. Prager,  A. Prociuk,  E. Ramos,  D. R. Rehn,  F. Rob,  
 M. Schneider,  N. Sergueev,  S. M. Sharada,  S. Sharma,  D. W. Small,  
 T. Stauch,  T. Stein,  Yu-Chuan Su,  A. J. W. Thom,  A. Tkatchenko,  
 T. Tsuchimochi,  L. Vogt,  O. Vydrov,  M. A. Watson,  J. Wenzel,  
 M. de Wergifosse,  T. A. Wesolowski,  A. White,  J. Witte,  A. Yamada,  
 Jun Yang,  K. Yao,  S. Yeganeh,  S. R. Yost,  Zhi-Qiang You,  A. Zech,  
 Igor Ying Zhang,  Xing Zhang,  Yan Zhao,  Ying Zhu,  B. R. Brooks,  
 G. K. L. Chan,  C. J. Cramer,  M. S. Gordon,  W. J. Hehre,  A. Klamt,  
 M. W. Schmidt,  C. D. Sherrill,  D. G. Truhlar,  A. Aspuru-Guzik,  R. Baer,  
 A. T. Bell,  N. A. Besley,  Jeng-Da Chai,  R. A. DiStasio Jr.,  A. Dreuw,  
 B. D. Dunietz,  T. R. Furlani,  Chao-Ping Hsu,  Yousung Jung,  Jing Kong,  
 D. S. Lambrecht,  WanZhen Liang,  C. Ochsenfeld,  V. A. Rassolov,  
 L. V. Slipchenko,  J. E. Subotnik,  T. Van Voorhis,  J. M. Herbert,  
 A. I. Krylov,  P. M. W. Gill,  M. Head-Gordon

 Contributors to earlier versions of Q-Chem not listed above: 
 R. D. Adamson,  B. Austin,  J. Baker,  G. J. O. Beran,  K. Brandhorst,  
 S. T. Brown,  E. F. C. Byrd,  A. K. Chakraborty,  C.-L. Cheng,  
 Siu Hung Chien,  D. M. Chipman,  D. L. Crittenden,  H. Dachsel,  
 R. J. Doerksen,  A. D. Dutoi,  L. Fusti-Molnar,  W. A. Goddard III,  
 A. Golubeva-Zadorozhnaya,  S. R. Gwaltney,  G. Hawkins,  A. Heyden,  
 S. Hirata,  G. Kedziora,  F. J. Keil,  C. Kelley,  Jihan Kim,  R. A. King,  
 R. Z. Khaliullin,  P. P. Korambath,  W. Kurlancheek,  A. M. Lee,  M. S. Lee,  
 S. V. Levchenko,  Ching Yeh Lin,  D. Liotard,  R. C. Lochan,  I. Lotan,  
 P. E. Maslen,  N. Nair,  D. P. O'Neill,  D. Neuhauser,  E. Neuscamman,  
 C. M. Oana,  R. Olson,  B. Peters,  R. Peverati,  P. A. Pieniazek,  
 Y. M. Rhee,  J. Ritchie,  M. A. Rohrdanz,  E. Rosta,  N. J. Russ,  
 H. F. Schaefer III,  N. E. Schultz,  N. Shenvi,  A. C. Simmonett,  A. Sodt,  
 D. Stuck,  K. S. Thanthiriwatte,  V. Vanovschi,  Tao Wang,  A. Warshel,  
 C. F. Williams,  Q. Wu,  X. Xu,  W. Zhang

 Please cite Q-Chem as follows:
 Y. Shao et al., Mol. Phys. 113, 184-215 (2015)
 DOI: 10.1080/00268976.2014.952696

 Q-Chem 5.0.2 for Intel X86 EM64T Linux

 Parts of Q-Chem use Armadillo 5.200.1 (Boston Tea Smuggler).
 http://arma.sourceforge.net/

 Q-Chem begins on Wed Mar  2 17:42:42 2022  

Host: 
0

     Scratch files written to ./qcts1.d//
 Dec517 15110_ 26548  26544 5633   
Processing $rem in /home/leeping/opt/qchem/5.0.2-openmp/config/preferences.
 MEM_STATIC 2000
 MEM_TOTAL  8000
 SYMMETRY   OFF
 SYM_IGNORE TRUE 

Checking the input file for inconsistencies... 	...done.

--------------------------------------------------------------
User input:
--------------------------------------------------------------
$molecule
0 2
C        0.9327496154    0.1509550163    0.3465291766
C        1.0644469533   -1.1312007005   -0.4808630164
C       -0.0170161168   -1.8760574933   -0.5483727795
C       -1.3089864745    0.8903444688    0.3793148352
C       -0.4340963717    1.7272872441   -0.4210101310
N        0.8000649916    1.3722995682   -0.4503065900
H        1.8626320430    0.2877496458    0.9326189468
H        2.0159680678   -1.3982731507   -0.9467818467
H       -0.3249545460   -2.8041374809   -1.0187684640
H       -2.3946049199    0.9555296561    0.3880385520
H       -0.7750245053    2.6431793825   -0.9081502615
C       -0.5397235176   -0.0597518050    0.9828695796
H       -0.9358023642   -0.7826336659    1.6885674101
$end

$rem
method                b3lyp
basis                 6-31g(d)
unrestricted          true
symmetry              off
sym_ignore            true
incdft                false
incfock               0
scf_convergence       8
thresh                14
jobtype               freq
scf_guess             read
scf_algorithm         diis
max_scf_cycles        100
$end

--------------------------------------------------------------
 ----------------------------------------------------------------
             Standard Nuclear Orientation (Angstroms)
    I     Atom           X                Y                Z
 ----------------------------------------------------------------
    1      C       0.9327496154     0.1509550163     0.3465291766
    2      C       1.0644469533    -1.1312007005    -0.4808630164
    3      C      -0.0170161168    -1.8760574933    -0.5483727795
    4      C      -1.3089864745     0.8903444688     0.3793148352
    5      C      -0.4340963717     1.7272872441    -0.4210101310
    6      N       0.8000649916     1.3722995682    -0.4503065900
    7      H       1.8626320430     0.2877496458     0.9326189468
    8      H       2.0159680678    -1.3982731507    -0.9467818467
    9      H      -0.3249545460    -2.8041374809    -1.0187684640
   10      H      -2.3946049199     0.9555296561     0.3880385520
   11      H      -0.7750245053     2.6431793825    -0.9081502615
   12      C      -0.5397235176    -0.0597518050     0.9828695796
   13      H      -0.9358023642    -0.7826336659     1.6885674101
 ----------------------------------------------------------------
 Nuclear Repulsion Energy =   263.5592546053 hartrees
 There are       25 alpha and       24 beta electrons
 Requested basis set is 6-31G(d)
 There are 40 shells and 117 basis functions

 Total QAlloc Memory Limit   8000 MB
 Mega-Array Size      1956 MB
 MEM_STATIC part      2000 MB

                       Distance Matrix (Angstroms)
             C (  1)   C (  2)   C (  3)   C (  4)   C (  5)   N (  6)
   C (  2)  1.531615
   C (  3)  2.410743  1.314888
   C (  4)  2.360752  3.234152  3.191046
   C (  5)  2.223108  3.228028  3.629638  1.451353
   N (  6)  1.464321  2.517607  3.350979  2.317035  1.284534
   H (  7)  1.107653  2.156027  3.226217  3.275428  3.029776  2.053724
   H (  8)  2.290442  1.092612  2.126037  4.248720  4.006043  3.066102
   H (  9)  3.489761  2.240200  1.085095  4.070891  4.571984  4.362504
   H ( 10)  3.423500  4.132127  3.814142  1.087609  2.256937  3.329029
   H ( 11)  3.271375  4.220447  4.596468  2.239445  1.091969  2.075009
   C ( 12)  1.617870  2.421545  2.432466  1.363351  2.274982  2.428950
   H ( 13)  2.482769  2.971351  2.653987  2.156911  3.316885  3.497393
             H (  7)   H (  8)   H (  9)   H ( 10)   H ( 11)   C ( 12)
   H (  8)  2.529492
   H (  9)  4.260659  2.731585
   H ( 10)  4.343566  5.174484  4.516376
   H ( 11)  3.986692  4.911667  5.466997  2.674193
   C ( 12)  2.427879  3.470843  3.403577  2.196635  3.307138
   H ( 13)  3.090051  4.004626  3.433552  2.615472  4.301742  1.085102

 
 A cutoff of  1.0D-14 yielded    799 shell pairs
 There are      7071 function pairs
 Smallest overlap matrix eigenvalue = 1.50E-03
 Guess MOs from SCF MO coefficient file
 Reading MOs from coefficient file
 Reading MOs from coefficient file
 An unrestricted hybrid HF-DFT SCF calculation will be
 performed using Pulay DIIS extrapolation
 Exchange:     0.2000 Hartree-Fock + 0.0800 Slater + 0.7200 B88
 Correlation:  0.1900 VWN1RPA + 0.8100 LYP
 Using SG-1 standard quadrature grid
 SCF converges when DIIS error is below 1.0E-08
Using Q-Chem read-in guess as SCF_GUESS READ specified.

 -------------------------------------------------------
 OpenMP BLAS3 based DFT computing Module                
 -------------------------------------------------------
 ---------------------------------------
  Cycle       Energy         DIIS Error
 ---------------------------------------
    1    -286.8279571125      1.76E-09
    2    -286.8279571125      2.13E-09 Convergence criterion met
 ---------------------------------------
 <S^2> = 0.7689
 SCF time:  CPU 3.27 s  wall 4.84 s
 SCF   energy in the final basis set = -286.82795711
 Total energy in the final basis set = -286.82795711
 
 --------------------------------------------------------------
 
                    Orbital Energies (a.u.)
 --------------------------------------------------------------
 
 Alpha MOs
 -- Occupied --
-14.321 -10.235 -10.222 -10.212 -10.205 -10.200 -10.195  -0.941
 -0.793  -0.760  -0.692  -0.599  -0.551  -0.529  -0.512  -0.475
 -0.426  -0.413  -0.395  -0.359  -0.325  -0.282  -0.270  -0.257
 -0.207
 -- Virtual --
 -0.037   0.014   0.071   0.118   0.125   0.134   0.156   0.161
  0.168   0.193   0.232   0.276   0.294   0.346   0.396   0.435
  0.493   0.503   0.531   0.548   0.560   0.580   0.605   0.614
  0.623   0.647   0.667   0.685   0.688   0.725   0.736   0.796
  0.807   0.835   0.854   0.855   0.875   0.886   0.905   0.922
  0.922   0.994   1.055   1.056   1.127   1.208   1.254   1.319
  1.399   1.440   1.463   1.481   1.514   1.553   1.579   1.626
  1.686   1.752   1.800   1.843   1.902   1.918   1.946   1.974
  2.013   2.050   2.110   2.185   2.211   2.259   2.284   2.310
  2.337   2.414   2.515   2.550   2.575   2.590   2.647   2.712
  2.728   2.793   2.858   2.968   2.990   3.933   4.053   4.150
  4.225   4.308   4.423   4.581
 
 Beta MOs
 -- Occupied --
-14.319 -10.234 -10.223 -10.213 -10.202 -10.193 -10.190  -0.939
 -0.784  -0.757  -0.683  -0.592  -0.547  -0.521  -0.509  -0.466
 -0.418  -0.411  -0.394  -0.356  -0.319  -0.273  -0.255  -0.249
 -- Virtual --
 -0.073  -0.030   0.027   0.077   0.120   0.127   0.139   0.159
  0.164   0.170   0.195   0.232   0.279   0.298   0.348   0.414
  0.437   0.498   0.518   0.534   0.548   0.575   0.584   0.609
  0.619   0.627   0.648   0.672   0.689   0.693   0.734   0.745
  0.800   0.808   0.836   0.856   0.858   0.879   0.897   0.908
  0.928   0.929   0.999   1.059   1.064   1.130   1.210   1.257
  1.327   1.402   1.444   1.471   1.484   1.518   1.559   1.585
  1.628   1.723   1.758   1.824   1.852   1.915   1.928   1.956
  1.991   2.020   2.052   2.116   2.195   2.216   2.264   2.284
  2.313   2.339   2.421   2.517   2.553   2.578   2.593   2.652
  2.718   2.730   2.805   2.872   2.968   2.991   3.935   4.066
  4.167   4.225   4.312   4.425   4.581
 --------------------------------------------------------------
 
          Ground-State Mulliken Net Atomic Charges

     Atom                 Charge (a.u.)    Spin (a.u.)
  --------------------------------------------------------
      1 C                    -0.059952       0.045070
      2 C                    -0.108421      -0.156959
      3 C                    -0.174544       0.960183
      4 C                    -0.122987       0.144223
      5 C                     0.063859      -0.044841
      6 N                    -0.361203       0.074447
      7 H                     0.162650       0.001604
      8 H                     0.153510       0.061020
      9 H                     0.154336       0.012716
     10 H                     0.143032      -0.006725
     11 H                     0.141689       0.001364
     12 C                    -0.151689      -0.100315
     13 H                     0.159718       0.008212
  --------------------------------------------------------
  Sum of atomic charges =    -0.000000
  Sum of spin   charges =     1.000000

 -----------------------------------------------------------------
                    Cartesian Multipole Moments
 -----------------------------------------------------------------
    Charge (ESU x 10^10)
                 0.0000
    Dipole Moment (Debye)
         X      -1.1924      Y      -1.1605      Z       0.7219
       Tot       1.8137
    Quadrupole Moments (Debye-Ang)
        XX     -38.0733     XY      -3.7499     YY     -39.4717
        XZ       0.9349     YZ       1.0271     ZZ     -41.1816
    Octopole Moments (Debye-Ang^2)
       XXX      -8.1618    XXY      -6.9485    XYY     -11.3785
       YYY     -18.8008    XXZ       3.2472    XYZ       4.9259
       YYZ      -4.8869    XZZ      -3.5744    YZZ      -8.1943
       ZZZ       5.1932
    Hexadecapole Moments (Debye-Ang^3)
      XXXX    -231.5629   XXXY      23.7939   XXYY    -119.9582
      XYYY      28.6697   YYYY    -417.8872   XXXZ      24.5173
      XXYZ       0.9361   XYYZ      14.3086   YYYZ      -2.5178
      XXZZ     -63.7149   XYZZ      12.6679   YYZZ     -93.3388
      XZZZ      25.7763   YZZZ     -13.6702   ZZZZ    -138.8778
 -----------------------------------------------------------------
 Calculating MO derivatives via CPSCF
   1         3          39      0.273205    0.061583
   2         3          39      0.028222    0.005781
   3         3          39      0.003889    0.000589
   4         3          39      0.000459    0.000068
   5        29          13      0.000032    0.000006
   6        42           0      0.000000    0.000000    Roots Converged
 Time for AOints: 5.8 s (CPU) 6.1 s (wall)
 ------------------------------------------------------------------------------
                     AOints        : Timing summary (seconds)
 ------------------------------------------------------------------------------
     job step          cpu (% of tot)      sys (% of tot)     wall (% of tot)
 ------------------------------------------------------------------------------
  cpscf_lag         0.5434E+02 (28.9)   0.2600E-04 (41.3)   0.5654E+02 (29.3)
  iterzp            0.1275E+03 (67.9)   0.3700E-04 (58.7)   0.1299E+03 (67.4)
  make_fx           0.0000E+00 ( 0.0)   0.0000E+00 ( 0.0)   0.0000E+00 ( 0.0)
  AOints            0.5784E+01 ( 3.1)   0.0000E+00 ( 0.0)   0.6086E+01 ( 3.2)
 ------------------------------------------------------------------------------
   Grand Totals     0.1878E+03          0.6300E-04          0.1926E+03
 ------------------------------------------------------------------------------
 Calculating analytic Hessian of the SCF energy
 Polarizability Matrix (a.u.)
            1           2           3
    1 -68.1887907   4.6961195   3.3592578
    2   4.6961195 -75.9609478   1.1109699
    3   3.3592578   1.1109699 -43.5450355
 
 Direct stationary perturbation theory relativistic correction:
 
 rels  =       0.069231029987
 relv  =      -0.335853547290
 rel2e =       0.153621417318
 E_rel =      -0.113001099986
 
 Hessian of the SCF Energy
            1           2           3           4           5           6
    1   0.4946371  -0.0206302   0.1226690  -0.0693206   0.0055120   0.0051526
    2  -0.0206302   0.4012908   0.0249402   0.0231229  -0.1141976  -0.0485339
    3   0.1226690   0.0249402   0.3887170   0.0140057  -0.0566538  -0.1019434
    4  -0.0693206   0.0231229   0.0140057   0.7543615   0.1854044  -0.1009410
    5   0.0055120  -0.1141976  -0.0566538   0.1854044   0.4600509   0.1345598
    6   0.0051526  -0.0485339  -0.1019434  -0.1009410   0.1345598   0.2421699
    7   0.0012642  -0.0164369  -0.0083632  -0.4242419  -0.2398685  -0.0065788
    8  -0.0272730  -0.0296065  -0.0039553  -0.2764078  -0.2318824  -0.0207919
    9  -0.0190270  -0.0110389  -0.0029828  -0.0300094  -0.0364647  -0.0453418
   10  -0.0329030   0.0104218  -0.0086888   0.0004028  -0.0014039   0.0016120
   11   0.0147555  -0.0060417  -0.0067556  -0.0015205  -0.0011821   0.0010973
   12  -0.0016879   0.0023827  -0.0002178   0.0020027  -0.0028206   0.0003999
   13  -0.0322527   0.0386761  -0.0081839  -0.0036858  -0.0070852  -0.0007353
   14   0.0431496  -0.0315651   0.0118575  -0.0009884  -0.0027838   0.0047149
   15  -0.0192562   0.0131838  -0.0063633   0.0032223   0.0009939  -0.0027253
   16  -0.0696644   0.0146383  -0.0192878   0.0022571   0.0105562  -0.0032476
   17  -0.0247574  -0.1197444   0.0559904  -0.0014221  -0.0395807   0.0061294
   18   0.0060097   0.0250864  -0.1111696   0.0019698  -0.0036796   0.0176871
   19  -0.2193447  -0.0279749  -0.1104488   0.0034954  -0.0004014   0.0019863
   20  -0.0296999  -0.0392947  -0.0195831  -0.0225202  -0.0072895  -0.0185693
   21  -0.1013112  -0.0137987  -0.1164805  -0.0167970  -0.0060361  -0.0103240
   22   0.0013289  -0.0034762   0.0000954  -0.2519432   0.0589504   0.1049765
   23   0.0192412  -0.0039119  -0.0122659   0.0543834  -0.0611694  -0.0331102
   24   0.0143829  -0.0058952  -0.0011089   0.1021227  -0.0328243  -0.0885872
   25  -0.0011192  -0.0019655   0.0031929   0.0030783  -0.0203178  -0.0127198
   26  -0.0046903   0.0016798  -0.0043633   0.0095639  -0.0023525  -0.0055936
   27   0.0023617  -0.0033317   0.0063576   0.0046663   0.0054894   0.0028589
   28  -0.0009783  -0.0003609   0.0000170  -0.0003461   0.0000656   0.0001372
   29   0.0038028   0.0001129   0.0077875  -0.0011526   0.0002138   0.0005248
   30   0.0017059   0.0071957   0.0033596  -0.0021256  -0.0001949   0.0010602
   31  -0.0036762   0.0027522   0.0024520   0.0000913   0.0007468  -0.0011233
   32   0.0023527   0.0061174   0.0059136  -0.0001296   0.0012270  -0.0011505
   33   0.0037765   0.0070010   0.0102558  -0.0006971   0.0023357  -0.0014747
   34  -0.0743795  -0.0080445   0.0076205  -0.0140406   0.0089252   0.0123374
   35   0.0170164  -0.0659106   0.0007276   0.0335784  -0.0012511  -0.0198099
   36  -0.0109711   0.0025900  -0.0684863   0.0243058  -0.0045433  -0.0141815
   37   0.0064083  -0.0107221   0.0049200  -0.0001081  -0.0010838  -0.0008562
   38   0.0012205   0.0010715  -0.0036399  -0.0019117   0.0001975   0.0005330
   39  -0.0038048   0.0002186   0.0000627  -0.0017253  -0.0001614   0.0004019
            7           8           9          10          11          12
    1   0.0012642  -0.0272730  -0.0190270  -0.0329030   0.0147555  -0.0016879
    2  -0.0164369  -0.0296065  -0.0110389   0.0104218  -0.0060417   0.0023827
    3  -0.0083632  -0.0039553  -0.0029828  -0.0086888  -0.0067556  -0.0002178
    4  -0.4242419  -0.2764078  -0.0300094   0.0004028  -0.0015205   0.0020027
    5  -0.2398685  -0.2318824  -0.0364647  -0.0014039  -0.0011821  -0.0028206
    6  -0.0065788  -0.0207919  -0.0453418   0.0016120   0.0010973   0.0003999
    7   0.5052524   0.3688307   0.0625099  -0.0031149   0.0083901  -0.0060571
    8   0.3688307   0.5168231   0.1566226   0.0058189  -0.0137949   0.0050862
    9   0.0625099   0.1566226   0.1233272   0.0045273  -0.0109385   0.0071919
   10  -0.0031149   0.0058189   0.0045273   0.7871069  -0.1035287  -0.0010391
   11   0.0083901  -0.0137949  -0.0109385  -0.1035287   0.4298785  -0.2251729
   12  -0.0060571   0.0050862   0.0071919  -0.0010391  -0.2251729   0.2961194
   13  -0.0032814   0.0043191   0.0060304  -0.1488904  -0.0282798   0.0350562
   14   0.0019772  -0.0011241  -0.0001069  -0.0557894  -0.1438959   0.0675740
   15   0.0013141  -0.0020880  -0.0015845   0.0553979   0.0644564  -0.1210625
   16  -0.0003063  -0.0020490  -0.0022884  -0.0596493  -0.0329052   0.0444017
   17   0.0019548   0.0032393   0.0048495  -0.0043969   0.0240594   0.0056236
   18   0.0018865  -0.0042383  -0.0012321   0.0261817   0.0109761   0.0144588
   19  -0.0000396  -0.0000116  -0.0005025  -0.0033951  -0.0010673   0.0004507
   20   0.0008210  -0.0021864  -0.0035497  -0.0003721  -0.0006120   0.0015668
   21   0.0005347  -0.0024577  -0.0022928   0.0041552   0.0000438  -0.0021664
   22  -0.0231151  -0.0003013   0.0127750   0.0008925  -0.0008696   0.0012412
   23  -0.0194799   0.0064961   0.0023478   0.0003528  -0.0013067   0.0011169
   24   0.0013599  -0.0036925   0.0123279   0.0007667   0.0008635   0.0005160
   25  -0.0579229  -0.0705957  -0.0316854  -0.0001928   0.0007661   0.0007412
   26  -0.0956015  -0.2672734  -0.1171178   0.0002451  -0.0001528  -0.0001463
   27  -0.0480019  -0.1270758  -0.0866731   0.0002776  -0.0003192  -0.0008015
   28  -0.0000117  -0.0001762  -0.0001106  -0.3419957   0.0179908   0.0064178
   29  -0.0005246   0.0002885  -0.0000033   0.0148989  -0.0497075   0.0115954
   30  -0.0006220   0.0003458   0.0001272   0.0023712   0.0128545  -0.0442618
   31  -0.0003512   0.0004415   0.0002828   0.0107565  -0.0143747   0.0080394
   32  -0.0004302   0.0002404   0.0000533   0.0076140  -0.0058653   0.0053175
   33  -0.0002933  -0.0000464  -0.0000226  -0.0059862   0.0118044  -0.0006807
   34   0.0049993  -0.0028242  -0.0023411  -0.2208910   0.1269241  -0.0762151
   35  -0.0119202   0.0219923   0.0208691   0.1350104  -0.2217887   0.1143841
   36  -0.0003813   0.0063615   0.0022226  -0.0893628   0.1374773  -0.1493286
   37   0.0008692   0.0002287  -0.0001611   0.0118735   0.0137193  -0.0133516
   38   0.0022880  -0.0032121  -0.0055226  -0.0088709  -0.0095903   0.0134927
   39   0.0026926  -0.0040703  -0.0050672   0.0097872   0.0036128  -0.0001666
           13          14          15          16          17          18
    1  -0.0322527   0.0431496  -0.0192562  -0.0696644  -0.0247574   0.0060097
    2   0.0386761  -0.0315651   0.0131838   0.0146383  -0.1197444   0.0250864
    3  -0.0081839   0.0118575  -0.0063633  -0.0192878   0.0559904  -0.1111696
    4  -0.0036858  -0.0009884   0.0032223   0.0022571  -0.0014221   0.0019698
    5  -0.0070852  -0.0027838   0.0009939   0.0105562  -0.0395807  -0.0036796
    6  -0.0007353   0.0047149  -0.0027253  -0.0032476   0.0061294   0.0176871
    7  -0.0032814   0.0019772   0.0013141  -0.0003063   0.0019548   0.0018865
    8   0.0043191  -0.0011241  -0.0020880  -0.0020490   0.0032393  -0.0042383
    9   0.0060304  -0.0001069  -0.0015845  -0.0022884   0.0048495  -0.0012321
   10  -0.1488904  -0.0557894   0.0553979  -0.0596493  -0.0043969   0.0261817
   11  -0.0282798  -0.1438959   0.0644564  -0.0329052   0.0240594   0.0109761
   12   0.0350562   0.0675740  -0.1210625   0.0444017   0.0056236   0.0144588
   13   0.7546712  -0.1735947  -0.0213658  -0.5091417   0.1455677   0.0000438
   14  -0.1735947   0.5870202  -0.2514123   0.1177086  -0.1310331   0.0234701
   15  -0.0213658  -0.2514123   0.3219422   0.0206319   0.0176387  -0.0725534
   16  -0.5091417   0.1177086   0.0206319   0.6800074  -0.1364544  -0.0339403
   17   0.1455677  -0.1310331   0.0176387  -0.1364544   0.2972279  -0.1077353
   18   0.0000438   0.0234701  -0.0725534  -0.0339403  -0.1077353   0.1902766
   19   0.0010220  -0.0012674  -0.0013996  -0.0026957   0.0039501  -0.0035258
   20   0.0015288  -0.0045003   0.0024194   0.0241707  -0.0028580   0.0234787
   21  -0.0003197   0.0043709  -0.0015228  -0.0190735   0.0031577  -0.0140507
   22   0.0002469  -0.0003777  -0.0002707   0.0001699   0.0002030  -0.0008777
   23   0.0030654   0.0001643  -0.0010555  -0.0019241   0.0041888  -0.0006418
   24  -0.0002925  -0.0003178   0.0001727  -0.0001757  -0.0013759  -0.0020603
   25   0.0001215  -0.0012299   0.0002396   0.0005797   0.0003744  -0.0016316
   26  -0.0001036   0.0003771   0.0000574  -0.0000301   0.0005002   0.0007969
   27  -0.0006072   0.0000364   0.0000834   0.0004005  -0.0022876  -0.0004188
   28  -0.0066623   0.0059731  -0.0041577  -0.0024829   0.0000166   0.0006948
   29  -0.0152986   0.0071205  -0.0049539  -0.0045225  -0.0002221   0.0042773
   30   0.0150740  -0.0060644   0.0024397   0.0041463   0.0031039  -0.0005629
   31  -0.0781351   0.0590553  -0.0290388  -0.0125488   0.0303386  -0.0179438
   32   0.0610165  -0.2460730   0.1122223   0.0073874  -0.0070249  -0.0007647
   33  -0.0296171   0.1100552  -0.1061152  -0.0038895  -0.0069541  -0.0007925
   34   0.0309453   0.0018957  -0.0051435  -0.0241042  -0.0116558   0.0163429
   35  -0.0317178  -0.0334772   0.0431315   0.0019259  -0.0290391   0.0275006
   36   0.0052817   0.0304321  -0.0152984   0.0128768   0.0216867  -0.0216549
   37  -0.0049574   0.0034881  -0.0001735  -0.0024207  -0.0037186   0.0047901
   38   0.0019061  -0.0002297   0.0054062   0.0014982   0.0002865   0.0014736
   39  -0.0003645   0.0053903   0.0025874  -0.0005544   0.0001729   0.0020726
           19          20          21          22          23          24
    1  -0.2193447  -0.0296999  -0.1013112   0.0013289   0.0192412   0.0143829
    2  -0.0279749  -0.0392947  -0.0137987  -0.0034762  -0.0039119  -0.0058952
    3  -0.1104488  -0.0195831  -0.1164805   0.0000954  -0.0122659  -0.0011089
    4   0.0034954  -0.0225202  -0.0167970  -0.2519432   0.0543834   0.1021227
    5  -0.0004014  -0.0072895  -0.0060361   0.0589504  -0.0611694  -0.0328243
    6   0.0019863  -0.0185693  -0.0103240   0.1049765  -0.0331102  -0.0885872
    7  -0.0000396   0.0008210   0.0005347  -0.0231151  -0.0194799   0.0013599
    8  -0.0000116  -0.0021864  -0.0024577  -0.0003013   0.0064961  -0.0036925
    9  -0.0005025  -0.0035497  -0.0022928   0.0127750   0.0023478   0.0123279
   10  -0.0033951  -0.0003721   0.0041552   0.0008925   0.0003528   0.0007667
   11  -0.0010673  -0.0006120   0.0000438  -0.0008696  -0.0013067   0.0008635
   12   0.0004507   0.0015668  -0.0021664   0.0012412   0.0011169   0.0005160
   13   0.0010220   0.0015288  -0.0003197   0.0002469   0.0030654  -0.0002925
   14  -0.0012674  -0.0045003   0.0043709  -0.0003777   0.0001643  -0.0003178
   15  -0.0013996   0.0024194  -0.0015228  -0.0002707  -0.0010555   0.0001727
   16  -0.0026957   0.0241707  -0.0190735   0.0001699  -0.0019241  -0.0001757
   17   0.0039501  -0.0028580   0.0031577   0.0002030   0.0041888  -0.0013759
   18  -0.0035258   0.0234787  -0.0140507  -0.0008777  -0.0006418  -0.0020603
   19   0.2276579   0.0253315   0.1238076   0.0004636  -0.0005462  -0.0001208
   20   0.0253315   0.0596000   0.0148230   0.0007070   0.0008629   0.0014842
   21   0.1238076   0.0148230   0.1323406   0.0004395   0.0005219   0.0011733
   22   0.0004636   0.0007070   0.0004395   0.2709715  -0.0562585  -0.1170469
   23  -0.0005462   0.0008629   0.0005219  -0.0562585   0.0569594   0.0440891
   24  -0.0001208   0.0014842   0.0011733  -0.1170469   0.0440891   0.0801526
   25   0.0003120   0.0000475  -0.0001316   0.0020041   0.0019005  -0.0007966
   26   0.0000538  -0.0015926  -0.0008358  -0.0004260  -0.0008019   0.0016542
   27  -0.0003606   0.0013071   0.0006304  -0.0020825   0.0007081  -0.0020731
   28  -0.0003004   0.0002079   0.0002397   0.0000386   0.0001325   0.0001282
   29   0.0012986   0.0000790  -0.0015738   0.0001140   0.0000942   0.0000999
   30   0.0004533   0.0001216  -0.0004496   0.0001823   0.0005232   0.0003769
   31  -0.0001097   0.0005078  -0.0005278   0.0000112   0.0000916   0.0000853
   32   0.0005144  -0.0015410   0.0006605   0.0000522   0.0000176   0.0000321
   33   0.0001763  -0.0019461   0.0011674  -0.0000400   0.0001898   0.0001237
   34  -0.0061535  -0.0004992   0.0087068  -0.0007487  -0.0016259  -0.0003307
   35  -0.0000849  -0.0006902   0.0015517   0.0015892  -0.0014491  -0.0045395
   36  -0.0109541  -0.0014055   0.0126891   0.0007185  -0.0022348  -0.0012450
   37  -0.0009123  -0.0002309   0.0002773  -0.0003202   0.0006670  -0.0000825
   38   0.0002052   0.0000228  -0.0004275   0.0000935  -0.0001445   0.0004223
   39   0.0004381  -0.0001470  -0.0007139  -0.0001106  -0.0001886   0.0002314
           25          26          27          28          29          30
    1  -0.0011192  -0.0046903   0.0023617  -0.0009783   0.0038028   0.0017059
    2  -0.0019655   0.0016798  -0.0033317  -0.0003609   0.0001129   0.0071957
    3   0.0031929  -0.0043633   0.0063576   0.0000170   0.0077875   0.0033596
    4   0.0030783   0.0095639   0.0046663  -0.0003461  -0.0011526  -0.0021256
    5  -0.0203178  -0.0023525   0.0054894   0.0000656   0.0002138  -0.0001949
    6  -0.0127198  -0.0055936   0.0028589   0.0001372   0.0005248   0.0010602
    7  -0.0579229  -0.0956015  -0.0480019  -0.0000117  -0.0005246  -0.0006220
    8  -0.0705957  -0.2672734  -0.1270758  -0.0001762   0.0002885   0.0003458
    9  -0.0316854  -0.1171178  -0.0866731  -0.0001106  -0.0000033   0.0001272
   10  -0.0001928   0.0002451   0.0002776  -0.3419957   0.0148989   0.0023712
   11   0.0007661  -0.0001528  -0.0003192   0.0179908  -0.0497075   0.0128545
   12   0.0007412  -0.0001463  -0.0008015   0.0064178   0.0115954  -0.0442618
   13   0.0001215  -0.0001036  -0.0006072  -0.0066623  -0.0152986   0.0150740
   14  -0.0012299   0.0003771   0.0000364   0.0059731   0.0071205  -0.0060644
   15   0.0002396   0.0000574   0.0000834  -0.0041577  -0.0049539   0.0024397
   16   0.0005797  -0.0000301   0.0004005  -0.0024829  -0.0045225   0.0041463
   17   0.0003744   0.0005002  -0.0022876   0.0000166  -0.0002221   0.0031039
   18  -0.0016316   0.0007969  -0.0004188   0.0006948   0.0042773  -0.0005629
   19   0.0003120   0.0000538  -0.0003606  -0.0003004   0.0012986   0.0004533
   20   0.0000475  -0.0015926   0.0013071   0.0002079   0.0000790   0.0001216
   21  -0.0001316  -0.0008358   0.0006304   0.0002397  -0.0015738  -0.0004496
   22   0.0020041  -0.0004260  -0.0020825   0.0000386   0.0001140   0.0001823
   23   0.0019005  -0.0008019   0.0007081   0.0001325   0.0000942   0.0005232
   24  -0.0007966   0.0016542  -0.0020731   0.0001282   0.0000999   0.0003769
   25   0.0541679   0.0911799   0.0432394   0.0000237   0.0001238   0.0001646
   26   0.0911799   0.2698248   0.1252819   0.0000606  -0.0000776  -0.0000400
   27   0.0432394   0.1252819   0.0795236   0.0000022  -0.0000214   0.0000298
   28   0.0000237   0.0000606   0.0000022   0.3598921  -0.0210259  -0.0065688
   29   0.0001238  -0.0000776  -0.0000214  -0.0210259   0.0414125  -0.0123816
   30   0.0001646  -0.0000400   0.0000298  -0.0065688  -0.0123816   0.0340828
   31   0.0001519  -0.0000478   0.0000854   0.0000465   0.0007717  -0.0007263
   32   0.0001752  -0.0001263   0.0000400  -0.0005236  -0.0002065  -0.0001076
   33   0.0000894  -0.0000735   0.0001402   0.0004198  -0.0002854  -0.0004311
   34  -0.0012708  -0.0001891  -0.0000981  -0.0076516   0.0225618  -0.0141203
   35  -0.0006857   0.0000860   0.0003243  -0.0025198   0.0020333  -0.0030162
   36  -0.0007173   0.0004107   0.0006359   0.0031615  -0.0030331   0.0062952
   37   0.0000666  -0.0000150   0.0001172   0.0004282  -0.0010474   0.0000654
   38   0.0002273  -0.0000907  -0.0001514   0.0001591  -0.0011411  -0.0023401
   39   0.0000153  -0.0000309  -0.0002934  -0.0003812  -0.0020324  -0.0020660
           31          32          33          34          35          36
    1  -0.0036762   0.0023527   0.0037765  -0.0743795   0.0170164  -0.0109711
    2   0.0027522   0.0061174   0.0070010  -0.0080445  -0.0659106   0.0025900
    3   0.0024520   0.0059136   0.0102558   0.0076205   0.0007276  -0.0684863
    4   0.0000913  -0.0001296  -0.0006971  -0.0140406   0.0335784   0.0243058
    5   0.0007468   0.0012270   0.0023357   0.0089252  -0.0012511  -0.0045433
    6  -0.0011233  -0.0011505  -0.0014747   0.0123374  -0.0198099  -0.0141815
    7  -0.0003512  -0.0004302  -0.0002933   0.0049993  -0.0119202  -0.0003813
    8   0.0004415   0.0002404  -0.0000464  -0.0028242   0.0219923   0.0063615
    9   0.0002828   0.0000533  -0.0000226  -0.0023411   0.0208691   0.0022226
   10   0.0107565   0.0076140  -0.0059862  -0.2208910   0.1350104  -0.0893628
   11  -0.0143747  -0.0058653   0.0118044   0.1269241  -0.2217887   0.1374773
   12   0.0080394   0.0053175  -0.0006807  -0.0762151   0.1143841  -0.1493286
   13  -0.0781351   0.0610165  -0.0296171   0.0309453  -0.0317178   0.0052817
   14   0.0590553  -0.2460730   0.1100552   0.0018957  -0.0334772   0.0304321
   15  -0.0290388   0.1122223  -0.1061152  -0.0051435   0.0431315  -0.0152984
   16  -0.0125488   0.0073874  -0.0038895  -0.0241042   0.0019259   0.0128768
   17   0.0303386  -0.0070249  -0.0069541  -0.0116558  -0.0290391   0.0216867
   18  -0.0179438  -0.0007647  -0.0007925   0.0163429   0.0275006  -0.0216549
   19  -0.0001097   0.0005144   0.0001763  -0.0061535  -0.0000849  -0.0109541
   20   0.0005078  -0.0015410  -0.0019461  -0.0004992  -0.0006902  -0.0014055
   21  -0.0005278   0.0006605   0.0011674   0.0087068   0.0015517   0.0126891
   22   0.0000112   0.0000522  -0.0000400  -0.0007487   0.0015892   0.0007185
   23   0.0000916   0.0000176   0.0001898  -0.0016259  -0.0014491  -0.0022348
   24   0.0000853   0.0000321   0.0001237  -0.0003307  -0.0045395  -0.0012450
   25   0.0001519   0.0001752   0.0000894  -0.0012708  -0.0006857  -0.0007173
   26  -0.0000478  -0.0001263  -0.0000735  -0.0001891   0.0000860   0.0004107
   27   0.0000854   0.0000400   0.0001402  -0.0000981   0.0003243   0.0006359
   28   0.0000465  -0.0005236   0.0004198  -0.0076516  -0.0025198   0.0031615
   29   0.0007717  -0.0002065  -0.0002854   0.0225618   0.0020333  -0.0030331
   30  -0.0007263  -0.0001076  -0.0004311  -0.0141203  -0.0030162   0.0062952
   31   0.0857764  -0.0772272   0.0348568  -0.0032103  -0.0024548   0.0029696
   32  -0.0772272   0.2548272  -0.1247433  -0.0014469  -0.0012964   0.0024078
   33   0.0348568  -0.1247433   0.0982457   0.0017797   0.0024042   0.0001098
   34  -0.0032103  -0.0014469   0.0017797   0.4094904  -0.0660032  -0.0166523
   35  -0.0024548  -0.0012964   0.0024042  -0.0660032   0.5034057  -0.3340210
   36   0.0029696   0.0024078   0.0001098  -0.0166523  -0.3340210   0.4129995
   37   0.0011974   0.0006452  -0.0005752  -0.0929846  -0.0737340   0.0797250
   38  -0.0006009  -0.0002962   0.0002585  -0.0680179  -0.1726148   0.1438717
   39   0.0005888   0.0001190  -0.0005258   0.0681138   0.1504937  -0.1647575
           37          38          39
    1   0.0064083   0.0012205  -0.0038048
    2  -0.0107221   0.0010715   0.0002186
    3   0.0049200  -0.0036399   0.0000627
    4  -0.0001081  -0.0019117  -0.0017253
    5  -0.0010838   0.0001975  -0.0001614
    6  -0.0008562   0.0005330   0.0004019
    7   0.0008692   0.0022880   0.0026926
    8   0.0002287  -0.0032121  -0.0040703
    9  -0.0001611  -0.0055226  -0.0050672
   10   0.0118735  -0.0088709   0.0097872
   11   0.0137193  -0.0095903   0.0036128
   12  -0.0133516   0.0134927  -0.0001666
   13  -0.0049574   0.0019061  -0.0003645
   14   0.0034881  -0.0002297   0.0053903
   15  -0.0001735   0.0054062   0.0025874
   16  -0.0024207   0.0014982  -0.0005544
   17  -0.0037186   0.0002865   0.0001729
   18   0.0047901   0.0014736   0.0020726
   19  -0.0009123   0.0002052   0.0004381
   20  -0.0002309   0.0000228  -0.0001470
   21   0.0002773  -0.0004275  -0.0007139
   22  -0.0003202   0.0000935  -0.0001106
   23   0.0006670  -0.0001445  -0.0001886
   24  -0.0000825   0.0004223   0.0002314
   25   0.0000666   0.0002273   0.0000153
   26  -0.0000150  -0.0000907  -0.0000309
   27   0.0001172  -0.0001514  -0.0002934
   28   0.0004282   0.0001591  -0.0003812
   29  -0.0010474  -0.0011411  -0.0020324
   30   0.0000654  -0.0023401  -0.0020660
   31   0.0011974  -0.0006009   0.0005888
   32   0.0006452  -0.0002962   0.0001190
   33  -0.0005752   0.0002585  -0.0005258
   34  -0.0929846  -0.0680179   0.0681138
   35  -0.0737340  -0.1726148   0.1504937
   36   0.0797250   0.1438717  -0.1647575
   37   0.0808602   0.0718034  -0.0746948
   38   0.0718034   0.1857409  -0.1533766
   39  -0.0746948  -0.1533766   0.1682345
 Gradient time:  CPU 250.22 s  wall 259.01 s
 **********************************************************************
 **                                                                  **
 **                       VIBRATIONAL ANALYSIS                       **
 **                       --------------------                       **
 **                                                                  **
 **        VIBRATIONAL FREQUENCIES (CM**-1) AND NORMAL MODES         **
 **     FORCE CONSTANTS (mDYN/ANGSTROM) AND REDUCED MASSES (AMU)     **
 **                  INFRARED INTENSITIES (KM/MOL)                   **
 **                                                                  **
 **********************************************************************
 

 Mode:                 1                      2                      3
 Frequency:        73.19                 147.14                 263.11
 Force Cnst:      0.0136                 0.0465                 0.1110
 Red. Mass:       4.2969                 3.6424                 2.7218
 IR Active:          YES                    YES                    YES
 IR Intens:        1.102                  0.705                  6.806
 Raman Active:       YES                    YES                    YES
               X      Y      Z        X      Y      Z        X      Y      Z
 C          0.115  0.019 -0.011   -0.053 -0.035 -0.089    0.002 -0.010 -0.118
 C          0.003  0.060 -0.072   -0.026  0.016 -0.149    0.139 -0.152  0.130
 C         -0.169  0.267  0.252    0.121 -0.233  0.243   -0.018  0.082  0.000
 C          0.006 -0.171 -0.138   -0.017  0.078 -0.029   -0.019  0.042  0.045
 C         -0.001 -0.064 -0.004    0.042  0.143  0.108   -0.029  0.113  0.117
 N          0.046  0.062  0.082    0.019  0.060  0.050   -0.059  0.018 -0.092
 H          0.097 -0.012  0.022   -0.072 -0.108 -0.037   -0.054  0.139 -0.059
 H         -0.126 -0.016 -0.284   -0.119  0.222 -0.453    0.252 -0.464  0.538
 H         -0.491  0.317  0.356    0.160 -0.314  0.377   -0.120  0.015  0.199
 H          0.000 -0.255 -0.219   -0.012  0.152 -0.015   -0.014  0.084  0.128
 H         -0.038 -0.063  0.023    0.107  0.241  0.245   -0.012  0.219  0.299
 C          0.034 -0.176 -0.117   -0.083 -0.049 -0.138   -0.014 -0.087 -0.147
 H          0.071 -0.047  0.038   -0.137 -0.062 -0.182    0.021 -0.111 -0.153
 TransDip  -0.034  0.000  0.002   -0.006  0.012 -0.023    0.009 -0.022  0.080

 Mode:                 4                      5                      6
 Frequency:       337.07                 570.61                 601.55
 Force Cnst:      0.2441                 0.4737                 0.6545
 Red. Mass:       3.6466                 2.4695                 3.0697
 IR Active:          YES                    YES                    YES
 IR Intens:        5.747                 15.094                  0.967
 Raman Active:       YES                    YES                    YES
               X      Y      Z        X      Y      Z        X      Y      Z
 C          0.043  0.079 -0.058    0.014 -0.025 -0.052    0.051 -0.067 -0.076
 C         -0.152 -0.091  0.064    0.066 -0.067 -0.122    0.139 -0.088 -0.126
 C         -0.101 -0.168 -0.059    0.008  0.009 -0.030    0.053  0.046 -0.014
 C          0.022 -0.153 -0.141   -0.024  0.087  0.088   -0.106 -0.066 -0.134
 C         -0.022  0.067  0.032   -0.052 -0.097 -0.143    0.012  0.035  0.083
 N          0.026  0.221  0.097    0.022  0.121  0.177   -0.025 -0.049  0.009
 H          0.144 -0.049 -0.192   -0.004 -0.208  0.015    0.106 -0.024 -0.162
 H         -0.061 -0.340  0.375    0.183 -0.322  0.260    0.154 -0.098 -0.085
 H          0.165 -0.310  0.046   -0.092 -0.207  0.466   -0.305  0.070  0.185
 H          0.006 -0.379 -0.274   -0.010  0.248  0.298   -0.107 -0.039 -0.248
 H         -0.084  0.122  0.176   -0.092 -0.230 -0.361    0.115  0.206  0.328
 C          0.148  0.091  0.043   -0.035  0.006 -0.011   -0.101  0.155  0.218
 H          0.221 -0.039 -0.055   -0.030  0.093  0.085   -0.171  0.386  0.432
 TransDip   0.007 -0.076 -0.004    0.003 -0.123  0.018   -0.018  0.026  0.000

 Mode:                 7                      8                      9
 Frequency:       660.76                 708.06                 745.14
 Force Cnst:      0.4137                 0.7640                 0.4302
 Red. Mass:       1.6083                 2.5863                 1.3150
 IR Active:          YES                    YES                    YES
 IR Intens:       31.006                 14.995                 37.455
 Raman Active:       YES                    YES                    YES
               X      Y      Z        X      Y      Z        X      Y      Z
 C         -0.035  0.020 -0.026    0.240  0.083 -0.061    0.006  0.007 -0.048
 C         -0.064  0.132 -0.043   -0.025 -0.013  0.033   -0.027  0.022  0.042
 C         -0.015  0.076 -0.039   -0.015 -0.033  0.015   -0.013 -0.004  0.007
 C          0.012 -0.032  0.003   -0.044  0.046  0.074   -0.007 -0.045 -0.032
 C          0.057 -0.018  0.044    0.010 -0.053  0.020    0.020 -0.032  0.002
 N          0.030 -0.072 -0.048    0.040  0.062 -0.049    0.048  0.057 -0.025
 H          0.006 -0.074 -0.067    0.338  0.094 -0.208   -0.050  0.019  0.033
 H          0.081 -0.089  0.380   -0.123 -0.166 -0.093   -0.066 -0.047  0.003
 H          0.445 -0.410  0.615    0.176  0.041 -0.272    0.333  0.004 -0.260
 H          0.010 -0.032 -0.129   -0.055  0.021 -0.290    0.026  0.371  0.336
 H          0.058 -0.019  0.045   -0.079 -0.157 -0.116   -0.023  0.036  0.155
 C         -0.038 -0.034  0.047   -0.198 -0.060  0.086   -0.061 -0.081 -0.013
 H         -0.046 -0.089 -0.013   -0.443 -0.329 -0.311    0.084  0.407  0.578
 TransDip   0.083 -0.036  0.154   -0.000 -0.014 -0.123    0.013  0.137  0.139

 Mode:                10                     11                     12
 Frequency:       801.39                 832.96                 855.24
 Force Cnst:      1.0274                 0.6173                 1.2613
 Red. Mass:       2.7152                 1.5101                 2.9268
 IR Active:          YES                    YES                    YES
 IR Intens:       20.764                  1.347                 25.270
 Raman Active:       YES                    YES                    YES
               X      Y      Z        X      Y      Z        X      Y      Z
 C          0.161 -0.017 -0.009   -0.046  0.003 -0.058   -0.021 -0.120  0.026
 C         -0.005 -0.006 -0.001   -0.039  0.092 -0.093    0.026 -0.010 -0.057
 C         -0.049  0.052  0.030    0.042 -0.029  0.110   -0.028  0.057  0.074
 C         -0.130  0.068 -0.027   -0.034 -0.007  0.011    0.222  0.015 -0.044
 C         -0.049 -0.019  0.038    0.025 -0.038  0.014   -0.065  0.169 -0.124
 N         -0.086 -0.156  0.121    0.023 -0.032  0.016   -0.135 -0.001  0.047
 H          0.213 -0.037 -0.075   -0.031 -0.095 -0.060    0.055 -0.018 -0.115
 H         -0.127 -0.189 -0.139    0.196 -0.300  0.608    0.014 -0.274  0.081
 H          0.742 -0.131 -0.175   -0.119  0.346 -0.525    0.545  0.039 -0.311
 H         -0.132 -0.039  0.100   -0.034 -0.007 -0.014    0.212 -0.140 -0.043
 H          0.186  0.024 -0.033    0.062 -0.023  0.020   -0.056  0.182 -0.112
 C          0.082  0.120 -0.143    0.011  0.032  0.003   -0.003 -0.096  0.112
 H          0.179  0.182 -0.030    0.096 -0.099 -0.091   -0.467  0.040  0.010
 TransDip   0.109  0.096  0.009    0.006 -0.008 -0.036    0.089  0.115 -0.069

 Mode:                13                     14                     15
 Frequency:       891.00                 908.36                 963.49
 Force Cnst:      1.0253                 0.6612                 1.0315
 Red. Mass:       2.1919                 1.3601                 1.8860
 IR Active:          YES                    YES                    YES
 IR Intens:        6.142                  2.592                  6.148
 Raman Active:       YES                    YES                    YES
               X      Y      Z        X      Y      Z        X      Y      Z
 C          0.125  0.082  0.148    0.066  0.026  0.013    0.009  0.025 -0.116
 C         -0.053  0.037 -0.074   -0.036  0.047  0.023   -0.038  0.051  0.096
 C          0.025 -0.105 -0.046    0.019 -0.022 -0.020    0.033 -0.021 -0.031
 C          0.034  0.039 -0.014    0.032 -0.060 -0.098    0.037  0.067  0.067
 C         -0.019  0.093  0.056   -0.022 -0.003 -0.022   -0.014 -0.051 -0.129
 N         -0.070 -0.059 -0.021   -0.042 -0.045  0.029   -0.030 -0.051  0.099
 H          0.214  0.081  0.011    0.149  0.048 -0.114    0.150  0.007 -0.313
 H          0.100 -0.135  0.317    0.011  0.074  0.097    0.019  0.295  0.074
 H         -0.429 -0.025  0.119   -0.255  0.007  0.127   -0.239  0.037  0.061
 H          0.024 -0.078 -0.147    0.079  0.452  0.629    0.011 -0.245 -0.295
 H         -0.057 -0.121 -0.314    0.066  0.131  0.169    0.276  0.377  0.468
 C         -0.018 -0.088 -0.082    0.004  0.020  0.019   -0.012 -0.062 -0.019
 H          0.003  0.410  0.449   -0.224 -0.180 -0.311    0.019  0.137  0.207
 TransDip   0.015 -0.001  0.078   -0.016  0.036  0.033    0.021  0.010 -0.076

 Mode:                16                     17                     18
 Frequency:       993.33                1028.23                1038.53
 Force Cnst:      1.1445                 1.5521                 1.2585
 Red. Mass:       1.9687                 2.4916                 1.9804
 IR Active:          YES                    YES                    YES
 IR Intens:       20.837                 18.109                  3.520
 Raman Active:       YES                    YES                    YES
               X      Y      Z        X      Y      Z        X      Y      Z
 C          0.066 -0.056  0.183   -0.066  0.279  0.006    0.021 -0.023 -0.002
 C         -0.007  0.012 -0.090    0.049 -0.099 -0.097   -0.005  0.013  0.021
 C         -0.011 -0.012  0.006   -0.044 -0.021  0.004    0.008  0.003 -0.004
 C         -0.047  0.019  0.049    0.023 -0.020  0.006   -0.145 -0.085  0.061
 C         -0.034 -0.060 -0.101    0.046  0.007 -0.056    0.074  0.176 -0.107
 N          0.031  0.066 -0.093   -0.014 -0.094  0.065    0.040  0.001 -0.013
 H         -0.039  0.073  0.301   -0.249  0.540  0.225    0.079 -0.074 -0.071
 H         -0.012 -0.278  0.058   -0.074 -0.357 -0.212   -0.020  0.017 -0.014
 H          0.068 -0.061  0.044    0.100 -0.051 -0.061   -0.031  0.009  0.015
 H         -0.063 -0.186  0.065    0.034  0.176 -0.052   -0.175 -0.463  0.503
 H          0.072  0.420  0.701    0.260  0.165  0.099    0.413  0.167 -0.374
 C         -0.001  0.022 -0.030   -0.021 -0.055  0.059   -0.038 -0.044  0.036
 H         -0.064  0.009 -0.077    0.268 -0.239  0.022    0.182 -0.139  0.064
 TransDip   0.010 -0.045  0.139    0.073  0.114 -0.013    0.027  0.035 -0.041

 Mode:                19                     20                     21
 Frequency:      1103.57                1201.97                1250.38
 Force Cnst:      0.8860                 1.2964                 1.2063
 Red. Mass:       1.2348                 1.5230                 1.3096
 IR Active:          YES                    YES                    YES
 IR Intens:        2.181                 14.622                  8.917
 Raman Active:       YES                    YES                    YES
               X      Y      Z        X      Y      Z        X      Y      Z
 C          0.023 -0.069  0.052   -0.057  0.086  0.087    0.104 -0.020 -0.067
 C         -0.001  0.006  0.003    0.044 -0.108 -0.066   -0.004 -0.015 -0.025
 C          0.004  0.006  0.002   -0.079  0.010  0.035   -0.075 -0.027  0.012
 C         -0.038  0.032 -0.030   -0.012  0.006 -0.001   -0.017 -0.011  0.011
 C         -0.014  0.040 -0.038    0.005 -0.018  0.002   -0.020  0.025 -0.012
 N         -0.029  0.017 -0.008    0.036  0.003 -0.019   -0.021 -0.000 -0.001
 H          0.164 -0.108 -0.144    0.347 -0.165 -0.455   -0.339  0.063  0.572
 H          0.019  0.043  0.021    0.364  0.573  0.209    0.294  0.547  0.268
 H          0.013 -0.002  0.013    0.209 -0.030 -0.119    0.056 -0.056 -0.043
 H         -0.018  0.500 -0.308   -0.014 -0.049  0.127   -0.014  0.127 -0.117
 H         -0.039  0.069  0.018   -0.052  0.008  0.093    0.137  0.057 -0.068
 C         -0.008 -0.046  0.048   -0.009 -0.011 -0.021    0.031 -0.013  0.032
 H          0.653 -0.367  0.068   -0.065  0.026 -0.016   -0.064 -0.019 -0.013
 TransDip   0.044 -0.006  0.017    0.050  0.102  0.046    0.051  0.080  0.013

 Mode:                22                     23                     24
 Frequency:      1282.65                1312.45                1387.54
 Force Cnst:      1.1731                 1.3956                 2.0525
 Red. Mass:       1.2102                 1.3752                 1.8094
 IR Active:          YES                    YES                    YES
 IR Intens:        1.021                  1.373                 16.638
 Raman Active:       YES                    YES                    YES
               X      Y      Z        X      Y      Z        X      Y      Z
 C         -0.017 -0.107  0.013   -0.043  0.019  0.031    0.006 -0.009  0.010
 C         -0.005  0.020 -0.018    0.002 -0.005  0.006    0.007 -0.007 -0.006
 C         -0.026 -0.013  0.001    0.016  0.007 -0.001   -0.006  0.001  0.003
 C         -0.021  0.005  0.003   -0.064 -0.044  0.042    0.114  0.064 -0.072
 C          0.035 -0.027  0.014   -0.009 -0.027  0.015   -0.030 -0.118  0.091
 N          0.005  0.034  0.019   -0.031  0.050 -0.033   -0.081  0.076 -0.037
 H          0.038  0.923 -0.284    0.074 -0.171 -0.112   -0.012 -0.097  0.052
 H          0.059  0.085  0.081   -0.058 -0.111 -0.055    0.028  0.037  0.008
 H          0.011 -0.038  0.018   -0.001  0.016 -0.001    0.017 -0.004 -0.007
 H         -0.021  0.023 -0.008   -0.046  0.408 -0.294    0.115 -0.317  0.229
 H          0.101 -0.068 -0.105    0.639  0.099 -0.189    0.758  0.004 -0.167
 C          0.014  0.003 -0.010    0.117 -0.044  0.005   -0.101  0.025  0.004
 H         -0.028  0.027 -0.008   -0.404  0.165 -0.050    0.348 -0.152  0.051
 TransDip  -0.011 -0.015 -0.026    0.017  0.004 -0.033    0.058 -0.087  0.078

 Mode:                25                     26                     27
 Frequency:      1506.92                1662.12                1678.76
 Force Cnst:      8.6088                10.2248                11.1801
 Red. Mass:       6.4345                 6.2817                 6.7331
 IR Active:          YES                    YES                    YES
 IR Intens:       17.860                  8.870                  5.146
 Raman Active:       YES                    YES                    YES
               X      Y      Z        X      Y      Z        X      Y      Z
 C         -0.031  0.023 -0.030   -0.012  0.014 -0.003   -0.035 -0.018 -0.010
 C         -0.009  0.015  0.010    0.216  0.171  0.040    0.357  0.300  0.056
 C          0.016 -0.015 -0.017   -0.201 -0.135 -0.009   -0.324 -0.214 -0.015
 C         -0.165  0.372 -0.269   -0.104  0.107 -0.064    0.065 -0.071  0.043
 C         -0.192 -0.029  0.072    0.418 -0.089 -0.030   -0.270  0.055  0.020
 N          0.178 -0.035 -0.017   -0.302  0.086 -0.003    0.198 -0.069  0.002
 H         -0.085  0.077  0.041    0.002 -0.298  0.025    0.106 -0.089 -0.167
 H         -0.048 -0.093 -0.012    0.084 -0.129 -0.126    0.122 -0.272 -0.200
 H         -0.033 -0.010  0.004   -0.114 -0.210 -0.105   -0.184 -0.350 -0.152
 H         -0.247 -0.405  0.379   -0.144 -0.168  0.165    0.092  0.106 -0.121
 H         -0.021 -0.012  0.003   -0.349 -0.237  0.254    0.212  0.154 -0.147
 C          0.230 -0.271  0.209    0.092 -0.079  0.052   -0.060  0.064 -0.027
 H         -0.244 -0.209  0.113   -0.144 -0.030  0.007    0.074  0.025 -0.024
 TransDip  -0.075 -0.067  0.090    0.086 -0.039 -0.014   -0.057  0.045  0.001

 Mode:                28                     29                     30
 Frequency:      2986.26                3116.50                3152.79
 Force Cnst:      5.6933                 6.2096                 6.3955
 Red. Mass:       1.0836                 1.0851                 1.0920
 IR Active:          YES                    YES                    YES
 IR Intens:       13.110                 19.755                 38.452
 Raman Active:       YES                    YES                    YES
               X      Y      Z        X      Y      Z        X      Y      Z
 C         -0.069 -0.009 -0.045   -0.003 -0.002 -0.002   -0.002  0.001 -0.001
 C          0.001 -0.001 -0.002   -0.074  0.018  0.035   -0.000  0.000  0.000
 C          0.000 -0.000 -0.000   -0.002 -0.006 -0.003   -0.000 -0.000 -0.000
 C          0.000 -0.000  0.000   -0.000 -0.000  0.000   -0.012  0.003 -0.001
 C          0.001  0.000 -0.001   -0.000  0.000 -0.000    0.027 -0.072  0.040
 N         -0.001  0.001 -0.001    0.000 -0.000  0.000   -0.002  0.001  0.000
 H          0.819  0.115  0.555    0.026  0.005  0.018    0.010  0.001  0.005
 H         -0.031  0.006  0.015    0.862 -0.234 -0.422    0.005 -0.001 -0.003
 H          0.001  0.002  0.001    0.042  0.108  0.053    0.001  0.003  0.001
 H          0.002 -0.001 -0.000    0.001  0.000  0.000    0.149 -0.014  0.002
 H          0.003 -0.011  0.006    0.002 -0.005  0.003   -0.297  0.825 -0.449
 C          0.001 -0.001  0.001    0.000 -0.000  0.000    0.001  0.001 -0.001
 H         -0.000  0.007 -0.006    0.001  0.005 -0.004   -0.006 -0.011  0.011
 TransDip  -0.085 -0.018 -0.076   -0.125  0.050  0.047    0.036 -0.173  0.091

 Mode:                31                     32                     33
 Frequency:      3204.11                3231.60                3239.25
 Force Cnst:      6.6058                 6.8060                 6.7892
 Red. Mass:       1.0921                 1.1061                 1.0982
 IR Active:          YES                    YES                    YES
 IR Intens:        9.970                  4.848                  1.634
 Raman Active:       YES                    YES                    YES
               X      Y      Z        X      Y      Z        X      Y      Z
 C          0.000 -0.001  0.000   -0.000  0.001  0.001    0.002  0.000 -0.001
 C         -0.000  0.000  0.000    0.021  0.004 -0.005    0.002  0.000 -0.001
 C          0.000  0.001  0.000   -0.037 -0.077 -0.034   -0.003 -0.008 -0.004
 C         -0.083  0.006  0.002    0.002 -0.000  0.000   -0.028  0.005 -0.002
 C         -0.002  0.013 -0.008   -0.000 -0.000  0.000    0.000  0.003 -0.002
 N          0.001 -0.000 -0.000    0.000 -0.000  0.000    0.000  0.000 -0.000
 H         -0.001  0.001 -0.001   -0.003 -0.003 -0.004   -0.010 -0.001 -0.003
 H          0.000 -0.000 -0.000   -0.101  0.027  0.048   -0.015  0.005  0.008
 H         -0.003 -0.007 -0.004    0.299  0.839  0.417    0.030  0.083  0.041
 H          0.942 -0.059 -0.017   -0.020  0.001  0.000    0.276 -0.020 -0.002
 H          0.039 -0.122  0.068    0.000 -0.001  0.000    0.006 -0.021  0.013
 C          0.011  0.014 -0.014    0.002  0.006 -0.006   -0.025 -0.059  0.056
 H         -0.100 -0.192  0.184   -0.033 -0.066  0.065    0.325  0.646 -0.618
 TransDip  -0.091  0.043  0.005   -0.015 -0.065 -0.022   -0.028 -0.003  0.030

 STANDARD THERMODYNAMIC QUANTITIES AT   298.15 K  AND     1.00 ATM

   This Molecule has  0 Imaginary Frequencies
   Zero point vibrational energy:       62.524 kcal/mol

   Atom    1 Element C  Has Mass   12.00000
   Atom    2 Element C  Has Mass   12.00000
   Atom    3 Element C  Has Mass   12.00000
   Atom    4 Element C  Has Mass   12.00000
   Atom    5 Element C  Has Mass   12.00000
   Atom    6 Element N  Has Mass   14.00307
   Atom    7 Element H  Has Mass    1.00783
   Atom    8 Element H  Has Mass    1.00783
   Atom    9 Element H  Has Mass    1.00783
   Atom   10 Element H  Has Mass    1.00783
   Atom   11 Element H  Has Mass    1.00783
   Atom   12 Element C  Has Mass   12.00000
   Atom   13 Element H  Has Mass    1.00783
   Molecular Mass:    92.050050 amu
   Principal axes and moments of inertia in amu*Bohr^2:
                             1           2           3
    Eigenvalues --      346.10175   645.39109   810.46500
          X              -0.32040     0.87086     0.37274
          Y               0.94165     0.33565     0.02522
          Z               0.10315    -0.35907     0.92759
   Rotational Symmetry Number is   1
   The Molecule is an Asymmetric Top
   Translational Enthalpy:        0.889 kcal/mol
   Rotational Enthalpy:           0.889 kcal/mol
   Vibrational Enthalpy:         64.726 kcal/mol
   gas constant (RT):             0.592 kcal/mol
   Translational Entropy:        39.471  cal/mol.K
   Rotational Entropy:           26.695  cal/mol.K
   Vibrational Entropy:          12.937  cal/mol.K

   Total Enthalpy:               67.096 kcal/mol
   Total Entropy:                79.103  cal/mol.K
Archival summary:
1\1\c8-73\FREQ\ProcedureUnspecified\6-31G*\166(2)\hpark21\WedMar217:47:072022WedMar217:47:072022\0\\#,FREQ,ProcedureUnspecified,6-31G*,\\0,2\N\C,1,1.28453\H,2,1.09197,1,121.439\C,2,1.45135,1,115.619,3,-175.551,0\H,4,1.08761,2,124.86,1,-169.996,0\C,4,1.36335,2,107.81,1,3.52612,0\H,6,1.0851,4,123.107,2,176.213,0\C,1,1.46432,2,107.767,3,177.105,0\H,8,1.10765,1,105.129,2,-137.775,0\C,8,1.53162,1,114.334,2,103.363,0\H,10,1.09261,8,120.655,1,78.2702,0\C,10,1.31489,8,115.546,1,-103.53,0\H,12,1.08509,10,137.746,8,179.013,0\\\@

 Total job time:  265.12s(wall), 253.67s(cpu) 
 Wed Mar  2 17:47:07 2022

        *************************************************************
        *                                                           *
        *  Thank you very much for using Q-Chem.  Have a nice day.  *
        *                                                           *
        *************************************************************


