13
image # 1 Energy = -286.85491
C 1.68031   0.39455   -0.17907  
C 1.12635   -0.83480  -0.26739  
C -0.31642  -1.06216  -0.08275  
C -1.15599  0.32831   0.04768   
C -0.32704  1.53238   -0.14909  
N 0.95988   1.58970   -0.16653  
H 2.75718   0.52306   -0.25093  
H 1.74816   -1.69800  -0.49194  
H -0.75807  -1.90171  -0.62277  
H -2.16299  0.39242   -0.36922  
H -0.86699  2.46042   -0.35274  
C -0.95817  -0.61450  1.15131   
H -1.72621  -1.10966  1.73344   
13
image # 2 Energy = -286.85256
C 1.64902   0.37842   -0.15113  
C 1.11938   -0.84672  -0.28421  
C -0.30878  -1.12814  -0.10946  
C -1.18051  0.37548   0.05802   
C -0.33375  1.54359   -0.17062  
N 0.94138   1.58229   -0.17846  
H 2.73136   0.51657   -0.16592  
H 1.76975   -1.69438  -0.53420  
H -0.72435  -1.97724  -0.63896  
H -2.19952  0.44826   -0.30604  
H -0.86072  2.48729   -0.39227  
C -0.94185  -0.61212  1.13661   
H -1.67759  -1.07911  1.73685   
13
image # 3 Energy = -286.84985
C 1.62553   0.37942   -0.12098  
C 1.10511   -0.87291  -0.30294  
C -0.29117  -1.17128  -0.11889  
C -1.19723  0.40810   0.08174   
C -0.35562  1.55648   -0.19208  
N 0.94077   1.57152   -0.18886  
H 2.70159   0.50738   -0.08459  
H 1.78625   -1.68493  -0.57608  
H -0.69838  -2.05515  -0.65834  
H -2.23575  0.50109   -0.24717  
H -0.85351  2.50553   -0.43270  
C -0.91013  -0.59342  1.09153   
H -1.64702  -1.06263  1.74869   
13
image # 4 Energy = -286.84668
C 1.59456   0.37298   -0.08598  
C 1.10116   -0.89245  -0.32411  
C -0.28016  -1.24308  -0.13814  
C -1.22002  0.46129   0.10197   
C -0.37474  1.57071   -0.21525  
N 0.93491   1.55828   -0.20274  
H 2.66600   0.49678   0.00150   
H 1.80242   -1.67292  -0.62185  
H -0.66294  -2.12391  -0.67104  
H -2.26631  0.55530   -0.18499  
H -0.84649  2.52330   -0.47342  
C -0.89229  -0.58656  1.06449   
H -1.59918  -1.03639  1.74571   
13
image # 5 Energy = -286.85607
C 1.56540   0.36951   -0.05762  
C 1.07746   -0.91601  -0.34074  
C -0.22420  -1.32115  -0.13388  
C -1.25372  0.54129   0.14908   
C -0.39145  1.56893   -0.24676  
N 0.92339   1.54156   -0.18471  
H 2.63835   0.48075   0.09796   
H 1.81047   -1.64929  -0.68631  
H -0.62955  -2.18401  -0.66156  
H -2.30832  0.62323   -0.10578  
H -0.83988  2.52767   -0.54213  
C -0.87975  -0.59335  0.96676   
H -1.54262  -1.01118  1.73687   
13
image # 6 Energy = -286.86212
C 1.54223   0.37009   -0.02482  
C 1.07955   -0.93972  -0.35949  
C -0.18545  -1.38783  -0.13450  
C -1.27892  0.60065   0.18329   
C -0.41065  1.57570   -0.26692  
N 0.92002   1.52717   -0.17742  
H 2.60341   0.46761   0.16954   
H 1.82278   -1.63131  -0.74145  
H -0.60059  -2.25263  -0.66552  
H -2.33788  0.68094   -0.04532  
H -0.83424  2.53322   -0.59125  
C -0.88593  -0.57442  0.92325   
H -1.49650  -0.99451  1.71800   
13
image # 7 Energy = -286.87058
C 1.51903   0.35732   0.00715   
C 1.09043   -0.96697  -0.37320  
C -0.14748  -1.46019  -0.11914  
C -1.31994  0.66711   0.22462   
C -0.43722  1.58558   -0.28927  
N 0.91287   1.51594   -0.14756  
H 2.57866   0.45294   0.25482   
H 1.84263   -1.60631  -0.83053  
H -0.55635  -2.32420  -0.63980  
H -2.38490  0.77160   0.03898   
H -0.82461  2.52841   -0.66657  
C -0.89908  -0.56547  0.83305   
H -1.44361  -0.98347  1.68924   
13
image # 8 Energy = -286.86882
C 1.48824   0.34776   0.04191   
C 1.09893   -0.99794  -0.38948  
C -0.12009  -1.49936  -0.13334  
C -1.33540  0.70104   0.24051   
C -0.45146  1.59939   -0.30369  
N 0.89986   1.49821   -0.14619  
H 2.53456   0.43765   0.33743   
H 1.86250   -1.58045  -0.89710  
H -0.51610  -2.39984  -0.63013  
H -2.41516  0.84442   0.11154   
H -0.81733  2.53834   -0.71989  
C -0.90378  -0.54552  0.80004   
H -1.39909  -0.97232  1.66487   
13
image # 9 Energy = -286.86028
C 1.45642   0.32323   0.08257   
C 1.10974   -1.01856  -0.40720  
C -0.11224  -1.53184  -0.16117  
C -1.35498  0.72780   0.24472   
C -0.46649  1.61602   -0.32168  
N 0.88308   1.49119   -0.15640  
H 2.47532   0.42032   0.43142   
H 1.88404   -1.55595  -0.95395  
H -0.48821  -2.46191  -0.61845  
H -2.42895  0.89692   0.17701   
H -0.81114  2.54852   -0.76689  
C -0.87859  -0.51769  0.77317   
H -1.34636  -0.96758  1.64656   
13
image # 10 Energy = -286.84843
C 1.39971   0.30848   0.11200   
C 1.11052   -1.03719  -0.42625  
C -0.09931  -1.55144  -0.19639  
C -1.35730  0.74199   0.24455   
C -0.47387  1.63098   -0.34143  
N 0.86904   1.47258   -0.17091  
H 2.41637   0.40314   0.53280   
H 1.90562   -1.53199  -0.99992  
H -0.46600  -2.51232  -0.60606  
H -2.44110  0.93908   0.23863   
H -0.80438  2.55970   -0.80797  
C -0.85289  -0.49041  0.75596   
H -1.28680  -0.96239  1.62766   
13
image # 11 Energy = -286.84161
C 1.36998   0.29304   0.14570   
C 1.11789   -1.04881  -0.45696  
C -0.10345  -1.53929  -0.22392  
C -1.35673  0.74128   0.23402   
C -0.47750  1.63867   -0.36161  
N 0.84823   1.46856   -0.18637  
H 2.34061   0.38241   0.63448   
H 1.91990   -1.51420  -1.02646  
H -0.48015  -2.51999  -0.58287  
H -2.43923  0.94551   0.27863   
H -0.80259  2.56584   -0.84668  
C -0.81406  -0.48181  0.72998   
H -1.20450  -0.96152  1.61851   
13
image # 12 Energy = -286.83464
C 1.33026   0.27677   0.16810   
C 1.11982   -1.04310  -0.48203  
C -0.10478  -1.51849  -0.24729  
C -1.35878  0.73180   0.22516   
C -0.48465  1.64782   -0.38472  
N 0.84178   1.45985   -0.20477  
H 2.26164   0.36205   0.74063   
H 1.93840   -1.50579  -1.04918  
H -0.50957  -2.50572  -0.56091  
H -2.42588  0.93364   0.30822   
H -0.80196  2.56642   -0.87797  
C -0.77461  -0.47645  0.70009   
H -1.11443  -0.95921  1.61512   
13
image # 13 Energy = -286.82592
C 1.26363   0.26178   0.22278   
C 1.13880   -1.05870  -0.52226  
C -0.10130  -1.49892  -0.25350  
C -1.35151  0.71393   0.22055   
C -0.46562  1.66344   -0.38981  
N 0.82409   1.46067   -0.26134  
H 2.18924   0.34325   0.82640   
H 1.94612   -1.49438  -1.06533  
H -0.52753  -2.48035  -0.55059  
H -2.42529  0.92684   0.32673   
H -0.80203  2.56664   -0.89604  
C -0.72199  -0.48774  0.67657   
H -1.04947  -0.94644  1.61147   
13
image # 14 Energy = -286.83274
C 1.20388   0.23542   0.27207   
C 1.12711   -1.05844  -0.53496  
C -0.08310  -1.49341  -0.26326  
C -1.34301  0.71149   0.20696   
C -0.47240  1.66574   -0.38294  
N 0.82959   1.45756   -0.31057  
H 2.11097   0.32794   0.88451   
H 1.96529   -1.49351  -1.08528  
H -0.53962  -2.45098  -0.55122  
H -2.41614  0.91425   0.32874   
H -0.80400  2.57241   -0.89989  
C -0.65862  -0.49280  0.66366   
H -1.00222  -0.92532  1.61520   
13
image # 15 Energy = -286.84406
C 1.11981   0.20983   0.29858   
C 1.12505   -1.06948  -0.52293  
C -0.12455  -1.52601  -0.29058  
C -1.32160  0.75379   0.22718   
C -0.47161  1.69786   -0.37353  
N 0.83893   1.46926   -0.31945  
H 2.07186   0.32212   0.87065   
H 1.97389   -1.49592  -1.02130  
H -0.57221  -2.47982  -0.63623  
H -2.41382  0.82231   0.23564   
H -0.81605  2.60226   -0.86847  
C -0.54998  -0.42887  0.70239   
H -0.93837  -0.90729  1.63918   
13
image # 16 Energy = -286.84628
C 1.06625   0.19855   0.31772   
C 1.10367   -1.07830  -0.51522  
C -0.11725  -1.55775  -0.34274  
C -1.31371  0.77431   0.23960   
C -0.46435  1.71418   -0.37280  
N 0.83710   1.47232   -0.34404  
H 2.00794   0.30951   0.91235   
H 1.98872   -1.49012  -0.99178  
H -0.61378  -2.50554  -0.68399  
H -2.39000  0.75730   0.20250   
H -0.82349  2.62192   -0.86895  
C -0.49397  -0.34087  0.76195   
H -0.86062  -0.90562  1.62629   
13
image # 17 Energy = -286.83911
C 1.01749   0.18172   0.34360   
C 1.10559   -1.07870  -0.51845  
C -0.12524  -1.58859  -0.38713  
C -1.28986  0.75925   0.25746   
C -0.45284  1.73933   -0.38099  
N 0.82472   1.46953   -0.36452  
H 1.92772   0.29261   0.96547   
H 1.99963   -1.48031  -0.97214  
H -0.65099  -2.51159  -0.71145  
H -2.36975  0.70432   0.18350   
H -0.82713  2.63338   -0.87431  
C -0.45161  -0.24570  0.78704   
H -0.77532  -0.90427  1.61404   
13
image # 18 Energy = -286.82274
C 1.03151   0.19268   0.33021   
C 1.08066   -1.09371  -0.48339  
C -0.07473  -1.73008  -0.40858  
C -1.30533  0.80164   0.29522   
C -0.43418  1.74171   -0.37360  
N 0.82515   1.45767   -0.37786  
H 2.00525   0.31695   0.85735   
H 1.98089   -1.45865  -0.96940  
H -0.50825  -2.65349  -0.79092  
H -2.39008  0.80445   0.22243   
H -0.80654  2.65287   -0.82811  
C -0.52270  -0.16170  0.89009   
H -0.94317  -0.89754  1.58035   
13
image # 19 Energy = -286.81062
C 0.99298   0.18205   0.33440   
C 1.06818   -1.10933  -0.47349  
C -0.03949  -1.81328  -0.43679  
C -1.30761  0.83851   0.32397   
C -0.42156  1.74406   -0.37335  
N 0.81963   1.43402   -0.40219  
H 1.97901   0.31646   0.85107   
H 1.98016   -1.43158  -0.97707  
H -0.41919  -2.74433  -0.84575  
H -2.39883  0.86061   0.25919   
H -0.78990  2.67457   -0.81177  
C -0.53434  -0.10551  0.93346   
H -0.98339  -0.87097  1.56202   
13
image # 20 Energy = -286.82023
C 0.96255   0.16227   0.34066   
C 1.05998   -1.11704  -0.47340  
C -0.00558  -1.88313  -0.45488  
C -1.31467  0.86919   0.35075   
C -0.42110  1.75414   -0.37794  
N 0.81842   1.40338   -0.42992  
H 1.93127   0.31001   0.85139   
H 1.98459   -1.39988  -0.99633  
H -0.31553  -2.82640  -0.88719  
H -2.40145  0.94021   0.31207   
H -0.76548  2.68982   -0.80175  
C -0.55220  -0.07884  0.94994   
H -1.02777  -0.84472  1.56207   
13
image # 21 Energy = -286.82075
C 0.92086   0.14196   0.32297   
C 1.05578   -1.12744  -0.48360  
C 0.03752   -1.95710  -0.47051  
C -1.31150  0.90889   0.36905   
C -0.42148  1.75946   -0.37932  
N 0.80644   1.36336   -0.45881  
H 1.88390   0.30076   0.86368   
H 1.98003   -1.35741  -1.01732  
H -0.18339  -2.91098  -0.92603  
H -2.39679  1.04822   0.38459   
H -0.73308  2.70642   -0.79942  
C -0.59236  -0.06724  0.96232   
H -1.08502  -0.82579  1.57968   
13
image # 22 Energy = -286.82825
C 0.87695   0.11857   0.32078   
C 1.04900   -1.14075  -0.49237  
C 0.07995   -2.01555  -0.48808  
C -1.32974  0.94293   0.39032   
C -0.41714  1.76893   -0.38391  
N 0.79434   1.33103   -0.47752  
H 1.81696   0.28378   0.89012   
H 1.97716   -1.31730  -1.03588  
H -0.08617  -2.98057  -0.95339  
H -2.37853  1.12830   0.44721   
H -0.71049  2.72371   -0.81315  
C -0.60615  -0.04786  0.96275   
H -1.09826  -0.80784  1.58385   
13
image # 23 Energy = -286.83493
C 0.83408   0.09171   0.32309   
C 1.04719   -1.14582  -0.50002  
C 0.11740   -2.08658  -0.50581  
C -1.32548  0.96929   0.41590   
C -0.40858  1.77894   -0.38965  
N 0.77463   1.30619   -0.49856  
H 1.74464   0.26263   0.91612   
H 1.97370   -1.27682  -1.05502  
H 0.01412   -3.04452  -0.97621  
H -2.37282  1.21457   0.51380   
H -0.68730  2.73992   -0.83116  
C -0.62814  -0.02879  0.95568   
H -1.10801  -0.78949  1.58820   
13
image # 24 Energy = -286.84078
C 0.78186   0.06840   0.32217   
C 1.02944   -1.16377  -0.50636  
C 0.16790   -2.14337  -0.51939  
C -1.32064  1.01442   0.43331   
C -0.41159  1.79532   -0.39536  
N 0.76659   1.28591   -0.52313  
H 1.67568   0.23894   0.94933   
H 1.97115   -1.23712  -1.07418  
H 0.11078   -3.10806  -0.99708  
H -2.37207  1.29850   0.58223   
H -0.66427  2.74817   -0.85131  
C -0.64233  -0.03339  0.95327   
H -1.10993  -0.76961  1.59115   
13
image # 25 Energy = -286.84414
C 0.73452   0.05461   0.30818   
C 1.03119   -1.17306  -0.51622  
C 0.20268   -2.21500  -0.53484  
C -1.33692  1.06480   0.45548   
C -0.40420  1.80638   -0.39949  
N 0.75779   1.26929   -0.54749  
H 1.60956   0.21245   0.98851   
H 1.95958   -1.19809  -1.08541  
H 0.20081   -3.16413  -1.01452  
H -2.35661  1.36939   0.64601   
H -0.64434  2.75462   -0.87259  
C -0.65548  -0.02285  0.94072   
H -1.11053  -0.76280  1.60454   
13
image # 26 Energy = -286.84854
C 0.70102   0.04190   0.28853   
C 1.01366   -1.20264  -0.52349  
C 0.25655   -2.26519  -0.54750  
C -1.33410  1.10407   0.48668   
C -0.39915  1.81869   -0.40301  
N 0.74357   1.24720   -0.56535  
H 1.52351   0.17980   1.02812   
H 1.94767   -1.15589  -1.09482  
H 0.29620   -3.23455  -1.03864  
H -2.33970  1.44120   0.71463   
H -0.62454  2.76177   -0.89761  
C -0.69070  0.01496   0.92267   
H -1.09961  -0.75295  1.61468   
13
image # 27 Energy = -286.85053
C 0.66011   0.02162   0.28170   
C 1.00787   -1.21654  -0.52426  
C 0.30060   -2.32083  -0.56743  
C -1.33069  1.14968   0.50687   
C -0.40061  1.82914   -0.40655  
N 0.72741   1.22494   -0.56812  
H 1.43678   0.14945   1.05624   
H 1.93503   -1.12425  -1.10203  
H 0.37049   -3.28618  -1.05277  
H -2.32433  1.49476   0.76980   
H -0.61041  2.76698   -0.91994  
C -0.70201  0.03640   0.92486   
H -1.07024  -0.72517  1.60163   
