13   
From optimize.out: Frame 1 / 2, Energy=    -286.8505356535
C       -0.0691970000    0.0428880000    0.0000000000
C       -0.1030320000   -0.1674340000   -0.0000000000
C       -0.1987180000    1.0402810000   -0.0000000000
C       -0.1427490000    0.0001540000    0.0000000000
C        0.0557180000    0.0048760000   -0.0000000000
N       -0.3777560000   -0.0036010000   -0.0000000000
H        0.1812180000   -0.0043790000    0.0000000000
H        0.1639630000    0.0787400000   -0.0000000000
H        0.1639550000    0.0049390000   -0.0000000000
H        0.1401170000    0.0001430000    0.0000000000
H        0.1436260000   -0.0001400000   -0.0000000000
C       -0.1103860000    0.0030610000    0.0000000000
H        0.1532400000    0.0004720000    0.0000000000
