13   
From optimize.out: Frame 25 / 26, Energy=    -286.8516345401
C        1.5189874062    0.3441588063   -0.2644252994
C        0.6216192586   -0.8944701024   -0.0647318007
C       -0.3948716278   -0.5208172525   -1.1474916430
C       -1.0026577606    0.5083552418    0.8086557238
C       -0.5872412418    0.8947648274   -0.6197781154
N        0.8524697132    1.3865955360   -0.5761305058
H        2.5997530457    0.3578848315   -0.1336547130
H        1.1020933072   -1.8728860788   -0.0775504506
H       -1.2194040131   -1.1747379185   -1.4269638383
H       -1.7237658678    1.0470917705    1.4134949852
H       -1.2335871503    1.5920977564   -1.1505755036
C       -0.2723898965   -0.5664110507    1.1480186723
H       -0.2610051735   -1.1016263668    2.0911324881
13   
From optimize.out: Frame 24 / 26, Energy=    -286.8516269519
C        1.5179095570    0.3439558397   -0.2644122554
C        0.6201119672   -0.8946929500   -0.0634097136
C       -0.3941354549   -0.5212673578   -1.1470052276
C       -1.0027241645    0.5090452333    0.8099574483
C       -0.5890705560    0.8944213446   -0.6188933775
N        0.8515672615    1.3866779858   -0.5756532728
H        2.5989451837    0.3565505264   -0.1354500636
H        1.1012701679   -1.8728419259   -0.0766967911
H       -1.2151801072   -1.1758946197   -1.4363499565
H       -1.7213893633    1.0490758596    1.4164986810
H       -1.2344690847    1.5917117547   -1.1511333244
C       -0.2731651086   -0.5660711878    1.1494896928
H       -0.2596702981   -1.1006705028    2.0930581603
13   
From optimize.out: Frame 23 / 26, Energy=    -286.8516095087
C        1.5170722155    0.3424318517   -0.2652201995
C        0.6190930145   -0.8955413190   -0.0620638348
C       -0.3939430541   -0.5218100151   -1.1460559085
C       -1.0027340946    0.5107648854    0.8115411944
C       -0.5900291862    0.8937599718   -0.6179082098
N        0.8509655801    1.3859735230   -0.5739312038
H        2.5983465780    0.3542861264   -0.1381927598
H        1.0997391699   -1.8739542062   -0.0762339485
H       -1.2099339795   -1.1758078048   -1.4473163783
H       -1.7240519315    1.0493746678    1.4162584676
H       -1.2356058341    1.5922976159   -1.1481005576
C       -0.2745208574   -0.5656227014    1.1508051640
H       -0.2543976207   -1.0961525955    2.0964181747
13   
From optimize.out: Frame 22 / 26, Energy=    -286.8515533734
C        1.5135758325    0.3447496306   -0.2588606874
C        0.6171145895   -0.8961559079   -0.0628777328
C       -0.3965941798   -0.5218948498   -1.1475841982
C       -0.9970157643    0.5110489343    0.8098510586
C       -0.5906289638    0.8927831080   -0.6174612673
N        0.8509954250    1.3860419081   -0.5779980601
H        2.5946862934    0.3566029668   -0.1305279273
H        1.1010415780   -1.8727972153   -0.0778740062
H       -1.2124132314   -1.1751495918   -1.4475191677
H       -1.7151372296    1.0520104488    1.4164463711
H       -1.2362071650    1.5891860696   -1.1496070169
C       -0.2779742373   -0.5723524690    1.1468950395
H       -0.2514429472   -1.0940730324    2.0971175947
13   
From optimize.out: Frame 21 / 26, Energy=    -286.8514348422
C        1.5187304818    0.3453845482   -0.2647396187
C        0.6206360363   -0.8945791120   -0.0607935098
C       -0.3912650625   -0.5224440213   -1.1473544331
C       -1.0015697641    0.5070008273    0.8122505203
C       -0.5961523376    0.8936396992   -0.6175252477
N        0.8485945246    1.3877455206   -0.5762330146
H        2.6011751985    0.3548620416   -0.1468584684
H        1.1070444371   -1.8703980539   -0.0780805622
H       -1.2059111288   -1.1809077984   -1.4555816510
H       -1.7064896879    1.0509193170    1.4313019991
H       -1.2375962606    1.5930739531   -1.1530018688
C       -0.2729447699   -0.5725870373    1.1517748987
H       -0.2842516669   -1.0917098842    2.1048409562
13   
From optimize.out: Frame 20 / 26, Energy=    -286.8512761882
C        1.5130492450    0.3435634462   -0.2703709754
C        0.6143254789   -0.8954736851   -0.0508600199
C       -0.3905787183   -0.5240451204   -1.1404050373
C       -1.0031759547    0.5214871516    0.8187536030
C       -0.5968120911    0.8942754413   -0.6158394758
N        0.8461881405    1.3876225571   -0.5763232409
H        2.5956548785    0.3533961187   -0.1550426889
H        1.0935063370   -1.8747812349   -0.0528539796
H       -1.1895924073   -1.1836062963   -1.4796974393
H       -1.7155411263    1.0603322985    1.4332935845
H       -1.2372878018    1.5926590714   -1.1533573232
C       -0.2722725127   -0.5525922348    1.1602808640
H       -0.2574634677   -1.1228375134    2.0824221288
13   
From optimize.out: Frame 19 / 26, Energy=    -286.8511747418
C        1.5131663749    0.3370755836   -0.2643428593
C        0.6143606776   -0.8986307359   -0.0565079386
C       -0.3976633869   -0.5204065197   -1.1466243222
C       -0.9917762259    0.5239947092    0.8252147007
C       -0.5939797844    0.8887563763   -0.6140951397
N        0.8482166866    1.3794421421   -0.5768940351
H        2.5951928019    0.3505765330   -0.1446228511
H        1.0881964370   -1.8800902498   -0.0673028122
H       -1.1888559758   -1.1701468298   -1.5070808774
H       -1.7304268884    1.0416909679    1.4263807949
H       -1.2416859786    1.5867573985   -1.1415951040
C       -0.2791600996   -0.5657254396    1.1544374860
H       -0.2355846383   -1.0732939357    2.1130329579
13   
From optimize.out: Frame 18 / 26, Energy=    -286.8504452116
C        1.5134462594    0.3278204575   -0.2748741637
C        0.6092184278   -0.8998281146   -0.0617111028
C       -0.4111632023   -0.5156167986   -1.1415142312
C       -0.9875908842    0.5246618347    0.8338093761
C       -0.5876944813    0.8894219735   -0.6134470992
N        0.8508242355    1.3721141919   -0.5933589351
H        2.5915926987    0.3499312024   -0.1252738930
H        1.0625777968   -1.8900247184   -0.0591086253
H       -1.1761712813   -1.1602938369   -1.5539055934
H       -1.7484633213    1.0126940202    1.4316301036
H       -1.2457097087    1.5828485613   -1.1330675150
C       -0.2551407205   -0.5453870024    1.1671261172
H       -0.2157258185   -1.0483417704    2.1236955618
13   
From optimize.out: Frame 17 / 26, Energy=    -286.8489012577
C        1.5162670483    0.3157751708   -0.2791352039
C        0.6070357568   -0.9004214455   -0.0663452405
C       -0.4231369975   -0.5138612519   -1.1337429951
C       -0.9921012850    0.5208348259    0.8338712075
C       -0.5762390310    0.8928132917   -0.6101470867
N        0.8584529936    1.3656574473   -0.5861394810
H        2.5918393725    0.3373149967   -0.1136811090
H        1.0465886622   -1.8966945271   -0.0761354089
H       -1.1787800653   -1.1492454665   -1.5694554419
H       -1.7934908825    0.9769768884    1.4044962917
H       -1.2401483548    1.5878484758   -1.1184453144
C       -0.2524413722   -0.5334594412    1.1727215123
H       -0.1638458450   -1.0035389644    2.1421382699
13   
From optimize.out: Frame 16 / 26, Energy=    -286.8462081473
C        1.5201093578    0.3079658873   -0.2832627716
C        0.6050251449   -0.9003802889   -0.0736823908
C       -0.4466787556   -0.5091217896   -1.1183276040
C       -0.9930914682    0.5022186163    0.8179776161
C       -0.5625795264    0.9034161007   -0.6075927444
N        0.8692531649    1.3600760990   -0.5954540056
H        2.5911435957    0.3306268018   -0.0906864242
H        1.0326357490   -1.9011831596   -0.0893065879
H       -1.1899365773   -1.1374847289   -1.5725634524
H       -1.8229496713    0.9274741808    1.3738451804
H       -1.2353838037    1.5986334599   -1.1011874921
C       -0.2322346970   -0.5241269404    1.1794885030
H       -0.1353125127   -0.9581142385    2.1607521736
13   
From optimize.out: Frame 15 / 26, Energy=    -286.8423508947
C        1.5288180951    0.3015689857   -0.2872648833
C        0.6079061508   -0.8983518163   -0.0732509222
C       -0.4690923120   -0.5040955134   -1.0898371013
C       -1.0050508389    0.4784499720    0.7947978782
C       -0.5485718878    0.9225576134   -0.6038159188
N        0.8819381454    1.3589902903   -0.5874369639
H        2.5994114354    0.3161049595   -0.0905338829
H        1.0327303574   -1.9004555878   -0.1095636685
H       -1.2144232252   -1.1300227965   -1.5515296609
H       -1.8673494363    0.8779324271    1.3224306742
H       -1.2212844132    1.6228204846   -1.0925818324
C       -0.2242000886   -0.5205159828    1.1871629710
H       -0.1008319822   -0.9249830357    2.1814233105
13   
From optimize.out: Frame 14 / 26, Energy=    -286.8369988490
C        1.5345950013    0.3012003888   -0.2901925026
C        0.6133613677   -0.8996248052   -0.0700436963
C       -0.4975066812   -0.4922008923   -1.0504302129
C       -1.0115497698    0.4523024758    0.7595285533
C       -0.5352939339    0.9451513992   -0.6046320150
N        0.8926382412    1.3637252568   -0.5863783573
H        2.6048551490    0.3117398106   -0.0905770968
H        1.0407193994   -1.9004988406   -0.1181785838
H       -1.2469707142   -1.1156848053   -1.5099950074
H       -1.8956461512    0.8352064324    1.2647541843
H       -1.2069165049    1.6470693368   -1.0922838528
C       -0.2074231360   -0.5331944441    1.1917440444
H       -0.0848622673   -0.9151913128    2.1966845428
13   
From optimize.out: Frame 13 / 26, Energy=    -286.8305542471
C        1.5433490255    0.2997449732   -0.2888028656
C        0.6207717225   -0.8990286312   -0.0657765984
C       -0.5244035035   -0.4801496720   -1.0060367879
C       -1.0277433612    0.4323951989    0.7300148335
C       -0.5238683413    0.9690547157   -0.6101333249
N        0.9019426212    1.3669193264   -0.5790514078
H        2.6147805105    0.3026455346   -0.0945375826
H        1.0528510443   -1.8977391748   -0.1363087248
H       -1.2844982911   -1.1009295139   -1.4621395013
H       -1.9370737090    0.8013850852    1.2015497701
H       -1.1886426126    1.6740597368   -1.1051433243
C       -0.1937683009   -0.5489054160    1.2015325038
H       -0.0536968042   -0.9194521629    2.2148330102
13   
From optimize.out: Frame 12 / 26, Energy=    -286.8252943726
C        1.5423247935    0.3012204902   -0.2924729025
C        0.6198815456   -0.9026243807   -0.0633895754
C       -0.5492370738   -0.4633752628   -0.9688381771
C       -1.0275917935    0.4035203376    0.6899780796
C       -0.5102434421    0.9864300719   -0.6106295053
N        0.9093139079    1.3756243721   -0.5828431987
H        2.6119841612    0.3039877231   -0.0877284673
H        1.0478839968   -1.9024132604   -0.1327705518
H       -1.3092038232   -1.0810629160   -1.4200458247
H       -1.9493907621    0.7529512025    1.1518503722
H       -1.1743490784    1.6907385841   -1.1040432144
C       -0.1703621873   -0.5591599128    1.2017694406
H       -0.0410102445   -0.9058370489    2.2191635248
13   
From optimize.out: Frame 11 / 26, Energy=    -286.8240569261
C        1.5430646343    0.3001287892   -0.2805719127
C        0.6228819746   -0.9038966705   -0.0626954112
C       -0.5552028262   -0.4584002299   -0.9556529721
C       -1.0342967610    0.3911317967    0.6762167623
C       -0.5046750107    0.9933974666   -0.6118708871
N        0.9130038855    1.3787488764   -0.5648708008
H        2.6153190319    0.2945569883   -0.0901244531
H        1.0561151821   -1.8999914735   -0.1575116734
H       -1.3340977825   -1.0697682105   -1.3853829946
H       -1.9709169934    0.7334104412    1.1126867989
H       -1.1617866260    1.7014052791   -1.1097623326
C       -0.1796844245   -0.5852288140    1.1990113523
H       -0.0097242840   -0.8754942391    2.2305285241
13   
From optimize.out: Frame 10 / 26, Energy=    -286.8230279420
C        1.5431556691    0.3001916186   -0.2670650626
C        0.6260190743   -0.9044967160   -0.0606347430
C       -0.5567821550   -0.4555240283   -0.9467234327
C       -1.0384414260    0.3813186244    0.6679584033
C       -0.5005741795    0.9972268952   -0.6127497845
N        0.9146387737    1.3814903023   -0.5460033643
H        2.6189059586    0.2861571643   -0.0984088010
H        1.0662427692   -1.8953076495   -0.1813228064
H       -1.3550323082   -1.0600488319   -1.3527026797
H       -1.9874453748    0.7218887151    1.0783273666
H       -1.1506411210    1.7087753410   -1.1151348680
C       -0.1938599038   -0.6132084995    1.1966616465
H        0.0138142234   -0.8484629358    2.2377981258
13   
From optimize.out: Frame 9 / 26, Energy=    -286.8212493953
C        1.5433287304    0.3046670829   -0.2502877099
C        0.6329835172   -0.9032863115   -0.0548221971
C       -0.5542770791   -0.4552511426   -0.9346961239
C       -1.0361267723    0.3745579401    0.6673558808
C       -0.4970340117    0.9971580514   -0.6174719383
N        0.9130429469    1.3857233744   -0.5253372911
H        2.6242772455    0.2834466083   -0.1214439748
H        1.0825147523   -1.8858904809   -0.2073942513
H       -1.3724894324   -1.0503209654   -1.3161776828
H       -1.9934583570    0.7272257212    1.0476644434
H       -1.1416624903    1.7092295293   -1.1255585083
C       -0.2146955627   -0.6476947965    1.1948435186
H        0.0135965132   -0.8395646106    2.2433258346
13   
From optimize.out: Frame 8 / 26, Energy=    -286.8175231788
C        1.5438827949    0.3125689789   -0.2332038088
C        0.6435909138   -0.9005760425   -0.0460929694
C       -0.5499203494   -0.4564270152   -0.9153595668
C       -1.0281547479    0.3702457951    0.6743708921
C       -0.4935752695    0.9951864712   -0.6292857549
N        0.9075926343    1.3912276536   -0.5053640244
H        2.6291926783    0.2884738929   -0.1525392488
H        1.1009195099   -1.8735454502   -0.2347895171
H       -1.3867358826   -1.0391988407   -1.2760093696
H       -1.9889716680    0.7461062827    1.0225615535
H       -1.1334582368    1.7041888311   -1.1463004880
C       -0.2382751155   -0.6853531838    1.1936858217
H       -0.0060872616   -0.8528973729    2.2483264802
13   
From optimize.out: Frame 7 / 26, Energy=    -286.8110639237
C        1.5439080218    0.3217652020   -0.2184890121
C        0.6552933139   -0.8964108385   -0.0356529131
C       -0.5443270194   -0.4581001771   -0.8910908912
C       -1.0180095499    0.3664026943    0.6880752374
C       -0.4897637837    0.9935565024   -0.6478498777
N        0.8987647921    1.3976343614   -0.4876087934
H        2.6314029006    0.2987456592   -0.1861443828
H        1.1170660677   -1.8600487333   -0.2603420388
H       -1.3982757591   -1.0267812113   -1.2361497820
H       -1.9785023628    0.7688339704    1.0050254048
H       -1.1222519185    1.6982504021   -1.1787319875
C       -0.2613827349   -0.7223008041    1.1946266414
H       -0.0339219677   -0.8815470275    2.2543323950
13   
From optimize.out: Frame 6 / 26, Energy=    -286.8015363767
C        1.5433154426    0.3308986194   -0.2068353407
C        0.6668364322   -0.8904746130   -0.0236633534
C       -0.5366792574   -0.4597083083   -0.8648129293
C       -1.0077844701    0.3619392704    0.7072632559
C       -0.4857760213    0.9937742270   -0.6711487215
N        0.8870174532    1.4051810521   -0.4738054330
H        2.6308069355    0.3109410419   -0.2215440605
H        1.1301648658   -1.8456586196   -0.2827490047
H       -1.4074341562   -1.0133570225   -1.1996837326
H       -1.9656558413    0.7896935192    0.9949274662
H       -1.1067337838    1.6945118653   -1.2213783673
C       -0.2833283820   -0.7583972041    1.1996102992
H       -0.0647492172   -0.9193438280    2.2638199217
13   
From optimize.out: Frame 5 / 26, Energy=    -286.7889023469
C        1.5417337586    0.3398118221   -0.1976012226
C        0.6778956884   -0.8829413044   -0.0098543304
C       -0.5264877309   -0.4620417758   -0.8382978562
C       -0.9967363772    0.3576225796    0.7291763472
C       -0.4817781426    0.9955953422   -0.6961093819
N        0.8725469948    1.4147002707   -0.4632829405
H        2.6270112432    0.3239763087   -0.2592046497
H        1.1407265575   -1.8305617659   -0.3019001596
H       -1.4145369886   -1.0005655281   -1.1679554334
H       -1.9502834334    0.8087771303    0.9897253057
H       -1.0877392842    1.6932112526   -1.2696990930
C       -0.3044665816   -0.7943837225    1.2082511842
H       -0.0978857039   -0.9632006096    2.2767522302
13   
From optimize.out: Frame 4 / 26, Energy=    -286.7730641996
C        1.5398822690    0.3477585476   -0.1893366698
C        0.6887992800   -0.8740926002    0.0061907350
C       -0.5134526616   -0.4658941833   -0.8121153301
C       -0.9842904845    0.3549062575    0.7508812200
C       -0.4788739762    0.9991393446   -0.7203216586
N        0.8544161743    1.4267842271   -0.4544014978
H        2.6206632555    0.3360140278   -0.2989271292
H        1.1497762049   -1.8146915672   -0.3184582490
H       -1.4202319847   -0.9900677533   -1.1416402223
H       -1.9321009640    0.8279493288    0.9857108231
H       -1.0679963070    1.6946678765   -1.3196595175
C       -0.3241777010   -0.8309213087    1.2196275175
H       -0.1324131047   -1.0115521972    2.2924499788
13   
From optimize.out: Frame 3 / 26, Energy=    -286.7533419934
C        1.5364668960    0.3548533749   -0.1808781952
C        0.6990332322   -0.8651153347    0.0244533023
C       -0.4977078681   -0.4731254101   -0.7866126132
C       -0.9691421925    0.3553107388    0.7695077470
C       -0.4767361311    1.0052810061   -0.7426148161
N        0.8317277294    1.4448891735   -0.4454906014
H        2.6102112661    0.3464386259   -0.3386236140
H        1.1569717024   -1.7994312545   -0.3321100530
H       -1.4257120593   -0.9853332416   -1.1207592877
H       -1.9098039526    0.8491742074    0.9797517413
H       -1.0484518507    1.6999633762   -1.3680343513
C       -0.3409662970   -0.8689232837    1.2323513739
H       -0.1658904748   -1.0639819782    2.3090593675
13   
From optimize.out: Frame 2 / 26, Energy=    -286.7268543876
C        1.5357954239    0.3586235517   -0.1717875735
C        0.7103354569   -0.8567441202    0.0444267019
C       -0.4780048060   -0.4831819970   -0.7628021689
C       -0.9556077861    0.3612777878    0.7836720450
C       -0.4795344209    1.0194141526   -0.7635080653
N        0.8026495150    1.4692483755   -0.4378387306
H        2.6019800302    0.3488243883   -0.3743911231
H        1.1652441168   -1.7855510538   -0.3438242013
H       -1.4352979599   -0.9896280755   -1.1095496874
H       -1.8889374415    0.8731793095    0.9684969591
H       -1.0357166073    1.7163376000   -1.4158516621
C       -0.3508461703   -0.9102341981    1.2505715817
H       -0.1920593507   -1.1215657209    2.3323859244
13   
From optimize.out: Frame 1 / 26, Energy=    -286.6936324126
C        1.5171310513    0.3641036244   -0.1656604679
C        0.7192280116   -0.8523838956    0.0674108465
C       -0.4491717245   -0.4954252751   -0.7406739605
C       -0.9321298413    0.3726099399    0.7919205191
C       -0.4813336651    1.0333957446   -0.7775366665
N        0.7694620378    1.4968605922   -0.4283485031
H        2.5754788931    0.3512224812   -0.4078238186
H        1.1691586546   -1.7765451171   -0.3508633279
H       -1.4343226848   -1.0011357924   -1.1067410801
H       -1.8541725986    0.9026138427    0.9531026919
H       -1.0247504074    1.7355492060   -1.4545708838
C       -0.3579425282   -0.9505891400    1.2660811119
H       -0.2166351986   -1.1802762109    2.3537035390
13   
C6H6N->C6H6N atoms 1-13 frame 233 charge -0.000 sz -1.000 sz^2 0.704
C        1.5171310513    0.3641036244   -0.1656604679
C        0.7192280116   -0.8523838956    0.0674108465
C       -0.4491717245   -0.4954252751   -0.7406739605
C       -0.9321298413    0.3726099399    0.7919205191
C       -0.4813336651    1.0333957446   -0.7775366665
N        0.7694620378    1.4968605922   -0.4283485031
H        2.5754788931    0.3512224812   -0.4078238186
H        1.1691586546   -1.7765451171   -0.3508633279
H       -1.4343226848   -1.0011357924   -1.1067410801
H       -1.8541725986    0.9026138427    0.9531026919
H       -1.0247504074    1.7355492060   -1.4545708838
C       -0.3579425282   -0.9505891400    1.2660811119
H       -0.2166351986   -1.1802762109    2.3537035390
13   
C6H6N->C6H6N atoms 1-13 frame 234 charge -0.000 sz -1.000 sz^2 0.699
C        1.5350180257    0.3775126884   -0.1704897113
C        0.7326785123   -0.8424894233    0.0706356391
C       -0.4387078649   -0.5037080590   -0.7161522426
C       -0.9335115105    0.3845403786    0.7942823887
C       -0.4770736504    1.0226812195   -0.7787949597
N        0.7548192349    1.4937017555   -0.4397618936
H        2.5839318279    0.3484941829   -0.4371389709
H        1.1599381145   -1.7755122034   -0.3321221020
H       -1.4271430960   -0.9595622450   -1.1222223099
H       -1.8593690012    0.9137405137    0.9449627448
H       -1.0322681140    1.7118512496   -1.4489883510
C       -0.3704899417   -0.9497787882    1.2659088153
H       -0.2278225366   -1.2214712693    2.3698809531
13   
C6H6N->C6H6N atoms 1-13 frame 235 charge +0.000 sz -1.000 sz^2 0.692
C        1.5526735109    0.3907249533   -0.1766329834
C        0.7453464600   -0.8334231430    0.0727702774
C       -0.4304148954   -0.5106489138   -0.6927087157
C       -0.9352448597    0.3967985225    0.7961047484
C       -0.4727123119    1.0120303082   -0.7801271146
N        0.7415391849    1.4897984047   -0.4521716586
H        2.5927167938    0.3450440062   -0.4653643958
H        1.1502040920   -1.7746653192   -0.3119525187
H       -1.4155458694   -0.9180554208   -1.1367778471
H       -1.8654890526    0.9248402082    0.9388850563
H       -1.0408552181    1.6866432612   -1.4408796568
C       -0.3831780469   -0.9477959192    1.2656203833
H       -0.2390397876   -1.2612909484    2.3832344252
13   
C6H6N->C6H6N atoms 1-13 frame 236 charge -0.000 sz -1.000 sz^2 0.679
C        1.5699924403    0.4035764358   -0.1839707173
C        0.7572320742   -0.8252241380    0.0739263655
C       -0.4243653126   -0.5161181070   -0.6703732966
C       -0.9372938438    0.4093634552    0.7975405894
C       -0.4682780509    1.0014779688   -0.7813410441
N        0.7298300210    1.4852460540   -0.4653295265
H        2.6020263158    0.3410841921   -0.4924277790
H        1.1403698701   -1.7743584523   -0.2905872881
H       -1.3998025359   -0.8774856117   -1.1501590040
H       -1.8723219410    0.9359111254    0.9349727721
H       -1.0506975124    1.6604279028   -1.4304174971
C       -0.3960438117   -0.9447160765    1.2653624550
H       -0.2506477131   -1.2991847486    2.3928039705
13   
C6H6N->C6H6N atoms 1-13 frame 237 charge +0.000 sz -1.000 sz^2 0.657
C        1.5868946443    0.4159218823   -0.1923609100
C        0.7683555849   -0.8179038205    0.0742118765
C       -0.4205724265   -0.5200022138   -0.6491617912
C       -0.9396210818    0.4222148963    0.7987362601
C       -0.4637923243    0.9910639325   -0.7822438339
N        0.7199012434    1.4801628986   -0.4789830646
H        2.6120055070    0.3368411228   -0.5182378673
H        1.1308608679   -1.7749742188   -0.2682742294
H       -1.3803418414   -0.8387324404   -1.1622566442
H       -1.8796051219    0.9469263163    0.9332780597
H       -1.0620083715    1.6337731561   -1.4178537369
C       -0.4091184485   -0.9406155234    1.2652374262
H       -0.2629582315   -1.3346759881    2.3979084550
13   
C6H6N->C6H6N atoms 1-13 frame 238 charge -0.000 sz -1.000 sz^2 0.632
C        1.6033270805    0.4276362225   -0.2016504187
C        0.7787586485   -0.8114517477    0.0737248086
C       -0.4189848276   -0.5222127279   -0.6290725611
C       -0.9421811495    0.4353304086    0.7998326121
C       -0.4592699614    0.9808320273   -0.7826461314
N        0.7119630352    1.4746801068   -0.4928888021
H        2.6227422474    0.3325562179   -0.5426778722
H        1.1220870243   -1.7768828567   -0.2452530691
H       -1.3577516381   -0.8026665410   -1.1731065055
H       -1.8870430404    0.9578423348    0.9338112213
H       -1.0750031718    1.6072728869   -1.4034926712
C       -0.4224167969   -0.9355683573    1.2653104442
H       -0.2762274504   -1.3673679742    2.3981089452
13   
C6H6N->C6H6N atoms 1-13 frame 239 charge -0.000 sz -1.000 sz^2 0.604
C        1.6192630298    0.4386134946   -0.2116794387
C        0.7885026563   -0.8058431869    0.0725541341
C       -0.4194875054   -0.5226918302   -0.6100791116
C       -0.9449184889    0.4486854087    0.8009655623
C       -0.4547205337    0.9708287000   -0.7823679998
N        0.7062190295    1.4689347566   -0.5068202859
H        2.6342692495    0.3284806089   -0.5656105327
H        1.1144140535   -1.7803932010   -0.2217384895
H       -1.3327714413   -0.7701321175   -1.1828878895
H       -1.8943274507    0.9686021914    0.9365404969
H       -1.0898614745    1.5814956270   -1.3876468119
C       -0.4359338586   -0.9296477123    1.2656175777
H       -0.2906472654   -1.3969327392    2.3931527886
13   
C6H6N->C6H6N atoms 1-13 frame 240 charge -0.000 sz -1.000 sz^2 0.577
C        1.6346962935    0.4487661445   -0.2222917542
C        0.7976649127   -0.8010472853    0.0707763222
C       -0.4219066274   -0.5214190658   -0.5921296189
C       -0.9477669754    0.4622522221    0.8022657836
C       -0.4501539703    0.9611033596   -0.7812444742
N        0.7028585188    1.4630586373   -0.5205787936
H        2.6465705603    0.3248726037   -0.5868815650
H        1.1081385212   -1.7857033793   -0.1979090986
H       -1.3062762731   -0.7419300010   -1.1919148240
H       -1.9011592929    0.9791383656    0.9413967205
H       -1.1066794583    1.5569351412   -1.3705912759
C       -0.4496426632   -0.9229261737    1.2661724956
H       -0.3063435461   -1.4231005688    2.3829300826
13   
C6H6N->C6H6N atoms 1-13 frame 241 charge +0.000 sz -1.000 sz^2 0.542
C        1.6496324653    0.4580222045   -0.2333436490
C        0.8063334494   -0.7970354410    0.0684544595
C       -0.4260203438   -0.5184175944   -0.5751463789
C       -0.9506518717    0.4760003888    0.8038595428
C       -0.4455870450    0.9517085250   -0.7791304129
N        0.7020463745    1.4571675983   -0.5340013067
H        2.6595900781    0.3219925791   -0.6063288096
H        1.1034680131   -1.7928575682   -0.1739042273
H       -1.2792447582   -0.7187979964   -1.2006160179
H       -1.9072721363    0.9893758519    0.9482752200
H       -1.1254236339    1.5339691530   -1.3525244133
C       -0.4634962406   -0.9154772825    1.2669706036
H       -0.3233743508   -1.4456504182    2.3674353897
13   
C6H6N->C6H6N atoms 1-13 frame 242 charge +0.000 sz -1.000 sz^2 0.527
C        1.6640743416    0.4663216531   -0.2447145121
C        0.8145988400   -0.7937864313    0.0656377096
C       -0.4315791403   -0.5137610781   -0.5590251857
C       -0.9534944121    0.4899059415    0.8058719283
C       -0.4410543413    0.9427008008   -0.7759020630
N        0.7039137138    1.4513485978   -0.5469698866
H        2.6732464928    0.3200997395   -0.6237929070
H        1.1005090522   -1.8017247014   -0.1498296342
H       -1.2527004000   -0.7013878524   -1.2094900619
H       -1.9124548775    0.9992309556    0.9570347165
H       -1.1458914454    1.5128335837   -1.3335384330
C       -0.4774356583   -0.9073750952    1.2679888568
H       -0.3417321653   -1.4644061135    2.3467294722
13   
C6H6N->C6H6N atoms 1-13 frame 243 charge -0.000 sz -1.000 sz^2 0.542
C        1.6780139315    0.4736132393   -0.2563109670
C        0.8225436441   -0.7912900872    0.0623659986
C       -0.4383284969   -0.5075768035   -0.5436418799
C       -0.9562170276    0.5039541302    0.8084284610
C       -0.4366102347    0.9341466337   -0.7714624551
N        0.7085424249    1.4456550417   -0.5594171153
H        2.6874353658    0.3194395707   -0.6391448226
H        1.0992687728   -1.8120019782   -0.1257733957
H       -1.2276204160   -0.6902363635   -1.2190326512
H       -1.9165748647    1.0086211663    0.9674998534
H       -1.1676985473    1.4936234175   -1.3136204412
C       -0.4913959453   -0.8986887903    1.2691843346
H       -0.3613586067   -1.4792591767    2.3209250805
13   
C6H6N->C6H6N atoms 1-13 frame 244 charge -0.000 sz -1.000 sz^2 0.587
C        1.6914278161    0.4798541409   -0.2680684263
C        0.8302326047   -0.7895453213    0.0586751285
C       -0.4460328640   -0.5000473901   -0.5288630229
C       -0.9587498680    0.5181454833    0.8116549742
C       -0.4323266924    0.9261307925   -0.7657470745
N        0.7159503256    1.4401063797   -0.5713321126
H        2.7020324904    0.3202279808   -0.6523189758
H        1.0996648814   -1.8232435481   -0.1018244852
H       -1.2048258607   -0.6857301564   -1.2296397659
H       -1.9195947220    1.0174750945    0.9794645059
H       -1.1902949669    1.4763137910   -1.2926785412
C       -0.5053127623   -0.8894687863    1.2704867458
H       -0.3821703820   -1.4902184604    2.2901910497
13   
C6H6N->C6H6N atoms 1-13 frame 245 charge +0.000 sz -1.000 sz^2 0.623
C        1.7042780962    0.4850113878   -0.2799542558
C        0.8377018974   -0.7885562345    0.0545875156
C       -0.4544947212   -0.4913995369   -0.5145800696
C       -0.9610397622    0.5324834875    0.8156591922
C       -0.4282863796    0.9187638648   -0.7587363135
N        0.7260773834    1.4346988232   -0.5827608114
H        2.7168924671    0.3226322313   -0.6633381985
H        1.1015421776   -1.8349052030   -0.0781018700
H       -1.1848705487   -0.6880684994   -1.2415000514
H       -1.9215775070    1.0257495369    0.9927051455
H       -1.2130058637    1.4608013472   -1.2705979356
C       -0.5191273984   -0.8797327387    1.2717875635
H       -0.4040898409   -1.4974784663    2.2548300890
13   
C6H6N->C6H6N atoms 1-13 frame 246 charge +0.000 sz -1.000 sz^2 0.642
C        1.7165090839    0.4890636527   -0.2919786782
C        0.8449531804   -0.7883269530    0.0500880463
C       -0.4635645068   -0.4818879469   -0.5007505414
C       -0.9630580090    0.5469588237    0.8205015589
C       -0.4245772668    0.9121813728   -0.7504632973
N        0.7387861210    1.4294150070   -0.5938018453
H        2.7318593714    0.3267653157   -0.6722987986
H        1.1046891374   -1.8463988016   -0.0547860426
H       -1.1679819176   -0.6972274760   -1.2545141019
H       -1.9226771441    1.0334372083    1.0069891644
H       -1.2350894229    1.4469525361   -1.2473082894