13   
From optimize.out: Frame 1 / 2, Energy=    -286.8516345402
C        1.5189874062    0.3441588063   -0.2644252994
C        0.6216192586   -0.8944701024   -0.0647318007
C       -0.3948716278   -0.5208172525   -1.1474916430
C       -1.0026577606    0.5083552418    0.8086557238
C       -0.5872412418    0.8947648274   -0.6197781154
N        0.8524697132    1.3865955360   -0.5761305058
H        2.5997530457    0.3578848315   -0.1336547130
H        1.1020933072   -1.8728860788   -0.0775504506
H       -1.2194040131   -1.1747379185   -1.4269638383
H       -1.7237658678    1.0470917705    1.4134949852
H       -1.2335871503    1.5920977564   -1.1505755036
C       -0.2723898965   -0.5664110507    1.1480186723
H       -0.2610051735   -1.1016263668    2.0911324881
13   
From optimize.out: Frame 25 / 26, Energy=    -286.8516345401
C        1.5137410587    0.3315299713   -0.2733418892
C        0.6108526944   -0.8984791301   -0.0586723881
C       -0.4056189328   -0.5183208993   -1.1403480269
C       -0.9934443166    0.5230307753    0.8284974107
C       -0.5892156608    0.8914047551   -0.6137244779
N        0.8503762444    1.3764747982   -0.5857021591
H        2.5931641205    0.3490905865   -0.1341697507
H        1.0716245686   -1.8855816764   -0.0604413613
H       -1.1817023676   -1.1665515697   -1.5297584547
H       -1.7438944746    1.0241081408    1.4275233046
H       -1.2419265493    1.5869662645   -1.1377308135
C       -0.2618562151   -0.5473077902    1.1649115243
H       -0.2221001698   -1.0663642259    2.1129570817
13   
From optimize.out: Frame 23 / 26, Energy=    -286.8516095087
C        1.5180717839    0.3136263322   -0.2807776946
C        0.6062614327   -0.9002520422   -0.0699725775
C       -0.4354723543   -0.5112202283   -1.1256489873
C       -0.9916557873    0.5097225635    0.8235828701
C       -0.5701667097    0.8988506333   -0.6092902172
N        0.8635980611    1.3636036993   -0.5938978394
H        2.5913302612    0.3360282244   -0.1016076749
H        1.0414178304   -1.8979906754   -0.0805511991
H       -1.1853636515   -1.1443025149   -1.5677219640
H       -1.8016957230    0.9535750719    1.3912141627
H       -1.2384070778    1.5936164242   -1.1108092357
C       -0.2400296490   -0.5302976767    1.1757489530
H       -0.1578884166   -0.9849598112    2.1497314041
13   
From optimize.out: Frame 21 / 26, Energy=    -286.8514348422
C        1.5278091060    0.3034817938   -0.2868464244
C        0.6086264596   -0.8993206081   -0.0723658690
C       -0.4701645596   -0.5022753447   -1.0873385158
C       -1.0033157925    0.4783601228    0.7918977585
C       -0.5491627477    0.9231277295   -0.6052113139
N        0.8810476721    1.3607393028   -0.5894018958
H        2.5985016163    0.3192910724   -0.0909076988
H        1.0351682997   -1.9006235167   -0.1057855464
H       -1.2162232174   -1.1283308886   -1.5459438234
H       -1.8617406690    0.8812442560    1.3217863721
H       -1.2214701449    1.6223524444   -1.0953042211
C       -0.2221008900   -0.5253321888    1.1860822284
H       -0.1069751326   -0.9327141748    2.1793389497
13   
From optimize.out: Frame 20 / 26, Energy=    -286.8512761882
C        1.5383701537    0.3004715649   -0.2889359669
C        0.6164604741   -0.8990828276   -0.0682704156
C       -0.5072826933   -0.4876777044   -1.0330141682
C       -1.0192490776    0.4459416821    0.7495006644
C       -0.5313476119    0.9542938065   -0.6074855558
N        0.8958711851    1.3646535707   -0.5825730128
H        2.6093245423    0.3075381952   -0.0927244602
H        1.0459540156   -1.8989900162   -0.1265697603
H       -1.2618239479   -1.1101081369   -1.4910591238
H       -1.9133479020    0.8241096694    1.2402270413
H       -1.1994306128    1.6576083705   -1.0993311470
C       -0.2028621332   -0.5395747647    1.1962864258
H       -0.0706363920   -0.9191834097    2.2039494791
13   
From optimize.out: Frame 18 / 26, Energy=    -286.8504452116
C        1.5422329038    0.3006947951   -0.2889699894
C        0.6203432087   -0.9020548581   -0.0640740993
C       -0.5428561933   -0.4671152221   -0.9776809818
C       -1.0281898089    0.4090494128    0.6985241752
C       -0.5130335302    0.9822962209   -0.6104640532
N        0.9077741065    1.3739844391   -0.5782924121
H        2.6128459737    0.3020670374   -0.0897216289
H        1.0502550331   -1.9008727734   -0.1381485199
H       -1.3064881970   -1.0843059987   -1.4254749607
H       -1.9487577215    0.7625292539    1.1590485119
H       -1.1761328704    1.6874283214   -1.1048494302
C       -0.1790521398   -0.5615624178    1.2005184301
H       -0.0389407648   -0.9021382105    2.2195849584
13   
From optimize.out: Frame 16 / 26, Energy=    -286.8462081473
C        1.5430713257    0.3015537976   -0.2672255965
C        0.6267762559   -0.9038482173   -0.0596098595
C       -0.5548647623   -0.4568192503   -0.9473784124
C       -1.0359122572    0.3834686270    0.6716473794
C       -0.5013382184    0.9953336534   -0.6136512778
N        0.9132987243    1.3815747883   -0.5471804602
H        2.6190848401    0.2886529637   -0.1024986073
H        1.0672258888   -1.8941322013   -0.1795240411
H       -1.3514982727   -1.0612107751   -1.3550770538
H       -1.9822703534    0.7287585617    1.0833280109
H       -1.1525037793    1.7057040652   -1.1159371786
C       -0.1950426538   -0.6125898077    1.1970911024
H        0.0039732624   -0.8564462051    2.2360159946
13   
From optimize.out: Frame 15 / 26, Energy=    -286.8423508947
C        1.5437618544    0.3124097212   -0.2354882169
C        0.6431267855   -0.9003829196   -0.0463187468
C       -0.5499054380   -0.4565821101   -0.9155201359
C       -1.0278649017    0.3711086695    0.6759334296
C       -0.4938846426    0.9952329056   -0.6302799765
N        0.9070077505    1.3909787683   -0.5080516688
H        2.6280526109    0.2899683227   -0.1507106629
H        1.0987420270   -1.8742732209   -0.2316309642
H       -1.3842516581   -1.0399555396   -1.2799385235
H       -1.9869256570    0.7465438557    1.0275011640
H       -1.1338195068    1.7038659183   -1.1477487088
C       -0.2359838786   -0.6815528888    1.1943228251
H       -0.0080553455   -0.8573614824    2.2479301856
13   
From optimize.out: Frame 13 / 26, Energy=    -286.8305542471
C        1.5434839402    0.3269929874   -0.2122256578
C        0.6618894549   -0.8927657034   -0.0285675301
C       -0.5396619362   -0.4590132707   -0.8757509277
C       -1.0121364138    0.3637590411    0.6998247374
C       -0.4874534588    0.9939335810   -0.6618539417
N        0.8916312430    1.4021166550   -0.4802345894
H        2.6306781130    0.3060001194   -0.2066846800
H        1.1241597650   -1.8516766413   -0.2727589322
H       -1.4032013131   -1.0189474529   -1.2157064072
H       -1.9708126656    0.7805380974    1.0002515548
H       -1.1127664175    1.6964073650   -1.2045765261
C       -0.2738059506   -0.7428793372    1.1980358071
H       -0.0520043605   -0.9044654407    2.2602470930
13   
From optimize.out: Frame 11 / 26, Energy=    -286.8240569261
C        1.5414759121    0.3403712269   -0.1970647527
C        0.6789012272   -0.8817788906   -0.0078033261
C       -0.5245832115   -0.4627445111   -0.8358411000
C       -0.9952293049    0.3576960617    0.7312877243
C       -0.4817248623    0.9963317394   -0.6983246648
N        0.8699785901    1.4164417840   -0.4628468517
H        2.6257948509    0.3249485045   -0.2635090195
H        1.1412234320   -1.8288572242   -0.3028785519
H       -1.4147441546   -1.0000453465   -1.1666575437
H       -1.9478908698    0.8105979818    0.9897025861
H       -1.0856005624    1.6939809985   -1.2749834608
C       -0.3060487440   -0.7980117163    1.2100004510
H       -0.1015523028   -0.9689306081    2.2789185098
13   
From optimize.out: Frame 7 / 26, Energy=    -286.8110639237
C        1.5377897106    0.3516326371   -0.1845784980
C        0.6944519484   -0.8690514993    0.0166714487
C       -0.5043248663   -0.4703324733   -0.7979150130
C       -0.9754975088    0.3554925732    0.7609550621
C       -0.4777653814    1.0028775251   -0.7325820757
N        0.8411876253    1.4376152598   -0.4494089841
H        2.6143380756    0.3416646467   -0.3211497776
H        1.1535910919   -1.8062178023   -0.3257666356
H       -1.4232754391   -0.9880814950   -1.1305758166
H       -1.9191426651    0.8400696044    0.9821501695
H       -1.0570764617    1.6980754209   -1.3465612500
C       -0.3332404722   -0.8523670706    1.2269068503
H       -0.1510356573   -1.0413773267    2.3018545200
13   
From optimize.out: Frame 6 / 26, Energy=    -286.8015363767
C        1.5323786330    0.3588071461   -0.1724618495
C        0.7097544506   -0.8576515261    0.0448123447
C       -0.4763532469   -0.4835672336   -0.7634850577
C       -0.9538899720    0.3624189321    0.7822011544
C       -0.4794553455    1.0194498987   -0.7618604300
N        0.8020219297    1.4697648220   -0.4376161075
H        2.5985893285    0.3485499111   -0.3733602590
H        1.1643219213   -1.7867206539   -0.3427039168
H       -1.4332420051   -0.9912572158   -1.1116274741
H       -1.8865358939    0.8740182246    0.9676703145
H       -1.0364324754    1.7170225052   -1.4134517536
C       -0.3499657004   -0.9096237336    1.2499796667
H       -0.1911916239   -1.1212110768    2.3319033679
13   
From optimize.out: Frame 4 / 26, Energy=    -286.7730641996
C        1.5328966994    0.3759209240   -0.1699572723
C        0.7310658925   -0.8436836212    0.0702230815
C       -0.4400097954   -0.5026880724   -0.7190820912
C       -0.9333584343    0.3831403524    0.7939886420
C       -0.4775742263    1.0239494128   -0.7786466800
N        0.7565920450    1.4940536287   -0.4384407998
H        2.5829448288    0.3487969665   -0.4336420146
H        1.1610161114   -1.7756431540   -0.3342959450
H       -1.4278618878   -0.9644845360   -1.1203631195
H       -1.8587806475    0.9124250327    0.9459871384
H       -1.0314135962    1.7146108590   -1.4495740581
C       -0.3690119738   -0.9498401947    1.2659270870
H       -0.2265050158   -1.2165575975    2.3678760315
13   
From optimize.out: Frame 2 / 26, Energy=    -286.7268543876
C        1.5679191074    0.4020314626   -0.1831263772
C        0.7557962387   -0.8262249303    0.0737646966
C       -0.4251495541   -0.5154209181   -0.6730633759
C       -0.9370575965    0.4078763197    0.7973641509
C       -0.4688043640    1.0027380260   -0.7811858751
N        0.7312764867    1.4857737345   -0.4637757730
H        2.6009386031    0.3415495124   -0.4891702684
H        1.1415532808   -1.7744249562   -0.2931046436
H       -1.4015745866   -0.8823735746   -1.1485301664
H       -1.8715190332    0.9345917370    0.9355021410
H       -1.0495705582    1.6635403311   -1.4316048930
C       -0.3945189972   -0.9450539216    1.2653975776
H       -0.2492890268   -1.2946028225    2.3915328066
13   
From optimize.out: Frame 1 / 26, Energy=    -286.6936324126
C        1.6026580475    0.4271460358   -0.2013026268
C        0.7783252090   -0.8117346158    0.0737234349
C       -0.4191120099   -0.5220696440   -0.6299052163
C       -0.9420841439    0.4348163059    0.7997918940
C       -0.4594490050    0.9812466587   -0.7826063965
N        0.7123507250    1.4748914089   -0.4923343132
H        2.6223403053    0.3327365661   -0.5416564672
H        1.1224745194   -1.7768602652   -0.2461547756
H       -1.3585852282   -0.8042227294   -1.1726455162
H       -1.8867386420    0.9574025684    0.9338588460
H       -1.0745469178    1.6083555495   -1.4040198562
C       -0.4218947545   -0.9357421842    1.2653151348
H       -0.2757381047   -1.3659656547    2.3979358583
13   
C6H6N->C6H6N atoms 1-13 frame 234 charge -0.000 sz -1.000 sz^2 0.699
C        1.6369847974    0.4501723953   -0.2239971327
C        0.7989913561   -0.8004439382    0.0704103903
C       -0.4225644734   -0.5209279790   -0.5895323371
C       -0.9482096406    0.4643697447    0.8025190273
C       -0.4494523324    0.9596655266   -0.7808987358
N        0.7027823924    1.4621540046   -0.5226349501
H        2.6485843015    0.3244484724   -0.5898365323
H        1.1074510875   -1.7868335532   -0.1942157837
H       -1.3021311671   -0.7384775527   -1.1932584243
H       -1.9020821964    0.9807058337    0.9424880567
H       -1.1095922539    1.5534360186   -1.3677955627
C       -0.4517748975   -0.9217688611    1.2662990631
H       -0.3089869735   -1.4265001119    2.3804529213
13   
C6H6N->C6H6N atoms 1-13 frame 236 charge -0.000 sz -1.000 sz^2 0.679
C        1.6703751306    0.4695942818   -0.2499739980
C        0.8181917601   -0.7926776225    0.0641428358
C       -0.4346643327   -0.5109205943   -0.5520712209
C       -0.9547220541    0.4962762285    0.8070513371
C       -0.4390459898    0.9388414563   -0.7738520691
N        0.7060934703    1.4487728219   -0.5525949534
H        2.6796871093    0.3198452018   -0.6306850334
H        1.0999943761   -1.8064057949   -0.1389327028
H       -1.2414082677   -0.6965341803   -1.2138476960
H       -1.9142896602    1.0034698134    0.9618197157
H       -1.1557909585    1.5041841074   -1.3244810068
C       -0.4837600039   -0.9034231233    1.2685328170
H       -0.3506605795   -1.4710225956    2.3348919746
13   
C6H6N->C6H6N atoms 1-13 frame 238 charge -0.000 sz -1.000 sz^2 0.632
C        1.7012273338    0.4837501855   -0.2771650009
C        0.8359349640   -0.7888217717    0.0555304402
C       -0.4525290584   -0.4934003761   -0.5179601415
C       -0.9604892356    0.5291163939    0.8147536414
C       -0.4292523786    0.9205330934   -0.7603320567
N        0.7238041470    1.4359759012   -0.5800576480
H        2.7133992429    0.3221425315   -0.6606590027
H        1.1011521592   -1.8321464191   -0.0837034894
H       -1.1896964796   -0.6878102717   -1.2387540109
H       -1.9210761753    1.0237780278    0.9896320430
H       -1.2076255780    1.4645208802   -1.2757401266
C       -0.5158709647   -0.8819992653    1.2714713185
H       -0.3989779767   -1.4956389096    2.2629840335
13   
C6H6N->C6H6N atoms 1-13 frame 240 charge -0.000 sz -1.000 sz^2 0.577
C        1.7276802432    0.4918657260   -0.3038633315
C        0.8517421952   -0.7888722914    0.0452324394
C       -0.4728870845   -0.4720721522   -0.4878230184
C       -0.9647372829    0.5611479790    0.8260606285
C       -0.4214030144    0.9067594309   -0.7412391853
N        0.7535424383    1.4243808862   -0.6042998596
H        2.7463405416    0.3326136013   -0.6790754808
H        1.1087773797   -1.8567658090   -0.0328223471
H       -1.1545855121   -0.7127705331   -1.2678463976
H       -1.9231091908    1.0403413690    1.0216507526
H       -1.2550937225    1.4350666818   -1.2234887767
C       -0.5458998802   -0.8588876374    1.2736148714
H       -0.4503671107   -1.5028072510    2.1738997053
13   
C6H6N->C6H6N atoms 1-13 frame 241 charge +0.000 sz -1.000 sz^2 0.542
C        1.7493845846    0.4945791917   -0.3306372245
C        0.8654509131   -0.7922393253    0.0328270534
C       -0.4943540665   -0.4503065567   -0.4619253994
C       -0.9676054874    0.5922060233    0.8403371872
C       -0.4160988822    0.8986518683   -0.7183539980
N        0.7916614913    1.4136996833   -0.6271943709
H        2.7769590466    0.3508951689   -0.6887439134
H        1.1197602306   -1.8747113449    0.0113860005
H       -1.1330841024   -0.7640621338   -1.2956096564
H       -1.9234009802    1.0539126369    1.0545671183
H       -1.2912818677    1.4137742725   -1.1691658480
C       -0.5737036792   -0.8337321832    1.2726078276
H       -0.5036872006   -1.5026673009    2.0799052236
13   
C6H6N->C6H6N atoms 1-13 frame 243 charge -0.000 sz -1.000 sz^2 0.542
C        1.7669314192    0.4928464499   -0.3598268868
C        0.8773193423   -0.7981747066    0.0169018419
C       -0.5172057437   -0.4301976237   -0.4404721361
C       -0.9695895139    0.6237308316    0.8567013798
C       -0.4133201834    0.8969270911   -0.6929690021
N        0.8361456140    1.4033352597   -0.6521120783
H        2.8056867154    0.3770855361   -0.6928452629
H        1.1324732864   -1.8833899893    0.0484196110
H       -1.1185689662   -0.8341188324   -1.3146092044
H       -1.9251904096    1.0664567110    1.0867570074
H       -1.3134990110    1.3988933421   -1.1141113601
C       -0.6004470938   -0.8042072780    1.2656274588
H       -0.5607354556   -1.5091867917    1.9925386319
13   
C6H6N->C6H6N atoms 1-13 frame 245 charge +0.000 sz -1.000 sz^2 0.623
C        1.7803429363    0.4872040496   -0.3929752977
C        0.8874578611   -0.8058882347   -0.0033569766
C       -0.5412465796   -0.4144647486   -0.4241391670
C       -0.9708989249    0.6564287142    0.8744210572
C       -0.4130064648    0.9022795585   -0.6662284684
N        0.8846370251    1.3930981294   -0.6815126203
H        2.8324734071    0.4111816158   -0.6932288140
H        1.1467217822   -1.8817028500    0.0771947951
H       -1.1063698384   -0.9152651820   -1.3170065079
H       -1.9307562216    1.0794157533    1.1167595416
H       -1.3203242104    1.3906297451   -1.0620686732
C       -0.6259300969   -0.7686163955    1.2507436764
H       -0.6231006753   -1.5343001553    1.9213974547
13   
C6H6N->C6H6N atoms 1-13 frame 246 charge +0.000 sz -1.000 sz^2 0.642
C        1.7894526777    0.4779055260   -0.4288698047
C        0.8959667220   -0.8147465929   -0.0269164770
C       -0.5649645500   -0.4067807109   -0.4129738694
C       -0.9714921860    0.6886187593    0.8935131846
C       -0.4148893516    0.9138537744   -0.6387458347
N        0.9327680672    1.3831240406   -0.7147435878
H        2.8560332042    0.4510217908   -0.6903947380
H        1.1630522544   -1.8717827053    0.0965165423
H       -1.0939668953   -0.9974706775   -1.2978525202
H       -1.9404090100    1.0922121784    1.1439418661
H       -1.3132676262    1.3901783596   -1.0183672321
C       -0.6482648530   -0.7294581550    1.2290513557
H       -0.6900184534   -1.5766755875    1.8658411151
13   
C6H6N->C6H6N atoms 1-13 frame 248 charge -0.000 sz -1.000 sz^2 0.635
C        1.7949512199    0.4647928980   -0.4653645975
C        0.9033817755   -0.8247217188   -0.0524415110
C       -0.5871759590   -0.4096750283   -0.4057319838
C       -0.9714694056    0.7181872648    0.9153573616
C       -0.4184436050    0.9293496619   -0.6092821725
N        0.9774344956    1.3734796239   -0.7495588097
H        2.8753752844    0.4938341319   -0.6836034059
H        1.1826823153   -1.8589149142    0.1068770687
H       -1.0798979303   -1.0739722759   -1.2578102479
H       -1.9527066491    1.1030256487    1.1700698824
H       -1.2974190713    1.3987969413   -0.9858060133
C       -0.6665263055   -0.6914412432    1.2030115282
H       -0.7601861649   -1.6227409900    1.8142829009
13   
C6H6N->C6H6N atoms 1-13 frame 250 charge +0.000 sz -1.000 sz^2 0.619
C        1.7979086777    0.4475237790   -0.5007475608
C        0.9103808439   -0.8358626271   -0.0792949441
C       -0.6072200652   -0.4242351148   -0.4012741987
C       -0.9711376231    0.7436997694    0.9415236152
C       -0.4231804246    0.9464434081   -0.5759858876
N        1.0172100575    1.3645821607   -0.7840214373
H        2.8896540878    0.5371913649   -0.6715004020
H        1.2069716858   -1.8486366601    0.1095452802
H       -1.0634679486   -1.1419060535   -1.2007376388
H       -1.9656746182    1.1103011198    1.1975903620
H       -1.2785172201    1.4181299425   -0.9657143515
C       -0.6810750798   -0.6583644500    1.1741740282
H       -0.8318523731   -1.6588666388    1.7564431354
13   
C6H6N->C6H6N atoms 1-13 frame 252 charge -0.000 sz -1.000 sz^2 0.614
C        1.7993094750    0.4263250563   -0.5333805283
C        0.9175442055   -0.8476921888   -0.1069352765
C       -0.6242540675   -0.4500059358   -0.3990393752
C       -0.9709201375    0.7640670957    0.9725615503
C       -0.4287690513    0.9630600472   -0.5380607219
N        1.0508788644    1.3574876670   -0.8164310807
H        2.8977526229    0.5781396684   -0.6531731969
H        1.2365618704   -1.8448121653    0.1059905236
H       -1.0454162754   -1.2001181914   -1.1330807734
H       -1.9773742275    1.1132387425    1.2280120499
H       -1.2608888285    1.4489640603   -0.9586780467
C       -0.6926421127   -0.6327430148    1.1436212228
H       -0.9017823378   -1.6759108412    1.6885936530
13   
C6H6N->C6H6N atoms 1-13 frame 254 charge +0.000 sz -1.000 sz^2 0.619
C        1.7998838213    0.4022888841   -0.5620502841
C        0.9253365813   -0.8592937002   -0.1347841149
C       -0.6373920229   -0.4848120021   -0.3986568626
C       -0.9712610929    0.7788895335    1.0079757744
C       -0.4352232363    0.9777962706   -0.4959945750
N        1.0776305129    1.3534999238   -0.8455296750
H        2.8988851276    0.6136608208   -0.6287562374
H        1.2710114688   -1.8480022884    0.0977708348
H       -1.0283925651   -1.2503040357   -1.0636214650
H       -1.9864376391    1.1120380075    1.2618793239
H       -1.2454599282    1.4895930120   -0.9628551835
C       -0.7021024352   -0.6154295582    1.1123195757
H       -0.9664785923   -1.6699248678    1.6123028886
13   
C6H6N->C6H6N atoms 1-13 frame 255 charge +0.000 sz -1.000 sz^2 0.625
C        1.8000439501    0.3769273363   -0.5864270368
C        0.9342054781   -0.8696954219   -0.1625618154
C       -0.6459316203   -0.5256725459   -0.3997516582
C       -0.9724891958    0.7886681785    1.0469942073
C       -0.4428925942    0.9903871381   -0.4507591285
N        1.0975780388    1.3537201020   -0.8708418519
H        2.8930657770    0.6416260075   -0.5990441617
H        1.3092661414   -1.8554706791    0.0860496801
H       -1.0164571877   -1.2980381008   -1.0016328244
H       -1.9923320760    1.1078643152    1.2995532413
H       -1.2296458824    1.5363980273   -0.9738117887
C       -0.7104085955   -0.6055697715    1.0808002078
H       -1.0240022333   -1.6411445857    1.5314329291
13   
C6H6N->C6H6N atoms 1-13 frame 257 charge -0.000 sz -1.000 sz^2 0.652
C        1.7999766176    0.3518522702   -0.6068031328
C        0.9446735914   -0.8779618527   -0.1902881527
C       -0.6491376695   -0.5696581238   -0.4021353985
C       -0.9747518231    0.7944067061    1.0888042588
C       -0.4521823806    1.0014656616   -0.4034888510
N        1.1114373530    1.3589812721   -0.8924813052
H        2.8810114804    0.6606205120   -0.5650979260
H        1.3501350866   -1.8627374484    0.0714463585
H       -1.0140515440   -1.3509634589   -0.9553736284
H       -1.9950878682    1.1025522199    1.3414900137
H       -1.2095136577    1.5853086280   -0.9861526997
C       -0.7183853283   -0.6012775043    1.0491572776
H       -1.0741238576   -1.5925888818    1.4509231858
13   
C6H6N->C6H6N atoms 1-13 frame 259 charge +0.000 sz -1.000 sz^2 0.714
C        1.7997094367    0.3287437673   -0.6239396156
C        0.9573736989   -0.8831499014   -0.2181325684
C       -0.6461212992   -0.6143248448   -0.4061410498
C       -0.9780631165    0.7972944944    1.1320519721
C       -0.4634058638    1.0119992010   -0.3559402813
N        1.1199912283    1.3697693871   -0.9112147377
H        2.8640265577    0.6695424363   -0.5285991887
H        1.3924776737   -1.8648923639    0.0544234717
H       -1.0242058602   -1.4147889018   -0.9300947286
H       -1.9950885673    1.0984202071    1.3878804690
H       -1.1819012277    1.6322408125   -0.9951199280
C       -0.7265597879   -0.6000148284    1.0172702427
H       -1.1182328725   -1.5308394655    1.3775559428
13   
C6H6N->C6H6N atoms 1-13 frame 262 charge +0.000 sz -1.000 sz^2 0.851
C        1.7990405022    0.3090164868   -0.6395263109
C        0.9732570595   -0.8843709906   -0.2467657261
C       -0.6358172350   -0.6587740817   -0.4128790866
C       -0.9824124676    0.7986961371    1.1748413168
C       -0.4770652238    1.0229723633   -0.3104516307
N        1.1236788667    1.3862124458   -0.9292587836
H        2.8437200333    0.6676183510   -0.4920897138
H        1.4359826962   -1.8572978918    0.0355137115
H       -1.0464710599   -1.4898815540   -0.9253803324
H       -1.9929226317    1.0982156042    1.4389831653
H       -1.1452180017    1.6733848590   -0.9977928991
C       -0.7351275266   -0.5985978441    0.9846025218
H       -1.1606450116   -1.4671938852    1.3202037678
13   
C6H6N->C6H6N atoms 1-13 frame 264 charge -0.000 sz -1.000 sz^2 0.944
C        1.7974136005    0.2938334301   -0.6562220803
C        0.9936776707   -0.8807131962   -0.2775308132
C       -0.6166958991   -0.7037969353   -0.4242167512
C       -0.9878059463    0.8000451397    1.2146245231
C       -0.4941017308    1.0352814153   -0.2700468438
N        1.1221123225    1.4082275654   -0.9504866473
H        2.8220903669    0.6540087197   -0.4591477724
H        1.4813587343   -1.8357452334    0.0153217569
H       -1.0762699268   -1.5705972898   -0.9356258856
H       -1.9889605887    1.1052400202    1.4956632497
H       -1.0996180651    1.7048896737   -0.9929816106
C       -0.7440888976   -0.5934805934    0.9504311305
H       -1.2091116405   -1.4171927159    1.2902177442
13   
C6H6N->C6H6N atoms 1-13 frame 266 charge +0.000 sz -1.000 sz^2 1.012
C        1.7939597605    0.2841763154   -0.6756144736
C        1.0187343308   -0.8720891913   -0.3109080598
C       -0.5882105051   -0.7493631861   -0.4418338363
C       -0.9944241701    0.8016925012    1.2471954430
C       -0.5149685127    1.0488813845   -0.2389032708
N        1.1145525891    1.4342430717   -0.9775305517
H        2.8027964908    0.6283059271   -0.4337967590
H        1.5276095500   -1.7995289954   -0.0049041425
H       -1.1046916682   -1.6444767603   -0.9525758637
H       -1.9833697042    1.1215444684    1.5572982776
H       -1.0496761656    1.7228562465   -0.9807409666
C       -0.7541328510   -0.5830965528    0.9157585047
H       -1.2681791443   -1.3931452289    1.2965556988
13   
C6H6N->C6H6N atoms 1-13 frame 268 charge +0.000 sz -1.000 sz^2 1.064
C        1.7878658558    0.2793920376   -0.6964309775
C        1.0463989323   -0.8602780175   -0.3461116956
C       -0.5521182344   -0.7947732838   -0.4660642694
C       -1.0032419894    0.8018149808    1.2695380004
C       -0.5392960822    1.0624593540   -0.2186694089
N        1.1012647055    1.4612003626   -1.0089050120
H        2.7896181989    0.5910924421   -0.4162866953
H        1.5722776525   -1.7544620702   -0.0234519171
H       -1.1227693283   -1.6992837895   -0.9695666569
H       -1.9760734994    1.1452614671    1.6223199236
H       -1.0037953041    1.7276135832   -0.9628980190
C       -0.7680443869   -0.5701107491    0.8829100638
H       -1.3320865204   -1.3899263173    1.3336166641
13   
C6H6N->C6H6N atoms 1-13 frame 269 charge +0.000 sz -1.000 sz^2 1.088
C        1.7785606334    0.2776686245   -0.7164690918
C        1.0749021514   -0.8474430015   -0.3828047679
C       -0.5097247990   -0.8409856451   -0.4964134791
C       -1.0158648021    0.7978444474    1.2817996117
C       -0.5671124188    1.0747003362   -0.2070237946
N        1.0829231686    1.4870532845   -1.0418172291
H        2.7838914331    0.5420192909   -0.4033205706
H        1.6153900407   -1.7080352212   -0.0385478324
H       -1.1254930832   -1.7299284966   -0.9840725298
H       -1.9653061690    1.1730559019    1.6918820460
H       -0.9701150602    1.7248668324   -0.9435507365
C       -0.7899029867   -0.5583160038    0.8532818355
H       -1.3921481082   -1.3925003495    1.3870565386
13   
C6H6N->C6H6N atoms 1-13 frame 271 charge +0.000 sz -1.000 sz^2 1.139
C        1.7660762981    0.2777610056   -0.7331611029
C        1.1027137669   -0.8358286999   -0.4200023454
C       -0.4616035026   -0.8885910288   -0.5309209595
C       -1.0335251258    0.7875659391    1.2847420159
C       -0.5980361686    1.0842127430   -0.2005657219
N        1.0603545859    1.5101105455   -1.0731230898
H        2.7849078285    0.4805084943   -0.3923750332
H        1.6583031720   -1.6677494609   -0.0472279802
H       -1.1093087410   -1.7337691675   -0.9955861711
H       -1.9463621869    1.2013123364    1.7674252406
H       -0.9590344434    1.7238360081   -0.9307772739
C       -0.8233463479   -0.5508416847    0.8287283666
H       -1.4411391352   -1.3885270301    1.4428440549
13   
C6H6N->C6H6N atoms 1-13 frame 273 charge +0.000 sz -1.000 sz^2 1.199
C        1.7523433222    0.2792712085   -0.7436350870
C        1.1275241356   -0.8282693112   -0.4542733317
C       -0.4105463354   -0.9348422922   -0.5643088099
C       -1.0553133674    0.7711338607    1.2801263229
C       -0.6293239306    1.0901208329   -0.1957730738
N        1.0363157398    1.5283107288   -1.0986262564
H        2.7889957835    0.4111206696   -0.3830978724
H        1.7002631816   -1.6395711213   -0.0468518856
H       -1.0758439112   -1.7144602575   -1.0057246787
H       -1.9142096072    1.2255105512    1.8451323176
H       -0.9778789435    1.7329238777   -0.9323494945
C       -0.8678846911   -0.5495014327    0.8117037256
H       -1.4744413765   -1.3717473146    1.4876781238
13   
C6H6N->C6H6N atoms 1-13 frame 274 charge +0.000 sz -1.000 sz^2 1.227
C        1.7401531291    0.2825601442   -0.7466162692
C        1.1480720744   -0.8265570833   -0.4823878009
C       -0.3596207011   -0.9758710275   -0.5915018618
C       -1.0790622460    0.7515692854    1.2702936918
C       -0.6579346907    1.0937424505   -0.1909005424
N        1.0142542905    1.5410275731   -1.1159946579
H        2.7916668054    0.3415740319   -0.3761379240
H        1.7386347246   -1.6229277569   -0.0379113491
H       -1.0338215014   -1.6840300184   -1.0195051598
H       -1.8670658451    1.2435108703    1.9186103479
H       -1.0223453934    1.7510983614   -0.9453692854
C       -0.9197540056   -0.5534974108    0.8027129482
H       -1.4931766406   -1.3421994198    1.5147078628
13   
C6H6N->C6H6N atoms 1-13 frame 276 charge +0.000 sz -1.000 sz^2 1.255
C        1.7314368298    0.2885185548   -0.7420452578
C        1.1649545670   -0.8312975246   -0.5031226555
C       -0.3090403277   -1.0096339244   -0.6098754828
C       -1.1035675269    0.7322818213    1.2563776783
C       -0.6826527398    1.0978840765   -0.1861300442
N        0.9962532654    1.5490313765   -1.1253431849
H        2.7903930666    0.2773249676   -0.3720122465
H        1.7715197078   -1.6132473999   -0.0222687568
H       -0.9932922586   -1.6555294449   -1.0446836103