13   
From optimize.out: Frame 25 / 26, Energy=    -286.8516345401
C        1.5189874062    0.3441588063   -0.2644252994
C        0.6216192586   -0.8944701024   -0.0647318007
C       -0.3948716278   -0.5208172525   -1.1474916430
C       -1.0026577606    0.5083552418    0.8086557238
C       -0.5872412418    0.8947648274   -0.6197781154
N        0.8524697132    1.3865955360   -0.5761305058
H        2.5997530457    0.3578848315   -0.1336547130
H        1.1020933072   -1.8728860788   -0.0775504506
H       -1.2194040131   -1.1747379185   -1.4269638383
H       -1.7237658678    1.0470917705    1.4134949852
H       -1.2335871503    1.5920977564   -1.1505755036
C       -0.2723898965   -0.5664110507    1.1480186723
H       -0.2610051735   -1.1016263668    2.0911324881
13   
From optimize.out: Frame 23 / 26, Energy=    -286.8516095087
C        1.5130722667    0.3422882672   -0.2691861588
C        0.6143323972   -0.8960941984   -0.0519701093
C       -0.3919711986   -0.5233299592   -1.1416274278
C       -1.0009353563    0.5219800081    0.8200235214
C       -0.5962554057    0.8931906779   -0.6154966294
N        0.8465868480    1.3860147096   -0.5764354296
H        2.5955640581    0.3528419336   -0.1529946865
H        1.0924626846   -1.8758247132   -0.0556938745
H       -1.1894476629   -1.1809608597   -1.4850796102
H       -1.7184668990    1.0566683748    1.4319348868
H       -1.2381522564    1.5914991071   -1.1510454779
C       -0.2736262569   -0.5551735452    1.1591323574
H       -0.2531632188   -1.1130998025    2.0884386382
13   
From optimize.out: Frame 21 / 26, Energy=    -286.8514348422
C        1.5141615370    0.3247660910   -0.2759546509
C        0.6086649601   -0.8999785677   -0.0628861977
C       -0.4141994405   -0.5151716383   -1.1395436510
C       -0.9887346027    0.5236914064    0.8338250549
C       -0.5847896817    0.8902819222   -0.6126103032
N        0.8527586870    1.3704769320   -0.5915282722
H        2.5916552487    0.3467320659   -0.1223342692
H        1.0585233746   -1.8917160057   -0.0634261678
H       -1.1768328000   -1.1574922620   -1.5578486242
H       -1.7598811215    1.0036370990    1.4247496856
H       -1.2442994962    1.5841164075   -1.1293597112
C       -0.2544562371   -0.5423624880    1.1685449616
H       -0.2025704277   -1.0369809623    2.1283721454
13   
From optimize.out: Frame 20 / 26, Energy=    -286.8512761882
C        1.5199325803    0.3083251778   -0.2830728699
C        0.6051176494   -0.9003821824   -0.0733448223
C       -0.4455956434   -0.5093398434   -1.1190368373
C       -0.9930459117    0.5030751133    0.8187088505
C       -0.5632079746    0.9029282853   -0.6077102649
N        0.8687562692    1.3603328864   -0.5950254618
H        2.5911756071    0.3309345131   -0.0917443666
H        1.0332776964   -1.9009766460   -0.0887006066
H       -1.1894232871   -1.1380258184   -1.5724204587
H       -1.8215943275    0.9297517077    1.3752553807
H       -1.2356030118    1.5981372630   -1.1019814922
C       -0.2331643684   -0.5245563113    1.1791771664
H       -0.1366252780   -0.9602041452    2.1598957827
13   
From optimize.out: Frame 18 / 26, Energy=    -286.8504452116
C        1.5311631266    0.3014193604   -0.2884532979
C        0.6101205983   -0.8988685633   -0.0719490064
C       -0.4806266155   -0.4992671053   -1.0738405818
C       -1.0076889633    0.4678358649    0.7804809284
C       -0.5431819406    0.9317291555   -0.6041471984
N        0.8862816574    1.3609123650   -0.5870072415
H        2.6016212133    0.3143330056   -0.0905514248
H        1.0359733657   -1.9004731455   -0.1130607388
H       -1.2276352946   -1.1242025462   -1.5346694133
H       -1.8788359801    0.8605885760    1.2990179377
H       -1.2154520185    1.6326638712   -1.0924608729
C       -0.2173897856   -0.5256625768    1.1890225756
H       -0.0943493629   -0.9210082614    2.1876183340
13   
From optimize.out: Frame 16 / 26, Energy=    -286.8462081473
C        1.5412820518    0.3000886215   -0.2891309825
C        0.6190220120   -0.8991693980   -0.0667841326
C       -0.5180527074   -0.4829951696   -1.0165188288
C       -1.0239197796    0.4370956448    0.7369835235
C       -0.5265661175    0.9634107371   -0.6088343723
N        0.8997456992    1.3661651524   -0.5807814249
H        2.6124369642    0.3047928475   -0.0936024447
H        1.0499865571   -1.8983907787   -0.1320278909
H       -1.2756373935   -1.1044134886   -1.4734389983
H       -1.9272919597    0.8093708791    1.2164734047
H       -1.1929573886    1.6676868454   -1.1021069849
C       -0.1969924392   -0.5451957890    1.1992212825
H       -0.0610554988   -0.9184461039    2.2105478491
13   
From optimize.out: Frame 15 / 26, Energy=    -286.8423508947
C        1.5425458507    0.3008943006   -0.2889170029
C        0.6207780445   -0.9030045284   -0.0631821659
C       -0.5510195825   -0.4618887715   -0.9648985664
C       -1.0295951724    0.3998187624    0.6858663323
C       -0.5085796491    0.9885118615   -0.6110004181
N        0.9104164372    1.3765579435   -0.5774732215
H        2.6129805880    0.3011699115   -0.0884443645
H        1.0503433947   -1.9016896541   -0.1401629577
H       -1.3166418955   -1.0776881682   -1.4096889091
H       -1.9558225900    0.7471126136    1.1401486785
H       -1.1705955402    1.6939256885   -1.1057520311
C       -0.1731475808   -0.5669490462    1.2009453507
H       -0.0316623047   -0.8967709133    2.2225592758
13   
From optimize.out: Frame 13 / 26, Energy=    -286.8305542471
C        1.5432153319    0.3017345324   -0.2612810798
C        0.6284200621   -0.9040794298   -0.0586308711
C       -0.5559185315   -0.4554299511   -0.9425770248
C       -1.0376434504    0.3789878823    0.6677506840
C       -0.4993537086    0.9972031613   -0.6143777443
N        0.9140886133    1.3829496515   -0.5388787473
H        2.6207577067    0.2852227017   -0.1063501640
H        1.0718525261   -1.8920610860   -0.1903109222
H       -1.3610506419   -1.0566951555   -1.3401107078
H       -1.9895183470    0.7237286449    1.0677563413
H       -1.1475457432    1.7089319222   -1.1187284121
C       -0.2010429854   -0.6250976308    1.1960348479
H        0.0137391680   -0.8453952432    2.2397038002
13   
From optimize.out: Frame 11 / 26, Energy=    -286.8240569261
C        1.5438891805    0.3148967727   -0.2294791261
C        0.6465530836   -0.8995217253   -0.0434503303
C       -0.5485045378   -0.4568505343   -0.9092165586
C       -1.0255867448    0.3692730103    0.6778398043
C       -0.4926104872    0.9947738854   -0.6339847982
N        0.9053580869    1.3928493514   -0.5008697318
H        2.6297521408    0.2910739336   -0.1610455478
H        1.1050066071   -1.8701290940   -0.2412574988
H       -1.3896569136   -1.0360556285   -1.2659199121
H       -1.9863216252    0.7518592283    1.0181227162
H       -1.1306216377    1.7026856663   -1.1545097108
C       -0.2441242313   -0.6947055496    1.1939239667
H       -0.0131329212   -0.8601493163    2.2498467273
13   
From optimize.out: Frame 9 / 26, Energy=    -286.8212493953
C        1.5433932962    0.3296986619   -0.2083664117
C        0.6653198858   -0.8912545202   -0.0252385537
C       -0.5376840280   -0.4594970304   -0.8682653542
C       -1.0091278513    0.3625256795    0.7047423149
C       -0.4862999376    0.9937456222   -0.6680876961
N        0.8885608303    1.4041895603   -0.4756189323
H        2.6308852340    0.3093388003   -0.2168932155
H        1.1284439326   -1.8475492071   -0.2798051552
H       -1.4062309168   -1.0151207058   -1.2044746786
H       -1.9673436301    0.7869529708    0.9962541435
H       -1.1087725719    1.6950030380   -1.2157754433
C       -0.2804451410   -0.7536548230    1.1989555413
H       -0.0606991023   -0.9143780466    2.2625734410
13   
From optimize.out: Frame 7 / 26, Energy=    -286.8110639237
C        1.5410463748    0.3427621224   -0.1945329258
C        0.6819437544   -0.8796561356   -0.0038974414
C       -0.5216483328   -0.4634720201   -0.8285773349
C       -0.9921157166    0.3566141182    0.7372344955
C       -0.4806999422    0.9969110881   -0.7050984287
N        0.8658157487    1.4191865588   -0.4599856173
H        2.6246544901    0.3284454308   -0.2739520123
H        1.1440863285   -1.8246697980   -0.3080475138
H       -1.4166513121   -0.9966681256   -1.1581856515
H       -1.9435330122    0.8158949982    0.9882348894
H       -1.0804095090    1.6937520386   -1.2882473938
C       -0.3117845293   -0.8079486621    1.2124747603
H       -0.1107043423   -0.9811516138    2.2825801743
13   
From optimize.out: Frame 6 / 26, Energy=    -286.8015363767
C        1.5370583269    0.3536247829   -0.1823429263
C        0.6972610464   -0.8666699035    0.0212908230
C       -0.5004343513   -0.4718731982   -0.7910288495
C       -0.9717653812    0.3552406959    0.7662822418
C       -0.4771063359    1.0042174712   -0.7387543704
N        0.8356566259    1.4417539890   -0.4470336772
H        2.6120212088    0.3446334265   -0.3317494813
H        1.1557256776   -1.8020738415   -0.3297460071
H       -1.4247630897   -0.9861531041   -1.1243751826
H       -1.9136650656    0.8454987526    0.9807836593
H       -1.0518363113    1.6990463689   -1.3596574124
C       -0.3380590613   -0.8623425846    1.2301480181
H       -0.1600932893   -1.0549028551    2.3061831647
13   
From optimize.out: Frame 4 / 26, Energy=    -286.7730641996
C        1.5313714926    0.3599224684   -0.1703352935
C        0.7124432187   -0.8557106360    0.0498745290
C       -0.4711706320   -0.4860839655   -0.7575572204
C       -0.9500429158    0.3639637962    0.7856271433
C       -0.4799608876    1.0227281457   -0.7668332007
N        0.7947832384    1.4757931735   -0.4355893052
H        2.5956985863    0.3493927974   -0.3823155227
H        1.1661719619   -1.7834164176   -0.3454926534
H       -1.4350667949   -0.9923556973   -1.1088839760
H       -1.8806972891    0.8801560429    0.9648481260
H       -1.0331173388    1.7208912395   -1.4250291030
C       -0.3525281877   -0.9197993462    1.2542477350
H       -0.1978844520   -1.1354816010    2.3374387416
13   
From optimize.out: Frame 2 / 26, Energy=    -286.7268543876
C        1.5325114102    0.3756335910   -0.1698129587
C        0.7307936081   -0.8438759987    0.0701837284
C       -0.4401742322   -0.5025473398   -0.7195886270
C       -0.9333178884    0.3828684903    0.7939514049
C       -0.4776706334    1.0241827141   -0.7786186271
N        0.7568712240    1.4941444234   -0.4381624625
H        2.5827472644    0.3488765167   -0.4330308521
H        1.1612302475   -1.7756569522   -0.3347484292
H       -1.4281492175   -0.9653882107   -1.1200528267
H       -1.8586407962    0.9121812625    0.9461034474
H       -1.0312146099    1.7151721950   -1.4497706668
C       -0.3687315928   -0.9498923479    1.2659329603
H       -0.2262547838   -1.2156983436    2.3676139092
13   
From optimize.out: Frame 1 / 26, Energy=    -286.6936324126
C        1.5675721295    0.4017804482   -0.1829452731
C        0.7555710662   -0.8263699444    0.0737648028
C       -0.4252107385   -0.5153537903   -0.6734946590
C       -0.9370074994    0.4076075128    0.7973399315
C       -0.4688977365    1.0029526524   -0.7811713981
N        0.7314663702    1.4858822425   -0.4634907217
H        2.6007253152    0.3416375740   -0.4886456862
H        1.1417441971   -1.7744013368   -0.2935730672
H       -1.4020026580   -0.8831552201   -1.1482889947
H       -1.8713670486    0.9343639708    0.9355195117
H       -1.0493220572    1.6640914847   -1.4318795781
C       -0.3942458282   -0.9451464828    1.2653985004
H       -0.2490255119   -1.2938891110    2.3914666319
13   
C6H6N->C6H6N atoms 1-13 frame 234 charge -0.000 sz -1.000 sz^2 0.699
C        1.6023368195    0.4269302861   -0.2010906089
C        0.7781317331   -0.8118405663    0.0737541606
C       -0.4190805004   -0.5220795166   -0.6302831899
C       -0.9420268732    0.4345400340    0.7997665431
C       -0.4595424906    0.9814486283   -0.7826218879
N        0.7124414121    1.4750105140   -0.4920508065
H        2.6220952238    0.3328144373   -0.5412050545
H        1.1226157588   -1.7767678373   -0.2466403836
H       -1.3591129820   -0.8048399651   -1.1724526649
H       -1.8865948122    0.9571845073    0.9337790916
H       -1.0742200716    1.6088698615   -1.4043581060
C       -0.4216154041   -0.9358725125    1.2653060439
H       -0.2754278131   -1.3653978708    2.3980968631
13   
C6H6N->C6H6N atoms 1-13 frame 236 charge -0.000 sz -1.000 sz^2 0.679
C        1.6366589465    0.4499824156   -0.2237440028
C        0.7988039817   -0.8005201182    0.0704712232
C       -0.4224471808   -0.5210246644   -0.5898979756
C       -0.9481460585    0.4640587681    0.8024752079
C       -0.4495538640    0.9598688531   -0.7809666809
N        0.7027518009    1.4622845389   -0.5223425479
H        2.6482813599    0.3244941608   -0.5894369852
H        1.1075248039   -1.7866434589   -0.1947547941
H       -1.3027242595   -0.7388903935   -1.1930581843
H       -1.9019625369    0.9804835988    0.9423005738
H       -1.1091424933    1.5539173487   -1.3682172417
C       -0.4514630604   -0.9219473694    1.2662773691
H       -0.3085814395   -1.4260636795    2.3808940384
13   
C6H6N->C6H6N atoms 1-13 frame 238 charge -0.000 sz -1.000 sz^2 0.632
C        1.6700024030    0.4694225314   -0.2496461132
C        0.8179775109   -0.7927248161    0.0642463556
C       -0.4344494256   -0.5111311041   -0.5524831581
C       -0.9546522534    0.4958801865    0.8069591398
C       -0.4391644050    0.9390629873   -0.7740140398
N        0.7058821565    1.4489273106   -0.5522632946
H        2.6792805664    0.3198189908   -0.6303215854
H        1.0999816010   -1.8060952983   -0.1395992859
H       -1.2420346855   -0.6966454811   -1.2135482197
H       -1.9142069762    1.0032243116    0.9614852043
H       -1.1551653079    1.5046641149   -1.3250679486
C       -0.4833725215   -0.9036810877    1.2684972552
H       -0.3500786626   -1.4707226459    2.3357556903
13   
C6H6N->C6H6N atoms 1-13 frame 240 charge -0.000 sz -1.000 sz^2 0.577
C        1.7008278062    0.4836266711   -0.2767629200
C        0.8356963982   -0.7888218035    0.0556850365
C       -0.4522227192   -0.4937214786   -0.5184150313
C       -0.9604249274    0.5286337447    0.8145840629
C       -0.4293712004    0.9207418790   -0.7606186973
N        0.7233582764    1.4361507479   -0.5796922148
H        2.7129025751    0.3219866919   -0.6603795459
H        1.1010381250   -1.8317740579   -0.0844713734
H       -1.1902285342   -0.6874406562   -1.2383155742
H       -1.9210451308    1.0235278557    0.9891500443
H       -1.2069080059    1.4649664260   -1.2765265607
C       -0.5154181795   -0.8823468597    1.2714382950
H       -0.3982044835   -1.4955291605    2.2643244789
13   
C6H6N->C6H6N atoms 1-13 frame 241 charge +0.000 sz -1.000 sz^2 0.542
C        1.7273363298    0.4918218093   -0.3034408499
C        0.8515251590   -0.7888196943    0.0454276300
C       -0.4725482194   -0.4724164390   -0.4882332526
C       -0.9646917561    0.5606573520    0.8258355423
C       -0.4214874138    0.9068890263   -0.7416001945
N        0.7529416345    1.4245497297   -0.6039385793
H        2.7458563104    0.3323265939   -0.6789214051
H        1.1086042505   -1.8564800947   -0.0335225383
H       -1.1549268969   -0.7119645163   -1.2674056985
H       -1.9231049232    1.0401266903    1.0211304913
H       -1.2545186652    1.4354046133   -1.2243469243
C       -0.5454603177   -0.8592840902    1.2736293917
H       -0.4495254919   -1.5028109803    2.1753863869
13   
C6H6N->C6H6N atoms 1-13 frame 243 charge -0.000 sz -1.000 sz^2 0.542
C        1.7491238921    0.4946040168   -0.3302058605
C        0.8652748105   -0.7921518205    0.0330619327
C       -0.4940159612   -0.4506052259   -0.4622441437
C       -0.9675759669    0.5917394927    0.8400951720
C       -0.4161405507    0.8986789132   -0.7187295815
N        0.7910036841    1.4138531750   -0.6268263709
H        2.7765332702    0.3505090568   -0.6886823935
H        1.1195723139   -1.8745806320    0.0108358963
H       -1.1332995271   -0.7630271986   -1.2953248207
H       -1.9233752855    1.0537269878    1.0540900228
H       -1.2909496255    1.4139960152   -1.1699816578
C       -0.5733074301   -0.8341680593    1.2727095028
H       -0.5028436239   -1.5025747214    2.0812023021
13   
C6H6N->C6H6N atoms 1-13 frame 245 charge +0.000 sz -1.000 sz^2 0.623
C        1.7667378906    0.4929266786   -0.3593514815
C        0.8771733965   -0.7980641899    0.0171920346
C       -0.5168604513   -0.4304252926   -0.4407078072
C       -0.9695705545    0.6232611870    0.8564472199
C       -0.4133251687    0.8968515929   -0.6933528382
N        0.8354492100    1.4034823218   -0.6516907290
H        2.8053013592    0.3765971777   -0.6928390566
H        1.1322691278   -1.8834124054    0.0480043387
H       -1.1187441060   -0.8329538255   -1.3145700819
H       -1.9251113798    1.0662705900    1.0863255513
H       -1.3133979601    1.3990137051   -1.1148605001
C       -0.6000804755   -0.8047175696    1.2658396981
H       -0.5598408882   -1.5088299700    1.9935636519
13   
C6H6N->C6H6N atoms 1-13 frame 246 charge +0.000 sz -1.000 sz^2 0.642
C        1.7802038806    0.4873442513   -0.3924308328
C        0.8873285054   -0.8057540892   -0.0029999765
C       -0.5408863729   -0.4145837752   -0.4243094830
C       -0.9708897802    0.6559397099    0.8741320125
C       -0.4129782845    0.9021048629   -0.6666449973
N        0.8839059612    1.3932495361   -0.6810087962
H        2.8321149744    0.4105778358   -0.6932709043
H        1.1464747659   -1.8818526632    0.0768995609
H       -1.1065576395   -0.9140166109   -1.3172922819
H       -1.9306103826    1.0792211467    1.1163468657
H       -1.3204292252    1.3906386840   -1.0627343030
C       -0.6255902803   -0.7692107746    1.2510717932
H       -0.6220861222   -1.5336581135    1.9222413426
13   
C6H6N->C6H6N atoms 1-13 frame 248 charge -0.000 sz -1.000 sz^2 0.635
C        1.7893683973    0.4781042052   -0.4283139945
C        0.8958537460   -0.8145950040   -0.0265282065
C       -0.5646259375   -0.4067392773   -0.4130847422
C       -0.9714924618    0.6881677245    0.8931816184
C       -0.4148355120    0.9136182448   -0.6391935045
N        0.9320870070    1.3832710236   -0.7142135170
H        2.8557376211    0.4503701849   -0.6904969310
H        1.1627544696   -1.8719791632    0.0963570863
H       -1.0941805354   -0.9963041583   -1.2984582351
H       -1.9402219586    1.0920467698    1.1435444238
H       -1.3135081891    1.3900495664   -1.0188657206
C       -0.6479860182   -0.7300379953    1.2294471305
H       -0.6889506282   -1.5759721210    1.8666245923
13   
C6H6N->C6H6N atoms 1-13 frame 250 charge +0.000 sz -1.000 sz^2 0.619
C        1.7949071448    0.4650473730   -0.4648408162
C        0.9032783205   -0.8245571419   -0.0520446262
C       -0.5868789226   -0.4094622176   -0.4057983886
C       -0.9714743351    0.7178088995    0.9149715373
C       -0.4183737531    0.9290968100   -0.6097734764
N        0.9768450234    1.3736115764   -0.7490487904
H        2.8751627961    0.4931925227   -0.6837809914
H        1.1823243373   -1.8590683105    0.1068362394
H       -1.0801405010   -1.0729656459   -1.2586517729
H       -1.9525146273    1.1029171157    1.1696635966
H       -1.2976988351    1.3985136197   -0.9861059755
C       -0.6663105245   -0.6919319631    1.2034375439
H       -0.7591261235   -1.6222026380    1.8151359203
13   
C6H6N->C6H6N atoms 1-13 frame 252 charge -0.000 sz -1.000 sz^2 0.614
C        1.7978876024    0.4478391797   -0.5002601244
C        0.9102741865   -0.8356862094   -0.0788828985
C       -0.6069652131   -0.4238529717   -0.4013079434
C       -0.9711409922    0.7433948386    0.9410618697
C       -0.4230972997    0.9461952384   -0.5765503692
N        1.0167064999    1.3646886409   -0.7835374803
H        2.8895317510    0.5365796250   -0.6717722488
H        1.2065316367   -1.8486952952    0.1095972068
H       -1.0637373051   -1.1410363023   -1.2017459013
H       -1.9654995853    1.1102563710    1.1971375872
H       -1.2787805572    1.4176724859   -0.9658218391
C       -0.6809021394   -0.6587483489    1.1746293719
H       -0.8308085843   -1.6586072519    1.7574527693
13   
C6H6N->C6H6N atoms 1-13 frame 254 charge +0.000 sz -1.000 sz^2 0.619
C        1.7993005593    0.4266937417   -0.5329393768
C        0.9174248288   -0.8475138027   -0.1065077240
C       -0.6240512919   -0.4494730305   -0.3990455966
C       -0.9709151118    0.7638383489    0.9720187234
C       -0.4286702516    0.9628333086   -0.5387057707
N        1.0504665662    1.3575498759   -0.8159834657
H        2.8977335952    0.5775925709   -0.6535467942
H        1.2360339011   -1.8447642148    0.1061158846
H       -1.0456788076   -1.1993471328   -1.1341488455
H       -1.9772343387    1.1132564688    1.2274930150
H       -1.2611256162    1.4483417945   -0.9586155366
C       -0.6924966027   -0.6330105751    1.1441017143
H       -0.9007874301   -1.6759973535    1.6897637728
13   
C6H6N->C6H6N atoms 1-13 frame 255 charge +0.000 sz -1.000 sz^2 0.625
C        1.7998813113    0.4026782389   -0.5616751880
C        0.9252008092   -0.8591335504   -0.1343577203
C       -0.6372597246   -0.4841855237   -0.3986403514
C       -0.9712424784    0.7787385052    1.0073774921
C       -0.4351058828    0.9776026541   -0.4966884591
N        1.0773229270    1.3534976956   -0.8451402954
H        2.8989730229    0.6132295123   -0.6292113379
H        1.2704248688   -1.8478876202    0.0979500914
H       -1.0285779405   -1.2495724955   -1.0645765590
H       -1.9863464414    1.1121018048    1.2613020111
H       -1.2457016935    1.4888750593   -0.9626873343
C       -0.7019748601   -0.6155821859    1.1128033640
H       -0.9655939180   -1.6703620945    1.6135442869
13   
C6H6N->C6H6N atoms 1-13 frame 257 charge -0.000 sz -1.000 sz^2 0.652
C        1.8000449106    0.3773012589   -0.5861228242
C        0.9340500286   -0.8695716302   -0.1621488434
C       -0.6458825291   -0.5250175115   -0.3997164971
C       -0.9724557187    0.7885820832    1.0463717440
C       -0.4427546335    0.9902219986   -0.4514631724
N        1.0973704555    1.3536429235   -0.8705188913
H        2.8932442651    0.6413409113   -0.5995492484
H        1.3086576993   -1.8553613515    0.0862666805
H       -1.0164957246   -1.2972520994   -1.0023263900
H       -1.9922904328    1.1079436868    1.2989295330
H       -1.2299441557    1.5356690690   -0.9736272485
C       -0.7102898207   -0.6056343680    1.0812714916
H       -1.0232543441   -1.6418649708    1.5326336660
13   
C6H6N->C6H6N atoms 1-13 frame 259 charge +0.000 sz -1.000 sz^2 0.714
C        1.7999803960    0.3521865778   -0.6065554041
C        0.9444908663   -0.8778861563   -0.1898862991
C       -0.6491797614   -0.5690131952   -0.4020781092
C       -0.9747042239    0.7943647113    1.0881797780
C       -0.4520208258    1.0013136677   -0.4041757460
N        1.1113128801    1.3588266513   -0.8922106896
H        2.8812560314    0.6604895273   -0.5656248705
H        1.3495239901   -1.8627043926    0.0716917490
H       -1.0139073806   -1.3500442438   -0.9557427359
H       -1.9950874226    1.1026126553    1.3408211869
H       -1.2099104970    1.5846298867   -0.9860219748
C       -0.7182673871   -0.6012957130    1.0496174971
H       -1.0734866655   -1.5934799765    1.4519856182
13   
C6H6N->C6H6N atoms 1-13 frame 260 charge -0.000 sz -1.000 sz^2 0.757
C        1.7997185486    0.3290185244   -0.6237233969
C        0.9571540040   -0.8831320376   -0.2177353936
C       -0.6462627291   -0.6137077750   -0.4060483449
C       -0.9780029200    0.7972750217    1.1314572942
C       -0.4632168320    1.0118470880   -0.3565728263
N        1.1199390482    1.3695421184   -0.9109647825
H        2.8643082567    0.6695669754   -0.5291067758
H        1.3918739588   -1.8649952136    0.0546857909
H       -1.0238981370   -1.4137473241   -0.9301629990
H       -1.9951183061    1.0984243896    1.3871719503
H       -1.1824088993    1.6316677425   -0.9950814188
C       -0.7264408966   -0.6000338180    1.0177235504
H       -1.1176450962   -1.5317256916    1.3783573520
13   
C6H6N->C6H6N atoms 1-13 frame 262 charge +0.000 sz -1.000 sz^2 0.851
C        1.7990620109    0.3092216747   -0.6393024286
C        0.9729834963   -0.8844191658   -0.2463527077
C       -0.6360723956   -0.6581690015   -0.4127279330
C       -0.9823402091    0.7986780695    1.1743051354
C       -0.4768369834    1.0228071678   -0.3109965790
N        1.1236987330    1.3859173269   -0.9289746017
H        2.8440112266    0.6677988863   -0.4925340208
H        1.4353729406   -1.8575846675    0.0357851161
H       -1.0460702660   -1.4887952706   -0.9252439680
H       -1.9929755656    1.0981230322    1.4382222695
H       -1.1458300579    1.6729586868   -0.9978560903
C       -0.7350072745   -0.5986655743    0.9850617409
H       -1.1599956552   -1.4678711645    1.3206140673
13   
C6H6N->C6H6N atoms 1-13 frame 264 charge -0.000 sz -1.000 sz^2 0.944
C        1.7974640815    0.2939777784   -0.6559351712
C        0.9933071544   -0.8808401150   -0.2770368189
C       -0.6171159078   -0.7031218409   -0.4239574891
C       -0.9877084659    0.8000203492    1.2141393242
C       -0.4937934999    1.0350799370   -0.2705110856
N        1.1222228184    1.4078424104   -0.9500871455
H        2.8223777893    0.6543864940   -0.4595254031
H        1.4806731306   -1.8362794167    0.0156218263
H       -1.0758461921   -1.5694978353   -0.9353748007
H       -1.9890429790    1.1050004273    1.4947510259
H       -1.1003589579    1.7046200277   -0.9931614688
C       -0.7439410894   -0.5936337312    0.9509452633
H       -1.2082378822   -1.4175544851    1.2901319433
13   
C6H6N->C6H6N atoms 1-13 frame 266 charge +0.000 sz -1.000 sz^2 1.012
C        1.7940662436    0.2842617967   -0.6752468055
C        1.0182463255   -0.8722973072   -0.3102872007
C       -0.5888454366   -0.7485619356   -0.4414082211
C       -0.9942697992    0.8016889803    1.2467976945
C       -0.5145402899    1.0486412857   -0.2392633160
N        1.1147854265    1.4337668998   -0.9769773105
H        2.8030316012    0.6289587908   -0.4341073645
H        1.5268205998   -1.8003239474   -0.0045756240
H       -1.1043674567   -1.6435012907   -0.9522751355
H       -1.9834973524    1.1211272416    1.5561521205
H       -1.0504900169    1.7227696966   -0.9810553470
C       -0.7538899472   -0.5833261390    0.9163393682
H       -1.2670498979   -1.3932040716    1.2959071415
13   
C6H6N->C6H6N atoms 1-13 frame 268 charge +0.000 sz -1.000 sz^2 1.064
C        1.7880417433    0.2794255221   -0.6960483831
C        1.0458562221   -0.8605227264   -0.3454135749
C       -0.5529228896   -0.7938943204   -0.4654882703
C       -1.0030036506    0.8018881804    1.2693011283
C       -0.5387678732    1.0622253690   -0.2188930224
N        1.1016121712    1.4607073012   -1.0082780628
H        2.7897297498    0.5920216937   -0.4165342263
H        1.5714570736   -1.7553479140   -0.0231622289
H       -1.1227103847   -1.6986904789   -0.9692894476
H       -1.9762753966    1.1447326977    1.6209983000
H       -1.0044447181    1.7276664315   -0.9632686342
C       -0.7676327260   -0.5703368307    0.8834758281
H       -1.3309393213   -1.3898749253    1.3326005943
13   
C6H6N->C6H6N atoms 1-13 frame 269 charge +0.000 sz -1.000 sz^2 1.088
C        1.7788067245    0.2776674130   -0.7161365973
C        1.0743513567   -0.8476742230   -0.3820685793
C       -0.5106742668   -0.8400445107   -0.4957312486
C       -1.0155176910    0.7980448175    1.2817381583
C       -0.5665016194    1.0745108064   -0.2071521381
N        1.0833684005    1.4865956110   -1.0411961868
H        2.7838727382    0.5432311062   -0.4035375520
H        1.6145417768   -1.7088364652   -0.0383723810
H       -1.1258052332   -1.7298424003   -0.9838443906
H       -1.9656747312    1.1724958680    1.6903904763
H       -0.9703470693    1.7248916156   -0.9438093917
C       -0.7892470862   -0.5584663611    0.8537702359
H       -1.3911732996   -1.3925732772    1.3859495949
13   
C6H6N->C6H6N atoms 1-13 frame 271 charge +0.000 sz -1.000 sz^2 1.139
C        1.7663807267    0.2777285889   -0.7329254068
C        1.1021629028   -0.8359990437   -0.4192413085
C       -0.4627323270   -0.8875656642   -0.5301794457
C       -1.0330445399    0.7879274333    1.2848411575
C       -0.5973430072    1.0840808244   -0.2006716298
N        1.0608870914    1.5097051396   -1.0725547763
H        2.7848167074    0.4820423307   -0.3925814033
H        1.6573735779   -1.6683788607   -0.0472315337
H       -1.1100436938   -1.7341897050   -0.9953639334
H       -1.9470647393    1.2007739316    1.7657050316
H       -0.9586321235    1.7236402233   -0.9307489883
C       -0.8223657911   -0.5508742944    0.8291091959
H       -1.4403947845   -1.3888909037    1.4418430407
13   
C6H6N->C6H6N atoms 1-13 frame 273 charge +0.000 sz -1.000 sz^2 1.199
C        1.7526507112    0.2791906130   -0.7435555219
C        1.1270073821   -0.8283163810   -0.4535647778
C       -0.4118213011   -0.9338105583   -0.5636224042
C       -1.0547194096    0.7716237123    1.2803697781
C       -0.6286052306    1.0900304718   -0.1958950852
N        1.0368706029    1.5279893221   -1.0981862422
H        2.7889263561    0.4128648880   -0.3832739215
H        1.6992991325   -1.6399923459   -0.0470712689
H       -1.0768966389   -1.7152230737   -1.0053870596
H       -1.9153789790    1.2250564867    1.8432880508
H       -0.9767771272    1.7324703002   -0.9320246929
C       -0.8665898090   -0.5494035695    0.8119334381
H       -1.4739656893   -1.3724798657    1.4869897072
13   
C6H6N->C6H6N atoms 1-13 frame 274 charge +0.000 sz -1.000 sz^2 1.227
C        1.7403831590    0.2824070910   -0.7467308777
C        1.1476304410   -0.8264378784   -0.4818423742
C       -0.3609388345   -0.9749859097   -0.5910160928
C       -1.0784236029    0.7520742822    1.2706537513
C       -0.6572877487    1.0936366851   -0.1910257458
N        1.0147266322    1.5408163041   -1.1157467173
H        2.7916971270    0.3432550689   -0.3762479958
H        1.7377732600   -1.6231817395   -0.0383159281
H       -1.0348834461   -1.6847799258   -1.0188610630