13   
From optimize.out: Frame 1 / 2, Energy=    -286.8568459332
C       -0.0156880000    0.0446560000    0.0000000000
C       -0.0930240000   -0.0110810000    0.0000000000
C       -0.1777540000   -0.0367880000    0.0000000000
C       -0.2009100000   -0.0462060000    0.0000000000
C        0.0834910000    0.0490810000    0.0000000000
N       -0.3923520000    0.0106400000    0.0000000000
H        0.1378900000   -0.0023480000    0.0000000000
H        0.1396330000    0.0031190000    0.0000000000
H        0.1613590000    0.0237030000    0.0000000000
H        0.1627720000    0.0359870000    0.0000000000
H        0.1438690000    0.0014340000    0.0000000000
C       -0.1151980000    0.9469660000   -0.0000000000
H        0.1659130000   -0.0191640000   -0.0000000000
