13   
Frame   0 IRC: Energy =  -286.8743960000 ; +0.0000 kcal/mol
C        0.4849791357   -0.2290290790    0.2385351779
C        0.4185789294   -1.3086068369   -0.8474943871
C        0.8510005440   -2.5411554769   -0.7256288727
C       -1.1172286172    1.4144361376    0.4684871929
C        0.1027647159    1.9071332074   -0.1911839246
N        1.0282020989    1.0160615384   -0.3286792258
H        1.1495728936   -0.5639786715    1.0454920049
H       -0.0522784407   -0.9732037375   -1.7727164474
H        1.3434077873   -3.1700082741    0.0038451299
H       -2.0082334812    1.9970575367    0.6707718026
H        0.2495594838    2.9250607871   -0.5468525140
C       -0.8922392396    0.1165520926    0.7527525598
H       -1.5580858101   -0.5903192243    1.2326715034
13   
Frame   1 IRC: Energy =  -286.8743930000 ; +0.0019 kcal/mol
C        0.4850346240   -0.2294886508    0.2386010467
C        0.4186736178   -1.3084880242   -0.8473645370
C        0.8508153608   -2.5409985810   -0.7255915755
C       -1.1172543921    1.4144059748    0.4683389060
C        0.1024596990    1.9073040152   -0.1912507913
N        1.0285094525    1.0162973940   -0.3285344610
H        1.1498309286   -0.5639889147    1.0457189463
H       -0.0521218914   -0.9728000229   -1.7724631981
H        1.3429605417   -3.1701206338    0.0034320897
H       -2.0082730418    1.9967552022    0.6703638533
H        0.2494239286    2.9247868007   -0.5471005233
C       -0.8922216053    0.1166699995    0.7529907897
H       -1.5578372224   -0.5903345590    1.2328594546
13   
Frame   2 IRC: Energy =  -286.8743600000 ; +0.0226 kcal/mol
C        0.4879022150   -0.2280615143    0.2426179709
C        0.4192423306   -1.3057611949   -0.8457540908
C        0.8476255926   -2.5400491122   -0.7275446377
C       -1.1179114372    1.4126539318    0.4663629480
C        0.1022651386    1.9061976543   -0.1926318528
N        1.0300319572    1.0168332139   -0.3255665338
H        1.1529270034   -0.5643336116    1.0485461132
H       -0.0505892525   -0.9661033597   -1.7700956705
H        1.3377616607   -3.1737812667   -0.0007046836
H       -2.0110367101    1.9935589082    0.6645183015
H        0.2470653060    2.9233353444   -0.5515816159
C       -0.8901393574    0.1162427375    0.7554295920
H       -1.5551444469   -0.5907317306    1.2364041595
13   
Frame   3 IRC: Energy =  -286.8743560000 ; +0.0251 kcal/mol
C        0.4884265019   -0.2275207393    0.2429502665
C        0.4192603775   -1.3053715561   -0.8454502808
C        0.8473562630   -2.5401022105   -0.7278958618
C       -1.1179784196    1.4123739427    0.4662660597
C        0.1022346231    1.9062290884   -0.1927475442
N        1.0300817116    1.0163396177   -0.3252414886
H        1.1530626075   -0.5643496392    1.0486574176
H       -0.0505429606   -0.9655724011   -1.7700867974
H        1.3374793036   -3.1741843775   -0.0008440766
H       -2.0112849363    1.9933599991    0.6640896550
H        0.2468675935    2.9233343189   -0.5519331215
C       -0.8899766954    0.1162273531    0.7555413119
H       -1.5549859699   -0.5907633963    1.2366944603
13   
Frame   4 IRC: Energy =  -286.8743400000 ; +0.0351 kcal/mol
C        0.4891855313   -0.2278735799    0.2446347777
C        0.4195934820   -1.3043121391   -0.8448593852
C        0.8459248690   -2.5393315008   -0.7284075183
C       -1.1181804190    1.4117349357    0.4652500116
C        0.1018520252    1.9057869140   -0.1933628936
N        1.0310480231    1.0174335591   -0.3240049241
H        1.1546329862   -0.5645069514    1.0501216407
H       -0.0496687692   -0.9626380248   -1.7685584657
H        1.3348109490   -3.1755143808   -0.0032424864
H       -2.0123296655    1.9916937194    0.6612786977
H        0.2458441438    2.9222521706   -0.5539498889
C       -0.8890916269    0.1161723262    0.7568259076
H       -1.5536215289   -0.5908970483    1.2382745268
13   
Frame   5 IRC: Energy =  -286.8743360000 ; +0.0377 kcal/mol
C        0.4889636395   -0.2281627022    0.2448439044
C        0.4196226474   -1.3043615720   -0.8450417069
C        0.8457520280   -2.5390924959   -0.7283280047
C       -1.1181705289    1.4117874649    0.4650733230
C        0.1019117849    1.9055350862   -0.1934341302
N        1.0311399858    1.0180575983   -0.3239309717
H        1.1549180050   -0.5645456145    1.0504032437
H       -0.0494744347   -0.9623311223   -1.7681670887
H        1.3344198470   -3.1755957555   -0.0036478259
H       -2.0124533750    1.9914778679    0.6609365420
H        0.2457359425    2.9220508863   -0.5541855959
C       -0.8889323668    0.1160914212    0.7570268967
H       -1.5534331746   -0.5909110625    1.2384514143
13   
Frame   6 IRC: Energy =  -286.8742830000 ; +0.0709 kcal/mol
C        0.4932214212   -0.2265045430    0.2503026650
C        0.4204047422   -1.3003389369   -0.8421698054
C        0.8414361649   -2.5377047321   -0.7312020199
C       -1.1190904124    1.4092715940    0.4622600313
C        0.1012128844    1.9043384882   -0.1953558089
N        1.0334486869    1.0182839035   -0.3195314379
H        1.1590044283   -0.5651329994    1.0543324499
H       -0.0477634279   -0.9529025372   -1.7646610442
H        1.3275502214   -3.1804939368   -0.0098191365
H       -2.0160137773    1.9868927886    0.6524694121
H        0.2425951339    2.9197451013   -0.5605092939
C       -0.8862988677    0.1158439299    0.7604822464
H       -1.5497071979   -0.5912981201    1.2434017420
13   
Frame   7 IRC: Energy =  -286.8742790000 ; +0.0734 kcal/mol
C        0.4936996673   -0.2264760976    0.2505313857
C        0.4205487720   -1.3000263272   -0.8415977097
C        0.8413371748   -2.5378922339   -0.7313108575
C       -1.1191788489    1.4090991957    0.4621753917
C        0.1010472270    1.9044064139   -0.1954173373
N        1.0336079461    1.0180251086   -0.3193053998
H        1.1590785502   -0.5651235550    1.0543777206
H       -0.0478493176   -0.9523764881   -1.7648427527
H        1.3272092653   -3.1806465831   -0.0101356504
H       -2.0161296866    1.9866685753    0.6520869234
H        0.2424569431    2.9197006650   -0.5608040676
C       -0.8862863959    0.1159604025    0.7606188159
H       -1.5495412969   -0.5913190761    1.2436235377
13   
Frame   8 IRC: Energy =  -286.8742100000 ; +0.1167 kcal/mol
C        0.4973907636   -0.2252832534    0.2568927158
C        0.4211805787   -1.2958195353   -0.8393221405
C        0.8364097819   -2.5354747932   -0.7343515304
C       -1.1199935689    1.4064227940    0.4587218748
C        0.1004410598    1.9027221648   -0.1976735504
N        1.0364181014    1.0195502015   -0.3143871923
H        1.1640123270   -0.5658388930    1.0594583851
H       -0.0457161230   -0.9420109457   -1.7596463940
H        1.3193893161   -3.1858716050   -0.0178851285
H       -2.0201552515    1.9812323248    0.6422024032
H        0.2390920769    2.9164513369   -0.5680846556
C       -0.8831194645    0.1155271272    0.7647694567
H       -1.5453495973   -0.5916069235    1.2493057562
13   
Frame   9 IRC: Energy =  -286.8742020000 ; +0.1217 kcal/mol
C        0.4981198808   -0.2250994076    0.2575799020
C        0.4214316390   -1.2953613492   -0.8385078779
C        0.8359787677   -2.5354572218   -0.7347027861
C       -1.1201317554    1.4061954339    0.4583900595
C        0.1003295565    1.9024849368   -0.1978454037
N        1.0366214827    1.0195242928   -0.3138677607
H        1.1643679960   -0.5658822452    1.0597988656
H       -0.0457307715   -0.9408228149   -1.7595962005
H        1.3185959278   -3.1863452486   -0.0186649496
H       -2.0204563314    1.9806137445    0.6412045327
H        0.2387611267    2.9161993572   -0.5688307367
C       -0.8829542527    0.1155997916    0.7651608853
H       -1.5449332664   -0.5916492695    1.2498814702
13   
Frame  10 IRC: Energy =  -286.8741890000 ; +0.1299 kcal/mol
C        0.4984881827   -0.2250422614    0.2586540064
C        0.4213417365   -1.2945420419   -0.8386148600
C        0.8350645597   -2.5348689715   -0.7351776873
C       -1.1202610687    1.4056212332    0.4577723805
C        0.1002698944    1.9022601439   -0.1983224925
N        1.0372454892    1.0199049483   -0.3129570565
H        1.1653823539   -0.5660144732    1.0608880020
H       -0.0451288065   -0.9390853809   -1.7581777168
H        1.3171530443   -3.1872874200   -0.0201482858
H       -2.0213349208    1.9797247234    0.6393995444
H        0.2381483272    2.9155855022   -0.5701755900
C       -0.8822021009    0.1154067046    0.7659504509
H       -1.5441666910   -0.5916627065    1.2509093047
13   
Frame  11 IRC: Energy =  -286.8741790000 ; +0.1362 kcal/mol
C        0.4991654987   -0.2245782748    0.2596844946
C        0.4217119367   -1.2940824198   -0.8378171102
C        0.8344090497   -2.5347075740   -0.7357706304
C       -1.1202903486    1.4054273499    0.4572737239
C        0.1000597076    1.9020410124   -0.1984979947
N        1.0373100266    1.0198700754   -0.3123179726
H        1.1659326141   -0.5661284522    1.0613826699
H       -0.0451350047   -0.9376834367   -1.7580372377
H        1.3162795717   -3.1879689945   -0.0209801457
H       -2.0215203225    1.9788091338    0.6381494114
H        0.2377348683    2.9151023558   -0.5710321749
C       -0.8820820966    0.1156021111    0.7663792508
H       -1.5435755010   -0.5917028864    1.2515837157
13   
Frame  12 IRC: Energy =  -286.8741650000 ; +0.1450 kcal/mol
C        0.5001415279   -0.2247678073    0.2604629828
C        0.4214260581   -1.2933979805   -0.8377366838
C        0.8336949029   -2.5344165400   -0.7361902048
C       -1.1207807563    1.4046546715    0.4567790005
C        0.1000167622    1.9017184412   -0.1991850468
N        1.0383884203    1.0204297309   -0.3113758258
H        1.1667588996   -0.5661819689    1.0625846797
H       -0.0446774962   -0.9357294664   -1.7569448163
H        1.3148031939   -3.1888743115   -0.0225139967
H       -2.0228351930    1.9783164143    0.6364091575
H        0.2372441843    2.9147828024   -0.5724828831
C       -0.8810780037    0.1152692640    0.7675257810
H       -1.5431025000   -0.5918032496    1.2526678557
13   
Frame  13 IRC: Energy =  -286.8741380000 ; +0.1619 kcal/mol
C        0.5000294983   -0.2251193521    0.2632494969
C        0.4226067147   -1.2931697814   -0.8393482628
C        0.8329113821   -2.5353603412   -0.7366261590
C       -1.1204625948    1.4050245818    0.4556317277
C        0.0993284421    1.9020473633   -0.2008538721
N        1.0373079776    1.0199097924   -0.3094425950
H        1.1686897327   -0.5663909158    1.0648213484
H       -0.0459234039   -0.9328268503   -1.7582171243
H        1.3143540057   -3.1908446797   -0.0228028615
H       -2.0227145938    1.9768256116    0.6348209540
H        0.2367919167    2.9159087149   -0.5737075124
C       -0.8809461664    0.1163311191    0.7693871807
H       -1.5419729111   -0.5923352626    1.2530876794
13   
Frame  14 IRC: Energy =  -286.8741180000 ; +0.1744 kcal/mol
C        0.4999965052   -0.2252022116    0.2642179193
C        0.4233912310   -1.2937325346   -0.8395809644
C        0.8324485372   -2.5351709773   -0.7369431893
C       -1.1203337648    1.4053280966    0.4552557527
C        0.0988709024    1.9025059834   -0.2013814724
N        1.0369557131    1.0194150119   -0.3088460247
H        1.1692671004   -0.5664566981    1.0654361067
H       -0.0465546576   -0.9318778427   -1.7590467160
H        1.3144168885   -3.1915575584   -0.0226285695
H       -2.0224377327    1.9762623804    0.6344045742
H        0.2366655068    2.9162598696   -0.5739732915
C       -0.8811286762    0.1167121048    0.7699808891
H       -1.5415575535   -0.5924856240    1.2531049858
13   
Frame  15 IRC: Energy =  -286.8739140000 ; +0.3025 kcal/mol
C        0.5109710689   -0.2211698211    0.2787251058
C        0.4232955649   -1.2810463900   -0.8283781668
C        0.8210335649   -2.5275438484   -0.7451456795
C       -1.1229582677    1.3970771299    0.4469671263
C        0.0984582613    1.8966858676   -0.2051071071
N        1.0460546643    1.0229506193   -0.2972267628
H        1.1790095706   -0.5684466574    1.0764331884
H       -0.0406942857   -0.9067696090   -1.7421198459
H        1.2949567871   -3.2026033607   -0.0463761669
H       -2.0330166678    1.9629840772    0.6079481101
H        0.2284272485    2.9048116718   -0.5932250614
C       -0.8734775529    0.1148102599    0.7785961937
H       -1.5320599564   -0.5917399393    1.2689090661
13   
Frame  16 IRC: Energy =  -286.8739040000 ; +0.3087 kcal/mol
C        0.5115247376   -0.2214181316    0.2793239399
C        0.4235187378   -1.2807386510   -0.8273072773
C        0.8209641546   -2.5277321468   -0.7450801689
C       -1.1229619652    1.3969461444    0.4466793945
C        0.0983930550    1.8964865376   -0.2051374475
N        1.0463605825    1.0232082001   -0.2969790438
H        1.1790269267   -0.5684029822    1.0764332514
H       -0.0407567312   -0.9058666481   -1.7421285946
H        1.2941455282   -3.2025257429   -0.0474129988
H       -2.0334379496    1.9626926326    0.6072165570
H        0.2282005734    2.9044305489   -0.5937688201
C       -0.8730815882    0.1147146765    0.7787225783
H       -1.5318960616   -0.5917944376    1.2694386298
13   
Frame  17 IRC: Energy =  -286.8736220000 ; +0.4857 kcal/mol
C        0.5207996389   -0.2180898897    0.2963566261
C        0.4249905406   -1.2699552493   -0.8199908158
C        0.8099542440   -2.5212683277   -0.7538571654
C       -1.1250928774    1.3899663539    0.4376062263
C        0.0970110956    1.8918126438   -0.2114550584
N        1.0530102455    1.0252944634   -0.2835120632
H        1.1900969127   -0.5698631863    1.0909411988
H       -0.0377542772   -0.8797872009   -1.7279303512
H        1.2775076863   -3.2159055785   -0.0703324459
H       -2.0423834498    1.9485760324    0.5813773568
H        0.2209965864    2.8954342518   -0.6131694514
C       -0.8665417345    0.1148879098    0.7897942188
H       -1.5225946111   -0.5911022224    1.2841717245
13   
Frame  18 IRC: Energy =  -286.8736070000 ; +0.4951 kcal/mol
C        0.5213287214   -0.2179524055    0.2976879396
C        0.4253742442   -1.2700104124   -0.8192957461
C        0.8099123852   -2.5216137868   -0.7536363062
C       -1.1249869220    1.3899194993    0.4371162218
C        0.0967814109    1.8916342624   -0.2116246789
N        1.0532651780    1.0253611841   -0.2830670161
H        1.1902527372   -0.5698142110    1.0911533176
H       -0.0379396084   -0.8784993745   -1.7279368105
H        1.2764612519   -3.2158031001   -0.0717972272
H       -2.0428385438    1.9480959462    0.5804109559
H        0.2207288069    2.8950933734   -0.6139024990
C       -0.8659580375    0.1148120132    0.7900464455
H       -1.5223816240   -0.5912229881    1.2848454034
13   
Frame  19 IRC: Energy =  -286.8735420000 ; +0.5359 kcal/mol
C        0.5231738903   -0.2172834183    0.3003880727
C        0.4252517801   -1.2668589583   -0.8175904109
C        0.8072184515   -2.5193652979   -0.7559737956
C       -1.1256046939    1.3880748445    0.4353702928
C        0.0967529672    1.8904891803   -0.2128548936
N        1.0548194675    1.0258907535   -0.2803009337
H        1.1926430172   -0.5701448473    1.0943518742
H       -0.0368104501   -0.8734510292   -1.7240921067
H        1.2731943962   -3.2191211346   -0.0764315740
H       -2.0445321244    1.9449174256    0.5748070730
H        0.2191756659    2.8928374216   -0.6180428648
C       -0.8649645963    0.1148361963    0.7923817512
H       -1.5203177711   -0.5908211362    1.2879875155
13   
Frame  20 IRC: Energy =  -286.8735210000 ; +0.5491 kcal/mol
C        0.5239177336   -0.2169282971    0.3019069221
C        0.4255927464   -1.2668588297   -0.8166311875
C        0.8069666828   -2.5192562080   -0.7558040288
C       -1.1255769330    1.3876691618    0.4348358254
C        0.0966695369    1.8901278352   -0.2130729158
N        1.0552779927    1.0258665267   -0.2796322799
H        1.1928071169   -0.5700510258    1.0946397399
H       -0.0367827394   -0.8718410177   -1.7236053152
H        1.2717295477   -3.2190891790   -0.0785199488
H       -2.0453139239    1.9443268496    0.5733704533
H        0.2187721646    2.8923426105   -0.6191653958
C       -0.8640564536    0.1145097047    0.7927168628
H       -1.5200034717   -0.5908181312    1.2889612683
13   
Frame  21 IRC: Energy =  -286.8734490000 ; +0.5943 kcal/mol
C        0.5258543535   -0.2165918174    0.3053883100
C        0.4259863999   -1.2645322245   -0.8154931228
C        0.8042235564   -2.5181341420   -0.7587614148
C       -1.1262958896    1.3864025780    0.4328019466
C        0.0962111043    1.8892993641   -0.2146124574
N        1.0565564239    1.0267138194   -0.2763902799
H        1.1957679145   -0.5705521156    1.0985445213
H       -0.0362098999   -0.8659956013   -1.7202799476
H        1.2686772791   -3.2227042459   -0.0828896062
H       -2.0471825876    1.9411605205    0.5676575144
H        0.2172725271    2.8903858681   -0.6235547785
C       -0.8631275397    0.1151513475    0.7955311284
H       -1.5177336419   -0.5906033508    1.2920581867
13   
Frame  22 IRC: Energy =  -286.8734230000 ; +0.6106 kcal/mol
C        0.5264631510   -0.2151244272    0.3078219289
C        0.4265764663   -1.2648893512   -0.8151966549
C        0.8038346245   -2.5187616061   -0.7592490681
C       -1.1260695324    1.3865491890    0.4319152278
C        0.0958537304    1.8891547223   -0.2149566192
N        1.0566453572    1.0269006056   -0.2757649538
H        1.1964513027   -0.5707888355    1.0993453254
H       -0.0365285271   -0.8639822237   -1.7201749187
H        1.2675778699   -3.2231706145   -0.0844359868
H       -2.0475012158    1.9400828716    0.5661626070
H        0.2168601366    2.8894685782   -0.6245324845
C       -0.8628753597    0.1154317793    0.7960046422
H       -1.5172880035   -0.5908706878    1.2930609547
13   
Frame  23 IRC: Energy =  -286.8733050000 ; +0.6846 kcal/mol
C        0.5295293860   -0.2151718253    0.3120155953
C        0.4262099030   -1.2591421343   -0.8110689175
C        0.8002347361   -2.5141702370   -0.7610497748
C       -1.1268284279    1.3830026572    0.4291290799
C        0.0959888037    1.8868538723   -0.2169965737
N        1.0595685247    1.0273698070   -0.2714240243
H        1.1992855844   -0.5706508875    1.1038284809
H       -0.0346698573   -0.8560148355   -1.7141627508
H        1.2614830922   -3.2278098945   -0.0939330132
H       -2.0503753538    1.9350595948    0.5569892933
H        0.2143728167    2.8859999894   -0.6313834109
C       -0.8603764585    0.1147152048    0.7996405311
H       -1.5144227494   -0.5900413112    1.2984154847
13   
Frame  24 IRC: Energy =  -286.8732530000 ; +0.7172 kcal/mol
C        0.5295325190   -0.2133217936    0.3146279252
C        0.4265589676   -1.2577468527   -0.8088607974
C        0.7993247831   -2.5128655774   -0.7613694180
C       -1.1258799696    1.3820945018    0.4279624189
C        0.0945318951    1.8863458327   -0.2168385599
N        1.0583426188    1.0276512595   -0.2701219238
H        1.1997400226   -0.5707287871    1.1043165236
H       -0.0342012154   -0.8538761736   -1.7128310076
H        1.2594272922   -3.2286156449   -0.0971094292
H       -2.0487291815    1.9321648309    0.5539267198
H        0.2139092836    2.8831785869   -0.6327865507
C       -0.8597720377    0.1146745262    0.7995785555
H       -1.5127849779   -0.5889547085    1.2995055435
13   
Frame  25 IRC: Energy =  -286.8732150000 ; +0.7411 kcal/mol
C        0.5294259639   -0.2125022399    0.3155310032
C        0.4267362021   -1.2568609912   -0.8077044622
C        0.7997755796   -2.5140962066   -0.7608764118
C       -1.1253425463    1.3818643891    0.4276009893
C        0.0941086989    1.8864232317   -0.2168053267
N        1.0575670418    1.0277711825   -0.2697938466
H        1.1997566661   -0.5707893304    1.1042476583
H       -0.0343575220   -0.8531679763   -1.7130683575
H        1.2585251681   -3.2280969189   -0.0984424287
H       -2.0480554145    1.9313194365    0.5531745881
H        0.2138100129    2.8820847890   -0.6329440569
C       -0.8596641172    0.1146422990    0.7993888309
H       -1.5122857334   -0.5885916645    1.2996918205
13   
Frame  26 IRC: Energy =  -286.8728900000 ; +0.9450 kcal/mol
C        0.5391720884   -0.2118672732    0.3303614228
C        0.4284810794   -1.2492543742   -0.8017701301
C        0.7897793855   -2.5084142328   -0.7710074214
C       -1.1293486256    1.3762039394    0.4195846422
C        0.0946970572    1.8817146145   -0.2234625438
N        1.0664759458    1.0300326258   -0.2575862651
H        1.2098161202   -0.5707102701    1.1199172917
H       -0.0315528876   -0.8294851446   -1.6978345430
H        1.2448569090   -3.2421622809   -0.1215371801
H       -2.0599521247    1.9207619046    0.5299886582
H        0.2074495043    2.8758359810   -0.6521710926
C       -0.8540979062    0.1156730141    0.8110169562
H       -1.5057765458   -0.5883285034    1.3145002050
13   
Frame  27 IRC: Energy =  -286.8728590000 ; +0.9645 kcal/mol
C        0.5394657891   -0.2119855462    0.3310600738
C        0.4279472381   -1.2481182168   -0.8026476983
C        0.7892739613   -2.5081491619   -0.7716352849
C       -1.1298102933    1.3764589772    0.4191838759
C        0.0938154970    1.8809778969   -0.2231965992
N        1.0677276762    1.0297080433   -0.2572672386
H        1.2102542242   -0.5706284965    1.1205922614
H       -0.0310114259   -0.8289657272   -1.6963767978
H        1.2445573555   -3.2431456487   -0.1221381590
H       -2.0603238314    1.9202783847    0.5290769528
H        0.2073098305    2.8762502991   -0.6532160502
C       -0.8534412984    0.1158809332    0.8113057598
H       -1.5057647228   -0.5885617371    1.3152589044
13   
Frame  28 IRC: Energy =  -286.8724530000 ; +1.2193 kcal/mol
C        0.5470373385   -0.2078311713    0.3469922146
C        0.4305533477   -1.2394801611   -0.7911678493
C        0.7810941759   -2.5011401397   -0.7781943730
C       -1.1308148448    1.3694547970    0.4108475019
C        0.0934236240    1.8768727107   -0.2291355323
N        1.0718261453    1.0325596620   -0.2453332951
H        1.2180646146   -0.5698246207    1.1341114469
H       -0.0281234358   -0.8073832218   -1.6829325065
H        1.2295166020   -3.2562193037   -0.1500276790
H       -2.0669660052    1.9066728793    0.5051082298
H        0.2013125776    2.8652990352   -0.6705681979
C       -0.8487324867    0.1164589903    0.8208638189
H       -1.4981916532   -0.5854394562    1.3294362210
13   
Frame  29 IRC: Energy =  -286.8724220000 ; +1.2387 kcal/mol
C        0.5475662065   -0.2076098616    0.3478331516
C        0.4302210381   -1.2377314725   -0.7908883646
C        0.7805033258   -2.5009031963   -0.7789855773
C       -1.1310288880    1.3692239178    0.4103029850
C        0.0929603711    1.8763559441   -0.2292373804
N        1.0722891807    1.0324321643   -0.2446134290
H        1.2185612344   -0.5697480650    1.1349676823
H       -0.0276768621   -0.8063996496   -1.6816401276
H        1.2289161777   -3.2575535921   -0.1513072137
H       -2.0671313899    1.9056961306    0.5036294583
H        0.2009946421    2.8648802770   -0.6717455445
C       -0.8484013471    0.1166546757    0.8213427705
H       -1.4977736893   -0.5852972724    1.3303415894
13   
Frame  30 IRC: Energy =  -286.8718760000 ; +1.5813 kcal/mol
C        0.5557127137   -0.2037150477    0.3656198883
C        0.4332936152   -1.2298513388   -0.7794422358
C        0.7718067579   -2.4946284015   -0.7873706261
C       -1.1333921027    1.3621728175    0.4005354549
C        0.0919584335    1.8713899579   -0.2358648004
N        1.0778428207    1.0353468026   -0.2321478476
H        1.2274227086   -0.5665120883    1.1514950242
H       -0.0235371758   -0.7831510552   -1.6648605680
H        1.2126765012   -3.2737713402   -0.1846209195
H       -2.0760801001    1.8910337822    0.4761596875
H        0.1953285200    2.8546410331   -0.6900807938
C       -0.8431368697    0.1180610055    0.8322641110
H       -1.4898958225   -0.5810161271    1.3483136254
13   
Frame  31 IRC: Energy =  -286.8718390000 ; +1.6045 kcal/mol
C        0.5552930545   -0.2030117390    0.3655742163
C        0.4336064327   -1.2292431601   -0.7782714889
C        0.7717271133   -2.4952040888   -0.7875221025
C       -1.1333710513    1.3615510761    0.4001355227
C        0.0923999860    1.8715001819   -0.2365131455
N        1.0778559377    1.0355371494   -0.2313723958
H        1.2283084716   -0.5666330428    1.1528082202
H       -0.0235338933   -0.7818089903   -1.6644104215
H        1.2116814574   -3.2741271741   -0.1865051939
H       -2.0766972563    1.8904494949    0.4748412502
H        0.1949843589    2.8538242963   -0.6908105131
C       -0.8427651029    0.1178945373    0.8329188606
H       -1.4894895084   -0.5807285408    1.3491271912
13   
Frame  32 IRC: Energy =  -286.8712410000 ; +1.9798 kcal/mol
C        0.5633008695   -0.1991529910    0.3828594413
C        0.4362286801   -1.2215422869   -0.7677982179
C        0.7641945204   -2.4883488055   -0.7947823890
C       -1.1360553648    1.3555810355    0.3903554091
C        0.0903963141    1.8669318266   -0.2416289809
N        1.0830223171    1.0389307566   -0.2194758286
H        1.2357758438   -0.5638044776    1.1666069210
H       -0.0183291101   -0.7641696629   -1.6489846694
H        1.1970035302   -3.2927093328   -0.2204370683
H       -2.0850310351    1.8753922075    0.4466073967
H        0.1897496699    2.8459895996   -0.7059031706
C       -0.8382141864    0.1206591378    0.8433313975
H       -1.4820420487   -0.5737570069    1.3692497592
13   
Frame  33 IRC: Energy =  -286.8711830000 ; +2.0162 kcal/mol
C        0.5634460144   -0.1985694643    0.3830488703
C        0.4371778175   -1.2215101938   -0.7652644989
C        0.7638197948   -2.4883046968   -0.7952107652
C       -1.1362595708    1.3548241651    0.3897855104
C        0.0907795448    1.8668836371   -0.2423144103
N        1.0830344819    1.0392183341   -0.2183724125
H        1.2366654379   -0.5638596357    1.1679767405
H       -0.0185633460   -0.7622466988   -1.6490587989
H        1.1957468935   -3.2936432315   -0.2231286378
H       -2.0856790026    1.8743203704    0.4445247166
H        0.1892929272    2.8451739174   -0.7068887611
C       -0.8380713148    0.1208185397    0.8442705732
H       -1.4813896778   -0.5731050428    1.3706318738
13   
Frame  34 IRC: Energy =  -286.8709500000 ; +2.1624 kcal/mol
C        0.5663384780   -0.1971503994    0.3901187240
C        0.4373397676   -1.2182913116   -0.7634571127
C        0.7612677505   -2.4855973129   -0.7974109611
C       -1.1371900215    1.3530086080    0.3861049857
C        0.0896505396    1.8652464701   -0.2437800880
N        1.0851872952    1.0407049177   -0.2141433038
H        1.2391191277   -0.5630179921    1.1724102080
H       -0.0158801551   -0.7573230136   -1.6424328695
H        1.1905567493   -3.3008799000   -0.2357674714
H       -2.0888159081    1.8688335171    0.4339845506
H        0.1873868075    2.8427403946   -0.7120184544
C       -0.8361626651    0.1219639087    0.8479596397
H       -1.4787977655   -0.5702378866    1.3784321528
13   
Frame  35 IRC: Energy =  -286.8708550000 ; +2.2220 kcal/mol
C        0.5669042669   -0.1962895029    0.3912199847
C        0.4384197731   -1.2176088565   -0.7602284782
C        0.7606122391   -2.4853993376   -0.7981086777
C       -1.1375876295    1.3519445249    0.3849633226
C        0.0899023528    1.8650086249   -0.2446862562
N        1.0854857028    1.0412754244   -0.2122524522
H        1.2404453407   -0.5630908694    1.1744435714
H       -0.0157722572   -0.7546775599   -1.6417755186
H        1.1884506431   -3.3030271390   -0.2406482015
H       -2.0899828151    1.8668357307    0.4300701968
H        0.1865804406    2.8415984325   -0.7137442126
C       -0.8357619666    0.1223955984    0.8495490627
H       -1.4776960907   -0.5689650703    1.3811976588
13   
Frame  36 IRC: Energy =  -286.8707120000 ; +2.3117 kcal/mol
C        0.5686274957   -0.1955069929    0.3956468085
C        0.4382606353   -1.2159297019   -0.7600739913
C        0.7591864286   -2.4835094988   -0.7991204817
C       -1.1381018618    1.3511080643    0.3828514623
C        0.0890895630    1.8641297280   -0.2453038919
N        1.0868327727    1.0422954081   -0.2098667980
H        1.2416736818   -0.5627794515    1.1765765277
H       -0.0139539170   -0.7525813554   -1.6377174518
H        1.1856021736   -3.3073519716   -0.2479004077
H       -2.0918054036    1.8637384787    0.4239791858
H        0.1854740551    2.8404288517   -0.7164989827
C       -0.8346215666    0.1231397099    0.8516171387
H       -1.4762640568   -0.5671812685    1.3858108820
13   
Frame  37 IRC: Energy =  -286.8705690000 ; +2.4015 kcal/mol
C        0.5695458193   -0.1942577732    0.3975673543
C        0.4395644654   -1.2146964092   -0.7560177470
C        0.7582763151   -2.4830567492   -0.7999522245
C       -1.1387083706    1.3497716485    0.3811671425
C        0.0892471280    1.8638202675   -0.2463553265
N        1.0874137536    1.0432901585   -0.2070183723
H        1.2434786656   -0.5631602453    1.1791343735
H       -0.0135314524   -0.7494650190   -1.6366025337
H        1.1826742202   -3.3108811272   -0.2551012044
H       -2.0935569402    1.8608010420    0.4180652188
H        0.1842310774    2.8390318639   -0.7189197782
C       -0.8339512579    0.1239265998    0.8539304264
H       -1.4746834235   -0.5651242572    1.3901026711
13   
Frame  38 IRC: Energy =  -286.8704410000 ; +2.4818 kcal/mol
C        0.5710084069   -0.1935887654    0.4014436782
C        0.4393108855   -1.2134918538   -0.7564462210
C        0.7572003441   -2.4813408062   -0.8004346982
C       -1.1391244785    1.3492327285    0.3794542817
C        0.0885098938    1.8632435765   -0.2466821325
N        1.0885987757    1.0443674550   -0.2049400020
H        1.2443967943   -0.5632059256    1.1805331685
H       -0.0118652131   -0.7483559762   -1.6332354641
H        1.1803422039   -3.3145162419   -0.2612602031
H       -2.0951179598    1.8582730517    0.4129119565
H        0.1832457487    2.8382126640   -0.7210756254
C       -0.8329995377    0.1246492534    0.8556728615
H       -1.4735058638   -0.5634791599    1.3940583999
13   