13   
Frame   0 IRC: Energy =  -286.8743960000 ; +0.0000 kcal/mol
C       -0.1747510000    0.0810770000    0.0000000000
C        0.0827630000   -0.1992070000   -0.0000000000
C       -0.2740520000    1.0549780000   -0.0000000000
C       -0.0037890000   -0.0069390000    0.0000000000
C       -0.0908790000    0.0194940000   -0.0000000000
N       -0.1925860000   -0.0027350000   -0.0000000000
H        0.1655760000   -0.0047920000    0.0000000000
H        0.1520600000    0.0421160000   -0.0000000000
H        0.1498190000    0.0060490000    0.0000000000
H        0.1366850000    0.0002000000    0.0000000000
H        0.1329100000    0.0005400000   -0.0000000000
C       -0.2287460000    0.0092700000    0.0000000000
H        0.1449910000   -0.0000520000    0.0000000000
13   
Frame   1 IRC: Energy =  -286.8743930000 ; +0.0019 kcal/mol
C       -0.1747670000    0.0809700000    0.0000000000
C        0.0830310000   -0.1991360000   -0.0000000000
C       -0.2741180000    1.0550360000   -0.0000000000
C       -0.0034270000   -0.0069870000    0.0000000000
C       -0.0911890000    0.0194630000   -0.0000000000
N       -0.1926860000   -0.0027060000   -0.0000000000
H        0.1655670000   -0.0047890000    0.0000000000
H        0.1520610000    0.0421510000   -0.0000000000
H        0.1498220000    0.0059900000    0.0000000000
H        0.1366720000    0.0002000000    0.0000000000
H        0.1329340000    0.0005420000   -0.0000000000
C       -0.2288790000    0.0093150000    0.0000000000
H        0.1449790000   -0.0000520000    0.0000000000
13   
Frame   2 IRC: Energy =  -286.8743600000 ; +0.0226 kcal/mol
C       -0.1714290000    0.0815440000    0.0000000000
C        0.0817630000   -0.1994540000   -0.0000000000
C       -0.2742770000    1.0548300000   -0.0000000000
C       -0.0029130000   -0.0071310000    0.0000000000
C       -0.0917200000    0.0197760000   -0.0000000000
N       -0.1930900000   -0.0028530000   -0.0000000000
H        0.1654270000   -0.0048190000    0.0000000000
H        0.1521700000    0.0422460000   -0.0000000000
H        0.1499280000    0.0059610000   -0.0000000000
H        0.1366880000    0.0001940000    0.0000000000
H        0.1329330000    0.0005280000   -0.0000000000
C       -0.2304840000    0.0092310000    0.0000000000
H        0.1450040000   -0.0000540000    0.0000000000
13   
Frame   3 IRC: Energy =  -286.8743560000 ; +0.0251 kcal/mol
C       -0.1710250000    0.0815880000    0.0000000000
C        0.0815420000   -0.1995560000   -0.0000000000
C       -0.2743150000    1.0548560000   -0.0000000000
C       -0.0030000000   -0.0071710000    0.0000000000
C       -0.0917740000    0.0198580000   -0.0000000000
N       -0.1930430000   -0.0029270000   -0.0000000000
H        0.1654250000   -0.0048200000    0.0000000000
H        0.1521910000    0.0422330000   -0.0000000000
H        0.1499260000    0.0060520000   -0.0000000000
H        0.1366990000    0.0001930000    0.0000000000
H        0.1329900000    0.0005200000   -0.0000000000
C       -0.2306260000    0.0092310000    0.0000000000
H        0.1450090000   -0.0000560000    0.0000000000
13   
Frame   4 IRC: Energy =  -286.8743400000 ; +0.0351 kcal/mol
C       -0.1699400000    0.0817050000    0.0000000000
C        0.0814340000   -0.1995240000   -0.0000000000
C       -0.2743980000    1.0548070000   -0.0000000000
C       -0.0023040000   -0.0072330000    0.0000000000
C       -0.0922400000    0.0198790000   -0.0000000000
N       -0.1934030000   -0.0028780000   -0.0000000000
H        0.1653490000   -0.0048300000    0.0000000000
H        0.1522120000    0.0423160000   -0.0000000000
H        0.1499740000    0.0058670000   -0.0000000000
H        0.1366760000    0.0001920000    0.0000000000
H        0.1329380000    0.0005240000   -0.0000000000
C       -0.2313020000    0.0092290000    0.0000000000
H        0.1450060000   -0.0000540000    0.0000000000
13   
Frame   5 IRC: Energy =  -286.8743360000 ; +0.0377 kcal/mol
C       -0.1699130000    0.0817870000    0.0000000000
C        0.0814330000   -0.1994650000   -0.0000000000
C       -0.2743440000    1.0547080000   -0.0000000000
C       -0.0022160000   -0.0071900000    0.0000000000
C       -0.0921750000    0.0198410000   -0.0000000000
N       -0.1935070000   -0.0028180000   -0.0000000000
H        0.1653330000   -0.0048350000    0.0000000000
H        0.1521990000    0.0423290000   -0.0000000000
H        0.1499980000    0.0057690000   -0.0000000000
H        0.1366660000    0.0001920000    0.0000000000
H        0.1328620000    0.0005300000   -0.0000000000
C       -0.2313410000    0.0092030000    0.0000000000
H        0.1450060000   -0.0000510000    0.0000000000
13   
Frame   6 IRC: Energy =  -286.8742830000 ; +0.0709 kcal/mol
C       -0.1654490000    0.0822830000    0.0000000000
C        0.0801480000   -0.1998570000   -0.0000000000
C       -0.2747530000    1.0546060000   -0.0000000000
C       -0.0010310000   -0.0075300000    0.0000000000
C       -0.0933560000    0.0202830000   -0.0000000000
N       -0.1940500000   -0.0030610000   -0.0000000000
H        0.1651300000   -0.0048640000    0.0000000000
H        0.1523540000    0.0425110000   -0.0000000000
H        0.1501210000    0.0057840000   -0.0000000000
H        0.1366700000    0.0001840000    0.0000000000
H        0.1329710000    0.0005040000   -0.0000000000
C       -0.2337660000    0.0092130000    0.0000000000
H        0.1450120000   -0.0000570000    0.0000000000
13   
Frame   7 IRC: Energy =  -286.8742790000 ; +0.0734 kcal/mol
C       -0.1652590000    0.0821100000    0.0000000000
C        0.0802800000   -0.1998980000   -0.0000000000
C       -0.2749290000    1.0547920000   -0.0000000000
C       -0.0008460000   -0.0076260000    0.0000000000
C       -0.0935720000    0.0203040000   -0.0000000000
N       -0.1940290000   -0.0031000000   -0.0000000000
H        0.1651240000   -0.0048570000    0.0000000000
H        0.1523760000    0.0425680000   -0.0000000000
H        0.1500840000    0.0058140000   -0.0000000000
H        0.1366760000    0.0001850000    0.0000000000
H        0.1330310000    0.0005010000   -0.0000000000
C       -0.2339440000    0.0092670000    0.0000000000
H        0.1450090000   -0.0000590000    0.0000000000
13   
Frame   8 IRC: Energy =  -286.8742100000 ; +0.1167 kcal/mol
C       -0.1603690000    0.0829770000    0.0000000000
C        0.0786320000   -0.2001960000   -0.0000000000
C       -0.2750610000    1.0543990000   -0.0000000000
C        0.0006290000   -0.0078250000    0.0000000000
C       -0.0947490000    0.0206970000   -0.0000000000
N       -0.1948780000   -0.0032230000   -0.0000000000
H        0.1648760000   -0.0049030000    0.0000000000
H        0.1524960000    0.0426860000   -0.0000000000
H        0.1503040000    0.0055930000   -0.0000000000
H        0.1366530000    0.0001770000    0.0000000000
H        0.1329860000    0.0004850000   -0.0000000000
C       -0.2365460000    0.0091930000    0.0000000000
H        0.1450270000   -0.0000600000    0.0000000000
13   
Frame   9 IRC: Energy =  -286.8742020000 ; +0.1217 kcal/mol
C       -0.1599230000    0.0829080000    0.0000000000
C        0.0787130000   -0.2002180000   -0.0000000000
C       -0.2753060000    1.0543670000   -0.0000000000
C        0.0008380000   -0.0079200000    0.0000000000
C       -0.0949170000    0.0207500000   -0.0000000000
N       -0.1948870000   -0.0032640000   -0.0000000000
H        0.1648450000   -0.0049020000    0.0000000000
H        0.1525230000    0.0428220000   -0.0000000000
H        0.1502780000    0.0056370000   -0.0000000000
H        0.1366440000    0.0001760000    0.0000000000
H        0.1330030000    0.0004820000   -0.0000000000
C       -0.2368340000    0.0092250000    0.0000000000
H        0.1450240000   -0.0000620000    0.0000000000
13   
Frame  10 IRC: Energy =  -286.8741890000 ; +0.1299 kcal/mol
C       -0.1589520000    0.0831400000    0.0000000000
C        0.0781790000   -0.2003050000   -0.0000000000
C       -0.2751050000    1.0544510000   -0.0000000000
C        0.0011000000   -0.0079080000    0.0000000000
C       -0.0951180000    0.0207980000   -0.0000000000
N       -0.1951090000   -0.0032630000   -0.0000000000
H        0.1648110000   -0.0049120000    0.0000000000
H        0.1525330000    0.0426930000   -0.0000000000
H        0.1503560000    0.0055170000   -0.0000000000
H        0.1366570000    0.0001760000    0.0000000000
H        0.1329910000    0.0004800000   -0.0000000000
C       -0.2373710000    0.0091940000    0.0000000000
H        0.1450270000   -0.0000610000    0.0000000000
13   
Frame  11 IRC: Energy =  -286.8741790000 ; +0.1362 kcal/mol
C       -0.1584650000    0.0832340000    0.0000000000
C        0.0781790000   -0.2003210000   -0.0000000000
C       -0.2753330000    1.0541230000   -0.0000000000
C        0.0012350000   -0.0079840000    0.0000000000
C       -0.0952750000    0.0209050000   -0.0000000000
N       -0.1951650000   -0.0033300000   -0.0000000000
H        0.1647740000   -0.0049200000    0.0000000000
H        0.1525600000    0.0428730000   -0.0000000000
H        0.1503470000    0.0056200000   -0.0000000000
H        0.1366090000    0.0001740000    0.0000000000
H        0.1329950000    0.0004730000   -0.0000000000
C       -0.2374830000    0.0092180000    0.0000000000
H        0.1450220000   -0.0000630000    0.0000000000
13   
Frame  12 IRC: Energy =  -286.8741650000 ; +0.1450 kcal/mol
C       -0.1571630000    0.0833130000    0.0000000000
C        0.0777080000   -0.2004110000   -0.0000000000
C       -0.2753260000    1.0544040000   -0.0000000000
C        0.0017840000   -0.0080340000    0.0000000000
C       -0.0956720000    0.0209440000   -0.0000000000
N       -0.1952520000   -0.0033270000   -0.0000000000
H        0.1647170000   -0.0049220000    0.0000000000
H        0.1525930000    0.0427670000   -0.0000000000
H        0.1504140000    0.0054630000   -0.0000000000
H        0.1367060000    0.0001750000    0.0000000000
H        0.1330120000    0.0004740000   -0.0000000000
C       -0.2385620000    0.0092180000    0.0000000000
H        0.1450410000   -0.0000640000    0.0000000000
13   
Frame  13 IRC: Energy =  -286.8741380000 ; +0.1619 kcal/mol
C       -0.1560700000    0.0838970000    0.0000000000
C        0.0772750000   -0.2008430000   -0.0000000000
C       -0.2753430000    1.0541770000   -0.0000000000
C        0.0013190000   -0.0080030000    0.0000000000
C       -0.0957090000    0.0211470000   -0.0000000000
N       -0.1956690000   -0.0033940000   -0.0000000000
H        0.1647190000   -0.0049460000    0.0000000000
H        0.1527660000    0.0427610000   -0.0000000000
H        0.1506610000    0.0053350000   -0.0000000000
H        0.1365090000    0.0001670000    0.0000000000
H        0.1332260000    0.0004540000   -0.0000000000
C       -0.2386340000    0.0093110000    0.0000000000
H        0.1449510000   -0.0000650000    0.0000000000
13   
Frame  14 IRC: Energy =  -286.8741180000 ; +0.1744 kcal/mol
C       -0.1560150000    0.0843470000    0.0000000000
C        0.0777900000   -0.2007360000   -0.0000000000
C       -0.2756440000    1.0530380000   -0.0000000000
C        0.0012330000   -0.0079970000    0.0000000000
C       -0.0959600000    0.0213360000   -0.0000000000
N       -0.1957910000   -0.0034740000   -0.0000000000
H        0.1647270000   -0.0049730000    0.0000000000
H        0.1528260000    0.0431220000   -0.0000000000
H        0.1507560000    0.0054260000   -0.0000000000
H        0.1364070000    0.0001640000    0.0000000000
H        0.1333540000    0.0004410000   -0.0000000000
C       -0.2385770000    0.0093730000    0.0000000000
H        0.1448930000   -0.0000670000    0.0000000000
13   
Frame  15 IRC: Energy =  -286.8739140000 ; +0.3025 kcal/mol
C       -0.1440780000    0.0851110000    0.0000000000
C        0.0739270000   -0.2013110000   -0.0000000000
C       -0.2764050000    1.0536630000   -0.0000000000
C        0.0065700000   -0.0089290000    0.0000000000
C       -0.0993250000    0.0220980000   -0.0000000000
N       -0.1973330000   -0.0038630000   -0.0000000000
H        0.1640030000   -0.0050190000    0.0000000000
H        0.1529400000    0.0434550000   -0.0000000000
H        0.1508980000    0.0050370000   -0.0000000000
H        0.1366140000    0.0001590000    0.0000000000
H        0.1330210000    0.0004140000   -0.0000000000
C       -0.2459080000    0.0092640000    0.0000000000
H        0.1450750000   -0.0000790000    0.0000000000
13   
Frame  16 IRC: Energy =  -286.8739040000 ; +0.3087 kcal/mol
C       -0.1437550000    0.0848710000    0.0000000000
C        0.0741260000   -0.2013140000   -0.0000000000
C       -0.2766750000    1.0539160000   -0.0000000000
C        0.0068870000   -0.0090030000    0.0000000000
C       -0.0995250000    0.0220470000   -0.0000000000
N       -0.1974320000   -0.0038440000   -0.0000000000
H        0.1640070000   -0.0050070000    0.0000000000
H        0.1529650000    0.0436090000   -0.0000000000
H        0.1508030000    0.0049590000   -0.0000000000
H        0.1366730000    0.0001590000    0.0000000000
H        0.1330140000    0.0004160000   -0.0000000000
C       -0.2462050000    0.0092690000    0.0000000000
H        0.1451160000   -0.0000780000    0.0000000000
13   
Frame  17 IRC: Energy =  -286.8736220000 ; +0.4857 kcal/mol
C       -0.1314990000    0.0870930000    0.0000000000
C        0.0699480000   -0.2023650000   -0.0000000000
C       -0.2774910000    1.0530160000   -0.0000000000
C        0.0112090000   -0.0096690000    0.0000000000
C       -0.1028150000    0.0231360000   -0.0000000000
N       -0.1991650000   -0.0043390000   -0.0000000000
H        0.1633520000   -0.0051110000    0.0000000000
H        0.1533040000    0.0440610000   -0.0000000000
H        0.1515070000    0.0045000000   -0.0000000000
H        0.1365490000    0.0001440000    0.0000000000
H        0.1330930000    0.0003550000   -0.0000000000
C       -0.2530780000    0.0092740000    0.0000000000
H        0.1450860000   -0.0000930000    0.0000000000
13   
Frame  18 IRC: Energy =  -286.8736070000 ; +0.4951 kcal/mol
C       -0.1307030000    0.0873120000    0.0000000000
C        0.0697970000   -0.2024930000   -0.0000000000
C       -0.2776530000    1.0529660000   -0.0000000000
C        0.0113910000   -0.0096430000    0.0000000000
C       -0.1031600000    0.0232050000   -0.0000000000
N       -0.1993630000   -0.0043820000   -0.0000000000
H        0.1633590000   -0.0051150000    0.0000000000
H        0.1533470000    0.0442590000   -0.0000000000
H        0.1514170000    0.0042730000   -0.0000000000
H        0.1365980000    0.0001400000    0.0000000000
H        0.1331060000    0.0003480000   -0.0000000000
C       -0.2532760000    0.0092220000    0.0000000000
H        0.1451410000   -0.0000930000    0.0000000000
13   
Frame  19 IRC: Energy =  -286.8735420000 ; +0.5359 kcal/mol
C       -0.1286780000    0.0874300000    0.0000000000
C        0.0690240000   -0.2026120000   -0.0000000000
C       -0.2777910000    1.0530760000   -0.0000000000
C        0.0123890000   -0.0098820000    0.0000000000
C       -0.1036000000    0.0233300000   -0.0000000000
N       -0.1995550000   -0.0044350000   -0.0000000000
H        0.1631920000   -0.0051250000    0.0000000000
H        0.1533760000    0.0441650000   -0.0000000000
H        0.1516550000    0.0043940000   -0.0000000000
H        0.1365250000    0.0001420000    0.0000000000
H        0.1330840000    0.0003440000   -0.0000000000
C       -0.2547160000    0.0092690000    0.0000000000
H        0.1450940000   -0.0000970000    0.0000000000
13   
Frame  20 IRC: Energy =  -286.8735210000 ; +0.5491 kcal/mol
C       -0.1276920000    0.0878230000    0.0000000000
C        0.0689080000   -0.2026880000   -0.0000000000
C       -0.2779860000    1.0527610000   -0.0000000000
C        0.0126000000   -0.0098380000    0.0000000000
C       -0.1039480000    0.0234540000   -0.0000000000
N       -0.1997380000   -0.0045020000   -0.0000000000
H        0.1631840000   -0.0051370000    0.0000000000
H        0.1534090000    0.0444460000   -0.0000000000
H        0.1515680000    0.0041270000   -0.0000000000
H        0.1366010000    0.0001380000    0.0000000000
H        0.1330890000    0.0003360000   -0.0000000000
C       -0.2551370000    0.0091790000    0.0000000000
H        0.1451440000   -0.0000970000    0.0000000000
13   
Frame  21 IRC: Energy =  -286.8734490000 ; +0.5943 kcal/mol
C       -0.1251060000    0.0881090000    0.0000000000
C        0.0679520000   -0.2028600000   -0.0000000000
C       -0.2780800000    1.0524790000   -0.0000000000
C        0.0138160000   -0.0100450000    0.0000000000
C       -0.1047370000    0.0236520000   -0.0000000000
N       -0.2000450000   -0.0045830000   -0.0000000000
H        0.1630120000   -0.0051590000    0.0000000000
H        0.1534670000    0.0444180000   -0.0000000000
H        0.1518230000    0.0043360000   -0.0000000000
H        0.1365420000    0.0001360000    0.0000000000
H        0.1331290000    0.0003240000   -0.0000000000
C       -0.2568510000    0.0092950000    0.0000000000
H        0.1450790000   -0.0001010000    0.0000000000
13   
Frame  22 IRC: Energy =  -286.8734230000 ; +0.6106 kcal/mol
C       -0.1238740000    0.0889920000    0.0000000000
C        0.0669890000   -0.2031580000   -0.0000000000
C       -0.2780330000    1.0517040000   -0.0000000000
C        0.0135760000   -0.0098960000    0.0000000000
C       -0.1050130000    0.0239420000   -0.0000000000
N       -0.2002480000   -0.0047520000   -0.0000000000
H        0.1629660000   -0.0051940000    0.0000000000
H        0.1535110000    0.0446460000   -0.0000000000
H        0.1517770000    0.0042220000   -0.0000000000
H        0.1365050000    0.0001270000    0.0000000000
H        0.1330880000    0.0003030000   -0.0000000000
C       -0.2564140000    0.0091680000    0.0000000000
H        0.1451720000   -0.0001040000    0.0000000000
13   
Frame  23 IRC: Energy =  -286.8733050000 ; +0.6846 kcal/mol
C       -0.1208680000    0.0888100000    0.0000000000
C        0.0666080000   -0.2033630000   -0.0000000000
C       -0.2787800000    1.0528270000   -0.0000000000
C        0.0154960000   -0.0103610000    0.0000000000
C       -0.1058010000    0.0239260000   -0.0000000000
N       -0.2007070000   -0.0047150000   -0.0000000000
H        0.1627830000   -0.0051780000    0.0000000000
H        0.1536210000    0.0447080000   -0.0000000000
H        0.1520940000    0.0038220000   -0.0000000000
H        0.1364900000    0.0001340000    0.0000000000
H        0.1330940000    0.0003090000   -0.0000000000
C       -0.2591610000    0.0091870000    0.0000000000
H        0.1451310000   -0.0001060000    0.0000000000
13   
Frame  24 IRC: Energy =  -286.8732530000 ; +0.7172 kcal/mol
C       -0.1212620000    0.0892790000    0.0000000000
C        0.0668110000   -0.2035270000   -0.0000000000
C       -0.2789930000    1.0523970000   -0.0000000000
C        0.0153040000   -0.0103260000    0.0000000000
C       -0.1055420000    0.0240780000   -0.0000000000
N       -0.2009320000   -0.0048030000   -0.0000000000
H        0.1627890000   -0.0051990000    0.0000000000
H        0.1536380000    0.0450400000   -0.0000000000
H        0.1520500000    0.0037300000   -0.0000000000
H        0.1360970000    0.0001270000    0.0000000000
H        0.1329410000    0.0002900000   -0.0000000000
C       -0.2579680000    0.0090210000    0.0000000000
H        0.1450660000   -0.0001060000    0.0000000000
13   
Frame  25 IRC: Energy =  -286.8732150000 ; +0.7411 kcal/mol
C       -0.1213930000    0.0888360000    0.0000000000
C        0.0667620000   -0.2039660000   -0.0000000000
C       -0.2792190000    1.0538010000   -0.0000000000
C        0.0148580000   -0.0103520000    0.0000000000
C       -0.1051080000    0.0239700000   -0.0000000000
N       -0.2009440000   -0.0048010000   -0.0000000000
H        0.1628240000   -0.0051760000    0.0000000000
H        0.1536610000    0.0449110000   -0.0000000000
H        0.1518410000    0.0034990000   -0.0000000000
H        0.1359600000    0.0001250000    0.0000000000
H        0.1328870000    0.0002840000   -0.0000000000
C       -0.2572120000    0.0089730000    0.0000000000
H        0.1450820000   -0.0001040000    0.0000000000
13   
Frame  26 IRC: Energy =  -286.8728900000 ; +0.9450 kcal/mol
C       -0.1079660000    0.0912770000    0.0000000000
C        0.0619020000   -0.2046000000   -0.0000000000
C       -0.2798730000    1.0517370000   -0.0000000000
C        0.0205140000   -0.0109610000    0.0000000000
C       -0.1096240000    0.0248950000   -0.0000000000
N       -0.2023580000   -0.0052290000   -0.0000000000
H        0.1621570000   -0.0052760000    0.0000000000
H        0.1539100000    0.0454650000   -0.0000000000
H        0.1528200000    0.0033300000   -0.0000000000
H        0.1365780000    0.0001180000    0.0000000000
H        0.1331770000    0.0002440000   -0.0000000000
C       -0.2663900000    0.0091230000    0.0000000000
H        0.1451530000   -0.0001240000    0.0000000000
13   
Frame  27 IRC: Energy =  -286.8728590000 ; +0.9645 kcal/mol
C       -0.1060540000    0.0914040000    0.0000000000
C        0.0603160000   -0.2048950000   -0.0000000000
C       -0.2792030000    1.0524670000   -0.0000000000
C        0.0215260000   -0.0109880000    0.0000000000
C       -0.1110460000    0.0249570000   -0.0000000000
N       -0.2026370000   -0.0052860000   -0.0000000000
H        0.1621950000   -0.0052670000    0.0000000000
H        0.1539660000    0.0448890000   -0.0000000000
H        0.1529610000    0.0032990000   -0.0000000000
H        0.1366910000    0.0001160000    0.0000000000
H        0.1332460000    0.0002440000   -0.0000000000
C       -0.2671910000    0.0091890000    0.0000000000
H        0.1452300000   -0.0001300000    0.0000000000
13   
Frame  28 IRC: Energy =  -286.8724530000 ; +1.2193 kcal/mol
C       -0.0983670000    0.0936700000    0.0000000000
C        0.0583240000   -0.2058640000   -0.0000000000
C       -0.2813950000    1.0510130000   -0.0000000000
C        0.0242180000   -0.0114630000    0.0000000000
C       -0.1120630000    0.0255960000   -0.0000000000
N       -0.2036520000   -0.0056030000   -0.0000000000
H        0.1616360000   -0.0053580000    0.0000000000
H        0.1541630000    0.0465710000   -0.0000000000
H        0.1536310000    0.0024320000   -0.0000000000
H        0.1364140000    0.0001050000    0.0000000000
H        0.1331210000    0.0001910000   -0.0000000000
C       -0.2711740000    0.0088490000    0.0000000000
H        0.1451450000   -0.0001380000    0.0000000000
13   
Frame  29 IRC: Energy =  -286.8724220000 ; +1.2387 kcal/mol
C       -0.0972080000    0.0934320000    0.0000000000
C        0.0572210000   -0.2061970000   -0.0000000000
C       -0.2811590000    1.0521220000   -0.0000000000
C        0.0246910000   -0.0115810000    0.0000000000
C       -0.1125310000    0.0255550000   -0.0000000000
N       -0.2037750000   -0.0056310000   -0.0000000000
H        0.1616410000   -0.0053370000    0.0000000000
H        0.1542200000    0.0461020000   -0.0000000000
H        0.1537350000    0.0024850000   -0.0000000000
H        0.1364080000    0.0001070000    0.0000000000
H        0.1331490000    0.0001890000   -0.0000000000
C       -0.2715600000    0.0088960000    0.0000000000
H        0.1451680000   -0.0001410000    0.0000000000
13   
Frame  30 IRC: Energy =  -286.8718760000 ; +1.5813 kcal/mol
C       -0.0865770000    0.0964870000    0.0000000000
C        0.0532870000   -0.2075050000   -0.0000000000
C       -0.2830910000    1.0504350000   -0.0000000000
C        0.0285530000   -0.0119480000    0.0000000000
C       -0.1152340000    0.0262580000   -0.0000000000
N       -0.2050430000   -0.0060280000   -0.0000000000
H        0.1611220000   -0.0054440000    0.0000000000
H        0.1544050000    0.0476760000   -0.0000000000
H        0.1546780000    0.0014220000   -0.0000000000
H        0.1364260000    0.0000920000    0.0000000000
H        0.1331330000    0.0001320000   -0.0000000000
C       -0.2767900000    0.0085820000    0.0000000000
H        0.1451310000   -0.0001580000    0.0000000000
13   
Frame  31 IRC: Energy =  -286.8718390000 ; +1.6045 kcal/mol
C       -0.0863610000    0.0958510000    0.0000000000
C        0.0540020000   -0.2076110000   -0.0000000000
C       -0.2838610000    1.0512130000   -0.0000000000
C        0.0280590000   -0.0120250000    0.0000000000
C       -0.1147120000    0.0261630000   -0.0000000000
N       -0.2048280000   -0.0059570000   -0.0000000000
H        0.1611350000   -0.0054390000    0.0000000000
H        0.1543570000    0.0477670000   -0.0000000000
H        0.1546130000    0.0013220000   -0.0000000000
H        0.1364070000    0.0000950000    0.0000000000
H        0.1331080000    0.0001330000   -0.0000000000
C       -0.2770720000    0.0086420000    0.0000000000
H        0.1451520000   -0.0001540000    0.0000000000
13   
Frame  32 IRC: Energy =  -286.8712410000 ; +1.9798 kcal/mol
C       -0.0767280000    0.0992670000    0.0000000000
C        0.0484250000   -0.2093000000   -0.0000000000
C       -0.2849420000    1.0500390000   -0.0000000000
C        0.0319970000   -0.0123590000    0.0000000000
C       -0.1176730000    0.0268510000   -0.0000000000
N       -0.2060630000   -0.0064050000   -0.0000000000
H        0.1605660000   -0.0055230000    0.0000000000
H        0.1546180000    0.0489730000   -0.0000000000
H        0.1559800000    0.0000970000   -0.0000000000
H        0.1363850000    0.0000790000    0.0000000000
H        0.1331090000    0.0000780000   -0.0000000000
C       -0.2806750000    0.0083830000    0.0000000000
H        0.1450040000   -0.0001800000    0.0000000000
13   
Frame  33 IRC: Energy =  -286.8711830000 ; +2.0162 kcal/mol
C       -0.0769650000    0.0985980000    0.0000000000
C        0.0499830000   -0.2091190000   -0.0000000000
C       -0.2861840000    1.0497070000   -0.0000000000
C        0.0318360000   -0.0126090000    0.0000000000
C       -0.1173470000    0.0268400000   -0.0000000000
N       -0.2056690000   -0.0063530000   -0.0000000000
H        0.1605420000   -0.0055260000    0.0000000000
H        0.1545100000    0.0497580000   -0.0000000000
H        0.1559360000    0.0001660000   -0.0000000000
H        0.1363380000    0.0000830000    0.0000000000
H        0.1331010000    0.0000800000   -0.0000000000
C       -0.2810530000    0.0085530000    0.0000000000
H        0.1449720000   -0.0001770000    0.0000000000
13   
Frame  34 IRC: Energy =  -286.8709500000 ; +2.1624 kcal/mol
C       -0.0727550000    0.1007550000    0.0000000000
C        0.0459630000   -0.2101680000   -0.0000000000
C       -0.2854110000    1.0498480000   -0.0000000000
C        0.0333220000   -0.0124200000    0.0000000000
C       -0.1186840000    0.0271220000   -0.0000000000
N       -0.2065230000   -0.0065760000   -0.0000000000
H        0.1603030000   -0.0055600000    0.0000000000
H        0.1547200000    0.0494220000   -0.0000000000
H        0.1566360000   -0.0006100000   -0.0000000000
H        0.1363820000    0.0000710000    0.0000000000
H        0.1330900000    0.0000540000   -0.0000000000
C       -0.2819770000    0.0082510000    0.0000000000
H        0.1449350000   -0.0001910000    0.0000000000
13   
Frame  35 IRC: Energy =  -286.8708550000 ; +2.2220 kcal/mol
C       -0.0723840000    0.1000930000    0.0000000000
C        0.0470920000   -0.2101890000   -0.0000000000
C       -0.2867660000    1.0498930000   -0.0000000000
C        0.0333460000   -0.0127250000    0.0000000000
C       -0.1184980000    0.0271120000   -0.0000000000
N       -0.2061570000   -0.0065410000   -0.0000000000
H        0.1602480000   -0.0055590000    0.0000000000
H        0.1546330000    0.0501930000   -0.0000000000
H        0.1566760000   -0.0006530000   -0.0000000000
H        0.1363380000    0.0000750000    0.0000000000
H        0.1330880000    0.0000550000   -0.0000000000
C       -0.2825120000    0.0084360000    0.0000000000
H        0.1448950000   -0.0001900000    0.0000000000
13   
Frame  36 IRC: Energy =  -286.8707120000 ; +2.3117 kcal/mol
C       -0.0699280000    0.1019200000    0.0000000000
C        0.0441250000   -0.2108740000   -0.0000000000
C       -0.2857730000    1.0497080000   -0.0000000000
C        0.0342600000   -0.0124660000    0.0000000000
C       -0.1193980000    0.0273470000   -0.0000000000
N       -0.2068150000   -0.0067130000   -0.0000000000
H        0.1600760000   -0.0055890000    0.0000000000
H        0.1547950000    0.0498260000   -0.0000000000
H        0.1571840000   -0.0012310000   -0.0000000000
H        0.1363780000    0.0000650000    0.0000000000
H        0.1330730000    0.0000350000   -0.0000000000
C       -0.2828420000    0.0081700000    0.0000000000
H        0.1448650000   -0.0002000000    0.0000000000
13   
Frame  37 IRC: Energy =  -286.8705690000 ; +2.4015 kcal/mol
C       -0.0691470000    0.1012450000    0.0000000000
C        0.0449990000   -0.2110760000   -0.0000000000
C       -0.2872870000    1.0500010000   -0.0000000000
C        0.0344130000   -0.0128420000    0.0000000000
C       -0.1193090000    0.0273600000   -0.0000000000
N       -0.2064110000   -0.0066940000   -0.0000000000
H        0.1599770000   -0.0055860000    0.0000000000
H        0.1547170000    0.0506870000   -0.0000000000
H        0.1573410000   -0.0013930000   -0.0000000000
H        0.1363340000    0.0000700000    0.0000000000
H        0.1330740000    0.0000340000   -0.0000000000
C       -0.2835080000    0.0083960000    0.0000000000
H        0.1448070000   -0.0002010000    0.0000000000
13   
Frame  38 IRC: Energy =  -286.8704410000 ; +2.4818 kcal/mol
C       -0.0672050000    0.1031430000    0.0000000000
C        0.0422290000   -0.2117110000   -0.0000000000
C       -0.2861290000    1.0496910000   -0.0000000000
C        0.0351720000   -0.0125300000    0.0000000000
C       -0.1200860000    0.0276120000   -0.0000000000
N       -0.2070340000   -0.0068660000   -0.0000000000
H        0.1597950000   -0.0056190000    0.0000000000
H        0.1548760000    0.0503040000   -0.0000000000
H        0.1578260000   -0.0020150000   -0.0000000000
H        0.1363710000    0.0000590000    0.0000000000
H        0.1330530000    0.0000150000   -0.0000000000
C       -0.2836350000    0.0081280000    0.0000000000
H        0.1447670000   -0.0002110000    0.0000000000
13   