13   
Frame   0 IRC: Energy =  -286.8743960000 ; +0.0000 kcal/mol
C        0.4849791357   -0.2290290790    0.2385351779
C        0.4185789294   -1.3086068369   -0.8474943871
C        0.8510005440   -2.5411554769   -0.7256288727
C       -1.1172286172    1.4144361376    0.4684871929
C        0.1027647159    1.9071332074   -0.1911839246
N        1.0282020989    1.0160615384   -0.3286792258
H        1.1495728936   -0.5639786715    1.0454920049
H       -0.0522784407   -0.9732037375   -1.7727164474
H        1.3434077873   -3.1700082741    0.0038451299
H       -2.0082334812    1.9970575367    0.6707718026
H        0.2495594838    2.9250607871   -0.5468525140
C       -0.8922392396    0.1165520926    0.7527525598
H       -1.5580858101   -0.5903192243    1.2326715034
13   
Frame   1 IRC: Energy =  -286.8739219569 ; +0.2975 kcal/mol
C        0.5105430118   -0.2213271024    0.2781592605
C        0.4232992963   -1.2815412064   -0.8288151261
C        0.8214787999   -2.5278413406   -0.7448257457
C       -1.1228559003    1.3973989545    0.4472904198
C        0.0984743561    1.8969128782   -0.2049617907
N        1.0456997644    1.0228127148   -0.2976799660
H        1.1786295706   -0.5683690400    1.0760042529
H       -0.0409228665   -0.9077489426   -1.7427800697
H        1.2957158183   -3.2021725249   -0.0454499042
H       -2.0326040420    1.9635019905    0.6089800308
H        0.2287485775    2.9052582028   -0.5924741561
C       -0.8737759810    0.1148844404    0.7782601582
H       -1.5324304052   -0.5917690243    1.2682926361
13   
Frame   2 IRC: Energy =  -286.8731129044 ; +0.8052 kcal/mol
C        0.5324876146   -0.2123027713    0.3201898360
C        0.4272843384   -1.2544714461   -0.8058402492
C        0.7966353720   -2.5123112695   -0.7640589704
C       -1.1266010173    1.3800862136    0.4250827315
C        0.0942935260    1.8849440652   -0.2188966270
N        1.0603656878    1.0284815930   -0.2659589530
H        1.2029167462   -0.5707644944    1.1091701220
H       -0.0334764733   -0.8457282440   -1.7082828021
H        1.2542314168   -3.2325154162   -0.1056974213
H       -2.0517926509    1.9280028900    0.5458909526
H        0.2118119207    2.8801217864   -0.6389840441
C       -0.8579155459    0.1149660882    0.8030416939
H       -1.5102409351   -0.5885089950    1.3043437311
13   
Frame   3 IRC: Energy =  -286.8719997024 ; +1.5037 kcal/mol
C        0.5538670310   -0.2045974616    0.3615901032
C        0.4325974883   -1.2316366716   -0.7820354850
C        0.7737770631   -2.4960500268   -0.7854708991
C       -1.1328566898    1.3637703235    0.4027483987
C        0.0921854337    1.8725150579   -0.2343632839
N        1.0765845811    1.0346864585   -0.2349720651
H        1.2254150420   -0.5672452352    1.1477505691
H       -0.0244750683   -0.7884182856   -1.6686621658
H        1.2163557824   -3.2700970271   -0.1770733251
H       -2.0740526693    1.8943557020    0.4823832728
H        0.1966122436    2.8569608489   -0.6859267370
C       -0.8443295962    0.1177423857    0.8297897586
H       -1.4916806417   -0.5819860687    1.3442418587
13   
Frame   4 IRC: Energy =  -286.8704438247 ; +2.4800 kcal/mol
C        0.5709761309   -0.1936035289    0.4013581366
C        0.4393164814   -1.2135184356   -0.7564367655
C        0.7572240884   -2.4813786732   -0.8004240511
C       -1.1391152959    1.3492446212    0.3794920806
C        0.0885261629    1.8632563027   -0.2466749207
N        1.0885726250    1.0443436815   -0.2049858669
H        1.2443765333   -0.5632049175    1.1805023003
H       -0.0119019832   -0.7483804503   -1.6333097677
H        1.1803936662   -3.3144360233   -0.2611242880
H       -2.0950835117    1.8583288387    0.4130256773
H        0.1832674927    2.8382307419   -0.7210280508
C       -0.8330205400    0.1246333061    0.8556344100
H       -1.4735318498   -0.5635154634    1.3939711059
13   
Frame   5 IRC: Energy =  -286.8674853514 ; +4.3365 kcal/mol
C        0.5843036566   -0.1773827940    0.4330890145
C        0.4376043695   -1.2175666718   -0.7584614790
C        0.7529276826   -2.4919836226   -0.8025333288
C       -1.1507710815    1.3501823290    0.3658757180
C        0.0835454143    1.8744643707   -0.2407969677
N        1.0998615543    1.0777986083   -0.1443853563
H        1.2683147808   -0.5845473332    1.1914570703
H       -0.0121922767   -0.7369476603   -1.6443715607
H        1.1680713299   -3.3716954085   -0.3175962747
H       -2.1204055695    1.8388850830    0.3535508304
H        0.1658901188    2.8317436396   -0.7560638238
C       -0.8227483208    0.1463819488    0.8857135760
H       -1.4544016583   -0.5393324891    1.4345225819
13   
Frame   6 IRC: Energy =  -286.8545130145 ; +12.4768 kcal/mol
C        0.5948713844   -0.1039145687    0.5108880696
C        0.4147819699   -1.2872302157   -0.8490788490
C        0.7662890584   -2.5286634762   -0.7924487980
C       -1.1567568935    1.3579944278    0.3559979944
C        0.0727257021    1.8836031991   -0.2430637327
N        1.1018103529    1.0952473527   -0.1049425301
H        1.2856490422   -0.5980054522    1.1973508569
H       -0.0256196808   -0.7072426151   -1.6670097544
H        1.1774801889   -3.4074404143   -0.3189001109
H       -2.1292283067    1.8378789692    0.3408992718
H        0.1607341794    2.8314042307   -0.7713669311
C       -0.8173156917    0.1618026776    0.9017544402
H       -1.4454213055   -0.5354341150    1.4399200731
13   
Frame   7 IRC: Energy =  -286.8441566937 ; +18.9755 kcal/mol (Transition State)
C        0.6057309016   -0.0239940666    0.5922909728
C        0.3950826693   -1.3704615374   -0.9549654021
C        0.7769398954   -2.5431989685   -0.7734347948
C       -1.1604187333    1.3630227388    0.3491902939
C        0.0636664355    1.8890204541   -0.2464698447
N        1.1045099147    1.0978176464   -0.0816587391
H        1.2921420087   -0.6075817510    1.1935315532
H       -0.0303672029   -0.6844598154   -1.6672016473
H        1.1816576525   -3.4239899439   -0.3208792943
H       -2.1336693620    1.8376321579    0.3357633931
H        0.1586320392    2.8317348706   -0.7781928642
C       -0.8132432414    0.1681129877    0.9093118320
H       -1.4406629774   -0.5336547725    1.4427145414
13   
Frame   8 IRC: Energy =  -286.8480580683 ; +16.5273 kcal/mol
C        0.6200148505    0.0472544668    0.6695382755
C        0.3741398055   -1.4526237371   -1.0694196971
C        0.7856113500   -2.5555054253   -0.7562814781
C       -1.1663420357    1.3658417465    0.3438742428
C        0.0558362187    1.8945531415   -0.2499903033
N        1.1093712722    1.1037026651   -0.0551540868
H        1.2959815432   -0.6154321440    1.1869798306
H       -0.0322348272   -0.6655522906   -1.6609068669
H        1.1868858094   -3.4408704349   -0.3199292269
H       -2.1392233465    1.8374676674    0.3302225119
H        0.1565049380    2.8328353266   -0.7853005285
C       -0.8108281982    0.1792143505    0.9202425610
H       -1.4357173799   -0.5308853324    1.4461247661
13   
Frame   9 IRC: Energy =  -286.8544494066 ; +12.5167 kcal/mol
C        0.6348669407    0.1019099650    0.7349639142
C        0.3545335416   -1.5327414742   -1.1847640561
C        0.7895140158   -2.5749758707   -0.7561518588
C       -1.1739210719    1.3701199923    0.3395491553
C        0.0502985023    1.9037574714   -0.2469842030
N        1.1165192021    1.1263682614   -0.0133036052
H        1.3001402148   -0.6197369024    1.1830584441
H       -0.0319930922   -0.6612689475   -1.6599730421
H        1.1932827074   -3.4600948789   -0.3151384673
H       -2.1495771929    1.8343559954    0.3162873974
H        0.1521229287    2.8338232034   -0.7965538944
C       -0.8068413624    0.2003095863    0.9432251793
H       -1.4289453339   -0.5218264015    1.4557850366
13   
Frame  10 IRC: Energy =  -286.8583251682 ; +10.0846 kcal/mol
C        0.6452545416    0.1456215858    0.7863639399
C        0.3438122346   -1.6016978520   -1.2745170288
C        0.7891744253   -2.6113488912   -0.7815516579
C       -1.1789102423    1.3783688436    0.3408821440
C        0.0472542528    1.9226574440   -0.2305676215
N        1.1254961529    1.1648865604    0.0422294079
H        1.3046774081   -0.6114246674    1.1894385238
H       -0.0305314838   -0.6914654071   -1.6858995414
H        1.1953040707   -3.4807795268   -0.3182580296
H       -2.1635764678    1.8227192962    0.2861532710
H        0.1442074941    2.8353446719   -0.8090538046
C       -0.8013208410    0.2274950233    0.9737217892
H       -1.4208415452   -0.5003770807    1.4810586082
13   
Frame  11 IRC: Energy =  -286.8605795846 ; +8.6699 kcal/mol
C        0.6540857604    0.1834443305    0.8298094187
C        0.3436614604   -1.6548633810   -1.3280663920
C        0.7889428354   -2.6550453223   -0.8158511401
C       -1.1834573444    1.3881184898    0.3435541007
C        0.0452185736    1.9439408447   -0.2113664525
N        1.1303109057    1.2068252435    0.0905998513
H        1.3099498354   -0.5824196001    1.2147314354
H       -0.0310695783   -0.7482685660   -1.7438538060
H        1.1940590625   -3.5180588281   -0.3378039965
H       -2.1758566407    1.8069504436    0.2507564936
H        0.1360773993    2.8450284852   -0.8113795411
C       -0.7983437889    0.2547175024    1.0011434653
H       -1.4135784804   -0.4703696423    1.5177265630
13   
Frame  12 IRC: Energy =  -286.8620364813 ; +7.7557 kcal/mol
C        0.6568071464    0.2226707933    0.8655160678
C        0.3482134697   -1.7067816908   -1.3691232306
C        0.7912844311   -2.7019242911   -0.8466011464
C       -1.1878984961    1.3970997366    0.3439591115
C        0.0405846965    1.9651421854   -0.1992829701
N        1.1322615616    1.2433597834    0.1259284328
H        1.3184776136   -0.5402479011    1.2577839550
H       -0.0293198411   -0.8093733707   -1.8046076079
H        1.1913209002   -3.5662414426   -0.3683977683
H       -2.1861024112    1.7967441876    0.2247807915
H        0.1284838552    2.8614003710   -0.8043203425
C       -0.7960625021    0.2787855938    1.0233170513
H       -1.4080504237   -0.4406339550    1.5510476559
13   
Frame  13 IRC: Energy =  -286.8629741751 ; +7.1673 kcal/mol
C        0.6592702235    0.2614006315    0.8984333110
C        0.3554358541   -1.7620724496   -1.4073312533
C        0.7945693602   -2.7561530590   -0.8795897771
C       -1.1929404611    1.4095770548    0.3452873487
C        0.0349898878    1.9870727753   -0.1887793955
N        1.1306671922    1.2817214817    0.1545276583
H        1.3262634070   -0.4903654341    1.3055567375
H       -0.0209227340   -0.8697968717   -1.8538560888
H        1.1892082212   -3.6240804146   -0.4034872126
H       -2.1951425615    1.7933573983    0.2087035001
H        0.1187890874    2.8797862482   -0.7980273650
C       -0.7957377204    0.3035639575    1.0416928325
H       -1.4044497563   -0.4140113183    1.5768697040
13   
Frame  14 IRC: Energy =  -286.8635918253 ; +6.7797 kcal/mol
C        0.6557349360    0.2944988006    0.9228758014
C        0.3720285650   -1.8191906122   -1.4394590260
C        0.8083399272   -2.8163706019   -0.9131354296
C       -1.2017434429    1.4266581196    0.3490248251
C        0.0262544651    2.0086123294   -0.1813399060
N        1.1260410417    1.3126156056    0.1755274897
H        1.3248545284   -0.4483895640    1.3457365911
H       -0.0030148860   -0.9279760551   -1.8898120818
H        1.1982140108   -3.6916840930   -0.4460280465
H       -2.2041852432    1.8043241308    0.2029973485
H        0.1079379650    2.9024060827   -0.7914508506
C       -0.8017217252    0.3312609153    1.0588924474
H       -1.4087401420   -0.3767650578    1.6061708373
13   
Frame  15 IRC: Energy =  -286.8640155177 ; +6.5139 kcal/mol
C        0.6473911939    0.3265024065    0.9444606872
C        0.3938220670   -1.8785806658   -1.4687580795
C        0.8272243812   -2.8796159079   -0.9468852903
C       -1.2112757897    1.4485135252    0.3551290416
C        0.0173006276    2.0305999783   -0.1744801366
N        1.1178920551    1.3417740360    0.1917802788
H        1.3184030900   -0.4075490882    1.3815860407
H        0.0203116899   -0.9878161375   -1.9202419237
H        1.2119689355   -3.7635177009   -0.4924468144
H       -2.2136062622    1.8231279947    0.2036213119
H        0.0981813509    2.9242650107   -0.7848878307
C       -0.8112650438    0.3607461945    1.0754563627
H       -1.4163482953   -0.3384496457    1.6356663520
13   
Frame  16 IRC: Energy =  -286.8643293871 ; +6.3169 kcal/mol
C        0.6392783593    0.3607172398    0.9662857794
C        0.4167045542   -1.9387984122   -1.4962423577
C        0.8446739670   -2.9446224610   -0.9802047027
C       -1.2205841880    1.4720844321    0.3641036956
C        0.0080405465    2.0547082428   -0.1663677123
N        1.1088634340    1.3714616239    0.2076549947
H        1.3121290050   -0.3639910777    1.4140444688
H        0.0464284609   -1.0466653484   -1.9481540648
H        1.2227526228   -3.8379194787   -0.5379898570
H       -2.2241435940    1.8426608016    0.2069549341
H        0.0878673967    2.9452048665   -0.7815712486
C       -0.8187451823    0.3900645746    1.0924248110
H       -1.4232653820   -0.3049050032    1.6590612595
13   
Frame  17 IRC: Energy =  -286.8645497178 ; +6.1786 kcal/mol
C        0.6323810247    0.3968888377    0.9880354388
C        0.4406983470   -1.9991671412   -1.5223643190
C        0.8598416065   -3.0116609372   -1.0131731594
C       -1.2299582240    1.4966632912    0.3751029531
C       -0.0021883170    2.0806580810   -0.1572962357
N        1.0996870311    1.4031632795    0.2230818789
H        1.3075442551   -0.3198262041    1.4431947158
H        0.0765437854   -1.1038814013   -1.9736021556
H        1.2287600457   -3.9143875494   -0.5817688664
H       -2.2352790306    1.8615632981    0.2123573993
H        0.0756732667    2.9654137365   -0.7809716016
C       -0.8248457457    0.4199408177    1.1100306692
H       -1.4288580450   -0.2753681086    1.6773732827
13   
Frame  18 IRC: Energy =  -286.8647023910 ; +6.0828 kcal/mol
C        0.6267071520    0.4342311076    1.0091171912
C        0.4657381145   -2.0594905052   -1.5477102601
C        0.8727250748   -3.0803803787   -1.0459764886
C       -1.2394977941    1.5214130467    0.3868987347
C       -0.0134442992    2.1077075962   -0.1478055890
N        1.0905482464    1.4369640593    0.2381021409
H        1.3046660889   -0.2760123066    1.4692882442
H        0.1106967801   -1.1594658290   -1.9971798378
H        1.2300800309   -3.9920743072   -0.6233138058
H       -2.2467206665    1.8795348614    0.2189690025
H        0.0614302024    2.9856396430   -0.7813998366
C       -0.8301621809    0.4502339253    1.1279014012
H       -1.4327667494   -0.2483009128    1.6931091032
13   
Frame  19 IRC: Energy =  -286.8648018989 ; +6.0204 kcal/mol
C        0.6221898292    0.4721221821    1.0285223674
C        0.4920965614   -2.1198436741   -1.5725122324
C        0.8830383560   -3.1507195335   -1.0786207554
C       -1.2492921387    1.5456464643    0.3986435145
C       -0.0258469420    2.1355171027   -0.1383196785
N        1.0813726217    1.4727846210    0.2523787414
H        1.3034776832   -0.2330066090    1.4915718373
H        0.1497369153   -1.2133469083   -2.0189482597
H        1.2261936756   -4.0704980877   -0.6616800566
H       -2.2584486396    1.8964205282    0.2265497273
H        0.0448818670    3.0070917354   -0.7810653779
C       -0.8348162046    0.4804015318    1.1453380877
H       -1.4345835846   -0.2225693530    1.7081420850
13   
Frame  20 IRC: Energy =  -286.8648774786 ; +5.9730 kcal/mol
C        0.6182311597    0.5098534539    1.0459752078
C        0.5196145098   -2.1803471641   -1.5968942611
C        0.8916584715   -3.2220143610   -1.1110106286
C       -1.2593102355    1.5692636807    0.4100122345
C       -0.0390644513    2.1637116390   -0.1290865426
N        1.0719862991    1.5095406699    0.2656133490
H        1.3032405132   -0.1907479756    1.5106841257
H        0.1925965058   -1.2661967841   -2.0392961062
H        1.2187580918   -4.1491310565   -0.6974561554
H       -2.2704256703    1.9127180553    0.2349241396
H        0.0268072305    3.0303176346   -0.7790103366
C       -0.8390505492    0.5099679222    1.1618337002
H       -1.4350418750   -0.1969357142    1.7237112737
13   
Frame  21 IRC: Energy =  -286.8649399368 ; +5.9338 kcal/mol
C        0.6145429698    0.5469691252    1.0610186792
C        0.5484579035   -2.2410580979   -1.6206372053
C        0.8989457989   -3.2939660904   -1.1429280979
C       -1.2695795883    1.5923585292    0.4210366348
C       -0.0530349340    2.1922464436   -0.1202070154
N        1.0622222623    1.5466297131    0.2772700720
H        1.3036508657   -0.1493590522    1.5264585434
H        0.2393021060   -1.3182569694   -2.0579129675
H        1.2082273750   -4.2277671215   -0.7308122448
H       -2.2827039663    1.9288030863    0.2443630426
H        0.0074512945    3.0557333031   -0.7747668576
C       -0.8429567943    0.5386435299    1.1770185256
H       -1.4345252928   -0.1709763990    1.7400988908
13   
Frame  22 IRC: Energy =  -286.8649943838 ; +5.8996 kcal/mol
C        0.6110140675    0.5832723371    1.0735877239
C        0.5786558239   -2.3018546826   -1.6435317622
C        0.9050922783   -3.3662234914   -1.1741294049
C       -1.2800877920    1.6150909027    0.4319230903
C       -0.0676834703    2.2211011942   -0.1116808722
N        1.0520395457    1.5836865542    0.2870493394
H        1.3046067992   -0.1088156565    1.5390592121
H        0.2897573591   -1.3695907335   -2.0745677702
H        1.1947563525   -4.3062849566   -0.7620874162
H       -2.2953018479    1.9448830226    0.2550723938
H       -0.0130548983    3.0832201241   -0.7685320209
C       -0.8465499286    0.5663634089    1.1908633752
H       -1.4332442889   -0.1448480232    1.7569741119
13   
Frame  23 IRC: Energy =  -286.8650380081 ; +5.8722 kcal/mol
C        0.6076559155    0.6186376230    1.0834542451
C        0.6103797291   -2.3624983306   -1.6651952019
C        0.9099618009   -3.4384248842   -1.2042083535
C       -1.2908303248    1.6375241735    0.4428762476
C       -0.0830542023    2.2502463021   -0.1035393742
N        1.0413536509    1.6205214358    0.2945944402
H        1.3062185784   -0.0690401007    1.5483532429
H        0.3444434794   -1.4200224406   -2.0887462428
H        1.1777506256   -4.3846272280   -0.7915161876
H       -2.3082499473    1.9610020689    0.2673371874
H       -0.0348266858    3.1126200165   -0.7605320988
C       -0.8497270426    0.5930367004    1.2032853317
H       -1.4310755771   -0.1189753361    1.7738367638
13   
Frame  24 IRC: Energy =  -286.8650687180 ; +5.8530 kcal/mol
C        0.6045356043    0.6530697475    1.0906087678
C        0.6437739284   -2.4225612709   -1.6850430618
C        0.9133815209   -3.5099730427   -1.2325725514
C       -1.3017813366    1.6597436401    0.4541738296
C       -0.0991729480    2.2796059935   -0.0958024665
N        1.0301127425    1.6570185759    0.2997252408
H        1.3086323027   -0.0298258458    1.5544382493
H        0.4038036565   -1.4693076362   -2.0998262605
H        1.1564136783   -4.4627872985   -0.8198681408
H       -2.3215576720    1.9771327341    0.2813786037
H       -0.0579655492    3.1433169205   -0.7514930999
C       -0.8523586923    0.6186776137    1.2143895938
H       -1.4278172355   -0.0941101313    1.7898912958
13   
Frame  25 IRC: Energy =  -286.8650911145 ; +5.8389 kcal/mol
C        0.6019174543    0.6865335608    1.0947818958
C        0.6791058493   -2.4813358189   -1.7023063139
C        0.9147271770   -3.5800522137   -1.2582572583
C       -1.3128989307    1.6815857658    0.4660274165
C       -0.1161685861    2.3091087463   -0.0885543409
N        1.0183369665    1.6932173417    0.3021050229
H        1.3122466570    0.0089348449    1.5570175951
H        0.4689201565   -1.5168295734   -2.1070460998
H        1.1289950182   -4.5406228175   -0.8476220979
H       -2.3352493549    1.9929299177    0.2975147421
H       -0.0828523252    3.1747466669   -0.7421357529
C       -0.8541394710    0.6430902229    1.2241868304
H       -1.4229406108   -0.0713066436    1.8042883608
13   
Frame  26 IRC: Energy =  -286.8651182150 ; +5.8219 kcal/mol
C        0.6009767979    0.7179125561    1.0932957452
C        0.7175357453   -2.5359238311   -1.7143921664
C        0.9107942476   -3.6455838754   -1.2774827971
C       -1.3240130396    1.7016585304    0.4786788430
C       -0.1347323095    2.3383374105   -0.0823801421
N        1.0060151913    1.7289082752    0.2993882502
H        1.3189723896    0.0465337505    1.5528200540
H        0.5450068841   -1.5593639295   -2.1074975721
H        1.0879399762   -4.6163077146   -0.8732707376
H       -2.3494303664    2.0066586448    0.3172932450
H       -0.1113251671    3.2066017525   -0.7328826513
C       -0.8536585738    0.6644246699    1.2314925278
H       -1.4140817757   -0.0538562394    1.8149374013
13   
Frame  27 IRC: Energy =  -286.8651659713 ; +5.7919 kcal/mol
C        0.6049163531    0.7419137609    1.0791432818
C        0.7590007857   -2.5750291937   -1.7145771080
C        0.8931735182   -3.6940841413   -1.2795868383
C       -1.3337772238    1.7144577289    0.4915150408
C       -0.1552766984    2.3638989241   -0.0791871293
N        0.9939658647    1.7608986705    0.2857913255
H        1.3334748663    0.0782199733    1.5332030838
H        0.6397806484   -1.5854424867   -2.0945778721
H        1.0168219193   -4.6787369133   -0.8891860697
H       -2.3632542860    2.0123087282    0.3429614496
H       -0.1460181508    3.2364238996   -0.7243220866
C       -0.8471568149    0.6760182877    1.2323407464
H       -1.3956507818   -0.0508472381    1.8164821760
13   
Frame  28 IRC: Energy =  -286.8652131571 ; +5.7623 kcal/mol
C        0.6166211689    0.7487272066    1.0505148949
C        0.7940434192   -2.5777296849   -1.6963874441
C        0.8561312744   -3.7008955095   -1.2558255845
C       -1.3383822228    1.7102700618    0.5001379153
C       -0.1735431074    2.3749905835   -0.0815675940
N        0.9856185534    1.7785098431    0.2608940608
H        1.3580443070    0.0919898967    1.4939136116
H        0.7396743684   -1.5775369211   -2.0636482614
H        0.9138258317   -4.6989928708   -0.8848554529
H       -2.3723760830    2.0003487286    0.3686494319
H       -0.1812928390    3.2523414312   -0.7201376781
C       -0.8322015881    0.6688923966    1.2235018051
H       -1.3661630828   -0.0709151617    1.8048102955
13   
Frame  29 IRC: Energy =  -286.8652443572 ; +5.7427 kcal/mol
C        0.6313473794    0.7463857898    1.0217625928
C        0.8197843642   -2.5586197325   -1.6715907598
C        0.8127700285   -3.6819283403   -1.2267160133
C       -1.3387283117    1.6951759010    0.5035030117
C       -0.1873966432    2.3742070297   -0.0870771066
N        0.9813195931    1.7851996423    0.2365826048
H        1.3839642494    0.0926520416    1.4505241610
H        0.8262903285   -1.5522913161   -2.0263228246
H        0.8083072897   -4.6870321888   -0.8703255668
H       -2.3767159053    1.9770570333    0.3867363398
H       -0.2106262411    3.2549376349   -0.7205913913
C       -0.8148502178    0.6525921262    1.2121870504
H       -1.3354659137   -0.0983356211    1.7913279020
13   
Frame  30 IRC: Energy =  -286.8652861172 ; +5.7165 kcal/mol
C        0.6472005832    0.7396478668    0.9977351627
C        0.8380091881   -2.5255324256   -1.6439253880
C        0.7679418121   -3.6478282829   -1.2015008919
C       -1.3361885338    1.6728394819    0.5021250701
C       -0.1975375488    2.3644967091   -0.0946492492
N        0.9801718436    1.7846724705    0.2163338341
H        1.4080483288    0.0832464142    1.4069045203
H        0.8990616837   -1.5169136175   -1.9867219376
H        0.7076907795   -4.6528031037   -0.8497447904
H       -2.3776821923    1.9458562036    0.3960126299
H       -0.2337777284    3.2467644017   -0.7253824280
C       -0.7970103828    0.6319060263    1.2014058208
H       -1.3059278330   -0.1263521443    1.7814076472
13   
Frame  31 IRC: Energy =  -286.8653347681 ; +5.6860 kcal/mol
C        0.6621356665    0.7246095099    0.9785733401
C        0.8433574054   -2.4758283635   -1.6131125042
C        0.7272942286   -3.5974192095   -1.1792534733
C       -1.3306006054    1.6445098084    0.4958963500
C       -0.2011213315    2.3456573174   -0.1045675660
N        0.9835532222    1.7736569176    0.1993536565
H        1.4265291870    0.0598876782    1.3660384837
H        0.9447282519   -1.4689225857   -1.9508557692
H        0.6262197526   -4.5962424873   -0.8192818367
H       -2.3746786044    1.9102061621    0.3962350520
H       -0.2466131031    3.2287162318   -0.7335737143
C       -0.7803328433    0.6062229984    1.1904151827
H       -1.2804712263   -0.1550539780    1.7741327988
13   
Frame  32 IRC: Energy =  -286.8653975918 ; +5.6466 kcal/mol
C        0.6710883352    0.6960173612    0.9555680783
C        0.8398772825   -2.4137426500   -1.5734771706
C        0.6982268790   -3.5377340738   -1.1538221191
C       -1.3247556636    1.6178513949    0.4894640526
C       -0.1984807893    2.3214925719   -0.1169350631
N        0.9878643342    1.7486392585    0.1765155073
H        1.4373939761    0.0249708615    1.3280717740
H        0.9661129194   -1.4117527603   -1.9176017800
H        0.5735541977   -4.5304584563   -0.7845545638
H       -2.3695330128    1.8835209156    0.3975074690
H       -0.2489957444    3.2076149271   -0.7412099852
C       -0.7687447249    0.5776531265    1.1764166428
H       -1.2636079893   -0.1840724767    1.7640571579
13   
Frame  33 IRC: Energy =  -286.8654914496 ; +5.5877 kcal/mol
C        0.6704563975    0.6623556073    0.9196498565
C        0.8533164928   -2.3598923634   -1.5173325246
C        0.6805490460   -3.4910693130   -1.1294452058
C       -1.3238152265    1.6039401178    0.4906301044
C       -0.1997657865    2.3017094246   -0.1320904130
N        0.9842240967    1.7172342374    0.1375426306
H        1.4405765559   -0.0064686868    1.2890715088
H        1.0116249454   -1.3641786467   -1.8665335063
H        0.5263468658   -4.4845476969   -0.7738377845
H       -2.3674791383    1.8784573074    0.4160929298
H       -0.2544533927    3.1929322297   -0.7487736066
C       -0.7651994493    0.5553810995    1.1619220887
H       -1.2563814067   -0.2058533168    1.7531039220
13   
Frame  34 IRC: Energy =  -286.8655520154 ; +5.5497 kcal/mol
C        0.6733148760    0.6492208081    0.8873678479
C        0.8892612348   -2.3381606637   -1.4713210862
C        0.6537115862   -3.4681283198   -1.1136296074
C       -1.3268298689    1.5970919221    0.4958397589
C       -0.2128825570    2.2934838252   -0.1443353918
N        0.9753308781    1.7046894746    0.1035111454
H        1.4502840608   -0.0138271088    1.2536163770
H        1.1050594313   -1.3451510855   -1.7984906736
H        0.4428350298   -4.4637412704   -0.7950375252
H       -2.3710652174    1.8741571841    0.4401855521
H       -0.2761364235    3.1856281250   -0.7588494564
C       -0.7595202454    0.5445920881    1.1540394683
H       -1.2433627847   -0.2198549788    1.7471035909
13   
Frame  35 IRC: Energy =  -286.8655876027 ; +5.5274 kcal/mol
C        0.6776204123    0.6324749284    0.8602362094
C        0.9174821359   -2.3026988019   -1.4272506063
C        0.6245386447   -3.4275713568   -1.0973116513
C       -1.3266389338    1.5820918235    0.4957219690
C       -0.2224851402    2.2758510711   -0.1587355943
N        0.9695353873    1.6855047666    0.0740850914
H        1.4578085004   -0.0311051599    1.2178019554
H        1.1845274019   -1.3140433339   -1.7276338550
H        0.3627379582   -4.4208072323   -0.8102873616
H       -2.3712036746    1.8610218868    0.4550724986
H       -0.2908725116    3.1670442448   -0.7740025319
C       -0.7526640677    0.5285891802    1.1474509670
H       -1.2303861128   -0.2363520166    1.7448529096
13   
Frame  36 IRC: Energy =  -286.8656202724 ; +5.5069 kcal/mol
C        0.6646488575    0.6191169552    0.8436844835
C        0.9640948716   -2.2884530592   -1.3879319093
C        0.6255667568   -3.4142421978   -1.1080484216
C       -1.3345129499    1.5855193546    0.4992266341
C       -0.2343300110    2.2601011609   -0.1767788491
N        0.9550570154    1.6593770800    0.0437215873
H        1.4420558713   -0.0502662973    1.1959906764
H        1.2699862657   -1.2993493592   -1.6431133535
H        0.3248393298   -4.4084460730   -0.8660084537
H       -2.3762303038    1.8769375559    0.4735218789
H       -0.2985529372    3.1485114403   -0.7963815006
C       -0.7629859198    0.5320843956    1.1544613050
H       -1.2396368466   -0.2208909561    1.7676559226
13   
Frame  37 IRC: Energy =  -286.8656771715 ; +5.4712 kcal/mol
C        0.6376699668    0.6074237774    0.8399819916
C        1.0155040058   -2.2926336964   -1.3622329565
C        0.6554711583   -3.4236739552   -1.1378243202
C       -1.3473591293    1.6042228590    0.5059507868
C       -0.2437005459    2.2479846058   -0.1948744971
N        0.9372493720    1.6285448689    0.0180848746
H        1.4059088671   -0.0732926879    1.1896146999
H        1.3368625315   -1.2966172613   -1.5656300948
H        0.3375831651   -4.4223629857   -0.9412989705
H       -2.3833963043    1.9154592355    0.4909214597
H       -0.2988878740    3.1324872885   -0.8209166214
C       -0.7860850903    0.5518496445    1.1713233938
H       -1.2668201228   -0.1793916933    1.8069002540
13   
Frame  38 IRC: Energy =  -286.8657377197 ; +5.4332 kcal/mol
C        0.6038579028    0.5997636050    0.8454517690
C        1.0596332182   -2.3116091905   -1.3534268168
C        0.7045627020   -3.4519924693   -1.1744152520
C       -1.3611711378    1.6334591875    0.5152203269
C       -0.2498976701    2.2424110264   -0.2074975567
N        0.9181790041    1.6011332852    0.0016399785
H        1.3602687510   -0.0930333487    1.1959750993
H        1.3726979317   -1.3054285206   -1.5152193197
H        0.3928298351   -4.4590719563   -1.0142850441
H       -2.3900964630    1.9676659998    0.5063361932
H       -0.2919082017    3.1223839974   -0.8409993043
C       -0.8152735704    0.5808017897    1.1923510400
H       -1.3036823019   -0.1264834058    1.8488688869
13   