
Running Job 1 of 1 irc_product.in
qchem irc_product.in_27347.0 ./irc_product.d/ 1
/home/leeping/opt/qchem/5.0.2-openmp/exe/qcprog.exe_s irc_product.in_27347.0 ./irc_product.d/
Check license passed

                  Welcome to Q-Chem
     A Quantum Leap Into The Future Of Chemistry


 Q-Chem 5.0, Q-Chem, Inc., Pleasanton, CA (2017)

 Yihan Shao,  Zhengting Gan,  E. Epifanovsky,  A. T. B. Gilbert,  M. Wormit,  
 J. Kussmann,  A. W. Lange,  A. Behn,  Jia Deng,  Xintian Feng,  D. Ghosh,  
 M. Goldey,  P. R. Horn,  L. D. Jacobson,  I. Kaliman,  T. Kus,  A. Landau,  
 Jie Liu,  E. I. Proynov,  R. M. Richard,  R. P. Steele,  E. J. Sundstrom,  
 H. L. Woodcock III,  P. M. Zimmerman,  D. Zuev,  B. Albrecht,  E. Alguire,  
 S. A. Baeppler,  D. Barton,  Z. Benda,  Y. A. Bernard,  E. J. Berquist,  
 K. B. Bravaya,  H. Burton,  D. Casanova,  Chun-Min Chang,  Yunqing Chen,  
 A. Chien,  K. D. Closser,  M. P. Coons,  S. Dasgupta,  A. L. Dempwolff,  
 M. Diedenhofen,  Hainam Do,  R. G. Edgar,  Po-Tung Fang,  S. Fatehi,  
 Qingguo Feng,  J. Fosso-Tande,  Qinghui Ge,  A. Ghysels,  G. Gidofalvi,  
 J. Gomes,  J. Gonthier,  A. Gunina,  M. W. D. Hanson-Heine,  
 P. H. P. Harbach,  A. W. Hauser,  J. E. Herr,  E. G. Hohenstein,  
 Z. C. Holden,  Kerwin Hui,  T.-C. Jagau,  Hyunjun Ji,  B. Kaduk,  
 K. Khistyaev,  Jaehoon Kim,  P. Klunzinger,  K. Koh,  D. Kosenkov,  
 L. Koulias,  T. Kowalczyk,  C. M. Krauter,  A. Kunitsa,  Ka Un Lao,  
 A. Laurent,  K. V. Lawler,  Joonho Lee,  D. Lefrancois,  S. Lehtola,  
 D. S. Levine,  Yi-Pei Li,  You-Sheng Lin,  Fenglai Liu,  E. Livshits,  
 A. Luenser,  P. Manohar,  E. Mansoor,  S. F. Manzer,  Shan-Ping Mao,  
 Yuezhi Mao,  N. Mardirossian,  A. V. Marenich,  T. Markovich,  
 L. A. Martinez-Martinez,  S. A. Maurer,  N. J. Mayhall,  S. C. McKenzie,  
 J.-M. Mewes,  A. F. Morrison,  J. W. Mullinax,  K. Nanda,  
 T. S. Nguyen-Beck,  R. Olivares-Amaya,  J. A. Parkhill,  T. M. Perrine,  
 F. Plasser,  S. Prager,  A. Prociuk,  E. Ramos,  D. R. Rehn,  F. Rob,  
 M. Schneider,  N. Sergueev,  S. M. Sharada,  S. Sharma,  D. W. Small,  
 T. Stauch,  T. Stein,  Yu-Chuan Su,  A. J. W. Thom,  A. Tkatchenko,  
 T. Tsuchimochi,  L. Vogt,  O. Vydrov,  M. A. Watson,  J. Wenzel,  
 M. de Wergifosse,  T. A. Wesolowski,  A. White,  J. Witte,  A. Yamada,  
 Jun Yang,  K. Yao,  S. Yeganeh,  S. R. Yost,  Zhi-Qiang You,  A. Zech,  
 Igor Ying Zhang,  Xing Zhang,  Yan Zhao,  Ying Zhu,  B. R. Brooks,  
 G. K. L. Chan,  C. J. Cramer,  M. S. Gordon,  W. J. Hehre,  A. Klamt,  
 M. W. Schmidt,  C. D. Sherrill,  D. G. Truhlar,  A. Aspuru-Guzik,  R. Baer,  
 A. T. Bell,  N. A. Besley,  Jeng-Da Chai,  R. A. DiStasio Jr.,  A. Dreuw,  
 B. D. Dunietz,  T. R. Furlani,  Chao-Ping Hsu,  Yousung Jung,  Jing Kong,  
 D. S. Lambrecht,  WanZhen Liang,  C. Ochsenfeld,  V. A. Rassolov,  
 L. V. Slipchenko,  J. E. Subotnik,  T. Van Voorhis,  J. M. Herbert,  
 A. I. Krylov,  P. M. W. Gill,  M. Head-Gordon

 Contributors to earlier versions of Q-Chem not listed above: 
 R. D. Adamson,  B. Austin,  J. Baker,  G. J. O. Beran,  K. Brandhorst,  
 S. T. Brown,  E. F. C. Byrd,  A. K. Chakraborty,  C.-L. Cheng,  
 Siu Hung Chien,  D. M. Chipman,  D. L. Crittenden,  H. Dachsel,  
 R. J. Doerksen,  A. D. Dutoi,  L. Fusti-Molnar,  W. A. Goddard III,  
 A. Golubeva-Zadorozhnaya,  S. R. Gwaltney,  G. Hawkins,  A. Heyden,  
 S. Hirata,  G. Kedziora,  F. J. Keil,  C. Kelley,  Jihan Kim,  R. A. King,  
 R. Z. Khaliullin,  P. P. Korambath,  W. Kurlancheek,  A. M. Lee,  M. S. Lee,  
 S. V. Levchenko,  Ching Yeh Lin,  D. Liotard,  R. C. Lochan,  I. Lotan,  
 P. E. Maslen,  N. Nair,  D. P. O'Neill,  D. Neuhauser,  E. Neuscamman,  
 C. M. Oana,  R. Olson,  B. Peters,  R. Peverati,  P. A. Pieniazek,  
 Y. M. Rhee,  J. Ritchie,  M. A. Rohrdanz,  E. Rosta,  N. J. Russ,  
 H. F. Schaefer III,  N. E. Schultz,  N. Shenvi,  A. C. Simmonett,  A. Sodt,  
 D. Stuck,  K. S. Thanthiriwatte,  V. Vanovschi,  Tao Wang,  A. Warshel,  
 C. F. Williams,  Q. Wu,  X. Xu,  W. Zhang

 Please cite Q-Chem as follows:
 Y. Shao et al., Mol. Phys. 113, 184-215 (2015)
 DOI: 10.1080/00268976.2014.952696

 Q-Chem 5.0.2 for Intel X86 EM64T Linux

 Parts of Q-Chem use Armadillo 5.200.1 (Boston Tea Smuggler).
 http://arma.sourceforge.net/

 Q-Chem begins on Tue Mar  1 14:41:57 2022  

Host: 
0

     Scratch files written to ./irc_product.d//
 Dec517 15110_ 26548  26544 5633   
Processing $rem in /home/leeping/opt/qchem/5.0.2-openmp/config/preferences.
 MEM_STATIC 2000
 MEM_TOTAL  8000
 SYMMETRY   OFF
 SYM_IGNORE TRUE 

Checking the input file for inconsistencies... 	...done.

--------------------------------------------------------------
User input:
--------------------------------------------------------------
$molecule
0 2
C       -0.7632602522    0.0057149871    1.0115006751
C        1.6386894134   -2.2196588729   -1.3983316748
C        2.2602669255   -3.1974389561   -1.7467900176
C       -1.1186383223    2.2034581676    0.7106830341
C       -0.3283769562    1.5914699816   -0.3528765968
N       -0.1292784470    0.2734843963   -0.1486562219
H       -0.7663575929   -0.9968966541    1.4261377491
H        1.0845470216   -1.3526523968   -1.0822970356
H        2.8081485946   -4.0599882006   -2.0517481939
H       -1.4072765464    3.2443061098    0.7715159450
H        0.0779213145    2.0879611409   -1.2272963979
C       -1.3967270301    1.1900028482    1.5825052240
H       -1.9596581224    1.2302374491    2.5056535112
$end

$rem
method                b3lyp
basis                 6-31+g(d,p)
unrestricted          true
symmetry              off
sym_ignore            true
incdft                false
incfock               0
scf_convergence       8
thresh                14
jobtype               sp
scf_guess             core
scf_guess_mix         5
scf_algorithm         diis
max_scf_cycles        100
$end

--------------------------------------------------------------
 ----------------------------------------------------------------
             Standard Nuclear Orientation (Angstroms)
    I     Atom           X                Y                Z
 ----------------------------------------------------------------
    1      C      -0.7632602522     0.0057149871     1.0115006751
    2      C       1.6386894134    -2.2196588729    -1.3983316748
    3      C       2.2602669255    -3.1974389561    -1.7467900176
    4      C      -1.1186383223     2.2034581676     0.7106830341
    5      C      -0.3283769562     1.5914699816    -0.3528765968
    6      N      -0.1292784470     0.2734843963    -0.1486562219
    7      H      -0.7663575929    -0.9968966541     1.4261377491
    8      H       1.0845470216    -1.3526523968    -1.0822970356
    9      H       2.8081485946    -4.0599882006    -2.0517481939
   10      H      -1.4072765464     3.2443061098     0.7715159450
   11      H       0.0779213145     2.0879611409    -1.2272963979
   12      C      -1.3967270301     1.1900028482     1.5825052240
   13      H      -1.9596581224     1.2302374491     2.5056535112
 ----------------------------------------------------------------
 Nuclear Repulsion Energy =   228.3314415421 hartrees
 There are       25 alpha and       24 beta electrons
 Requested basis set is 6-31+G(d,p)
 There are 53 shells and 163 basis functions

 Total QAlloc Memory Limit   8000 MB
 Mega-Array Size      1956 MB
 MEM_STATIC part      2000 MB

                       Distance Matrix (Angstroms)
             C (  1)   C (  2)   C (  3)   C (  4)   C (  5)   N (  6)
   C (  2)  4.065580
   C (  3)  5.197122  1.209891
   C (  4)  2.246522  5.622701  6.828313
   C (  5)  2.136649  4.414412  5.619406  1.459521
   N (  6)  1.348925  3.301994  4.506802  2.332830  1.348493
   H (  7)  1.084972  3.906024  4.906151  3.298219  3.171177  2.121253
   H (  8)  3.105405  1.076407  2.286286  4.551343  3.346082  2.233692
   H (  9)  6.218392  2.276269  1.066379  7.891859  6.683034  5.570388
   H ( 10)  3.310713  6.621258  7.828718  1.081840  2.271596  3.362407
   H ( 11)  3.171048  4.584849  5.741773  2.280539  1.084524  2.121019
   C ( 12)  1.459405  5.452058  6.611162  1.365467  2.246831  2.333099
   H ( 13)  2.272293  6.331745  7.449521  2.208255  3.311006  3.363187
             H (  7)   H (  8)   H (  9)   H ( 10)   H ( 11)   C ( 12)
   H (  8)  3.137619
   H (  9)  5.852804  3.352656
   H ( 10)  4.339022  5.547777  8.893444
   H ( 11)  4.155703  3.587777  6.777252  2.745578
   C ( 12)  2.281304  4.441057  7.645337  2.208614  3.297863
   H ( 13)  2.747626  5.367671  8.455080  2.714559  4.338471  1.081995

 
 A cutoff of  1.0D-14 yielded   1250 shell pairs
 There are     12250 function pairs
 
 -------------------------------------------------------
 OpenMP Integral Computing Module                       
 Release: version 1.0, May 2013, Q-Chem Inc. Pittsburgh 
 -------------------------------------------------------
 Integral Job Info:
 Integral job number is                      11
 Integral operator is                         1
 short-range coefficients                     0
 long-range coefficients              100000000
 Omega coefficients                           0
 if combine SR and LR in K                    0
 Integral screening is                        0
 Integral computing path is                   2
 max size of driver memory is            800000
 size of driver memory is                593474
 size of scratch memory is              2361544
 max col of scratch BK array               1296
 max len of scratch array in speh3          155
 max len of scratch index in speh4           18
 max int batch size is                      520
 min int batch size is                       52
 fixed nKL is                                52
 max L of basis functions is                  2
 order of int derivative is                   0
 number of shells is                         53
 number of basis is                         163
 number of cartesian basis is               163
 number of contracted shell pairs          1250
 number of primitive shell pairs           4091
 maxK2 (contraction) of shell pair           36
 max number of K2 of shell pair               1
 max number of CS2 of shell pair            118
 max number of PS2 of shell pair            654
 mem total for path MDJ                  526780
 -------------------------------------------------------
 Smallest overlap matrix eigenvalue = 1.84E-05

 Scale SEOQF with 1.000000e-01/1.000000e-01/1.000000e-01

 Standard Electronic Orientation quadrupole field applied
 Nucleus-field energy     =     0.0000000083 hartrees
 Guess MOs from core Hamiltonian diagonalization
 Mixing HOMO and LUMO in initial guess
 Adding  50% of the LUMO to the HOMO
 An unrestricted hybrid HF-DFT SCF calculation will be
 performed using Pulay DIIS extrapolation
 Exchange:     0.2000 Hartree-Fock + 0.0800 Slater + 0.7200 B88
 Correlation:  0.1900 VWN1RPA + 0.8100 LYP
 Using SG-1 standard quadrature grid
 SCF converges when DIIS error is below 1.0E-08
 using 4 threads for integral computing
 -------------------------------------------------------
 OpenMP Integral computing Module                
 Release: version 1.0, May 2013, Q-Chem Inc. Pittsburgh 
 -------------------------------------------------------
 -------------------------------------------------------
 OpenMP BLAS3 based DFT computing Module                
 Release: version 1.0, May 2013, Q-Chem Inc. Pittsburgh 
 -------------------------------------------------------
 ---------------------------------------
  Cycle       Energy         DIIS Error
 ---------------------------------------
    1    -200.3862482493      1.08E-01
    2     -64.4820593882      1.22E-01
    3    -230.2272392935      7.35E-02
    4    -209.1670280791      8.37E-02
    5    -271.2572729450      4.08E-02
    6    -278.3107118473      4.05E-02
    7    -286.2009178737      1.01E-02
    8    -286.7025034215      6.31E-03
    9    -286.4943515067      6.01E-03
   10    -286.8530524081      1.90E-03
   11    -286.8618100292      1.42E-03
   12    -286.8683680421      6.44E-04
   13    -286.8697136037      3.38E-04
   14    -286.8701870658      2.05E-04
   15    -286.8703999083      1.08E-04
   16    -286.8704639196      3.83E-05
   17    -286.8704716213      1.09E-05
   18    -286.8704722748      4.44E-06
   19    -286.8704724684      1.77E-06
   20    -286.8704725515      7.26E-07
   21    -286.8704725791      3.93E-07
   22    -286.8704725888      1.68E-07
   23    -286.8704725897      5.88E-08
   24    -286.8704725898      1.24E-08
   25    -286.8704725898      2.06E-09 Convergence criterion met
 ---------------------------------------
 <S^2> = 0.7648
 SCF time:  CPU 103.52 s  wall 51.82 s
 SCF   energy in the final basis set = -286.87047259
 Total energy in the final basis set = -286.87047259
 
 --------------------------------------------------------------
 
                    Orbital Energies (a.u.)
 --------------------------------------------------------------
 
 Alpha MOs
 -- Occupied --
-14.344 -10.262 -10.262 -10.221 -10.220 -10.184 -10.180  -0.981
 -0.790  -0.743  -0.735  -0.590  -0.583  -0.551  -0.537  -0.476
 -0.437  -0.431  -0.424  -0.411  -0.296  -0.276  -0.275  -0.273
 -0.262
 -- Virtual --
  0.005   0.007   0.016   0.019   0.027   0.029   0.031   0.033
  0.047   0.052   0.053   0.064   0.077   0.085   0.088   0.094
  0.113   0.117   0.125   0.141   0.147   0.158   0.170   0.176
  0.180   0.187   0.202   0.212   0.216   0.220   0.228   0.234
  0.242   0.251   0.258   0.279   0.280   0.298   0.330   0.361
  0.406   0.428   0.475   0.580   0.642   0.655   0.671   0.678
  0.680   0.692   0.695   0.708   0.724   0.755   0.763   0.766
  0.841   0.849   0.859   0.871   0.886   0.916   0.945   0.962
  0.990   1.001   1.037   1.082   1.117   1.155   1.184   1.190
  1.239   1.254   1.294   1.313   1.335   1.391   1.402   1.419
  1.430   1.460   1.475   1.550   1.558   1.560   1.602   1.711
  1.765   1.871   1.880   1.927   1.949   1.950   1.958   1.961
  1.975   2.010   2.025   2.117   2.172   2.228   2.244   2.366
  2.373   2.393   2.400   2.412   2.421   2.438   2.453   2.509
  2.523   2.586   2.603   2.627   2.711   2.718   2.795   2.831
  2.908   3.010   3.034   3.048   3.182   3.217   3.304   3.476
  3.537   3.750   3.881   4.122   4.293   4.351   4.530   4.628
  4.735   5.361
 
 Beta MOs
 -- Occupied --
-14.346 -10.255 -10.255 -10.219 -10.219 -10.184 -10.180  -0.974
 -0.787  -0.735  -0.722  -0.584  -0.572  -0.551  -0.535  -0.476
 -0.434  -0.421  -0.405  -0.401  -0.297  -0.275  -0.275  -0.270
 -- Virtual --
 -0.158   0.005   0.019   0.028   0.029   0.030   0.031   0.034
  0.039   0.047   0.053   0.058   0.065   0.078   0.085   0.094
  0.094   0.116   0.119   0.125   0.144   0.154   0.159   0.171
  0.178   0.181   0.189   0.203   0.214   0.216   0.224   0.226
  0.239   0.247   0.255   0.260   0.281   0.282   0.302   0.331
  0.361   0.409   0.433   0.484   0.580   0.647   0.673   0.681
  0.681   0.692   0.699   0.712   0.715   0.737   0.757   0.763
  0.767   0.844   0.851   0.864   0.873   0.888   0.916   0.946
  0.967   0.984   1.004   1.039   1.089   1.118   1.156   1.192
  1.194   1.254   1.260   1.294   1.331   1.347   1.391   1.402
  1.432   1.439   1.467   1.480   1.551   1.558   1.560   1.604
  1.720   1.780   1.877   1.884   1.929   1.949   1.950   1.958
  1.961   1.984   2.014   2.039   2.124   2.179   2.240   2.269
  2.370   2.374   2.394   2.400   2.413   2.432   2.445   2.460
  2.526   2.531   2.587   2.617   2.630   2.720   2.724   2.800
  2.831   2.910   3.012   3.034   3.049   3.184   3.217   3.307
  3.476   3.541   3.753   3.881   4.120   4.307   4.354   4.547
  4.629   4.742   5.361
 --------------------------------------------------------------
 
          Ground-State Mulliken Net Atomic Charges

     Atom                 Charge (a.u.)    Spin (a.u.)
  --------------------------------------------------------
      1 C                    -0.032640       0.528377
      2 C                    -0.071874       0.000147
      3 C                    -0.368336      -0.000003
      4 C                    -0.109417       0.079510
      5 C                    -0.057127       0.530944
      6 N                    -0.183899      -0.160154
      7 H                     0.147601      -0.026306
      8 H                     0.210807       0.001354
      9 H                     0.182624       0.000011
     10 H                     0.143121      -0.005846
     11 H                     0.144886      -0.026358
     12 C                    -0.148568       0.084185
     13 H                     0.142823      -0.005861
  --------------------------------------------------------
  Sum of atomic charges =    -0.000000
  Sum of spin   charges =     1.000000

 -----------------------------------------------------------------
                    Cartesian Multipole Moments
 -----------------------------------------------------------------
    Charge (ESU x 10^10)
                -0.0000
    Dipole Moment (Debye)
         X      -1.6054      Y       2.1023      Z       1.6638
       Tot       3.1249
    Quadrupole Moments (Debye-Ang)
        XX     -42.8495     XY      -2.3281     YY     -35.5396
        XZ      -2.9303     YZ      -1.4648     ZZ     -40.7703
    Octopole Moments (Debye-Ang^2)
       XXX      -4.9745    XXY      -5.3226    XYY       8.8680
       YYY       4.8705    XXZ       4.0763    XYZ       4.9420
       YYZ      -7.6027    XZZ      -7.8191    YZZ       3.6990
       ZZZ      18.0706
    Hexadecapole Moments (Debye-Ang^3)
      XXXX    -511.5719   XXXY     267.2867   XXYY    -178.8693
      XYYY     179.1801   YYYY    -823.9168   XXXZ     175.9485
      XXYZ     -36.0418   XYYZ       5.2573   YYYZ    -154.6550
      XXZZ    -135.9567   XYZZ      77.2608   YYZZ    -208.4845
      XZZZ     178.9000   YZZZ    -220.9475   ZZZZ    -421.3050
 -----------------------------------------------------------------
Archival summary:
1\1\c8-89\SP\ProcedureUnspecified\6-31+G**\166(2)\hpark21\TueMar114:42:572022TueMar114:42:572022\0\\#,ProcedureUnspecified,6-31+G**,\\0,2\N\C,1,1.34849\H,2,1.08452,1,120.946\C,1,1.34892,2,104.766,3,179.974,0\H,4,1.08497,1,120.895,2,-179.909,0\C,4,1.45941,1,112.298,2,-0.0113831,0\H,6,1.08199,4,126.144,1,-179.813,0\C,6,1.36547,4,105.312,1,-0.00176289,0\H,8,1.08184,6,128.597,4,-179.873,0\H,1,2.23369,2,136.758,3,7.95227,0\C,10,1.07641,1,171.438,2,164.827,0\C,11,1.20989,10,179.639,1,-4.39055,0\H,12,1.06638,11,179.877,10,-12.4207,0\\\@

 Total job time:  59.18s(wall), 105.47s(cpu) 
 Tue Mar  1 14:42:57 2022

        *************************************************************
        *                                                           *
        *  Thank you very much for using Q-Chem.  Have a nice day.  *
        *                                                           *
        *************************************************************


