
Running Job 1 of 1 qcirc.in
qchem qcirc.in_17953.0 ./qcirc.d/ 1
/home/leeping/opt/qchem/5.0.2-openmp/exe/qcprog.exe_s qcirc.in_17953.0 ./qcirc.d/
Check license passed

                  Welcome to Q-Chem
     A Quantum Leap Into The Future Of Chemistry


 Q-Chem 5.0, Q-Chem, Inc., Pleasanton, CA (2017)

 Yihan Shao,  Zhengting Gan,  E. Epifanovsky,  A. T. B. Gilbert,  M. Wormit,  
 J. Kussmann,  A. W. Lange,  A. Behn,  Jia Deng,  Xintian Feng,  D. Ghosh,  
 M. Goldey,  P. R. Horn,  L. D. Jacobson,  I. Kaliman,  T. Kus,  A. Landau,  
 Jie Liu,  E. I. Proynov,  R. M. Richard,  R. P. Steele,  E. J. Sundstrom,  
 H. L. Woodcock III,  P. M. Zimmerman,  D. Zuev,  B. Albrecht,  E. Alguire,  
 S. A. Baeppler,  D. Barton,  Z. Benda,  Y. A. Bernard,  E. J. Berquist,  
 K. B. Bravaya,  H. Burton,  D. Casanova,  Chun-Min Chang,  Yunqing Chen,  
 A. Chien,  K. D. Closser,  M. P. Coons,  S. Dasgupta,  A. L. Dempwolff,  
 M. Diedenhofen,  Hainam Do,  R. G. Edgar,  Po-Tung Fang,  S. Fatehi,  
 Qingguo Feng,  J. Fosso-Tande,  Qinghui Ge,  A. Ghysels,  G. Gidofalvi,  
 J. Gomes,  J. Gonthier,  A. Gunina,  M. W. D. Hanson-Heine,  
 P. H. P. Harbach,  A. W. Hauser,  J. E. Herr,  E. G. Hohenstein,  
 Z. C. Holden,  Kerwin Hui,  T.-C. Jagau,  Hyunjun Ji,  B. Kaduk,  
 K. Khistyaev,  Jaehoon Kim,  P. Klunzinger,  K. Koh,  D. Kosenkov,  
 L. Koulias,  T. Kowalczyk,  C. M. Krauter,  A. Kunitsa,  Ka Un Lao,  
 A. Laurent,  K. V. Lawler,  Joonho Lee,  D. Lefrancois,  S. Lehtola,  
 D. S. Levine,  Yi-Pei Li,  You-Sheng Lin,  Fenglai Liu,  E. Livshits,  
 A. Luenser,  P. Manohar,  E. Mansoor,  S. F. Manzer,  Shan-Ping Mao,  
 Yuezhi Mao,  N. Mardirossian,  A. V. Marenich,  T. Markovich,  
 L. A. Martinez-Martinez,  S. A. Maurer,  N. J. Mayhall,  S. C. McKenzie,  
 J.-M. Mewes,  A. F. Morrison,  J. W. Mullinax,  K. Nanda,  
 T. S. Nguyen-Beck,  R. Olivares-Amaya,  J. A. Parkhill,  T. M. Perrine,  
 F. Plasser,  S. Prager,  A. Prociuk,  E. Ramos,  D. R. Rehn,  F. Rob,  
 M. Schneider,  N. Sergueev,  S. M. Sharada,  S. Sharma,  D. W. Small,  
 T. Stauch,  T. Stein,  Yu-Chuan Su,  A. J. W. Thom,  A. Tkatchenko,  
 T. Tsuchimochi,  L. Vogt,  O. Vydrov,  M. A. Watson,  J. Wenzel,  
 M. de Wergifosse,  T. A. Wesolowski,  A. White,  J. Witte,  A. Yamada,  
 Jun Yang,  K. Yao,  S. Yeganeh,  S. R. Yost,  Zhi-Qiang You,  A. Zech,  
 Igor Ying Zhang,  Xing Zhang,  Yan Zhao,  Ying Zhu,  B. R. Brooks,  
 G. K. L. Chan,  C. J. Cramer,  M. S. Gordon,  W. J. Hehre,  A. Klamt,  
 M. W. Schmidt,  C. D. Sherrill,  D. G. Truhlar,  A. Aspuru-Guzik,  R. Baer,  
 A. T. Bell,  N. A. Besley,  Jeng-Da Chai,  R. A. DiStasio Jr.,  A. Dreuw,  
 B. D. Dunietz,  T. R. Furlani,  Chao-Ping Hsu,  Yousung Jung,  Jing Kong,  
 D. S. Lambrecht,  WanZhen Liang,  C. Ochsenfeld,  V. A. Rassolov,  
 L. V. Slipchenko,  J. E. Subotnik,  T. Van Voorhis,  J. M. Herbert,  
 A. I. Krylov,  P. M. W. Gill,  M. Head-Gordon

 Contributors to earlier versions of Q-Chem not listed above: 
 R. D. Adamson,  B. Austin,  J. Baker,  G. J. O. Beran,  K. Brandhorst,  
 S. T. Brown,  E. F. C. Byrd,  A. K. Chakraborty,  C.-L. Cheng,  
 Siu Hung Chien,  D. M. Chipman,  D. L. Crittenden,  H. Dachsel,  
 R. J. Doerksen,  A. D. Dutoi,  L. Fusti-Molnar,  W. A. Goddard III,  
 A. Golubeva-Zadorozhnaya,  S. R. Gwaltney,  G. Hawkins,  A. Heyden,  
 S. Hirata,  G. Kedziora,  F. J. Keil,  C. Kelley,  Jihan Kim,  R. A. King,  
 R. Z. Khaliullin,  P. P. Korambath,  W. Kurlancheek,  A. M. Lee,  M. S. Lee,  
 S. V. Levchenko,  Ching Yeh Lin,  D. Liotard,  R. C. Lochan,  I. Lotan,  
 P. E. Maslen,  N. Nair,  D. P. O'Neill,  D. Neuhauser,  E. Neuscamman,  
 C. M. Oana,  R. Olson,  B. Peters,  R. Peverati,  P. A. Pieniazek,  
 Y. M. Rhee,  J. Ritchie,  M. A. Rohrdanz,  E. Rosta,  N. J. Russ,  
 H. F. Schaefer III,  N. E. Schultz,  N. Shenvi,  A. C. Simmonett,  A. Sodt,  
 D. Stuck,  K. S. Thanthiriwatte,  V. Vanovschi,  Tao Wang,  A. Warshel,  
 C. F. Williams,  Q. Wu,  X. Xu,  W. Zhang

 Please cite Q-Chem as follows:
 Y. Shao et al., Mol. Phys. 113, 184-215 (2015)
 DOI: 10.1080/00268976.2014.952696

 Q-Chem 5.0.2 for Intel X86 EM64T Linux

 Parts of Q-Chem use Armadillo 5.200.1 (Boston Tea Smuggler).
 http://arma.sourceforge.net/

 Q-Chem begins on Tue Mar  1 13:14:09 2022  

Host: 
0

     Scratch files written to ./qcirc.d//
 Dec517 15110_ 26548  26544 5633   
Processing $rem in /home/leeping/opt/qchem/5.0.2-openmp/config/preferences.
 MEM_STATIC 2000
 MEM_TOTAL  8000
 SYMMETRY   OFF
 SYM_IGNORE TRUE 

Checking the input file for inconsistencies... 	...done.

--------------------------------------------------------------
User input:
--------------------------------------------------------------
$molecule
0 2
C        0.6617765198    0.2657108096    0.9036455091
C        0.3491250067   -1.7756695549   -1.4367753378
C        0.7833422240   -2.7744740903   -0.9153355575
C       -1.1900978430    1.4145495375    0.3511057777
C        0.0385303504    1.9948418372   -0.1791351290
N        1.1342057693    1.2865646755    0.1653002869
H        1.3267638070   -0.4856840960    1.3095929750
H       -0.0240858357   -0.8789420140   -1.8803791982
H        1.1739462592   -3.6495682804   -0.4456885720
H       -2.1930251688    1.7993894852    0.2123746866
H        0.1236566435    2.8908186010   -0.7857285241
C       -0.7923488514    0.3066839590    1.0450748672
H       -1.4034874467   -0.4104084850    1.5779182070
$end

$rem
method                b3lyp
basis                 6-31+g(d,p)
unrestricted          true
symmetry              off
sym_ignore            true
incdft                false
incfock               0
scf_convergence       8
thresh                14
jobtype               opt
scf_guess             read
scf_algorithm         diis
max_scf_cycles        100
geom_opt_max_cycles   300
$end

--------------------------------------------------------------
 ----------------------------------------------------------------
             Standard Nuclear Orientation (Angstroms)
    I     Atom           X                Y                Z
 ----------------------------------------------------------------
    1      C       0.6617765198     0.2657108096     0.9036455091
    2      C       0.3491250067    -1.7756695549    -1.4367753378
    3      C       0.7833422240    -2.7744740903    -0.9153355575
    4      C      -1.1900978430     1.4145495375     0.3511057777
    5      C       0.0385303504     1.9948418372    -0.1791351290
    6      N       1.1342057693     1.2865646755     0.1653002869
    7      H       1.3267638070    -0.4856840960     1.3095929750
    8      H      -0.0240858357    -0.8789420140    -1.8803791982
    9      H       1.1739462592    -3.6495682804    -0.4456885720
   10      H      -2.1930251688     1.7993894852     0.2123746866
   11      H       0.1236566435     2.8908186010    -0.7857285241
   12      C      -0.7923488514     0.3066839590     1.0450748672
   13      H      -1.4034874467    -0.4104084850     1.5779182070
 ----------------------------------------------------------------
 Nuclear Repulsion Energy =   241.5191024297 hartrees
 There are       25 alpha and       24 beta electrons
 Requested basis set is 6-31+G(d,p)
 There are 53 shells and 163 basis functions

 Total QAlloc Memory Limit   8000 MB
 Mega-Array Size      1956 MB
 MEM_STATIC part      2000 MB
 A cutoff of  1.0D-14 yielded   1342 shell pairs
 There are     13072 function pairs
 
 -------------------------------------------------------
 OpenMP Integral Computing Module                       
 Release: version 1.0, May 2013, Q-Chem Inc. Pittsburgh 
 -------------------------------------------------------
 Integral Job Info:
 Integral job number is                      11
 Integral operator is                         1
 short-range coefficients                     0
 long-range coefficients              100000000
 Omega coefficients                           0
 if combine SR and LR in K                    0
 Integral screening is                        0
 Integral computing path is                   2
 max size of driver memory is            800000
 size of driver memory is                593474
 size of scratch memory is              2361544
 max col of scratch BK array               1296
 max len of scratch array in speh3          155
 max len of scratch index in speh4           18
 max int batch size is                      520
 min int batch size is                       52
 fixed nKL is                                52
 max L of basis functions is                  2
 order of int derivative is                   0
 number of shells is                         53
 number of basis is                         163
 number of cartesian basis is               163
 number of contracted shell pairs          1342
 number of primitive shell pairs           4370
 maxK2 (contraction) of shell pair           36
 max number of K2 of shell pair               1
 max number of CS2 of shell pair            128
 max number of PS2 of shell pair            714
 mem total for path MDJ                  527196
 -------------------------------------------------------
 Smallest overlap matrix eigenvalue = 2.16E-05

 Scale SEOQF with 1.000000e-01/1.000000e-01/1.000000e-01

 Standard Electronic Orientation quadrupole field applied
 Nucleus-field energy     =     0.0000000072 hartrees
 Guess MOs from SCF MO coefficient file
 Reading MOs from coefficient file
 Reading MOs from coefficient file
 An unrestricted hybrid HF-DFT SCF calculation will be
 performed using Pulay DIIS extrapolation
 Exchange:     0.2000 Hartree-Fock + 0.0800 Slater + 0.7200 B88
 Correlation:  0.1900 VWN1RPA + 0.8100 LYP
 Using SG-1 standard quadrature grid
 SCF converges when DIIS error is below 1.0E-08
Using Q-Chem read-in guess as SCF_GUESS READ specified.

 using 4 threads for integral computing
 -------------------------------------------------------
 OpenMP Integral computing Module                
 Release: version 1.0, May 2013, Q-Chem Inc. Pittsburgh 
 -------------------------------------------------------
 -------------------------------------------------------
 OpenMP BLAS3 based DFT computing Module                
 Release: version 1.0, May 2013, Q-Chem Inc. Pittsburgh 
 -------------------------------------------------------
 ---------------------------------------
  Cycle       Energy         DIIS Error
 ---------------------------------------
    1    -286.8632279684      1.21E-09
    2    -286.8632279684      1.38E-09 Convergence criterion met
 ---------------------------------------
 <S^2> = 0.7647
 SCF time:  CPU 9.65 s  wall 5.62 s
 SCF   energy in the final basis set = -286.86322797
 Total energy in the final basis set = -286.86322797
 
 --------------------------------------------------------------
 
                    Orbital Energies (a.u.)
 --------------------------------------------------------------
 
 Alpha MOs
 -- Occupied --
-14.329 -10.250 -10.249 -10.211 -10.209 -10.208 -10.205  -0.969
 -0.779  -0.760  -0.731  -0.578  -0.575  -0.572  -0.527  -0.503
 -0.426  -0.420  -0.413  -0.400  -0.301  -0.298  -0.279  -0.263
 -0.248
 -- Virtual --
  0.003   0.010   0.014   0.017   0.020   0.024   0.029   0.038
  0.040   0.050   0.064   0.067   0.071   0.081   0.103   0.107
  0.114   0.119   0.123   0.140   0.143   0.155   0.163   0.169
  0.182   0.191   0.194   0.198   0.203   0.207   0.226   0.238
  0.246   0.254   0.266   0.268   0.280   0.299   0.310   0.327
  0.413   0.435   0.495   0.543   0.624   0.654   0.662   0.675
  0.689   0.699   0.716   0.725   0.738   0.745   0.767   0.783
  0.817   0.842   0.873   0.878   0.893   0.912   0.946   0.968
  1.006   1.035   1.045   1.076   1.080   1.102   1.131   1.184
  1.200   1.260   1.270   1.288   1.328   1.348   1.366   1.374
  1.435   1.467   1.475   1.484   1.528   1.555   1.586   1.664
  1.767   1.880   1.890   1.923   1.927   1.937   1.944   1.959
  1.995   2.033   2.048   2.126   2.194   2.250   2.262   2.358
  2.373   2.379   2.382   2.409   2.429   2.439   2.468   2.522
  2.531   2.597   2.617   2.618   2.720   2.727   2.773   2.806
  2.923   3.015   3.018   3.023   3.193   3.228   3.321   3.452
  3.554   3.758   3.865   4.146   4.314   4.366   4.496   4.621
  4.743   5.353
 
 Beta MOs
 -- Occupied --
-14.332 -10.243 -10.242 -10.209 -10.208 -10.208 -10.205  -0.962
 -0.776  -0.759  -0.711  -0.575  -0.573  -0.561  -0.525  -0.502
 -0.422  -0.411  -0.394  -0.391  -0.298  -0.297  -0.280  -0.259
 -- Virtual --
 -0.147   0.004   0.011   0.014   0.017   0.029   0.035   0.039
  0.046   0.048   0.052   0.065   0.069   0.073   0.083   0.105
  0.107   0.115   0.122   0.126   0.141   0.145   0.156   0.165
  0.173   0.183   0.191   0.195   0.200   0.205   0.209   0.230
  0.239   0.251   0.259   0.269   0.270   0.281   0.301   0.314
  0.330   0.417   0.440   0.503   0.545   0.643   0.657   0.668
  0.681   0.697   0.708   0.721   0.736   0.742   0.749   0.772
  0.789   0.823   0.844   0.876   0.881   0.895   0.916   0.948
  0.972   1.001   1.036   1.046   1.077   1.090   1.104   1.134
  1.190   1.205   1.272   1.276   1.293   1.346   1.359   1.366
  1.375   1.451   1.475   1.480   1.490   1.529   1.556   1.588
  1.667   1.787   1.886   1.894   1.924   1.928   1.938   1.946
  1.960   2.003   2.038   2.061   2.131   2.201   2.262   2.285
  2.359   2.373   2.382   2.384   2.410   2.437   2.449   2.476
  2.538   2.540   2.598   2.621   2.631   2.728   2.732   2.773
  2.810   2.925   3.016   3.018   3.026   3.195   3.228   3.323
  3.453   3.558   3.761   3.866   4.144   4.327   4.370   4.512
  4.621   4.750   5.353
 --------------------------------------------------------------
 
          Ground-State Mulliken Net Atomic Charges

     Atom                 Charge (a.u.)    Spin (a.u.)
  --------------------------------------------------------
      1 C                    -0.130885       0.526597
      2 C                    -0.090389      -0.018410
      3 C                    -0.236645       0.029939
      4 C                    -0.089134       0.055673
      5 C                    -0.084454       0.530259
      6 N                    -0.222452      -0.164350
      7 H                     0.140066      -0.026775
      8 H                     0.185865       0.000295
      9 H                     0.184883      -0.000871
     10 H                     0.138230      -0.004808
     11 H                     0.138552      -0.026291
     12 C                    -0.071302       0.105951
     13 H                     0.137665      -0.007209
  --------------------------------------------------------
  Sum of atomic charges =    -0.000000
  Sum of spin   charges =     1.000000

 -----------------------------------------------------------------
                    Cartesian Multipole Moments
 -----------------------------------------------------------------
    Charge (ESU x 10^10)
                 0.0000
    Dipole Moment (Debye)
         X      -1.9612      Y      -0.6274      Z       0.5499
       Tot       2.1312
    Quadrupole Moments (Debye-Ang)
        XX     -44.6540     XY      -6.2112     YY     -37.0749
        XZ       1.4306     YZ      -5.3870     ZZ     -41.7250
    Octopole Moments (Debye-Ang^2)
       XXX     -27.5830    XXY      -9.1659    XYY      -0.2006
       YYY     -20.0483    XXZ       5.2969    XYZ      -1.1499
       YYZ       2.7964    XZZ      -6.5005    YZZ       0.3335
       ZZZ       2.3845
    Hexadecapole Moments (Debye-Ang^3)
      XXXX    -247.2288   XXXY      41.5023   XXYY    -163.0267
      XYYY       7.8472   YYYY    -635.3730   XXXZ      33.7143
      XXYZ     -40.4219   XYYZ      11.4594   YYYZ    -135.4893
      XXZZ     -84.7516   XYZZ      28.7646   YYZZ    -189.7060
      XZZZ      38.3185   YZZZ    -118.9859   ZZZZ    -255.0582
 -----------------------------------------------------------------
 Calculating analytic gradient of the SCF energy
 Gradient of SCF Energy
            1           2           3           4           5           6
    1   0.0002999   0.0006850  -0.0008367   0.0007457   0.0000486  -0.0006070
    2  -0.0005603  -0.0012218   0.0025015  -0.0000334  -0.0000692  -0.0011898
    3  -0.0002532   0.0013170  -0.0005872  -0.0002300  -0.0002555   0.0002979
            7           8           9          10          11          12
    1  -0.0006847  -0.0004323   0.0003817  -0.0007108   0.0000413   0.0014126
    2   0.0001151   0.0013002  -0.0000173   0.0003317  -0.0000677  -0.0006616
    3  -0.0007915   0.0000773   0.0008562  -0.0000784  -0.0001811  -0.0000880
           13
    1  -0.0003435
    2  -0.0004274
    3  -0.0000836
 Max gradient component =       2.501E-03
 RMS gradient           =       7.391E-04
 Gradient time:  CPU 15.18 s  wall 6.51 s
 Geometry Optimization Parameters
   NAtoms,    NIC,     NZ,  NCons,   NDum,   NFix, NCnnct, MaxDiis
       13     211       0       0       0       0       0       0


** GEOMETRY OPTIMIZATION IN DELOCALIZED INTERNAL COORDINATES **
   Searching for a Minimum

   Optimization Cycle:   1

                       Coordinates (Angstroms)
     ATOM                X               Y               Z
      1  C         0.6617765198    0.2657108096    0.9036455091
      2  C         0.3491250067   -1.7756695549   -1.4367753378
      3  C         0.7833422240   -2.7744740903   -0.9153355575
      4  C        -1.1900978430    1.4145495375    0.3511057777
      5  C         0.0385303504    1.9948418372   -0.1791351290
      6  N         1.1342057693    1.2865646755    0.1653002869
      7  H         1.3267638070   -0.4856840960    1.3095929750
      8  H        -0.0240858357   -0.8789420140   -1.8803791982
      9  H         1.1739462592   -3.6495682804   -0.4456885720
     10  H        -2.1930251688    1.7993894852    0.2123746866
     11  H         0.1236566435    2.8908186010   -0.7857285241
     12  C        -0.7923488514    0.3066839590    1.0450748672
     13  H        -1.4034874467   -0.4104084850    1.5779182070
   Point Group: c1    Number of degrees of freedom:    33


   Energy is   -286.863227968


 Attempting to Generate Delocalized Internal Coordinates

 32 Hessian modes will be used to form the next step
  Hessian Eigenvalues:
     0.012070    0.020573    0.024420    0.027518    0.027897    0.029972
     0.034555    0.038743    0.040612    0.047598    0.051176    0.055155
     0.066191    0.081926    0.100340    0.103968    0.104056    0.159999
     0.160630    0.187118    0.209338    0.268288    0.303789    0.333565
     0.345118    0.353560    0.356165    0.357035    0.375854    0.376317
     0.460101    0.934233

 Minimum Search - Taking Simple RFO Step
 Searching for Lamda that Minimizes Along All modes
 Value Taken    Lamda =  -0.00014818
 Step Taken.  Stepsize is  0.095296

                             Maximum     Tolerance    Cnvgd?
         Gradient           0.001361      0.000300      NO
         Displacement       0.058467      0.001200      NO
         Energy change     *********      0.000001      NO


 New Cartesian Coordinates Obtained by Inverse Iteration

 Displacement from previous Coordinates is:  0.070868
 ----------------------------------------------------------------
             Standard Nuclear Orientation (Angstroms)
    I     Atom           X                Y                Z
 ----------------------------------------------------------------
    1      C       0.6609879313     0.2713916654     0.9078397226
    2      C       0.3523237235    -1.7868648837    -1.4436643942
    3      C       0.7864665261    -2.7872197527    -0.9228327158
    4      C      -1.1921507097     1.4186151866     0.3521263858
    5      C       0.0368371676     1.9990344286    -0.1775546811
    6      N       1.1336127952     1.2926986479     0.1683234172
    7      H       1.3268894521    -0.4797976765     1.3174013575
    8      H      -0.0205420448    -0.8906608187    -1.8871819635
    9      H       1.1759119510    -3.6635280385    -0.4561991945
   10      H      -2.1940917988     1.8024662715     0.2126325292
   11      H       0.1213980153     2.8955970798    -0.7832270509
   12      C      -0.7945741122     0.3131136332     1.0488714529
   13      H      -1.4047674624    -0.4010333584     1.5854351258
 ----------------------------------------------------------------
 Nuclear Repulsion Energy =   241.1300326229 hartrees
 There are       25 alpha and       24 beta electrons
 Applying Cartesian multipole field
    Component          Value
    ---------          -----
     (2,0,0)        1.00000E-11
     (0,2,0)        2.00000E-11
     (0,0,2)       -3.00000E-11
 Nucleus-field energy     =     0.0000000072 hartrees
 Requested basis set is 6-31+G(d,p)
 There are 53 shells and 163 basis functions
 A cutoff of  1.0D-14 yielded   1340 shell pairs
 There are     13062 function pairs
 Smallest overlap matrix eigenvalue = 2.18E-05
 Guess MOs from SCF MO coefficient file
 Reading MOs from coefficient file
 Reading MOs from coefficient file
 An unrestricted hybrid HF-DFT SCF calculation will be
 performed using Pulay DIIS extrapolation
 Exchange:     0.2000 Hartree-Fock + 0.0800 Slater + 0.7200 B88
 Correlation:  0.1900 VWN1RPA + 0.8100 LYP
 Using SG-1 standard quadrature grid
 SCF converges when DIIS error is below 1.0E-08
 Geometry optimization detected.  Setting ReadMinima to 0
 Setting SaveMinima to 0
Using Q-Chem read-in guess as SCF_GUESS READ specified.

 using 4 threads for integral computing
 -------------------------------------------------------
 OpenMP Integral computing Module                
 Release: version 1.0, May 2013, Q-Chem Inc. Pittsburgh 
 -------------------------------------------------------
 -------------------------------------------------------
 OpenMP BLAS3 based DFT computing Module                
 Release: version 1.0, May 2013, Q-Chem Inc. Pittsburgh 
 -------------------------------------------------------
 ---------------------------------------
  Cycle       Energy         DIIS Error
 ---------------------------------------
    1    -286.8618184357      9.85E-05
    2    -286.8633581412      2.89E-05
    3    -286.8633542188      4.44E-05
    4    -286.8633617100      7.05E-06
    5    -286.8633618778      1.98E-06
    6    -286.8633618911      9.88E-07
    7    -286.8633618949      4.01E-07
    8    -286.8633618960      1.20E-07
    9    -286.8633618962      3.91E-08
   10    -286.8633618963      2.15E-08
   11    -286.8633618964      1.41E-08
   12    -286.8633618964      8.53E-09 Convergence criterion met
 ---------------------------------------
 <S^2> = 0.7648
 SCF time:  CPU 56.08 s  wall 33.03 s
 SCF   energy in the final basis set = -286.86336190
 Total energy in the final basis set = -286.86336190
 
 --------------------------------------------------------------
 
                    Orbital Energies (a.u.)
 --------------------------------------------------------------
 
 Alpha MOs
 -- Occupied --
-14.329 -10.250 -10.249 -10.211 -10.209 -10.208 -10.206  -0.969
 -0.779  -0.759  -0.731  -0.578  -0.575  -0.572  -0.528  -0.503
 -0.425  -0.420  -0.413  -0.400  -0.300  -0.298  -0.279  -0.263
 -0.248
 -- Virtual --
  0.003   0.010   0.014   0.017   0.020   0.024   0.029   0.038
  0.040   0.050   0.064   0.067   0.071   0.081   0.103   0.107
  0.114   0.119   0.123   0.140   0.142   0.155   0.163   0.169
  0.182   0.191   0.194   0.198   0.203   0.207   0.225   0.238
  0.246   0.254   0.266   0.268   0.280   0.299   0.310   0.326
  0.412   0.435   0.494   0.543   0.625   0.654   0.662   0.674
  0.689   0.699   0.716   0.725   0.738   0.744   0.766   0.783
  0.816   0.842   0.873   0.878   0.893   0.912   0.945   0.968
  1.006   1.034   1.045   1.076   1.079   1.101   1.130   1.184
  1.200   1.260   1.270   1.287   1.328   1.348   1.365   1.373
  1.435   1.467   1.476   1.483   1.528   1.555   1.585   1.664
  1.766   1.880   1.890   1.923   1.927   1.936   1.943   1.957
  1.994   2.032   2.047   2.125   2.194   2.249   2.261   2.357
  2.374   2.380   2.382   2.409   2.429   2.438   2.467   2.521
  2.531   2.596   2.616   2.618   2.721   2.726   2.773   2.805
  2.922   3.015   3.018   3.021   3.193   3.229   3.319   3.453
  3.552   3.758   3.865   4.146   4.312   4.365   4.495   4.618
  4.743   5.355
 
 Beta MOs
 -- Occupied --
-14.332 -10.243 -10.242 -10.209 -10.208 -10.208 -10.205  -0.962
 -0.776  -0.759  -0.710  -0.575  -0.573  -0.561  -0.525  -0.502
 -0.422  -0.411  -0.394  -0.390  -0.298  -0.297  -0.280  -0.259
 -- Virtual --
 -0.147   0.004   0.011   0.014   0.017   0.029   0.034   0.039
  0.046   0.048   0.052   0.065   0.069   0.073   0.083   0.105
  0.107   0.115   0.122   0.126   0.141   0.145   0.156   0.165
  0.173   0.182   0.191   0.194   0.200   0.205   0.209   0.230
  0.238   0.251   0.259   0.268   0.270   0.281   0.301   0.313
  0.329   0.417   0.439   0.503   0.544   0.643   0.657   0.668
  0.680   0.698   0.708   0.721   0.736   0.742   0.748   0.771
  0.788   0.823   0.844   0.876   0.881   0.895   0.916   0.947
  0.971   1.001   1.036   1.046   1.077   1.088   1.103   1.133
  1.190   1.205   1.272   1.276   1.292   1.346   1.359   1.365
  1.374   1.451   1.475   1.480   1.489   1.528   1.556   1.587
  1.666   1.786   1.886   1.894   1.924   1.928   1.937   1.945
  1.958   2.002   2.037   2.060   2.131   2.201   2.261   2.284
  2.359   2.374   2.382   2.384   2.410   2.437   2.448   2.476
  2.538   2.540   2.598   2.620   2.630   2.729   2.732   2.773
  2.810   2.924   3.016   3.018   3.024   3.195   3.229   3.322
  3.454   3.556   3.762   3.865   4.143   4.326   4.369   4.511
  4.619   4.750   5.355
 --------------------------------------------------------------
 
          Ground-State Mulliken Net Atomic Charges

     Atom                 Charge (a.u.)    Spin (a.u.)
  --------------------------------------------------------
      1 C                    -0.129680       0.528310
      2 C                    -0.090378      -0.018247
      3 C                    -0.237658       0.029143
      4 C                    -0.088013       0.055796
      5 C                    -0.085417       0.530010
      6 N                    -0.222493      -0.164767
      7 H                     0.140313      -0.026867
      8 H                     0.185750       0.000251
      9 H                     0.184716      -0.000835
     10 H                     0.138143      -0.004804
     11 H                     0.138551      -0.026299
     12 C                    -0.071411       0.105499
     13 H                     0.137577      -0.007190
  --------------------------------------------------------
  Sum of atomic charges =     0.000000
  Sum of spin   charges =     1.000000

 -----------------------------------------------------------------
                    Cartesian Multipole Moments
 -----------------------------------------------------------------
    Charge (ESU x 10^10)
                -0.0000
    Dipole Moment (Debye)
         X      -1.9663      Y      -0.6218      Z       0.5540
       Tot       2.1354
    Quadrupole Moments (Debye-Ang)
        XX     -44.6503     XY      -6.2311     YY     -37.0801
        XZ       1.4214     YZ      -5.3789     ZZ     -41.7072
    Octopole Moments (Debye-Ang^2)
       XXX     -27.6115    XXY      -9.1555    XYY      -0.1953
       YYY     -20.2391    XXZ       5.3175    XYZ      -1.1490
       YYZ       2.7609    XZZ      -6.5282    YZZ       0.3582
       ZZZ       2.4840
    Hexadecapole Moments (Debye-Ang^3)
      XXXX    -247.6443   XXXY      42.1215   XXYY    -164.1021
      XYYY       7.8341   YYYY    -639.6635   XXXZ      34.0274
      XXYZ     -40.9851   XYYZ      11.4848   YYYZ    -137.0596
      XXZZ     -85.1398   XYZZ      29.0338   YYZZ    -191.3476
      XZZZ      38.6652   YZZZ    -120.8067   ZZZZ    -257.0104
 -----------------------------------------------------------------
 Calculating analytic gradient of the SCF energy
 Gradient of SCF Energy
            1           2           3           4           5           6
    1   0.0001368  -0.0002386   0.0001575  -0.0001299  -0.0001408   0.0001500
    2  -0.0006092   0.0008829   0.0002481  -0.0000419  -0.0000817  -0.0004271
    3  -0.0004249   0.0001737   0.0006000  -0.0002445  -0.0002734  -0.0001053
            7           8           9          10          11          12
    1   0.0000494  -0.0002788   0.0001507   0.0000224   0.0000094   0.0001648
    2  -0.0007076   0.0008533   0.0004300   0.0000024  -0.0000723  -0.0004244
    3  -0.0002185   0.0002130   0.0005386   0.0000394  -0.0000741  -0.0000349
           13
    1  -0.0000528
    2  -0.0000525
    3  -0.0001889
 Max gradient component =       8.829E-04
 RMS gradient           =       3.375E-04
 Gradient time:  CPU 14.71 s  wall 7.30 s
 Geometry Optimization Parameters
   NAtoms,    NIC,     NZ,  NCons,   NDum,   NFix, NCnnct, MaxDiis
       13     211       0       0       0       0       0       0

 Cartesian Hessian Update
 Hessian Updated using BFGS Update


** GEOMETRY OPTIMIZATION IN DELOCALIZED INTERNAL COORDINATES **
   Searching for a Minimum

   Optimization Cycle:   2

                       Coordinates (Angstroms)
     ATOM                X               Y               Z
      1  C         0.6609879313    0.2713916654    0.9078397226
      2  C         0.3523237235   -1.7868648837   -1.4436643942
      3  C         0.7864665261   -2.7872197527   -0.9228327158
      4  C        -1.1921507097    1.4186151866    0.3521263858
      5  C         0.0368371676    1.9990344286   -0.1775546811
      6  N         1.1336127952    1.2926986479    0.1683234172
      7  H         1.3268894521   -0.4797976765    1.3174013575
      8  H        -0.0205420448   -0.8906608187   -1.8871819635
      9  H         1.1759119510   -3.6635280385   -0.4561991945
     10  H        -2.1940917988    1.8024662715    0.2126325292
     11  H         0.1213980153    2.8955970798   -0.7832270509
     12  C        -0.7945741122    0.3131136332    1.0488714529
     13  H        -1.4047674624   -0.4010333584    1.5854351258
   Point Group: c1    Number of degrees of freedom:    33


   Energy is   -286.863361896

 Hessian Updated using BFGS Update

 33 Hessian modes will be used to form the next step
  Hessian Eigenvalues:
     0.001789    0.004639    0.020573    0.024489    0.027640    0.027891
     0.030153    0.034589    0.038748    0.040250    0.047602    0.051258
     0.055155    0.066096    0.081934    0.091007    0.102276    0.104470
     0.159231    0.160075    0.183842    0.213238    0.268394    0.313575
     0.336337    0.349504    0.353577    0.356820    0.369954    0.376116
     0.419970    0.467996    1.095283

 Minimum Search - Taking Simple RFO Step
 Searching for Lamda that Minimizes Along All modes
 Value Taken    Lamda =  -0.00065503
 Calculated Step too Large.  Step scaled by  0.588400
 Step Taken.  Stepsize is  0.300000

                             Maximum     Tolerance    Cnvgd?
         Gradient           0.001014      0.000300      NO
         Displacement       0.184955      0.001200      NO
         Energy change     -0.000134      0.000001      NO


 New Cartesian Coordinates Obtained by Inverse Iteration

 Displacement from previous Coordinates is:  0.223412
 ----------------------------------------------------------------
             Standard Nuclear Orientation (Angstroms)
    I     Atom           X                Y                Z
 ----------------------------------------------------------------
    1      C       0.6572157251     0.2899975407     0.9211890821
    2      C       0.3631062475    -1.8235136349    -1.4646855507
    3      C       0.7961421122    -2.8268917270    -0.9469708654
    4      C      -1.1972535623     1.4322651920     0.3568244559
    5      C       0.0319618907     2.0124348757    -0.1727058679
    6      N       1.1300623076     1.3109061979     0.1784103639
    7      H       1.3246949598    -0.4573187238     1.3403878340
    8      H      -0.0090443161    -0.9279687964    -1.9082316797
    9      H       1.1825191150    -3.7085089974    -0.4893234117
   10      H      -2.1981154948     1.8146899855     0.2151157229
   11      H       0.1156813365     2.9102632132    -0.7765719674
   12      C      -0.8003323490     0.3321527228     1.0605784114
   13      H      -1.4083365379    -0.3746954640     1.6079534634
 ----------------------------------------------------------------
 Nuclear Repulsion Energy =   240.0378102134 hartrees
 There are       25 alpha and       24 beta electrons
 Applying Cartesian multipole field
    Component          Value
    ---------          -----
     (2,0,0)        1.00000E-11
     (0,2,0)        2.00000E-11
     (0,0,2)       -3.00000E-11
 Nucleus-field energy     =     0.0000000074 hartrees
 Requested basis set is 6-31+G(d,p)
 There are 53 shells and 163 basis functions
 A cutoff of  1.0D-14 yielded   1335 shell pairs
 There are     13046 function pairs
 Smallest overlap matrix eigenvalue = 2.21E-05
 Guess MOs from SCF MO coefficient file
 Reading MOs from coefficient file
 Reading MOs from coefficient file
 An unrestricted hybrid HF-DFT SCF calculation will be
 performed using Pulay DIIS extrapolation
 Exchange:     0.2000 Hartree-Fock + 0.0800 Slater + 0.7200 B88
 Correlation:  0.1900 VWN1RPA + 0.8100 LYP
 Using SG-1 standard quadrature grid
 SCF converges when DIIS error is below 1.0E-08
 Geometry optimization detected.  Setting ReadMinima to 0
 Setting SaveMinima to 0
Using Q-Chem read-in guess as SCF_GUESS READ specified.

 using 4 threads for integral computing
 -------------------------------------------------------
 OpenMP Integral computing Module                
 Release: version 1.0, May 2013, Q-Chem Inc. Pittsburgh 
 -------------------------------------------------------
 -------------------------------------------------------
 OpenMP BLAS3 based DFT computing Module                
 Release: version 1.0, May 2013, Q-Chem Inc. Pittsburgh 
 -------------------------------------------------------
 ---------------------------------------
  Cycle       Energy         DIIS Error
 ---------------------------------------
    1    -286.8619638022      2.11E-04
    2    -286.8636816366      4.42E-05
    3    -286.8636697101      7.40E-05
    4    -286.8636907403      1.03E-05
    5    -286.8636910991      3.76E-06
    6    -286.8636911591      1.96E-06
    7    -286.8636911793      1.02E-06
    8    -286.8636911886      2.53E-07
    9    -286.8636911924      2.06E-07
   10    -286.8636911949      1.02E-07
   11    -286.8636911958      7.47E-08
   12    -286.8636911961      2.56E-08
   13    -286.8636911962      1.50E-08
   14    -286.8636911962      3.98E-09 Convergence criterion met
 ---------------------------------------
 <S^2> = 0.7649
 SCF time:  CPU 65.26 s  wall 39.88 s
 SCF   energy in the final basis set = -286.86369120
 Total energy in the final basis set = -286.86369120
 
 --------------------------------------------------------------
 
                    Orbital Energies (a.u.)
 --------------------------------------------------------------
 
 Alpha MOs
 -- Occupied --
-14.330 -10.250 -10.250 -10.211 -10.209 -10.208 -10.205  -0.968
 -0.779  -0.759  -0.731  -0.579  -0.575  -0.572  -0.528  -0.502
 -0.426  -0.420  -0.413  -0.400  -0.299  -0.297  -0.279  -0.263
 -0.249
 -- Virtual --
  0.003   0.010   0.014   0.017   0.019   0.024   0.029   0.038
  0.040   0.049   0.063   0.067   0.071   0.080   0.103   0.107
  0.113   0.119   0.122   0.140   0.142   0.155   0.162   0.169
  0.180   0.191   0.193   0.198   0.203   0.207   0.224   0.237
  0.245   0.253   0.265   0.268   0.280   0.299   0.309   0.324
  0.411   0.434   0.494   0.542   0.627   0.654   0.663   0.674
  0.689   0.697   0.715   0.725   0.737   0.743   0.763   0.781
  0.813   0.841   0.872   0.877   0.893   0.912   0.944   0.967
  1.006   1.033   1.045   1.073   1.078   1.099   1.129   1.183
  1.199   1.259   1.270   1.285   1.327   1.348   1.365   1.371
  1.434   1.468   1.477   1.482   1.525   1.553   1.581   1.662
  1.764   1.879   1.890   1.925   1.928   1.934   1.943   1.953
  1.992   2.030   2.045   2.124   2.192   2.247   2.258   2.356
  2.374   2.379   2.382   2.408   2.428   2.436   2.466   2.520
  2.531   2.595   2.613   2.617   2.722   2.725   2.773   2.804
  2.922   3.016   3.017   3.019   3.193   3.229   3.318   3.453
  3.549   3.759   3.864   4.143   4.310   4.363   4.494   4.616
  4.743   5.357
 
 Beta MOs
 -- Occupied --
-14.333 -10.243 -10.243 -10.210 -10.208 -10.208 -10.205  -0.962
 -0.777  -0.758  -0.710  -0.575  -0.573  -0.561  -0.526  -0.502
 -0.422  -0.411  -0.394  -0.390  -0.297  -0.297  -0.281  -0.259
 -- Virtual --
 -0.147   0.004   0.011   0.014   0.017   0.029   0.034   0.038
  0.046   0.048   0.051   0.065   0.069   0.073   0.083   0.104
  0.107   0.115   0.122   0.126   0.141   0.145   0.156   0.164
  0.173   0.181   0.191   0.194   0.200   0.204   0.209   0.229
  0.238   0.251   0.258   0.268   0.270   0.281   0.301   0.313
  0.328   0.415   0.438   0.502   0.543   0.645   0.658   0.668
  0.679   0.699   0.707   0.720   0.736   0.740   0.748   0.768
  0.787   0.821   0.843   0.875   0.880   0.895   0.916   0.945
  0.970   1.001   1.035   1.046   1.077   1.084   1.101   1.132
  1.190   1.203   1.272   1.275   1.289   1.345   1.359   1.365
  1.372   1.451   1.476   1.481   1.488   1.526   1.554   1.582
  1.665   1.784   1.885   1.894   1.925   1.929   1.935   1.944
  1.954   2.000   2.036   2.058   2.130   2.199   2.259   2.282
  2.357   2.374   2.382   2.383   2.409   2.436   2.447   2.474
  2.536   2.539   2.597   2.618   2.629   2.730   2.730   2.774
  2.809   2.924   3.016   3.018   3.021   3.195   3.230   3.320
  3.454   3.553   3.762   3.864   4.141   4.324   4.367   4.510
  4.616   4.750   5.357
 --------------------------------------------------------------
 
          Ground-State Mulliken Net Atomic Charges

     Atom                 Charge (a.u.)    Spin (a.u.)
  --------------------------------------------------------
      1 C                    -0.128236       0.531992
      2 C                    -0.091185      -0.017494
      3 C                    -0.240316       0.026500
      4 C                    -0.087034       0.057941
      5 C                    -0.086417       0.529356
      6 N                    -0.222834      -0.165396
      7 H                     0.140599      -0.027010
      8 H                     0.185556       0.000121
      9 H                     0.184566      -0.000719
     10 H                     0.138074      -0.004883
     11 H                     0.138617      -0.026311
     12 C                    -0.068942       0.102983
     13 H                     0.137552      -0.007080
  --------------------------------------------------------
  Sum of atomic charges =    -0.000000
  Sum of spin   charges =     1.000000

 -----------------------------------------------------------------
                    Cartesian Multipole Moments
 -----------------------------------------------------------------
    Charge (ESU x 10^10)
                -0.0000
    Dipole Moment (Debye)
         X      -1.9772      Y      -0.6017      Z       0.5627
       Tot       2.1419
    Quadrupole Moments (Debye-Ang)
        XX     -44.6403     XY      -6.2759     YY     -37.0672
        XZ       1.3902     YZ      -5.3497     ZZ     -41.6425
    Octopole Moments (Debye-Ang^2)
       XXX     -27.6401    XXY      -9.1242    XYY      -0.1572
       YYY     -20.8440    XXZ       5.3541    XYZ      -1.1361
       YYZ       2.6051    XZZ      -6.5832    YZZ       0.4315
       ZZZ       2.7454
    Hexadecapole Moments (Debye-Ang^3)
      XXXX    -248.6632   XXXY      44.1699   XXYY    -167.4176
      XYYY       7.8593   YYYY    -653.0751   XXXZ      35.0745
      XXYZ     -42.7665   XYYZ      11.5474   YYYZ    -142.0407
      XXZZ     -86.3151   XYZZ      29.9236   YYZZ    -196.4856
      XZZZ      39.8549   YZZZ    -126.6086   ZZZZ    -263.1233
 -----------------------------------------------------------------
 Calculating analytic gradient of the SCF energy
 Gradient of SCF Energy
            1           2           3           4           5           6
    1   0.0000974  -0.0010386   0.0009865  -0.0006207  -0.0004408   0.0008924
    2  -0.0009671   0.0026558  -0.0015708  -0.0001874  -0.0003350   0.0008097
    3  -0.0006515  -0.0008721   0.0015830  -0.0001875  -0.0003975  -0.0005058
            7           8           9          10          11          12
    1   0.0008235  -0.0000966  -0.0000769   0.0008084  -0.0000264  -0.0016321
    2  -0.0014603   0.0001975   0.0007174  -0.0003443   0.0000391   0.0000559
    3   0.0005635   0.0003041   0.0001398   0.0001663   0.0001478  -0.0002201
           13
    1   0.0003241
    2   0.0003895
    3  -0.0000701
 Max gradient component =       2.656E-03
 RMS gradient           =       8.235E-04
 Gradient time:  CPU 14.69 s  wall 4.94 s
 Geometry Optimization Parameters
   NAtoms,    NIC,     NZ,  NCons,   NDum,   NFix, NCnnct, MaxDiis
       13     211       0       0       0       0       0       0

 Cartesian Hessian Update
 Hessian Updated using BFGS Update


** GEOMETRY OPTIMIZATION IN DELOCALIZED INTERNAL COORDINATES **
   Searching for a Minimum

   Optimization Cycle:   3

                       Coordinates (Angstroms)
     ATOM                X               Y               Z
      1  C         0.6572157251    0.2899975407    0.9211890821
      2  C         0.3631062475   -1.8235136349   -1.4646855507
      3  C         0.7961421122   -2.8268917270   -0.9469708654
      4  C        -1.1972535623    1.4322651920    0.3568244559
      5  C         0.0319618907    2.0124348757   -0.1727058679
      6  N         1.1300623076    1.3109061979    0.1784103639
      7  H         1.3246949598   -0.4573187238    1.3403878340
      8  H        -0.0090443161   -0.9279687964   -1.9082316797
      9  H         1.1825191150   -3.7085089974   -0.4893234117
     10  H        -2.1981154948    1.8146899855    0.2151157229
     11  H         0.1156813365    2.9102632132   -0.7765719674
     12  C        -0.8003323490    0.3321527228    1.0605784114
     13  H        -1.4083365379   -0.3746954640    1.6079534634
   Point Group: c1    Number of degrees of freedom:    33


   Energy is   -286.863691196

 Hessian Updated using BFGS Update

 33 Hessian modes will be used to form the next step
  Hessian Eigenvalues:
     0.001049    0.004643    0.020573    0.024500    0.027646    0.027890
     0.030475    0.034650    0.038917    0.040302    0.047616    0.051386
     0.055155    0.066097    0.081937    0.088867    0.102309    0.104539
     0.159033    0.160076    0.183658    0.215846    0.268903    0.314858
     0.336474    0.349896    0.353581    0.356852    0.370785    0.376291
     0.437373    0.473993    1.134762

 Minimum Search - Taking Simple RFO Step
 Searching for Lamda that Minimizes Along All modes
 Value Taken    Lamda =  -0.00058820
 Calculated Step too Large.  Step scaled by  0.512715
 Step Taken.  Stepsize is  0.300000

                             Maximum     Tolerance    Cnvgd?
         Gradient           0.001785      0.000300      NO
         Displacement       0.184336      0.001200      NO
         Energy change     -0.000329      0.000001      NO


 New Cartesian Coordinates Obtained by Inverse Iteration

 Displacement from previous Coordinates is:  0.223644
 ----------------------------------------------------------------
             Standard Nuclear Orientation (Angstroms)
    I     Atom           X                Y                Z
 ----------------------------------------------------------------
    1      C       0.6529969414     0.3095386838     0.9346266377
    2      C       0.3743958264    -1.8608402027    -1.4849905209
    3      C       0.8055339718    -2.8670576633    -0.9711070467
    4      C      -1.2021067944     1.4466799739     0.3627783164
    5      C       0.0273080379     2.0264961642    -0.1671383701
    6      N       1.1258066773     1.3286439074     0.1885450894
    7      H       1.3216829627    -0.4325767411     1.3618752647
    8      H       0.0032093386    -0.9651171253    -1.9284623522
    9      H       1.1886105143    -3.7545783332    -0.5224196906
   10      H      -2.2029625947     1.8278999138     0.2187155271
   11      H       0.1104824095     2.9245256730    -0.7707839836
   12      C      -0.8050280607     0.3507234382     1.0722084184
   13      H      -1.4116277958    -0.3505253042     1.6281227014
 ----------------------------------------------------------------
 Nuclear Repulsion Energy =   239.0211242728 hartrees
 There are       25 alpha and       24 beta electrons
 Applying Cartesian multipole field
    Component          Value
    ---------          -----
     (2,0,0)        1.00000E-11
     (0,2,0)        2.00000E-11
     (0,0,2)       -3.00000E-11
 Nucleus-field energy     =     0.0000000075 hartrees
 Requested basis set is 6-31+G(d,p)
 There are 53 shells and 163 basis functions
 A cutoff of  1.0D-14 yielded   1332 shell pairs
 There are     13028 function pairs
 Smallest overlap matrix eigenvalue = 2.24E-05
 Guess MOs from SCF MO coefficient file
 Reading MOs from coefficient file
 Reading MOs from coefficient file
 An unrestricted hybrid HF-DFT SCF calculation will be
 performed using Pulay DIIS extrapolation
 Exchange:     0.2000 Hartree-Fock + 0.0800 Slater + 0.7200 B88
 Correlation:  0.1900 VWN1RPA + 0.8100 LYP
 Using SG-1 standard quadrature grid
 SCF converges when DIIS error is below 1.0E-08
 Geometry optimization detected.  Setting ReadMinima to 0
 Setting SaveMinima to 0
Using Q-Chem read-in guess as SCF_GUESS READ specified.

 using 4 threads for integral computing
 -------------------------------------------------------
 OpenMP Integral computing Module                
 Release: version 1.0, May 2013, Q-Chem Inc. Pittsburgh 
 -------------------------------------------------------
 -------------------------------------------------------
 OpenMP BLAS3 based DFT computing Module                
 Release: version 1.0, May 2013, Q-Chem Inc. Pittsburgh 
 -------------------------------------------------------
 ---------------------------------------
  Cycle       Energy         DIIS Error
 ---------------------------------------
    1    -286.8634014911      1.82E-04
    2    -286.8639529458      2.54E-05
    3    -286.8639505093      4.01E-05
    4    -286.8639563900      7.82E-06
    5    -286.8639566068      2.91E-06
    6    -286.8639566451      1.74E-06
    7    -286.8639566645      7.76E-07
    8    -286.8639566717      2.24E-07
    9    -286.8639566763      2.42E-07
   10    -286.8639566794      1.04E-07
   11    -286.8639566803      7.24E-08
   12    -286.8639566805      2.08E-08
   13    -286.8639566805      7.61E-09 Convergence criterion met
 ---------------------------------------
 <S^2> = 0.7649
 SCF time:  CPU 59.92 s  wall 28.64 s
 SCF   energy in the final basis set = -286.86395668
 Total energy in the final basis set = -286.86395668
 
 --------------------------------------------------------------
 
                    Orbital Energies (a.u.)
 --------------------------------------------------------------
 
 Alpha MOs
 -- Occupied --
-14.330 -10.251 -10.250 -10.211 -10.209 -10.208 -10.205  -0.968
 -0.780  -0.758  -0.731  -0.579  -0.575  -0.572  -0.528  -0.502
 -0.426  -0.420  -0.414  -0.400  -0.299  -0.297  -0.280  -0.263
 -0.249
 -- Virtual --
  0.004   0.010   0.014   0.017   0.019   0.024   0.029   0.038
  0.039   0.049   0.063   0.067   0.071   0.080   0.102   0.107
  0.113   0.119   0.122   0.140   0.142   0.155   0.162   0.169
  0.179   0.191   0.193   0.198   0.203   0.207   0.223   0.237
  0.245   0.253   0.264   0.268   0.280   0.299   0.308   0.323
  0.410   0.433   0.493   0.542   0.630   0.655   0.663   0.673
  0.689   0.696   0.715   0.725   0.735   0.743   0.761   0.780
  0.810   0.841   0.872   0.877   0.892   0.911   0.942   0.966
  1.006   1.032   1.045   1.069   1.079   1.097   1.128   1.183
  1.198   1.259   1.270   1.282   1.327   1.348   1.365   1.370
  1.434   1.468   1.478   1.481   1.523   1.552   1.578   1.661
  1.763   1.879   1.890   1.926   1.929   1.933   1.942   1.949
  1.991   2.030   2.044   2.123   2.191   2.246   2.257   2.354
  2.374   2.378   2.382   2.408   2.428   2.435   2.464   2.520
  2.531   2.595   2.612   2.617   2.722   2.724   2.773   2.804
  2.921   3.016   3.017   3.019   3.192   3.229   3.317   3.452
  3.547   3.758   3.863   4.141   4.308   4.361   4.493   4.614
  4.743   5.357
 
 Beta MOs
 -- Occupied --
-14.333 -10.243 -10.243 -10.210 -10.209 -10.207 -10.205  -0.962
 -0.777  -0.758  -0.710  -0.575  -0.573  -0.561  -0.526  -0.502
 -0.422  -0.411  -0.394  -0.390  -0.297  -0.296  -0.281  -0.260
 -- Virtual --
 -0.147   0.004   0.011   0.014   0.017   0.029   0.034   0.038
  0.046   0.047   0.051   0.064   0.069   0.073   0.082   0.104
  0.107   0.114   0.121   0.125   0.142   0.144   0.156   0.164
  0.173   0.180   0.191   0.194   0.200   0.204   0.209   0.227
  0.238   0.251   0.258   0.267   0.270   0.281   0.301   0.312
  0.326   0.414   0.438   0.501   0.543   0.647   0.659   0.668
  0.678   0.700   0.705   0.719   0.736   0.739   0.747   0.765
  0.785   0.818   0.843   0.875   0.880   0.894   0.915   0.943
  0.970   1.001   1.034   1.046   1.076   1.081   1.099   1.131
  1.189   1.202   1.272   1.274   1.287   1.345   1.358   1.365
  1.371   1.452   1.477   1.481   1.487   1.524   1.553   1.579
  1.664   1.783   1.885   1.894   1.927   1.930   1.934   1.944
  1.950   1.999   2.035   2.056   2.129   2.198   2.258   2.280
  2.355   2.374   2.382   2.382   2.409   2.436   2.446   2.473
  2.535   2.540   2.596   2.617   2.629   2.729   2.730   2.773
  2.808   2.923   3.016   3.018   3.020   3.194   3.229   3.320
  3.453   3.551   3.762   3.864   4.139   4.322   4.365   4.510
  4.615   4.750   5.357
 --------------------------------------------------------------
 
          Ground-State Mulliken Net Atomic Charges

     Atom                 Charge (a.u.)    Spin (a.u.)
  --------------------------------------------------------
      1 C                    -0.127980       0.534185
      2 C                    -0.092357      -0.016705
      3 C                    -0.242622       0.024040
      4 C                    -0.087049       0.060722
      5 C                    -0.086625       0.529036
      6 N                    -0.223108      -0.165577
      7 H                     0.140649      -0.027057
      8 H                     0.185523       0.000017
      9 H                     0.184529      -0.000614
     10 H                     0.138140      -0.004993
     11 H                     0.138666      -0.026330
     12 C                    -0.065382       0.100238
     13 H                     0.137616      -0.006962
  --------------------------------------------------------
  Sum of atomic charges =     0.000000
  Sum of spin   charges =     1.000000

 -----------------------------------------------------------------
                    Cartesian Multipole Moments
 -----------------------------------------------------------------
    Charge (ESU x 10^10)
                 0.0000
    Dipole Moment (Debye)
         X      -1.9857      Y      -0.5817      Z       0.5670
       Tot       2.1454
    Quadrupole Moments (Debye-Ang)
        XX     -44.6288     XY      -6.3097     YY     -37.0432
        XZ       1.3595     YZ      -5.3170     ZZ     -41.5827
    Octopole Moments (Debye-Ang^2)
       XXX     -27.6577    XXY      -9.0864    XYY      -0.1170
       YYY     -21.5087    XXZ       5.3678    XYZ      -1.1132
       YYZ       2.4159    XZZ      -6.6129    YZZ       0.5045
       ZZZ       2.9458
    Hexadecapole Moments (Debye-Ang^3)
      XXXX    -249.5456   XXXY      46.3090   XXYY    -170.8069
      XYYY       7.9320   YYYY    -666.8109   XXXZ      36.1784
      XXYZ     -44.5881   XYYZ      11.6036   YYYZ    -147.1125
      XXZZ     -87.4928   XYZZ      30.8464   YYZZ    -201.7028
      XZZZ      41.1232   YZZZ    -132.5578   ZZZZ    -269.2797
 -----------------------------------------------------------------
 Calculating analytic gradient of the SCF energy
 Gradient of SCF Energy
            1           2           3           4           5           6
    1   0.0000989  -0.0011211   0.0011100  -0.0005322  -0.0004032   0.0009421
    2  -0.0011048   0.0028023  -0.0017546  -0.0002846  -0.0006108   0.0012169
    3  -0.0007831  -0.0010365   0.0017434  -0.0001264  -0.0003952  -0.0005322
            7           8           9          10          11          12
    1   0.0009330  -0.0000683  -0.0001497   0.0008869  -0.0000399  -0.0020886
    2  -0.0013833  -0.0000591   0.0006610  -0.0003839   0.0001296   0.0002097
    3   0.0008244   0.0002279  -0.0000735   0.0001708   0.0002949  -0.0004560
           13
    1   0.0004321
    2   0.0005616
    3   0.0001415
 Max gradient component =       2.802E-03
 RMS gradient           =       9.240E-04
 Gradient time:  CPU 14.55 s  wall 3.82 s
 Geometry Optimization Parameters
   NAtoms,    NIC,     NZ,  NCons,   NDum,   NFix, NCnnct, MaxDiis
       13     211       0       0       0       0       0       0

 Cartesian Hessian Update
 Hessian Updated using BFGS Update


** GEOMETRY OPTIMIZATION IN DELOCALIZED INTERNAL COORDINATES **
   Searching for a Minimum

   Optimization Cycle:   4

                       Coordinates (Angstroms)
     ATOM                X               Y               Z
      1  C         0.6529969414    0.3095386838    0.9346266377
      2  C         0.3743958264   -1.8608402027   -1.4849905209
      3  C         0.8055339718   -2.8670576633   -0.9711070467
      4  C        -1.2021067944    1.4466799739    0.3627783164
      5  C         0.0273080379    2.0264961642   -0.1671383701
      6  N         1.1258066773    1.3286439074    0.1885450894
      7  H         1.3216829627   -0.4325767411    1.3618752647
      8  H         0.0032093386   -0.9651171253   -1.9284623522
      9  H         1.1886105143   -3.7545783332   -0.5224196906
     10  H        -2.2029625947    1.8278999138    0.2187155271
     11  H         0.1104824095    2.9245256730   -0.7707839836
     12  C        -0.8050280607    0.3507234382    1.0722084184
     13  H        -1.4116277958   -0.3505253042    1.6281227014
   Point Group: c1    Number of degrees of freedom:    33


   Energy is   -286.863956681

 Hessian Updated using BFGS Update

 33 Hessian modes will be used to form the next step
  Hessian Eigenvalues:
     0.000744    0.004652    0.020573    0.024491    0.027655    0.027907
     0.030642    0.034587    0.039051    0.040545    0.047628    0.051502
     0.055163    0.066082    0.081941    0.086936    0.102231    0.104514
     0.159007    0.160072    0.183933    0.215903    0.268881    0.314736
     0.336456    0.349780    0.353581    0.356848    0.370575    0.376367
     0.435210    0.470646    1.118154

 Minimum Search - Taking Simple RFO Step
 Searching for Lamda that Minimizes Along All modes
 Value Taken    Lamda =  -0.00051791
 Calculated Step too Large.  Step scaled by  0.483373
 Step Taken.  Stepsize is  0.300000

                             Maximum     Tolerance    Cnvgd?
         Gradient           0.001931      0.000300      NO
         Displacement       0.182821      0.001200      NO
         Energy change     -0.000265      0.000001      NO


 New Cartesian Coordinates Obtained by Inverse Iteration

 Displacement from previous Coordinates is:  0.223557
 ----------------------------------------------------------------
             Standard Nuclear Orientation (Angstroms)
    I     Atom           X                Y                Z
 ----------------------------------------------------------------
    1      C       0.6487869701     0.3299149800     0.9483161580
    2      C       0.3862230943    -1.8984565020    -1.5046196830
    3      C       0.8144337228    -2.9078615999    -0.9951605885
    4      C      -1.2068654359     1.4618200956     0.3699496143
    5      C       0.0225669775     2.0414998427    -0.1609670562
    6      N       1.1211150670     1.3465209668     0.1987370154
    7      H       1.3186243467    -0.4067421848     1.3821346092
    8      H       0.0166658678    -1.0017945186    -1.9477379014
    9      H       1.1935788233    -3.8016582982    -0.5553175903
   10      H      -2.2082740581     1.8414498991     0.2233895159
   11      H       0.1051367066     2.9384934537    -0.7662794213
   12      C      -0.8088966876     0.3690908678     1.0839599962
   13      H      -1.4147939602    -0.3284646178     1.6455653227
 ----------------------------------------------------------------
 Nuclear Repulsion Energy =   238.0460556815 hartrees
 There are       25 alpha and       24 beta electrons
 Applying Cartesian multipole field
    Component          Value
    ---------          -----
     (2,0,0)        1.00000E-11
     (0,2,0)        2.00000E-11
     (0,0,2)       -3.00000E-11
 Nucleus-field energy     =     0.0000000077 hartrees
 Requested basis set is 6-31+G(d,p)
 There are 53 shells and 163 basis functions
 A cutoff of  1.0D-14 yielded   1327 shell pairs
 There are     12998 function pairs
 Smallest overlap matrix eigenvalue = 2.26E-05
 Guess MOs from SCF MO coefficient file
 Reading MOs from coefficient file
 Reading MOs from coefficient file
 An unrestricted hybrid HF-DFT SCF calculation will be
 performed using Pulay DIIS extrapolation
 Exchange:     0.2000 Hartree-Fock + 0.0800 Slater + 0.7200 B88
 Correlation:  0.1900 VWN1RPA + 0.8100 LYP
 Using SG-1 standard quadrature grid
 SCF converges when DIIS error is below 1.0E-08
 Geometry optimization detected.  Setting ReadMinima to 0
 Setting SaveMinima to 0
Using Q-Chem read-in guess as SCF_GUESS READ specified.

 using 4 threads for integral computing
 -------------------------------------------------------
 OpenMP Integral computing Module                
 Release: version 1.0, May 2013, Q-Chem Inc. Pittsburgh 
 -------------------------------------------------------
 -------------------------------------------------------
 OpenMP BLAS3 based DFT computing Module                
 Release: version 1.0, May 2013, Q-Chem Inc. Pittsburgh 
 -------------------------------------------------------
 ---------------------------------------
  Cycle       Energy         DIIS Error
 ---------------------------------------
    1    -286.8639709407      1.78E-04
    2    -286.8641756168      2.00E-05
    3    -286.8641753842      2.74E-05
    4    -286.8641779134      8.07E-06
    5    -286.8641781338      2.66E-06
    6    -286.8641781680      1.56E-06
    7    -286.8641781852      6.49E-07
    8    -286.8641781918      1.66E-07
    9    -286.8641781968      2.28E-07
   10    -286.8641781995      8.36E-08
   11    -286.8641782003      6.61E-08
   12    -286.8641782005      1.47E-08
   13    -286.8641782005      6.40E-09 Convergence criterion met
 ---------------------------------------
 <S^2> = 0.7649
 SCF time:  CPU 59.55 s  wall 32.10 s
 SCF   energy in the final basis set = -286.86417820
 Total energy in the final basis set = -286.86417820
 
 --------------------------------------------------------------
 
                    Orbital Energies (a.u.)
 --------------------------------------------------------------
 
 Alpha MOs
 -- Occupied --
-14.330 -10.251 -10.250 -10.211 -10.210 -10.207 -10.205  -0.969
 -0.780  -0.758  -0.731  -0.579  -0.575  -0.572  -0.528  -0.502
 -0.426  -0.420  -0.414  -0.400  -0.298  -0.297  -0.280  -0.263
 -0.250
 -- Virtual --
  0.004   0.010   0.014   0.017   0.019   0.024   0.029   0.037
  0.039   0.049   0.062   0.067   0.070   0.080   0.101   0.106
  0.113   0.118   0.121   0.140   0.142   0.155   0.161   0.169
  0.177   0.190   0.193   0.198   0.203   0.207   0.222   0.237
  0.245   0.253   0.263   0.268   0.280   0.299   0.307   0.322
  0.409   0.433   0.493   0.542   0.632   0.656   0.664   0.672
  0.688   0.696   0.714   0.726   0.734   0.742   0.758   0.779
  0.806   0.840   0.871   0.878   0.891   0.910   0.940   0.966
  1.006   1.030   1.043   1.066   1.080   1.095   1.128   1.182
  1.197   1.258   1.269   1.280   1.326   1.347   1.365   1.370
  1.434   1.469   1.479   1.481   1.519   1.551   1.575   1.661
  1.763   1.878   1.890   1.928   1.929   1.933   1.941   1.947
  1.989   2.029   2.042   2.123   2.190   2.245   2.255   2.351
  2.374   2.377   2.382   2.408   2.428   2.435   2.463   2.519
  2.531   2.595   2.612   2.617   2.721   2.724   2.773   2.803
  2.920   3.017   3.017   3.019   3.192   3.228   3.317   3.451
  3.547   3.758   3.863   4.139   4.306   4.360   4.493   4.613
  4.742   5.356
 
 Beta MOs
 -- Occupied --
-14.333 -10.244 -10.243 -10.210 -10.209 -10.207 -10.205  -0.962
 -0.777  -0.758  -0.710  -0.575  -0.573  -0.562  -0.526  -0.502
 -0.422  -0.412  -0.394  -0.391  -0.297  -0.296  -0.281  -0.260
 -- Virtual --
 -0.148   0.005   0.011   0.014   0.017   0.029   0.034   0.037
  0.046   0.047   0.050   0.064   0.068   0.073   0.082   0.103
  0.106   0.114   0.121   0.125   0.142   0.144   0.156   0.163
  0.172   0.179   0.191   0.193   0.200   0.204   0.209   0.226
  0.238   0.251   0.257   0.266   0.270   0.281   0.301   0.312
  0.324   0.413   0.437   0.501   0.542   0.649   0.661   0.669
  0.678   0.701   0.705   0.718   0.735   0.738   0.746   0.762
  0.784   0.814   0.842   0.874   0.880   0.893   0.913   0.941
  0.969   1.001   1.032   1.044   1.074   1.081   1.098   1.131
  1.188   1.201   1.272   1.273   1.285   1.344   1.358   1.365
  1.371   1.452   1.478   1.481   1.486   1.520   1.551   1.575
  1.663   1.783   1.884   1.893   1.928   1.930   1.933   1.943
  1.947   1.998   2.035   2.055   2.129   2.197   2.257   2.279
  2.352   2.374   2.381   2.382   2.409   2.436   2.445   2.471
  2.534   2.540   2.596   2.616   2.629   2.728   2.730   2.773
  2.807   2.923   3.017   3.018   3.021   3.194   3.228   3.319
  3.451   3.550   3.761   3.863   4.137   4.320   4.364   4.509
  4.614   4.750   5.356
 --------------------------------------------------------------
 
          Ground-State Mulliken Net Atomic Charges

     Atom                 Charge (a.u.)    Spin (a.u.)
  --------------------------------------------------------
      1 C                    -0.128460       0.535411
      2 C                    -0.093812      -0.015968
      3 C                    -0.244549       0.021845
      4 C                    -0.087720       0.063702
      5 C                    -0.086344       0.529032
      6 N                    -0.223334      -0.165570
      7 H                     0.140630      -0.027054
      8 H                     0.185575      -0.000061
      9 H                     0.184550      -0.000523
     10 H                     0.138252      -0.005114
     11 H                     0.138735      -0.026352
     12 C                    -0.061241       0.097496
     13 H                     0.137717      -0.006844
  --------------------------------------------------------
  Sum of atomic charges =     0.000000
  Sum of spin   charges =     1.000000

 -----------------------------------------------------------------
                    Cartesian Multipole Moments
 -----------------------------------------------------------------
    Charge (ESU x 10^10)
                -0.0000
    Dipole Moment (Debye)
         X      -1.9930      Y      -0.5637      Z       0.5669
       Tot       2.1474
    Quadrupole Moments (Debye-Ang)
        XX     -44.6184     XY      -6.3362     YY     -37.0124
        XZ       1.3302     YZ      -5.2865     ZZ     -41.5319
    Octopole Moments (Debye-Ang^2)
       XXX     -27.6786    XXY      -9.0503    XYY      -0.0919
       YYY     -22.2566    XXZ       5.3611    XYZ      -1.0824
       YYZ       2.1922    XZZ      -6.6187    YZZ       0.5740
       ZZZ       3.0762
    Hexadecapole Moments (Debye-Ang^3)
      XXXX    -250.3497   XXXY      48.5287   XXYY    -174.3402
      XYYY       8.0434   YYYY    -680.9554   XXXZ      37.3300
      XXYZ     -46.4595   XYYZ      11.6600   YYYZ    -152.2978
      XXZZ     -88.6886   XYZZ      31.7890   YYZZ    -207.0230
      XZZZ      42.4545   YZZZ    -138.6620   ZZZZ    -275.5432
 -----------------------------------------------------------------
 Calculating analytic gradient of the SCF energy
 Gradient of SCF Energy
            1           2           3           4           5           6
    1   0.0000884  -0.0008839   0.0009272  -0.0003253  -0.0002328   0.0006670
    2  -0.0010955   0.0022414  -0.0012244  -0.0002676  -0.0006846   0.0011063
    3  -0.0007889  -0.0008030   0.0015586  -0.0000775  -0.0004004  -0.0003720
            7           8           9          10          11          12
    1   0.0007569  -0.0001156  -0.0001494   0.0007037  -0.0000486  -0.0017742
    2  -0.0009872  -0.0001180   0.0004457  -0.0003035   0.0001990   0.0001021
    3   0.0008227   0.0000614  -0.0001957   0.0001217   0.0003553  -0.0006098
           13
    1   0.0003866
    2   0.0005865
    3   0.0003276
 Max gradient component =       2.241E-03
 RMS gradient           =       7.706E-04
 Gradient time:  CPU 14.84 s  wall 6.76 s
 Geometry Optimization Parameters
   NAtoms,    NIC,     NZ,  NCons,   NDum,   NFix, NCnnct, MaxDiis
       13     211       0       0       0       0       0       0

 Cartesian Hessian Update
 Hessian Updated using BFGS Update


** GEOMETRY OPTIMIZATION IN DELOCALIZED INTERNAL COORDINATES **
   Searching for a Minimum

   Optimization Cycle:   5

                       Coordinates (Angstroms)
     ATOM                X               Y               Z
      1  C         0.6487869701    0.3299149800    0.9483161580
      2  C         0.3862230943   -1.8984565020   -1.5046196830
      3  C         0.8144337228   -2.9078615999   -0.9951605885
      4  C        -1.2068654359    1.4618200956    0.3699496143
      5  C         0.0225669775    2.0414998427   -0.1609670562
      6  N         1.1211150670    1.3465209668    0.1987370154
      7  H         1.3186243467   -0.4067421848    1.3821346092
      8  H         0.0166658678   -1.0017945186   -1.9477379014
      9  H         1.1935788233   -3.8016582982   -0.5553175903
     10  H        -2.2082740581    1.8414498991    0.2233895159
     11  H         0.1051367066    2.9384934537   -0.7662794213
     12  C        -0.8088966876    0.3690908678    1.0839599962
     13  H        -1.4147939602   -0.3284646178    1.6455653227
   Point Group: c1    Number of degrees of freedom:    33


   Energy is   -286.864178200

 Hessian Updated using BFGS Update

 33 Hessian modes will be used to form the next step
  Hessian Eigenvalues:
     0.000608    0.004665    0.020573    0.024488    0.027648    0.027938
     0.030449    0.034458    0.038971    0.040704    0.047616    0.051344
     0.055183    0.066070    0.081941    0.085046    0.102125    0.104445
     0.159154    0.160077    0.184719    0.214651    0.268663    0.314248
     0.336427    0.349642    0.353582    0.356847    0.370398    0.376354
     0.428391    0.469147    1.101574

 Minimum Search - Taking Simple RFO Step
 Searching for Lamda that Minimizes Along All modes
 Value Taken    Lamda =  -0.00042511
 Calculated Step too Large.  Step scaled by  0.484265
 Step Taken.  Stepsize is  0.300000

                             Maximum     Tolerance    Cnvgd?
         Gradient           0.001506      0.000300      NO
         Displacement       0.180421      0.001200      NO
         Energy change     -0.000222      0.000001      NO


 New Cartesian Coordinates Obtained by Inverse Iteration

 Displacement from previous Coordinates is:  0.223050
 ----------------------------------------------------------------
             Standard Nuclear Orientation (Angstroms)
    I     Atom           X                Y                Z
 ----------------------------------------------------------------
    1      C       0.6448758273     0.3511209899     0.9621713540
    2      C       0.3985994254    -1.9360657702    -1.5236721685
    3      C       0.8226156220    -2.9492909180    -1.0190999274
    4      C      -1.2116532292     1.4774399275     0.3781205098
    5      C       0.0175751854     2.0573080612    -0.1541483640
    6      N       1.1163120538     1.3649532888     0.2089316324
    7      H       1.3159693975    -0.3803878721     1.4011880937
    8      H       0.0316806731    -1.0377583198    -1.9660578137
    9      H       1.1969139921    -3.8495146658    -0.5877398980
   10      H      -2.2139624560     1.8548178753     0.2289050973
   11      H       0.0993124184     2.9520707935    -0.7628823348
   12      C      -0.8121675249     0.3874864921     1.0958948574
   13      H      -1.4177699507    -0.3083674980     1.6603589524
 ----------------------------------------------------------------
 Nuclear Repulsion Energy =   237.1006288420 hartrees
 There are       25 alpha and       24 beta electrons
 Applying Cartesian multipole field
    Component          Value
    ---------          -----
     (2,0,0)        1.00000E-11
     (0,2,0)        2.00000E-11
     (0,0,2)       -3.00000E-11
 Nucleus-field energy     =     0.0000000079 hartrees
 Requested basis set is 6-31+G(d,p)
 There are 53 shells and 163 basis functions
 A cutoff of  1.0D-14 yielded   1323 shell pairs
 There are     12958 function pairs
 Smallest overlap matrix eigenvalue = 2.28E-05
 Guess MOs from SCF MO coefficient file
 Reading MOs from coefficient file
 Reading MOs from coefficient file
 An unrestricted hybrid HF-DFT SCF calculation will be
 performed using Pulay DIIS extrapolation
 Exchange:     0.2000 Hartree-Fock + 0.0800 Slater + 0.7200 B88
 Correlation:  0.1900 VWN1RPA + 0.8100 LYP
 Using SG-1 standard quadrature grid
 SCF converges when DIIS error is below 1.0E-08
 Geometry optimization detected.  Setting ReadMinima to 0
 Setting SaveMinima to 0
Using Q-Chem read-in guess as SCF_GUESS READ specified.

 using 4 threads for integral computing
 -------------------------------------------------------
 OpenMP Integral computing Module                
 Release: version 1.0, May 2013, Q-Chem Inc. Pittsburgh 
 -------------------------------------------------------
 -------------------------------------------------------
 OpenMP BLAS3 based DFT computing Module                
 Release: version 1.0, May 2013, Q-Chem Inc. Pittsburgh 
 -------------------------------------------------------
 ---------------------------------------
  Cycle       Energy         DIIS Error
 ---------------------------------------
    1    -286.8642334973      1.84E-04
    2    -286.8643568365      1.94E-05
    3    -286.8643568971      2.52E-05
    4    -286.8643589832      7.97E-06
    5    -286.8643591881      2.75E-06
    6    -286.8643592218      1.47E-06
    7    -286.8643592358      6.14E-07
    8    -286.8643592415      1.38E-07
    9    -286.8643592455      1.84E-07
   10    -286.8643592479      5.91E-08
   11    -286.8643592485      6.46E-08
   12    -286.8643592487      1.45E-08
   13    -286.8643592487      7.37E-09 Convergence criterion met
 ---------------------------------------
 <S^2> = 0.7648
 SCF time:  CPU 59.28 s  wall 33.07 s
 SCF   energy in the final basis set = -286.86435925
 Total energy in the final basis set = -286.86435925
 
 --------------------------------------------------------------
 
                    Orbital Energies (a.u.)
 --------------------------------------------------------------
 
 Alpha MOs
 -- Occupied --
-14.330 -10.251 -10.250 -10.211 -10.210 -10.207 -10.205  -0.969
 -0.780  -0.758  -0.731  -0.579  -0.575  -0.573  -0.528  -0.502
 -0.426  -0.420  -0.414  -0.400  -0.298  -0.297  -0.280  -0.264
 -0.250
 -- Virtual --
  0.004   0.011   0.014   0.017   0.019   0.024   0.029   0.037
  0.039   0.049   0.062   0.067   0.070   0.080   0.100   0.106
  0.112   0.118   0.120   0.140   0.142   0.155   0.161   0.169
  0.176   0.190   0.193   0.197   0.203   0.206   0.221   0.237
  0.245   0.253   0.263   0.268   0.280   0.299   0.307   0.321
  0.409   0.433   0.492   0.541   0.635   0.657   0.665   0.671
  0.687   0.695   0.713   0.726   0.732   0.742   0.755   0.779
  0.801   0.840   0.871   0.878   0.891   0.908   0.938   0.965
  1.006   1.029   1.041   1.064   1.080   1.094   1.127   1.182
  1.196   1.258   1.269   1.279   1.326   1.347   1.365   1.370
  1.434   1.469   1.478   1.482   1.515   1.550   1.572   1.660
  1.762   1.878   1.889   1.929   1.930   1.934   1.941   1.945
  1.989   2.029   2.041   2.123   2.189   2.245   2.254   2.349
  2.374   2.377   2.382   2.407   2.427   2.434   2.462   2.519
  2.530   2.594   2.611   2.617   2.721   2.724   2.772   2.802
  2.920   3.017   3.017   3.019   3.192   3.227   3.316   3.450
  3.546   3.758   3.862   4.137   4.304   4.358   4.493   4.613
  4.742   5.355
 
 Beta MOs
 -- Occupied --
-14.333 -10.244 -10.243 -10.210 -10.209 -10.207 -10.205  -0.963
 -0.777  -0.757  -0.711  -0.574  -0.573  -0.562  -0.526  -0.501
 -0.423  -0.412  -0.394  -0.391  -0.297  -0.296  -0.281  -0.260
 -- Virtual --
 -0.148   0.005   0.011   0.015   0.017   0.029   0.034   0.037
  0.046   0.047   0.050   0.064   0.068   0.073   0.082   0.102
  0.106   0.113   0.121   0.124   0.142   0.144   0.156   0.163
  0.172   0.177   0.190   0.193   0.199   0.204   0.208   0.225
  0.238   0.250   0.257   0.266   0.270   0.281   0.301   0.311
  0.323   0.413   0.437   0.501   0.542   0.650   0.662   0.669
  0.677   0.701   0.705   0.717   0.734   0.738   0.746   0.760
  0.783   0.810   0.842   0.874   0.881   0.893   0.912   0.939
  0.969   1.000   1.031   1.042   1.072   1.081   1.098   1.130
  1.188   1.201   1.272   1.272   1.283   1.344   1.358   1.365
  1.371   1.452   1.478   1.481   1.486   1.516   1.550   1.573
  1.663   1.783   1.884   1.893   1.929   1.930   1.934   1.942
  1.946   1.997   2.035   2.053   2.129   2.195   2.257   2.279
  2.350   2.374   2.381   2.382   2.408   2.435   2.445   2.470
  2.534   2.540   2.596   2.616   2.629   2.728   2.730   2.772
  2.807   2.922   3.017   3.018   3.021   3.194   3.227   3.319
  3.450   3.550   3.761   3.862   4.135   4.318   4.362   4.509
  4.613   4.749   5.355
 --------------------------------------------------------------
 
          Ground-State Mulliken Net Atomic Charges

     Atom                 Charge (a.u.)    Spin (a.u.)
  --------------------------------------------------------
      1 C                    -0.129351       0.536050
      2 C                    -0.095518      -0.015333
      3 C                    -0.246034       0.019945
      4 C                    -0.088520       0.066466
      5 C                    -0.085990       0.529236
      6 N                    -0.223456      -0.165495
      7 H                     0.140602      -0.027037
      8 H                     0.185642      -0.000102
      9 H                     0.184589      -0.000446
     10 H                     0.138382      -0.005228
     11 H                     0.138792      -0.026377
     12 C                    -0.056964       0.095058
     13 H                     0.137826      -0.006737
  --------------------------------------------------------
  Sum of atomic charges =    -0.000000
  Sum of spin   charges =     1.000000

 -----------------------------------------------------------------
                    Cartesian Multipole Moments
 -----------------------------------------------------------------
    Charge (ESU x 10^10)
                -0.0000
    Dipole Moment (Debye)
         X      -2.0002      Y      -0.5494      Z       0.5632
       Tot       2.1494
    Quadrupole Moments (Debye-Ang)
        XX     -44.6090     XY      -6.3569     YY     -36.9819
        XZ       1.3015     YZ      -5.2598     ZZ     -41.4923
    Octopole Moments (Debye-Ang^2)
       XXX     -27.7125    XXY      -9.0151    XYY      -0.0956
       YYY     -23.1067    XXZ       5.3381    XYZ      -1.0460
       YYZ       1.9456    XZZ      -6.6035    YZZ       0.6387
       ZZZ       3.1417
    Hexadecapole Moments (Debye-Ang^3)
      XXXX    -251.1124   XXXY      50.8068   XXYY    -178.0542
      XYYY       8.1948   YYYY    -695.5333   XXXZ      38.5208
      XXYZ     -48.3874   XYYZ      11.7257   YYYZ    -157.5994
      XXZZ     -89.9103   XYZZ      32.7384   YYZZ    -212.4513
      XZZZ      43.8274   YZZZ    -144.9207   ZZZZ    -281.9300
 -----------------------------------------------------------------
 Calculating analytic gradient of the SCF energy
 Gradient of SCF Energy
            1           2           3           4           5           6
    1   0.0000338  -0.0005560   0.0006587  -0.0001477  -0.0000356   0.0003509
    2  -0.0009344   0.0015045  -0.0005001  -0.0002204  -0.0006403   0.0007505
    3  -0.0007301  -0.0004424   0.0012805  -0.0000154  -0.0003485  -0.0001870
            7           8           9          10          11          12
    1   0.0004982  -0.0001840  -0.0001263   0.0004377  -0.0000445  -0.0011490
    2  -0.0005258  -0.0001168   0.0001932  -0.0001938   0.0002169  -0.0000650
    3   0.0006961  -0.0001340  -0.0002795   0.0000583   0.0003511  -0.0006782
           13
    1   0.0002638
    2   0.0005316
    3   0.0004290
 Max gradient component =       1.504E-03
 RMS gradient           =       5.490E-04
 Gradient time:  CPU 14.56 s  wall 5.10 s
 Geometry Optimization Parameters
   NAtoms,    NIC,     NZ,  NCons,   NDum,   NFix, NCnnct, MaxDiis
       13     211       0       0       0       0       0       0

 Cartesian Hessian Update
 Hessian Updated using BFGS Update


** GEOMETRY OPTIMIZATION IN DELOCALIZED INTERNAL COORDINATES **
   Searching for a Minimum

   Optimization Cycle:   6

                       Coordinates (Angstroms)
     ATOM                X               Y               Z
      1  C         0.6448758273    0.3511209899    0.9621713540
      2  C         0.3985994254   -1.9360657702   -1.5236721685
      3  C         0.8226156220   -2.9492909180   -1.0190999274
      4  C        -1.2116532292    1.4774399275    0.3781205098
      5  C         0.0175751854    2.0573080612   -0.1541483640
      6  N         1.1163120538    1.3649532888    0.2089316324
      7  H         1.3159693975   -0.3803878721    1.4011880937
      8  H         0.0316806731   -1.0377583198   -1.9660578137
      9  H         1.1969139921   -3.8495146658   -0.5877398980
     10  H        -2.2139624560    1.8548178753    0.2289050973
     11  H         0.0993124184    2.9520707935   -0.7628823348
     12  C        -0.8121675249    0.3874864921    1.0958948574
     13  H        -1.4177699507   -0.3083674980    1.6603589524
   Point Group: c1    Number of degrees of freedom:    33


   Energy is   -286.864359249

 Hessian Updated using BFGS Update

 33 Hessian modes will be used to form the next step
  Hessian Eigenvalues:
     0.000515    0.004677    0.020574    0.024496    0.027627    0.027956
     0.029884    0.034330    0.038715    0.040638    0.047588    0.050871
     0.055165    0.066056    0.081941    0.083301    0.102082    0.104408
     0.159398    0.160084    0.185585    0.214064    0.268576    0.313922
     0.336417    0.349695    0.353582    0.356847    0.370413    0.376306
     0.425511    0.470275    1.099328

 Minimum Search - Taking Simple RFO Step
 Searching for Lamda that Minimizes Along All modes
 Value Taken    Lamda =  -0.00033422
 Calculated Step too Large.  Step scaled by  0.495426
 Step Taken.  Stepsize is  0.300000

                             Maximum     Tolerance    Cnvgd?
         Gradient           0.000927      0.000300      NO
         Displacement       0.177658      0.001200      NO
         Energy change     -0.000181      0.000001      NO


 New Cartesian Coordinates Obtained by Inverse Iteration

 Displacement from previous Coordinates is:  0.222543
 ----------------------------------------------------------------
             Standard Nuclear Orientation (Angstroms)
    I     Atom           X                Y                Z
 ----------------------------------------------------------------
    1      C       0.6414025240     0.3729566156     0.9761124629
    2      C       0.4115597952    -1.9735260338    -1.5422851871
[...]
    8      H       0.7161983120    -1.4647571601    -1.2396735852
    9      H       2.1084632063    -4.2680575676    -2.4413933098
   10      H      -1.1600292547     3.3174347626     0.8530420576
   11      H      -0.3550072269     1.9534218310    -1.3897968711
   12      C      -0.8555465929     1.3524710595     1.8142601323
   13      H      -1.1012773648     1.4892955777     2.8587808794
 ----------------------------------------------------------------
 Nuclear Repulsion Energy =   228.3300513943 hartrees
 There are       25 alpha and       24 beta electrons
 Applying Cartesian multipole field
    Component          Value
    ---------          -----
     (2,0,0)        1.00000E-11
     (0,2,0)        2.00000E-11
     (0,0,2)       -3.00000E-11
 Nucleus-field energy     =     0.0000000054 hartrees
 Requested basis set is 6-31+G(d,p)
 There are 53 shells and 163 basis functions
 A cutoff of  1.0D-14 yielded   1250 shell pairs
 There are     12250 function pairs
 Smallest overlap matrix eigenvalue = 1.84E-05
 Guess MOs from SCF MO coefficient file
 Reading MOs from coefficient file
 Reading MOs from coefficient file
 An unrestricted hybrid HF-DFT SCF calculation will be
 performed using Pulay DIIS extrapolation
 Exchange:     0.2000 Hartree-Fock + 0.0800 Slater + 0.7200 B88
 Correlation:  0.1900 VWN1RPA + 0.8100 LYP
 Using SG-1 standard quadrature grid
 SCF converges when DIIS error is below 1.0E-08
 Geometry optimization detected.  Setting ReadMinima to 0
 Setting SaveMinima to 0
Using Q-Chem read-in guess as SCF_GUESS READ specified.

 using 4 threads for integral computing
 -------------------------------------------------------
 OpenMP Integral computing Module                
 Release: version 1.0, May 2013, Q-Chem Inc. Pittsburgh 
 -------------------------------------------------------
 -------------------------------------------------------
 OpenMP BLAS3 based DFT computing Module                
 Release: version 1.0, May 2013, Q-Chem Inc. Pittsburgh 
 -------------------------------------------------------
 ---------------------------------------
  Cycle       Energy         DIIS Error
 ---------------------------------------
    1    -286.8708274388      6.34E-05
    2    -286.8705383953      7.82E-06
    3    -286.8705379896      1.34E-05
    4    -286.8705386869      1.67E-06
    5    -286.8705386941      8.77E-07
    6    -286.8705386968      2.20E-07
    7    -286.8705386969      1.31E-07
    8    -286.8705386970      4.58E-08
    9    -286.8705386970      1.51E-08
   10    -286.8705386970      8.86E-09 Convergence criterion met
 ---------------------------------------
 <S^2> = 0.7647
 SCF time:  CPU 41.33 s  wall 22.65 s
 SCF   energy in the final basis set = -286.87053870
 Total energy in the final basis set = -286.87053870
 
 --------------------------------------------------------------
 
                    Orbital Energies (a.u.)
 --------------------------------------------------------------
 
 Alpha MOs
 -- Occupied --
-14.344 -10.262 -10.262 -10.221 -10.220 -10.184 -10.180  -0.981
 -0.790  -0.743  -0.735  -0.590  -0.583  -0.551  -0.537  -0.476
 -0.437  -0.431  -0.424  -0.411  -0.296  -0.276  -0.275  -0.273
 -0.262
 -- Virtual --
  0.005   0.007   0.016   0.019   0.027   0.029   0.031   0.033
  0.047   0.052   0.053   0.064   0.077   0.085   0.089   0.094
  0.113   0.117   0.125   0.141   0.147   0.158   0.170   0.176
  0.180   0.187   0.202   0.212   0.216   0.220   0.227   0.234
  0.242   0.251   0.258   0.279   0.280   0.298   0.330   0.360
  0.406   0.428   0.475   0.580   0.642   0.655   0.671   0.678
  0.680   0.692   0.695   0.708   0.724   0.755   0.763   0.766
  0.841   0.849   0.859   0.871   0.886   0.916   0.945   0.962
  0.990   1.001   1.037   1.081   1.117   1.155   1.184   1.190
  1.238   1.254   1.294   1.313   1.335   1.391   1.402   1.419
  1.429   1.461   1.475   1.550   1.558   1.560   1.602   1.711
  1.765   1.871   1.880   1.927   1.949   1.950   1.958   1.961
  1.975   2.010   2.026   2.117   2.172   2.228   2.244   2.366
  2.373   2.393   2.400   2.412   2.420   2.438   2.453   2.509
  2.523   2.586   2.603   2.627   2.712   2.719   2.795   2.831
  2.908   3.010   3.034   3.048   3.182   3.217   3.304   3.475
  3.536   3.750   3.881   4.122   4.293   4.351   4.530   4.628
  4.735   5.360
 
 Beta MOs
 -- Occupied --
-14.346 -10.255 -10.255 -10.219 -10.219 -10.184 -10.180  -0.974
 -0.787  -0.735  -0.722  -0.584  -0.572  -0.551  -0.535  -0.475
 -0.434  -0.421  -0.405  -0.401  -0.297  -0.275  -0.275  -0.270
 -- Virtual --
 -0.158   0.005   0.019   0.028   0.029   0.030   0.031   0.034
  0.039   0.047   0.053   0.059   0.065   0.078   0.085   0.094
  0.094   0.116   0.119   0.125   0.144   0.154   0.159   0.171
  0.178   0.181   0.189   0.203   0.214   0.216   0.224   0.226
  0.239   0.247   0.255   0.260   0.281   0.282   0.302   0.331
  0.361   0.409   0.433   0.484   0.580   0.647   0.673   0.681
  0.681   0.692   0.699   0.712   0.715   0.737   0.756   0.763
  0.767   0.844   0.851   0.864   0.873   0.888   0.916   0.946
  0.966   0.984   1.004   1.039   1.089   1.119   1.156   1.191
  1.194   1.254   1.260   1.294   1.331   1.347   1.391   1.402
  1.432   1.439   1.467   1.480   1.550   1.558   1.560   1.603
  1.719   1.780   1.877   1.884   1.929   1.949   1.950   1.958
  1.961   1.984   2.014   2.039   2.124   2.179   2.241   2.269
  2.370   2.374   2.394   2.400   2.413   2.432   2.445   2.460
  2.526   2.531   2.587   2.617   2.629   2.720   2.724   2.800
  2.831   2.910   3.012   3.034   3.048   3.184   3.217   3.306
  3.475   3.540   3.753   3.881   4.120   4.307   4.354   4.546
  4.629   4.742   5.360
 --------------------------------------------------------------
 
          Ground-State Mulliken Net Atomic Charges

     Atom                 Charge (a.u.)    Spin (a.u.)
  --------------------------------------------------------
      1 C                    -0.032981       0.528295
      2 C                    -0.071899       0.000156
      3 C                    -0.368431      -0.000021
      4 C                    -0.109800       0.079538
      5 C                    -0.056907       0.530789
      6 N                    -0.184201      -0.160082
      7 H                     0.147567      -0.026301
      8 H                     0.211007       0.001353
      9 H                     0.182609       0.000011
     10 H                     0.143127      -0.005844
     11 H                     0.144939      -0.026361
     12 C                    -0.147781       0.084332
     13 H                     0.142751      -0.005865
  --------------------------------------------------------
  Sum of atomic charges =    -0.000000
  Sum of spin   charges =     1.000000

 -----------------------------------------------------------------
                    Cartesian Multipole Moments
 -----------------------------------------------------------------
    Charge (ESU x 10^10)
                -0.0000
    Dipole Moment (Debye)
         X      -1.0462      Y       2.2730      Z       1.8735
       Tot       3.1259
    Quadrupole Moments (Debye-Ang)
        XX     -44.2717     XY      -2.9995     YY     -35.8404
        XZ      -1.4445     YZ      -1.0342     ZZ     -39.0687
    Octopole Moments (Debye-Ang^2)
       XXX      -2.1902    XXY      -1.6127    XYY       7.1440
       YYY       2.6699    XXZ       1.7610    XYZ       6.0019
       YYZ      -9.5114    XZZ      -3.9190    YZZ       3.9379
       ZZZ      23.5232
    Hexadecapole Moments (Debye-Ang^3)
      XXXX    -300.4452   XXXY     233.6880   XXYY    -188.8680
      XYYY     126.1030   YYYY    -887.9059   XXXZ     152.8354
      XXYZ     -71.1529   XYYZ      -7.7358   YYYZ    -183.5040
      XXZZ    -132.3325   XYZZ      49.3183   YYZZ    -221.3402
      XZZZ     136.0343   YZZZ    -264.2203   ZZZZ    -530.8207
 -----------------------------------------------------------------
 Calculating analytic gradient of the SCF energy
 Gradient of SCF Energy
            1           2           3           4           5           6
    1  -0.0000829   0.0000138  -0.0000318   0.0000151  -0.0001254  -0.0000465
    2  -0.0000285  -0.0001301   0.0001038  -0.0000694   0.0001865   0.0001025
    3   0.0001746   0.0000302  -0.0000052   0.0000789   0.0000903  -0.0000328
            7           8           9          10          11          12
    1   0.0000185   0.0000472   0.0000260   0.0000825   0.0000013   0.0000051
    2  -0.0000172   0.0000286  -0.0000429  -0.0000043   0.0000019  -0.0001059
    3  -0.0000135  -0.0000725   0.0000897  -0.0001187  -0.0001045  -0.0001011
           13
    1   0.0000771
    2  -0.0000252
    3  -0.0000154
 Max gradient component =       1.865E-04
 RMS gradient           =       7.705E-05
 Gradient time:  CPU 12.84 s  wall 3.95 s
 Geometry Optimization Parameters
   NAtoms,    NIC,     NZ,  NCons,   NDum,   NFix, NCnnct, MaxDiis
       13     211       0       0       0       0       0       0

 Cartesian Hessian Update
 Hessian Updated using BFGS Update


** GEOMETRY OPTIMIZATION IN CARTESIAN COORDINATES **
   Searching for a Minimum

   Optimization Cycle: 113

                       Coordinates (Angstroms)
     ATOM                X               Y               Z
      1  C        -0.4101573257    0.1106192957    1.1907191645
      2  C         1.1625996198   -2.3632126165   -1.6301248762
      3  C         1.6651870659   -3.3754631492   -2.0620569143
      4  C        -0.8848718718    2.2723611288    0.8055935627
      5  C        -0.4563340384    1.5500149109   -0.3876854335
      6  N        -0.1772904462    0.2561741376   -0.1299653836
      7  H        -0.2636326484   -0.8464898260    1.6802705683
      8  H         0.7161983120   -1.4647571601   -1.2396735852
      9  H         2.1084632063   -4.2680575676   -2.4413933098
     10  H        -1.1600292547    3.3174347626    0.8530420576
     11  H        -0.3550072269    1.9534218310   -1.3897968711
     12  C        -0.8555465929    1.3524710595    1.8142601323
     13  H        -1.1012773648    1.4892955777    2.8587808794
   Point Group: c1    Number of degrees of freedom:    33


   Energy is   -286.870538697


 Translations and Rotations Projected Out of Hessian

 33 Hessian modes will be used to form the next step
  Hessian Eigenvalues:
     0.000222    0.003293    0.004555    0.007199    0.016444    0.034155
     0.049305    0.056229    0.063613    0.110858    0.120930    0.137694
     0.170901    0.212379    0.262605    0.296234    0.355399    0.362763
     0.437787    0.494095    0.520784    0.601217    0.710502    0.785999
     0.861982    0.972005    1.073287    1.124366    1.194844    1.326505
     1.412042    1.494980    2.927961

 Minimum Search - Taking Simple RFO Step
 Searching for Lamda that Minimizes Along All modes
 Value Taken    Lamda =   0.00000000
 Step Taken.  Stepsize is  0.029356

                             Maximum     Tolerance    Cnvgd?
         Gradient           0.000187      0.000300     YES
         Displacement       0.009932      0.001200      NO
         Energy change     -0.000001      0.000001     YES


                       Distance Matrix (Angstroms)
             C (  1)   C (  2)   C (  3)   C (  4)   C (  5)   N (  6)
   C (  2)  4.068239
   C (  3)  5.200036  1.209880
   C (  4)  2.246509  5.622580  6.828187
   C (  5)  2.136669  4.413383  5.618248  1.459227
   N (  6)  1.348933  3.302570  4.507382  2.332585  1.348447
   H (  7)  1.084983  3.910665  4.911320  3.298216  3.171248  2.121386
   H (  8)  3.107619  1.076545  2.286415  4.551109  3.345081  2.234139
   H (  9)  6.221616  2.276236  1.066356  7.891771  6.681756  5.571000
   H ( 10)  3.310589  6.620459  7.827805  1.081731  2.271203  3.362052
   H ( 11)  3.171439  4.581945  5.738478  2.280837  1.085003  2.121181
   C ( 12)  1.459236  5.453715  6.613115  1.365454  2.246544  2.332790
   H ( 13)  2.271745  6.333817  7.452104  2.208076  3.310466  3.362580
             H (  7)   H (  8)   H (  9)   H ( 10)   H ( 11)   C ( 12)
   H (  8)  3.141400
   H (  9)  5.858505  3.352764
   H ( 10)  4.338906  5.546986  8.892471
   H ( 11)  4.156100  3.585243  6.773577  2.745709
   C ( 12)  2.281172  4.442259  7.647632  2.208559  3.298130
   H ( 13)  2.747076  5.369076  8.458215  2.714504  4.338519  1.081725

 
 Final energy is   -286.870538696993     


 ******************************
 **  OPTIMIZATION CONVERGED  **
 ******************************

                       Coordinates (Angstroms)
     ATOM                X               Y               Z
      1  C        -0.4101573257    0.1106192957    1.1907191645
      2  C         1.1625996198   -2.3632126165   -1.6301248762
      3  C         1.6651870659   -3.3754631492   -2.0620569143
      4  C        -0.8848718718    2.2723611288    0.8055935627
      5  C        -0.4563340384    1.5500149109   -0.3876854335
      6  N        -0.1772904462    0.2561741376   -0.1299653836
      7  H        -0.2636326484   -0.8464898260    1.6802705683
      8  H         0.7161983120   -1.4647571601   -1.2396735852
      9  H         2.1084632063   -4.2680575676   -2.4413933098
     10  H        -1.1600292547    3.3174347626    0.8530420576
     11  H        -0.3550072269    1.9534218310   -1.3897968711
     12  C        -0.8555465929    1.3524710595    1.8142601323
     13  H        -1.1012773648    1.4892955777    2.8587808794

Z-matrix Print:
$molecule
0 2
N 
C  1 1.348447
H  2 1.085003 1 120.926825
C  1 1.348933 2 104.769534 3 -179.985588 0
H  4 1.084983 1 120.905967 2 -179.926591 0
C  2 1.459227 1 112.299927 3 -179.981642 0
H  6 1.081731 2 126.072981 1 179.852157 0
C  6 1.365454 2 105.324010 1 -0.028926 0
H  8 1.081725 6 128.550621 2 179.831304 0
H  1 2.234139 2 136.628995 3 8.030845 0
C  10 1.076545 1 171.434039 2 164.267269 0
C  11 1.209880 10 179.650540 1 -3.479177 0
H  12 1.066356 11 179.921832 10 -5.931022 0
$end

 
 --------------------------------------------------------------
 
                    Orbital Energies (a.u.)
 --------------------------------------------------------------
 
 Alpha MOs
 -- Occupied --
-14.344 -10.262 -10.262 -10.221 -10.220 -10.184 -10.180  -0.981
 -0.790  -0.743  -0.735  -0.590  -0.583  -0.551  -0.537  -0.476
 -0.437  -0.431  -0.424  -0.411  -0.296  -0.276  -0.275  -0.273
 -0.262
 -- Virtual --
  0.005   0.007   0.016   0.019   0.027   0.029   0.031   0.033
  0.047   0.052   0.053   0.064   0.077   0.085   0.089   0.094
  0.113   0.117   0.125   0.141   0.147   0.158   0.170   0.176
  0.180   0.187   0.202   0.212   0.216   0.220   0.227   0.234
  0.242   0.251   0.258   0.279   0.280   0.298   0.330   0.360
  0.406   0.428   0.475   0.580   0.642   0.655   0.671   0.678
  0.680   0.692   0.695   0.708   0.724   0.755   0.763   0.766
  0.841   0.849   0.859   0.871   0.886   0.916   0.945   0.962
  0.990   1.001   1.037   1.081   1.117   1.155   1.184   1.190
  1.238   1.254   1.294   1.313   1.335   1.391   1.402   1.419
  1.429   1.461   1.475   1.550   1.558   1.560   1.602   1.711
  1.765   1.871   1.880   1.927   1.949   1.950   1.958   1.961
  1.975   2.010   2.026   2.117   2.172   2.228   2.244   2.366
  2.373   2.393   2.400   2.412   2.420   2.438   2.453   2.509
  2.523   2.586   2.603   2.627   2.712   2.719   2.795   2.831
  2.908   3.010   3.034   3.048   3.182   3.217   3.304   3.475
  3.536   3.750   3.881   4.122   4.293   4.351   4.530   4.628
  4.735   5.360
 
 Beta MOs
 -- Occupied --
-14.346 -10.255 -10.255 -10.219 -10.219 -10.184 -10.180  -0.974
 -0.787  -0.735  -0.722  -0.584  -0.572  -0.551  -0.535  -0.475
 -0.434  -0.421  -0.405  -0.401  -0.297  -0.275  -0.275  -0.270
 -- Virtual --
 -0.158   0.005   0.019   0.028   0.029   0.030   0.031   0.034
  0.039   0.047   0.053   0.059   0.065   0.078   0.085   0.094
  0.094   0.116   0.119   0.125   0.144   0.154   0.159   0.171
  0.178   0.181   0.189   0.203   0.214   0.216   0.224   0.226
  0.239   0.247   0.255   0.260   0.281   0.282   0.302   0.331
  0.361   0.409   0.433   0.484   0.580   0.647   0.673   0.681
  0.681   0.692   0.699   0.712   0.715   0.737   0.756   0.763
  0.767   0.844   0.851   0.864   0.873   0.888   0.916   0.946
  0.966   0.984   1.004   1.039   1.089   1.119   1.156   1.191
  1.194   1.254   1.260   1.294   1.331   1.347   1.391   1.402
  1.432   1.439   1.467   1.480   1.550   1.558   1.560   1.603
  1.719   1.780   1.877   1.884   1.929   1.949   1.950   1.958
  1.961   1.984   2.014   2.039   2.124   2.179   2.241   2.269
  2.370   2.374   2.394   2.400   2.413   2.432   2.445   2.460
  2.526   2.531   2.587   2.617   2.629   2.720   2.724   2.800
  2.831   2.910   3.012   3.034   3.048   3.184   3.217   3.306
  3.475   3.540   3.753   3.881   4.120   4.307   4.354   4.546
  4.629   4.742   5.360
 --------------------------------------------------------------
 
          Ground-State Mulliken Net Atomic Charges

     Atom                 Charge (a.u.)    Spin (a.u.)
  --------------------------------------------------------
      1 C                    -0.032981       0.528295
      2 C                    -0.071899       0.000156
      3 C                    -0.368431      -0.000021
      4 C                    -0.109800       0.079538
      5 C                    -0.056907       0.530789
      6 N                    -0.184201      -0.160082
      7 H                     0.147567      -0.026301
      8 H                     0.211007       0.001353
      9 H                     0.182609       0.000011
     10 H                     0.143127      -0.005844
     11 H                     0.144939      -0.026361
     12 C                    -0.147781       0.084332
     13 H                     0.142751      -0.005865
  --------------------------------------------------------
  Sum of atomic charges =    -0.000000
  Sum of spin   charges =     1.000000

 -----------------------------------------------------------------
                    Cartesian Multipole Moments
 -----------------------------------------------------------------
    Charge (ESU x 10^10)
                -0.0000
    Dipole Moment (Debye)
         X      -1.0462      Y       2.2730      Z       1.8735
       Tot       3.1259
    Quadrupole Moments (Debye-Ang)
        XX     -44.2717     XY      -2.9995     YY     -35.8404
        XZ      -1.4445     YZ      -1.0342     ZZ     -39.0687
    Octopole Moments (Debye-Ang^2)
       XXX      -2.1902    XXY      -1.6127    XYY       7.1440
       YYY       2.6699    XXZ       1.7610    XYZ       6.0019
       YYZ      -9.5114    XZZ      -3.9190    YZZ       3.9379
       ZZZ      23.5232
    Hexadecapole Moments (Debye-Ang^3)
      XXXX    -300.4452   XXXY     233.6880   XXYY    -188.8680
      XYYY     126.1030   YYYY    -887.9059   XXXZ     152.8354
      XXYZ     -71.1529   XYYZ      -7.7358   YYYZ    -183.5040
      XXZZ    -132.3325   XYZZ      49.3183   YYZZ    -221.3402
      XZZZ     136.0343   YZZZ    -264.2203   ZZZZ    -530.8207
 -----------------------------------------------------------------
Archival summary:
1\1\c8-89\OPT\ProcedureUnspecified\6-31+G**\166(2)\hpark21\TueMar114:33:412022TueMar114:33:412022\0\\#,OPT,ProcedureUnspecified,6-31+G**,\\0,2\N\C,1,1.34845\H,2,1.085,1,120.927\C,1,1.34893,2,104.77,3,-179.986,0\H,4,1.08498,1,120.906,2,-179.927,0\C,2,1.45923,1,112.3,3,-179.982,0\H,6,1.08173,2,126.073,1,179.852,0\C,6,1.36545,2,105.324,1,-0.0289255,0\H,8,1.08172,6,128.551,2,179.831,0\H,1,2.23414,2,136.629,3,8.03084,0\C,10,1.07654,1,171.434,2,164.267,0\C,11,1.20988,10,179.651,1,-3.47918,0\H,12,1.06636,11,179.922,10,-5.93102,0\\\@

 Total job time:  4771.97s(wall), 8075.15s(cpu) 
 Tue Mar  1 14:33:41 2022

        *************************************************************
        *                                                           *
        *  Thank you very much for using Q-Chem.  Have a nice day.  *
        *                                                           *
        *************************************************************


