
Running Job 1 of 1 qcts1.in
qchem qcts1.in_108111.0 ./qcts1.d/ 1
/home/leeping/opt/qchem/5.0.2-openmp/exe/qcprog.exe_s qcts1.in_108111.0 ./qcts1.d/
Check license passed

                  Welcome to Q-Chem
     A Quantum Leap Into The Future Of Chemistry


 Q-Chem 5.0, Q-Chem, Inc., Pleasanton, CA (2017)

 Yihan Shao,  Zhengting Gan,  E. Epifanovsky,  A. T. B. Gilbert,  M. Wormit,  
 J. Kussmann,  A. W. Lange,  A. Behn,  Jia Deng,  Xintian Feng,  D. Ghosh,  
 M. Goldey,  P. R. Horn,  L. D. Jacobson,  I. Kaliman,  T. Kus,  A. Landau,  
 Jie Liu,  E. I. Proynov,  R. M. Richard,  R. P. Steele,  E. J. Sundstrom,  
 H. L. Woodcock III,  P. M. Zimmerman,  D. Zuev,  B. Albrecht,  E. Alguire,  
 S. A. Baeppler,  D. Barton,  Z. Benda,  Y. A. Bernard,  E. J. Berquist,  
 K. B. Bravaya,  H. Burton,  D. Casanova,  Chun-Min Chang,  Yunqing Chen,  
 A. Chien,  K. D. Closser,  M. P. Coons,  S. Dasgupta,  A. L. Dempwolff,  
 M. Diedenhofen,  Hainam Do,  R. G. Edgar,  Po-Tung Fang,  S. Fatehi,  
 Qingguo Feng,  J. Fosso-Tande,  Qinghui Ge,  A. Ghysels,  G. Gidofalvi,  
 J. Gomes,  J. Gonthier,  A. Gunina,  M. W. D. Hanson-Heine,  
 P. H. P. Harbach,  A. W. Hauser,  J. E. Herr,  E. G. Hohenstein,  
 Z. C. Holden,  Kerwin Hui,  T.-C. Jagau,  Hyunjun Ji,  B. Kaduk,  
 K. Khistyaev,  Jaehoon Kim,  P. Klunzinger,  K. Koh,  D. Kosenkov,  
 L. Koulias,  T. Kowalczyk,  C. M. Krauter,  A. Kunitsa,  Ka Un Lao,  
 A. Laurent,  K. V. Lawler,  Joonho Lee,  D. Lefrancois,  S. Lehtola,  
 D. S. Levine,  Yi-Pei Li,  You-Sheng Lin,  Fenglai Liu,  E. Livshits,  
 A. Luenser,  P. Manohar,  E. Mansoor,  S. F. Manzer,  Shan-Ping Mao,  
 Yuezhi Mao,  N. Mardirossian,  A. V. Marenich,  T. Markovich,  
 L. A. Martinez-Martinez,  S. A. Maurer,  N. J. Mayhall,  S. C. McKenzie,  
 J.-M. Mewes,  A. F. Morrison,  J. W. Mullinax,  K. Nanda,  
 T. S. Nguyen-Beck,  R. Olivares-Amaya,  J. A. Parkhill,  T. M. Perrine,  
 F. Plasser,  S. Prager,  A. Prociuk,  E. Ramos,  D. R. Rehn,  F. Rob,  
 M. Schneider,  N. Sergueev,  S. M. Sharada,  S. Sharma,  D. W. Small,  
 T. Stauch,  T. Stein,  Yu-Chuan Su,  A. J. W. Thom,  A. Tkatchenko,  
 T. Tsuchimochi,  L. Vogt,  O. Vydrov,  M. A. Watson,  J. Wenzel,  
 M. de Wergifosse,  T. A. Wesolowski,  A. White,  J. Witte,  A. Yamada,  
 Jun Yang,  K. Yao,  S. Yeganeh,  S. R. Yost,  Zhi-Qiang You,  A. Zech,  
 Igor Ying Zhang,  Xing Zhang,  Yan Zhao,  Ying Zhu,  B. R. Brooks,  
 G. K. L. Chan,  C. J. Cramer,  M. S. Gordon,  W. J. Hehre,  A. Klamt,  
 M. W. Schmidt,  C. D. Sherrill,  D. G. Truhlar,  A. Aspuru-Guzik,  R. Baer,  
 A. T. Bell,  N. A. Besley,  Jeng-Da Chai,  R. A. DiStasio Jr.,  A. Dreuw,  
 B. D. Dunietz,  T. R. Furlani,  Chao-Ping Hsu,  Yousung Jung,  Jing Kong,  
 D. S. Lambrecht,  WanZhen Liang,  C. Ochsenfeld,  V. A. Rassolov,  
 L. V. Slipchenko,  J. E. Subotnik,  T. Van Voorhis,  J. M. Herbert,  
 A. I. Krylov,  P. M. W. Gill,  M. Head-Gordon

 Contributors to earlier versions of Q-Chem not listed above: 
 R. D. Adamson,  B. Austin,  J. Baker,  G. J. O. Beran,  K. Brandhorst,  
 S. T. Brown,  E. F. C. Byrd,  A. K. Chakraborty,  C.-L. Cheng,  
 Siu Hung Chien,  D. M. Chipman,  D. L. Crittenden,  H. Dachsel,  
 R. J. Doerksen,  A. D. Dutoi,  L. Fusti-Molnar,  W. A. Goddard III,  
 A. Golubeva-Zadorozhnaya,  S. R. Gwaltney,  G. Hawkins,  A. Heyden,  
 S. Hirata,  G. Kedziora,  F. J. Keil,  C. Kelley,  Jihan Kim,  R. A. King,  
 R. Z. Khaliullin,  P. P. Korambath,  W. Kurlancheek,  A. M. Lee,  M. S. Lee,  
 S. V. Levchenko,  Ching Yeh Lin,  D. Liotard,  R. C. Lochan,  I. Lotan,  
 P. E. Maslen,  N. Nair,  D. P. O'Neill,  D. Neuhauser,  E. Neuscamman,  
 C. M. Oana,  R. Olson,  B. Peters,  R. Peverati,  P. A. Pieniazek,  
 Y. M. Rhee,  J. Ritchie,  M. A. Rohrdanz,  E. Rosta,  N. J. Russ,  
 H. F. Schaefer III,  N. E. Schultz,  N. Shenvi,  A. C. Simmonett,  A. Sodt,  
 D. Stuck,  K. S. Thanthiriwatte,  V. Vanovschi,  Tao Wang,  A. Warshel,  
 C. F. Williams,  Q. Wu,  X. Xu,  W. Zhang

 Please cite Q-Chem as follows:
 Y. Shao et al., Mol. Phys. 113, 184-215 (2015)
 DOI: 10.1080/00268976.2014.952696

 Q-Chem 5.0.2 for Intel X86 EM64T Linux

 Parts of Q-Chem use Armadillo 5.200.1 (Boston Tea Smuggler).
 http://arma.sourceforge.net/

 Q-Chem begins on Tue Mar  1 04:27:16 2022  

Host: 
0

     Scratch files written to ./qcts1.d//
 Dec517 15110_ 26548  26544 5633   
Processing $rem in /home/leeping/opt/qchem/5.0.2-openmp/config/preferences.
 MEM_STATIC 2000
 MEM_TOTAL  8000
 SYMMETRY   OFF
 SYM_IGNORE TRUE 

Checking the input file for inconsistencies... 	...done.

--------------------------------------------------------------
User input:
--------------------------------------------------------------
$molecule
0 2
C        0.6110081393   -0.0137257113    0.6057377318
C        0.3864382092   -1.3731503347   -0.9765884753
C        0.7670844458   -2.5379409551   -0.7909206097
C       -1.1584501724    1.3547757804    0.3390998713
C        0.0665095905    1.8800788300   -0.2509127173
N        1.1121290986    1.0954479934   -0.0751608764
H        1.2948267095   -0.6123601240    1.1954586507
H       -0.0410925599   -0.6650820185   -1.6626198813
H        1.1704279262   -3.4184166535   -0.3381121691
H       -2.1336609040    1.8256763788    0.3163194240
H        0.1603063057    2.8206692435   -0.7882994026
C       -0.8100809808    0.1655830376    0.9076075713
H       -1.4371443761   -0.5377430855    1.4403608719
$end

$rem
method                b3lyp
basis                 6-31g(d)
unrestricted          true
symmetry              off
sym_ignore            true
incdft                false
incfock               0
scf_convergence       6
thresh                14
jobtype               sp
scf_guess             read
scf_algorithm         diis
max_scf_cycles        100
stability_analysis    true
max_cis_cycles        100
cis_n_roots           4
$end

--------------------------------------------------------------
 ----------------------------------------------------------------
             Standard Nuclear Orientation (Angstroms)
    I     Atom           X                Y                Z
 ----------------------------------------------------------------
    1      C       0.6110081393    -0.0137257113     0.6057377318
    2      C       0.3864382092    -1.3731503347    -0.9765884753
    3      C       0.7670844458    -2.5379409551    -0.7909206097
    4      C      -1.1584501724     1.3547757804     0.3390998713
    5      C       0.0665095905     1.8800788300    -0.2509127173
    6      N       1.1121290986     1.0954479934    -0.0751608764
    7      H       1.2948267095    -0.6123601240     1.1954586507
    8      H      -0.0410925599    -0.6650820185    -1.6626198813
    9      H       1.1704279262    -3.4184166535    -0.3381121691
   10      H      -2.1336609040     1.8256763788     0.3163194240
   11      H       0.1603063057     2.8206692435    -0.7882994026
   12      C      -0.8100809808     0.1655830376     0.9076075713
   13      H      -1.4371443761    -0.5377430855     1.4403608719
 ----------------------------------------------------------------
 Nuclear Repulsion Energy =   254.2102457390 hartrees
 There are       25 alpha and       24 beta electrons
 Requested basis set is 6-31G(d)
 There are 40 shells and 117 basis functions

 Total QAlloc Memory Limit   8000 MB
 Mega-Array Size      1956 MB
 MEM_STATIC part      2000 MB

                       Distance Matrix (Angstroms)
             C (  1)   C (  2)   C (  3)   C (  4)   C (  5)   N (  6)
   C (  2)  2.098148
   C (  3)  2.889062  1.239396
   C (  4)  2.252748  3.399897  4.487524
   C (  5)  2.148680  3.348501  4.505698  1.457595
   N (  6)  1.394637  2.726385  3.719258  2.322583  1.319035
   H (  7)  1.083394  2.474219  2.816394  3.259071  3.132572  2.136460
   H (  8)  2.448458  1.074608  2.218245  3.055355  2.912446  2.636174
   H (  9)  3.577111  2.281536  1.069093  5.354032  5.412975  4.521893
   H ( 10)  3.316681  4.272587  5.355507  1.083191  2.272765  3.349872
   H ( 11)  3.190653  4.204130  5.392855  2.271341  1.087333  2.095453
   C ( 12)  1.463821  2.711006  3.561108  1.363357  2.247237  2.350611
   H ( 13)  2.272910  3.140860  3.719951  2.207277  3.311683  3.385693
             H (  7)   H (  8)   H (  9)   H ( 10)   H ( 11)   C ( 12)
   H (  8)  3.155325
   H (  9)  3.200198  3.286785
   H ( 10)  4.297841  3.807745  6.232640
   H ( 11)  4.124091  3.599369  6.336340  2.733584
   C ( 12)  2.262452  2.808455  4.280104  2.203950  3.296549
   H ( 13)  2.743941  3.404947  4.273252  2.708202  4.335632  1.082452

 
 A cutoff of  1.0D-14 yielded    785 shell pairs
 There are      6997 function pairs
 Smallest overlap matrix eigenvalue = 1.48E-03

 Scale SEOQF with 1.000000e-01/1.000000e-01/1.000000e-01

 Standard Electronic Orientation quadrupole field applied
 Nucleus-field energy     =     0.0000000069 hartrees
 Guess MOs from SCF MO coefficient file
 Reading MOs from coefficient file
 Reading MOs from coefficient file
 An unrestricted hybrid HF-DFT SCF calculation will be
 performed using Pulay DIIS extrapolation
 Exchange:     0.2000 Hartree-Fock + 0.0800 Slater + 0.7200 B88
 Correlation:  0.1900 VWN1RPA + 0.8100 LYP
 Using SG-1 standard quadrature grid
 SCF converges when DIIS error is below 1.0E-06
Using Q-Chem read-in guess as SCF_GUESS READ specified.

 -------------------------------------------------------
 OpenMP BLAS3 based DFT computing Module                
 -------------------------------------------------------
 ---------------------------------------
  Cycle       Energy         DIIS Error
 ---------------------------------------
    1    -286.8186727392      1.51E-09
    2    -286.8186727392      1.12E-09 Convergence criterion met
 ---------------------------------------
 <S^2> = 0.7795
 SCF time:  CPU 3.22 s  wall 8.19 s
 SCF   energy in the final basis set = -286.81867274
 Total energy in the final basis set = -286.81867274
 
 Direct TDDFT/TDA calculation will be performed
 Exchange:     0.2000 Hartree-Fock + 0.0800 Slater + 0.7200 B88
 Correlation:  0.1900 VWN1RPA + 0.8100 LYP
 Using SG-1 standard quadrature grid
 CIS energy converged when residual is below 10e- 6
 ---------------------------------------------------
 Iter    Rts Conv    Rts Left    Ttl Dev     Max Dev
 ---------------------------------------------------
   1         0           4      0.004643    0.002188
   2         0           4      0.001600    0.000729
   3         0           4      0.000722    0.000315
   4         0           4      0.000253    0.000128
   5         0           4      0.000079    0.000047
   6         0           4      0.000023    0.000017
   7         2           2      0.000008    0.000006
   8         3           1      0.000002    0.000002
   9         4           0      0.000001    0.000000    Roots Converged
 ---------------------------------------------------
 
 ---------------------------------------------------
         TDDFT/TDA Excitation Energies              
 ---------------------------------------------------

 Excited state   1: excitation energy (eV) =    1.9753
 Total energy for state  1:                  -286.74608227 au
    <S**2>     :  0.8979
    Trans. Mom.: -0.0026 X   0.0950 Y  -0.0698 Z
    Strength   :     0.0006731519
    D( 24) --> S(  1) amplitude =  0.9796 beta

 Excited state   2: excitation energy (eV) =    2.5095
 Total energy for state  2:                  -286.72644978 au
    <S**2>     :  0.8380
    Trans. Mom.:  0.0346 X   0.0698 Y   0.0443 Z
    Strength   :     0.0004939640
    D( 23) --> S(  1) amplitude =  0.9934 beta

 Excited state   3: excitation energy (eV) =    3.3114
 Total energy for state  3:                  -286.69698108 au
    <S**2>     :  0.8411
    Trans. Mom.: -0.0548 X  -0.0656 Y   0.0338 Z
    Strength   :     0.0006856910
    D( 21) --> S(  1) amplitude =  0.9638 beta

 Excited state   4: excitation energy (eV) =    3.3615
 Total energy for state  4:                  -286.69513874 au
    <S**2>     :  0.7927
    Trans. Mom.:  0.0687 X  -0.3671 Y  -0.0968 Z
    Strength   :     0.0122606347
    S(  1) --> V(  1) amplitude =  0.6005 alpha
    D( 22) --> S(  1) amplitude =  0.7714 beta
 
 ---------------------------------------------------

 Stability analysis will be performed
 ---------------------------------------------------
 Iter    Rts Conv    Rts Left    Ttl Dev     Max Dev
 ---------------------------------------------------
   1         0           8      0.004600    0.000781
   2         0           8      0.002195    0.000627
   3         0           8      0.001164    0.000340
   4         2           6      0.000515    0.000210
   5         3           5      0.000272    0.000145
   6         4           4      0.000167    0.000100
   7         4           4      0.000058    0.000034
   8         4           4      0.000021    0.000012
   9         6           2      0.000006    0.000003
  10         8           0      0.000003    0.000001    Roots Converged
 UKS-> UKS   stable,    smallest eigenvalue:      0.0576057
 UKS->CUKS   stable,    smallest eigenvalue:      0.0737468
 ---------------------------------------------------
  SETman timing summary (seconds)
  CPU time                76.46s
  System time              0.00s
  Wall time              116.75s
 
 --------------------------------------------------------------
 
                    Orbital Energies (a.u.)
 --------------------------------------------------------------
 
 Alpha MOs
 -- Occupied --
-14.309 -10.235 -10.221 -10.217 -10.213 -10.193 -10.190  -0.946
 -0.771  -0.760  -0.709  -0.580  -0.561  -0.553  -0.511  -0.493
 -0.409  -0.404  -0.395  -0.379  -0.314  -0.298  -0.260  -0.243
 -0.207
 -- Virtual --
 -0.015   0.026   0.072   0.083   0.106   0.120   0.158   0.162
  0.166   0.172   0.223   0.254   0.290   0.363   0.395   0.451
  0.467   0.498   0.525   0.543   0.550   0.560   0.596   0.609
  0.616   0.626   0.653   0.660   0.686   0.711   0.749   0.803
  0.807   0.821   0.844   0.852   0.874   0.919   0.928   0.984
  0.998   1.006   1.037   1.113   1.160   1.181   1.206   1.316
  1.368   1.382   1.413   1.448   1.482   1.532   1.540   1.565
  1.600   1.669   1.717   1.806   1.859   1.917   1.957   2.007
  2.031   2.062   2.122   2.154   2.213   2.232   2.259   2.326
  2.342   2.418   2.447   2.541   2.580   2.604   2.624   2.714
  2.745   2.877   2.942   2.985   3.022   3.955   4.099   4.124
  4.215   4.289   4.395   4.505
 
 Beta MOs
 -- Occupied --
-14.311 -10.228 -10.219 -10.217 -10.206 -10.193 -10.189  -0.941
 -0.763  -0.756  -0.695  -0.573  -0.557  -0.547  -0.509  -0.489
 -0.405  -0.397  -0.387  -0.371  -0.295  -0.290  -0.260  -0.240
 -- Virtual --
 -0.118   0.003   0.032   0.086   0.105   0.112   0.122   0.161
  0.164   0.169   0.175   0.228   0.258   0.294   0.367   0.398
  0.458   0.472   0.501   0.530   0.553   0.560   0.584   0.606
  0.615   0.623   0.630   0.655   0.665   0.688   0.713   0.759
  0.807   0.809   0.822   0.845   0.857   0.874   0.922   0.930
  0.987   0.998   1.010   1.042   1.119   1.161   1.187   1.207
  1.324   1.375   1.392   1.418   1.453   1.487   1.539   1.545
  1.578   1.617   1.692   1.734   1.818   1.873   1.927   1.961
  2.011   2.035   2.065   2.121   2.169   2.226   2.242   2.267
  2.336   2.354   2.427   2.449   2.551   2.584   2.613   2.630
  2.722   2.749   2.880   2.944   2.991   3.024   3.955   4.107
  4.134   4.220   4.291   4.403   4.513
 --------------------------------------------------------------
 
          Ground-State Mulliken Net Atomic Charges

     Atom                 Charge (a.u.)    Spin (a.u.)
  --------------------------------------------------------
      1 C                    -0.050025       0.410754
      2 C                    -0.158090      -0.227540
      3 C                    -0.155827       0.559368
      4 C                    -0.159255       0.079982
      5 C                     0.031721       0.261437
      6 N                    -0.377584      -0.090459
      7 H                     0.158394      -0.020973
      8 H                     0.204143       0.029564
      9 H                     0.193476      -0.023024
     10 H                     0.136526      -0.004665
     11 H                     0.140383      -0.013373
     12 C                    -0.106514       0.042336
     13 H                     0.142652      -0.003406
  --------------------------------------------------------
  Sum of atomic charges =    -0.000000
  Sum of spin   charges =     1.000000

 -----------------------------------------------------------------
                    Cartesian Multipole Moments
 -----------------------------------------------------------------
    Charge (ESU x 10^10)
                 0.0000
    Dipole Moment (Debye)
         X      -1.6075      Y      -1.4220      Z       0.4268
       Tot       2.1882
    Quadrupole Moments (Debye-Ang)
        XX     -42.8043     XY      -5.4954     YY     -34.5701
        XZ       1.2864     YZ      -3.0003     ZZ     -40.3332
    Octopole Moments (Debye-Ang^2)
       XXX     -23.8819    XXY      -7.7533    XYY       0.5369
       YYY     -20.5794    XXZ       6.1430    XYZ      -0.2640
       YYZ       1.0126    XZZ      -5.7215    YZZ      -2.3047
       ZZZ       2.7576
    Hexadecapole Moments (Debye-Ang^3)
      XXXX    -224.0493   XXXY      41.7292   XXYY    -128.6718
      XYYY      15.5728   YYYY    -496.2783   XXXZ      34.5126
      XXYZ     -19.4500   XYYZ      10.7786   YYYZ     -68.3361
      XXZZ     -64.4874   XYZZ      23.7897   YYZZ    -136.4177
      XZZZ      36.6421   YZZZ     -59.5218   ZZZZ    -163.0418
 -----------------------------------------------------------------
Archival summary:
1\1\c8-89\SP\ProcedureUnspecified\6-31G*\166(2)\hpark21\TueMar104:29:272022TueMar104:29:272022\0\\#,ProcedureUnspecified,6-31G*,\\0,2\N\C,1,1.31904\H,2,1.08733,1,120.8\C,1,1.39464,2,104.673,3,-178.269,0\H,4,1.08339,1,118.582,2,-156.728,0\C,2,1.4576,1,113.446,3,-179.796,0\H,6,1.08319,2,126.259,1,-179.853,0\C,6,1.36336,2,105.569,1,-0.0464019,0\H,8,1.08245,6,128.606,2,-179.522,0\C,4,2.09815,1,100.694,2,99.2671,0\H,10,1.07461,4,95.5732,1,-43.3822,0\C,10,1.2394,4,117.585,1,135.792,0\H,12,1.06909,10,162.424,4,0.0893708,0\\\@

 Total job time:  130.59s(wall), 79.88s(cpu) 
 Tue Mar  1 04:29:27 2022

        *************************************************************
        *                                                           *
        *  Thank you very much for using Q-Chem.  Have a nice day.  *
        *                                                           *
        *************************************************************


