
Running Job 1 of 1 qcts1.in
qchem qcts1.in_105636.0 ./qcts1.d/ 1
/home/leeping/opt/qchem/5.0.2-openmp/exe/qcprog.exe_s qcts1.in_105636.0 ./qcts1.d/
Check license passed

                  Welcome to Q-Chem
     A Quantum Leap Into The Future Of Chemistry


 Q-Chem 5.0, Q-Chem, Inc., Pleasanton, CA (2017)

 Yihan Shao,  Zhengting Gan,  E. Epifanovsky,  A. T. B. Gilbert,  M. Wormit,  
 J. Kussmann,  A. W. Lange,  A. Behn,  Jia Deng,  Xintian Feng,  D. Ghosh,  
 M. Goldey,  P. R. Horn,  L. D. Jacobson,  I. Kaliman,  T. Kus,  A. Landau,  
 Jie Liu,  E. I. Proynov,  R. M. Richard,  R. P. Steele,  E. J. Sundstrom,  
 H. L. Woodcock III,  P. M. Zimmerman,  D. Zuev,  B. Albrecht,  E. Alguire,  
 S. A. Baeppler,  D. Barton,  Z. Benda,  Y. A. Bernard,  E. J. Berquist,  
 K. B. Bravaya,  H. Burton,  D. Casanova,  Chun-Min Chang,  Yunqing Chen,  
 A. Chien,  K. D. Closser,  M. P. Coons,  S. Dasgupta,  A. L. Dempwolff,  
 M. Diedenhofen,  Hainam Do,  R. G. Edgar,  Po-Tung Fang,  S. Fatehi,  
 Qingguo Feng,  J. Fosso-Tande,  Qinghui Ge,  A. Ghysels,  G. Gidofalvi,  
 J. Gomes,  J. Gonthier,  A. Gunina,  M. W. D. Hanson-Heine,  
 P. H. P. Harbach,  A. W. Hauser,  J. E. Herr,  E. G. Hohenstein,  
 Z. C. Holden,  Kerwin Hui,  T.-C. Jagau,  Hyunjun Ji,  B. Kaduk,  
 K. Khistyaev,  Jaehoon Kim,  P. Klunzinger,  K. Koh,  D. Kosenkov,  
 L. Koulias,  T. Kowalczyk,  C. M. Krauter,  A. Kunitsa,  Ka Un Lao,  
 A. Laurent,  K. V. Lawler,  Joonho Lee,  D. Lefrancois,  S. Lehtola,  
 D. S. Levine,  Yi-Pei Li,  You-Sheng Lin,  Fenglai Liu,  E. Livshits,  
 A. Luenser,  P. Manohar,  E. Mansoor,  S. F. Manzer,  Shan-Ping Mao,  
 Yuezhi Mao,  N. Mardirossian,  A. V. Marenich,  T. Markovich,  
 L. A. Martinez-Martinez,  S. A. Maurer,  N. J. Mayhall,  S. C. McKenzie,  
 J.-M. Mewes,  A. F. Morrison,  J. W. Mullinax,  K. Nanda,  
 T. S. Nguyen-Beck,  R. Olivares-Amaya,  J. A. Parkhill,  T. M. Perrine,  
 F. Plasser,  S. Prager,  A. Prociuk,  E. Ramos,  D. R. Rehn,  F. Rob,  
 M. Schneider,  N. Sergueev,  S. M. Sharada,  S. Sharma,  D. W. Small,  
 T. Stauch,  T. Stein,  Yu-Chuan Su,  A. J. W. Thom,  A. Tkatchenko,  
 T. Tsuchimochi,  L. Vogt,  O. Vydrov,  M. A. Watson,  J. Wenzel,  
 M. de Wergifosse,  T. A. Wesolowski,  A. White,  J. Witte,  A. Yamada,  
 Jun Yang,  K. Yao,  S. Yeganeh,  S. R. Yost,  Zhi-Qiang You,  A. Zech,  
 Igor Ying Zhang,  Xing Zhang,  Yan Zhao,  Ying Zhu,  B. R. Brooks,  
 G. K. L. Chan,  C. J. Cramer,  M. S. Gordon,  W. J. Hehre,  A. Klamt,  
 M. W. Schmidt,  C. D. Sherrill,  D. G. Truhlar,  A. Aspuru-Guzik,  R. Baer,  
 A. T. Bell,  N. A. Besley,  Jeng-Da Chai,  R. A. DiStasio Jr.,  A. Dreuw,  
 B. D. Dunietz,  T. R. Furlani,  Chao-Ping Hsu,  Yousung Jung,  Jing Kong,  
 D. S. Lambrecht,  WanZhen Liang,  C. Ochsenfeld,  V. A. Rassolov,  
 L. V. Slipchenko,  J. E. Subotnik,  T. Van Voorhis,  J. M. Herbert,  
 A. I. Krylov,  P. M. W. Gill,  M. Head-Gordon

 Contributors to earlier versions of Q-Chem not listed above: 
 R. D. Adamson,  B. Austin,  J. Baker,  G. J. O. Beran,  K. Brandhorst,  
 S. T. Brown,  E. F. C. Byrd,  A. K. Chakraborty,  C.-L. Cheng,  
 Siu Hung Chien,  D. M. Chipman,  D. L. Crittenden,  H. Dachsel,  
 R. J. Doerksen,  A. D. Dutoi,  L. Fusti-Molnar,  W. A. Goddard III,  
 A. Golubeva-Zadorozhnaya,  S. R. Gwaltney,  G. Hawkins,  A. Heyden,  
 S. Hirata,  G. Kedziora,  F. J. Keil,  C. Kelley,  Jihan Kim,  R. A. King,  
 R. Z. Khaliullin,  P. P. Korambath,  W. Kurlancheek,  A. M. Lee,  M. S. Lee,  
 S. V. Levchenko,  Ching Yeh Lin,  D. Liotard,  R. C. Lochan,  I. Lotan,  
 P. E. Maslen,  N. Nair,  D. P. O'Neill,  D. Neuhauser,  E. Neuscamman,  
 C. M. Oana,  R. Olson,  B. Peters,  R. Peverati,  P. A. Pieniazek,  
 Y. M. Rhee,  J. Ritchie,  M. A. Rohrdanz,  E. Rosta,  N. J. Russ,  
 H. F. Schaefer III,  N. E. Schultz,  N. Shenvi,  A. C. Simmonett,  A. Sodt,  
 D. Stuck,  K. S. Thanthiriwatte,  V. Vanovschi,  Tao Wang,  A. Warshel,  
 C. F. Williams,  Q. Wu,  X. Xu,  W. Zhang

 Please cite Q-Chem as follows:
 Y. Shao et al., Mol. Phys. 113, 184-215 (2015)
 DOI: 10.1080/00268976.2014.952696

 Q-Chem 5.0.2 for Intel X86 EM64T Linux

 Parts of Q-Chem use Armadillo 5.200.1 (Boston Tea Smuggler).
 http://arma.sourceforge.net/

 Q-Chem begins on Tue Mar  1 03:49:53 2022  

Host: 
0

     Scratch files written to ./qcts1.d//
 Dec517 15110_ 26548  26544 5633   
Processing $rem in /home/leeping/opt/qchem/5.0.2-openmp/config/preferences.
 MEM_STATIC 2000
 MEM_TOTAL  8000
 SYMMETRY   OFF
 SYM_IGNORE TRUE 

Checking the input file for inconsistencies... 	...done.

--------------------------------------------------------------
User input:
--------------------------------------------------------------
$molecule
0 2
C        0.1754950381   -0.1395226424    0.5932997691
C        0.6250692464   -1.7171176984   -1.0565206041
C        1.2895196168   -2.7599319278   -1.1328759000
C       -1.1774725144    1.6782107003    0.5259900210
C        0.0355371764    1.8256200037   -0.2928525200
N        0.8209143001    0.7941523442   -0.2338075946
H        0.7722272405   -0.6455603316    1.3507989620
H        0.0102696871   -1.1032496170   -1.6977822589
H        1.9682781180   -3.5191944885   -0.7994692701
H       -1.9304944349    2.4409214717    0.6883721776
H        0.2684644047    2.6881384868   -0.9122967412
C       -1.1024373152    0.4320294654    1.0748529487
H       -1.7670691321    0.0093166148    1.8142609998
$end

$rem
method                b3lyp
basis                 6-31g(d)
unrestricted          true
symmetry              off
sym_ignore            true
incdft                false
incfock               0
scf_convergence       8
thresh                14
jobtype               freq
scf_guess             read
scf_algorithm         diis
max_scf_cycles        100
$end

--------------------------------------------------------------
 ----------------------------------------------------------------
             Standard Nuclear Orientation (Angstroms)
    I     Atom           X                Y                Z
 ----------------------------------------------------------------
    1      C       0.1754950381    -0.1395226424     0.5932997691
    2      C       0.6250692464    -1.7171176984    -1.0565206041
    3      C       1.2895196168    -2.7599319278    -1.1328759000
    4      C      -1.1774725144     1.6782107003     0.5259900210
    5      C       0.0355371764     1.8256200037    -0.2928525200
    6      N       0.8209143001     0.7941523442    -0.2338075946
    7      H       0.7722272405    -0.6455603316     1.3507989620
    8      H       0.0102696871    -1.1032496170    -1.6977822589
    9      H       1.9682781180    -3.5191944885    -0.7994692701
   10      H      -1.9304944349     2.4409214717     0.6883721776
   11      H       0.2684644047     2.6881384868    -0.9122967412
   12      C      -1.1024373152     0.4320294654     1.0748529487
   13      H      -1.7670691321     0.0093166148     1.8142609998
 ----------------------------------------------------------------
 Nuclear Repulsion Energy =   245.4588243029 hartrees
 There are       25 alpha and       24 beta electrons
 Requested basis set is 6-31G(d)
 There are 40 shells and 117 basis functions

 Total QAlloc Memory Limit   8000 MB
 Mega-Array Size      1956 MB
 MEM_STATIC part      2000 MB

                       Distance Matrix (Angstroms)
             C (  1)   C (  2)   C (  3)   C (  4)   C (  5)   N (  6)
   C (  2)  2.326549
   C (  3)  3.329756  1.238865
   C (  4)  2.266982  4.157133  5.341816
   C (  5)  2.160241  3.671747  4.827566  1.470927
   N (  6)  1.404429  2.649847  3.695867  2.313526  1.297779
   H (  7)  1.089022  2.639143  3.302544  3.143493  3.057946  2.141523
   H (  8)  2.491009  1.079828  2.167994  3.753987  3.248499  2.529921
   H (  9)  4.071371  2.262248  1.071612  6.218168  5.706066  4.499042
   H ( 10)  3.332105  5.183131  6.382344  1.084038  2.281815  3.336542
   H ( 11)  3.204861  4.422019  5.547313  2.275820  1.087154  2.086320
   C ( 12)  1.480431  3.485092  4.558963  1.363763  2.260022  2.354359
   H ( 13)  2.299229  4.116344  5.069230  2.189172  3.314857  3.392375
             H (  7)   H (  8)   H (  9)   H ( 10)   H ( 11)   C ( 12)
   H (  8)  3.175517
   H (  9)  3.783116  3.236905
   H ( 10)  4.155705  4.692701  7.275787
   H ( 11)  4.060656  3.880499  6.436853  2.731058
   C ( 12)  2.179842  3.358974  5.343646  2.206965  3.304264
   H ( 13)  2.663022  4.090377  5.764963  2.684592  4.330543  1.080345

 
 A cutoff of  1.0D-14 yielded    765 shell pairs
 There are      6811 function pairs
 Smallest overlap matrix eigenvalue = 1.50E-03
 Guess MOs from SCF MO coefficient file
 Reading MOs from coefficient file
 Reading MOs from coefficient file
 An unrestricted hybrid HF-DFT SCF calculation will be
 performed using Pulay DIIS extrapolation
 Exchange:     0.2000 Hartree-Fock + 0.0800 Slater + 0.7200 B88
 Correlation:  0.1900 VWN1RPA + 0.8100 LYP
 Using SG-1 standard quadrature grid
 SCF converges when DIIS error is below 1.0E-08
Using Q-Chem read-in guess as SCF_GUESS READ specified.

 -------------------------------------------------------
 OpenMP BLAS3 based DFT computing Module                
 -------------------------------------------------------
 ---------------------------------------
  Cycle       Energy         DIIS Error
 ---------------------------------------
    1    -286.7982298393      2.32E-09
    2    -286.7982298393      4.80E-09 Convergence criterion met
 ---------------------------------------
 <S^2> = 0.7787
 SCF time:  CPU 3.02 s  wall 11.07 s
 SCF   energy in the final basis set = -286.79822984
 Total energy in the final basis set = -286.79822984
 
 --------------------------------------------------------------
 
                    Orbital Energies (a.u.)
 --------------------------------------------------------------
 
 Alpha MOs
 -- Occupied --
-14.315 -10.238 -10.225 -10.204 -10.200 -10.199 -10.195  -0.950
 -0.764  -0.753  -0.713  -0.571  -0.558  -0.556  -0.511  -0.474
 -0.422  -0.403  -0.396  -0.369  -0.304  -0.284  -0.262  -0.248
 -0.218
 -- Virtual --
 -0.023   0.029   0.057   0.065   0.118   0.121   0.155   0.160
  0.165   0.186   0.219   0.250   0.286   0.362   0.408   0.449
  0.480   0.525   0.536   0.543   0.551   0.563   0.591   0.599
  0.612   0.639   0.651   0.662   0.687   0.708   0.750   0.779
  0.790   0.812   0.839   0.844   0.861   0.902   0.913   0.935
  0.954   0.992   1.015   1.092   1.106   1.164   1.210   1.241
  1.384   1.385   1.411   1.460   1.502   1.522   1.557   1.560
  1.608   1.664   1.749   1.787   1.853   1.911   1.937   1.969
  2.013   2.047   2.070   2.138   2.209   2.226   2.261   2.267
  2.316   2.430   2.466   2.536   2.553   2.593   2.625   2.724
  2.742   2.855   2.940   2.968   3.012   3.964   4.072   4.105
  4.137   4.244   4.347   4.476
 
 Beta MOs
 -- Occupied --
-14.316 -10.229 -10.222 -10.203 -10.199 -10.196 -10.195  -0.945
 -0.761  -0.747  -0.697  -0.566  -0.554  -0.548  -0.509  -0.470
 -0.416  -0.397  -0.388  -0.356  -0.286  -0.282  -0.260  -0.245
 -- Virtual --
 -0.124  -0.011   0.039   0.078   0.081   0.121   0.124   0.159
  0.163   0.169   0.188   0.226   0.256   0.291   0.367   0.413
  0.455   0.485   0.530   0.545   0.548   0.556   0.579   0.598
  0.606   0.616   0.649   0.656   0.665   0.691   0.712   0.760
  0.786   0.796   0.816   0.841   0.846   0.864   0.905   0.917
  0.938   0.958   0.994   1.018   1.096   1.110   1.166   1.220
  1.244   1.390   1.395   1.421   1.466   1.508   1.527   1.563
  1.568   1.615   1.679   1.773   1.797   1.862   1.918   1.939
  1.977   2.017   2.049   2.076   2.156   2.225   2.235   2.272
  2.275   2.327   2.443   2.470   2.547   2.561   2.601   2.633
  2.729   2.745   2.861   2.942   2.971   3.015   3.964   4.078
  4.111   4.146   4.245   4.358   4.486
 --------------------------------------------------------------
 
          Ground-State Mulliken Net Atomic Charges

     Atom                 Charge (a.u.)    Spin (a.u.)
  --------------------------------------------------------
      1 C                    -0.014473       0.592774
      2 C                    -0.159884      -0.193039
      3 C                    -0.193365       0.354044
      4 C                    -0.149296       0.181415
      5 C                     0.049929       0.235260
      6 N                    -0.382155      -0.077893
      7 H                     0.172032      -0.031751
      8 H                     0.207953       0.018554
      9 H                     0.189497      -0.010177
     10 H                     0.141753      -0.007902
     11 H                     0.143669      -0.011863
     12 C                    -0.149498      -0.049633
     13 H                     0.143840       0.000211
  --------------------------------------------------------
  Sum of atomic charges =    -0.000000
  Sum of spin   charges =     1.000000

 -----------------------------------------------------------------
                    Cartesian Multipole Moments
 -----------------------------------------------------------------
    Charge (ESU x 10^10)
                 0.0000
    Dipole Moment (Debye)
         X      -1.2558      Y      -0.1278      Z       0.8520
       Tot       1.5230
    Quadrupole Moments (Debye-Ang)
        XX     -40.9302     XY      -5.4891     YY     -34.2530
        XZ       0.3608     YZ      -1.6065     ZZ     -39.6051
    Octopole Moments (Debye-Ang^2)
       XXX     -12.4301    XXY      -7.9165    XYY       8.3485
       YYY      -4.1992    XXZ       7.4855    XYZ      -0.0534
       YYZ       0.1978    XZZ      -6.8273    YZZ       0.2461
       ZZZ       9.7710
    Hexadecapole Moments (Debye-Ang^3)
      XXXX    -252.8524   XXXY      97.3809   XXYY    -118.7866
      XYYY      52.8547   YYYY    -601.6102   XXXZ      69.7881
      XXYZ     -24.5568   XYYZ      13.5442   YYYZ     -97.4377
      XXZZ     -76.6807   XYZZ      44.3707   YYZZ    -160.1659
      XZZZ      77.6872   YZZZ    -103.4139   ZZZZ    -217.2541
 -----------------------------------------------------------------
 Calculating MO derivatives via CPSCF
   1         3          39      0.323598    0.080294
   2         3          39      0.040618    0.010586
   3         3          39      0.007505    0.001842
   4         3          39      0.000962    0.000174
   5        21          21      0.000100    0.000020
   6        41           1      0.000002    0.000002
   7        42           0      0.000000    0.000000    Roots Converged
 Time for AOints: 5.5 s (CPU) 8.1 s (wall)
 ------------------------------------------------------------------------------
                     AOints        : Timing summary (seconds)
 ------------------------------------------------------------------------------
     job step          cpu (% of tot)      sys (% of tot)     wall (% of tot)
 ------------------------------------------------------------------------------
  cpscf_lag         0.4830E+02 (27.3)   0.2900E-04 (39.7)   0.5172E+02 (24.4)
  iterzp            0.1230E+03 (69.5)   0.4200E-04 (57.5)   0.1513E+03 (71.5)
  make_fx           0.0000E+00 ( 0.0)   0.0000E+00 ( 0.0)   0.0000E+00 ( 0.0)
  AOints            0.5531E+01 ( 3.1)   0.0000E+00 ( 0.0)   0.8138E+01 ( 3.8)
 ------------------------------------------------------------------------------
   Grand Totals     0.1770E+03          0.7300E-04          0.2117E+03
 ------------------------------------------------------------------------------
 Calculating analytic Hessian of the SCF energy
 Polarizability Matrix (a.u.)
            1           2           3
    1 -59.6883345  31.0791158  16.0391353
    2  31.0791158-108.6358818  -9.4144004
    3  16.0391353  -9.4144004 -51.8724243
 
 Direct stationary perturbation theory relativistic correction:
 
 rels  =       0.069212141538
 relv  =      -0.330218270812
 rel2e =       0.147942809520
 E_rel =      -0.113063319754
 
 Hessian of the SCF Energy
            1           2           3           4           5           6
    1   0.4092718  -0.1207130   0.0808888   0.0047321  -0.0125356  -0.0117199
    2  -0.1207130   0.3508266  -0.2269174  -0.0332081   0.0579350   0.0372424
    3   0.0808888  -0.2269174   0.3650994  -0.0228702   0.0319823   0.0134404
    4   0.0047321  -0.0332081  -0.0228702   0.4268056  -0.4779764   0.1561533
    5  -0.0125356   0.0579350   0.0319823  -0.4779764   0.7103891  -0.1718547
    6  -0.0117199   0.0372424   0.0134404   0.1561533  -0.1718547   0.1504193
    7  -0.0051275   0.0173969   0.0098150  -0.2963174   0.3877395  -0.0212895
    8   0.0096569  -0.0278132  -0.0167926   0.3859824  -0.5976802   0.0321152
    9   0.0043413  -0.0080984  -0.0059033  -0.0138475   0.0184573  -0.0312843
   10  -0.0196055   0.0218138   0.0025123   0.0020262  -0.0049431  -0.0017145
   11   0.0470597  -0.0467208  -0.0106485  -0.0013004   0.0035476   0.0032205
   12  -0.0208380   0.0112341   0.0178041   0.0007627   0.0015050  -0.0001478
   13   0.0367280   0.0342495  -0.0268333  -0.0009481  -0.0019732  -0.0052101
   14  -0.0055537  -0.1000524   0.0468823  -0.0008576   0.0030414   0.0065283
   15  -0.0120338   0.0327039  -0.0065593   0.0008770   0.0022526   0.0005729
   16  -0.1330414  -0.0306857   0.0409623   0.0019655  -0.0053658  -0.0018020
   17  -0.0202108  -0.0744534   0.0537848   0.0022116  -0.0308289  -0.0226632
   18   0.0144648   0.0330679  -0.1117729  -0.0030579  -0.0035047   0.0008559
   19  -0.1474253   0.0853897  -0.1079713   0.0006962  -0.0007593  -0.0003470
   20   0.0682070  -0.0781678   0.1022306   0.0046904  -0.0106503  -0.0111834
   21  -0.1121962   0.1181829  -0.1704835   0.0025940  -0.0069512  -0.0081026
   22   0.0022796   0.0028749   0.0026881  -0.1406362   0.1168042  -0.1123852
   23   0.0019531  -0.0052574  -0.0098317   0.1084685  -0.1307931   0.1185896
   24   0.0011095  -0.0123975  -0.0128971  -0.1359154   0.1517504  -0.1294363
   25  -0.0002139  -0.0002517   0.0000986   0.0048344  -0.0061750  -0.0064435
   26  -0.0006400   0.0003941   0.0006876   0.0086121  -0.0046307   0.0079839
   27  -0.0012624   0.0021019   0.0020543   0.0156735  -0.0237558   0.0042439
   28   0.0014253  -0.0002037   0.0049085  -0.0000444  -0.0005843  -0.0003170
   29   0.0035284  -0.0030738   0.0044339  -0.0000903  -0.0002611  -0.0000302
   30   0.0051311   0.0057837   0.0029968  -0.0000068  -0.0010394  -0.0008151
   31   0.0015662   0.0052502   0.0027479  -0.0001895   0.0004183   0.0000108
   32   0.0062055  -0.0009249   0.0048138  -0.0001182   0.0003201   0.0000327
   33   0.0064127   0.0023840   0.0057651  -0.0002725   0.0002313  -0.0001428
   34  -0.1474156   0.0323692   0.0039762  -0.0028323   0.0053785   0.0050776
   35   0.0175986  -0.0816279   0.0311396   0.0036957  -0.0005337  -0.0000443
   36   0.0466467   0.0028661  -0.0955695   0.0000654   0.0008473   0.0002926
   37  -0.0031738  -0.0142820   0.0090770  -0.0000919  -0.0000279  -0.0000129
   38   0.0054439   0.0089358  -0.0117648  -0.0001097   0.0001448   0.0000632
   39  -0.0009444   0.0018466  -0.0039746  -0.0001555   0.0000796   0.0001040
            7           8           9          10          11          12
    1  -0.0051275   0.0096569   0.0043413  -0.0196055   0.0470597  -0.0208380
    2   0.0173969  -0.0278132  -0.0080984   0.0218138  -0.0467208   0.0112341
    3   0.0098150  -0.0167926  -0.0059033   0.0025123  -0.0106485   0.0178041
    4  -0.2963174   0.3859824  -0.0138475   0.0020262  -0.0013004   0.0007627
    5   0.3877395  -0.5976802   0.0184573  -0.0049431   0.0035476   0.0015050
    6  -0.0212895   0.0321152  -0.0312843  -0.0017145   0.0032205  -0.0001478
    7   0.4798207  -0.5813895   0.0819439  -0.0004628   0.0010799  -0.0004997
    8  -0.5813895   0.8480378  -0.0945468   0.0016022  -0.0023867   0.0010944
    9   0.0819439  -0.0945468   0.0932211  -0.0010617  -0.0025593   0.0022178
   10  -0.0004628   0.0016022  -0.0010617   0.5005750  -0.2200535  -0.1530922
   11   0.0010799  -0.0023867  -0.0025593  -0.2200535   0.7108645  -0.1371532
   12  -0.0004997   0.0010944   0.0022178  -0.1530922  -0.1371532   0.2790393
   13  -0.0005821   0.0001259   0.0034675  -0.1645571  -0.0058774   0.0691237
   14   0.0010267  -0.0004186  -0.0022205  -0.0152006  -0.1014693   0.0220240
   15   0.0003083  -0.0014995  -0.0013618   0.0676137   0.0150699  -0.1158794
   16   0.0001069   0.0012211  -0.0002016  -0.0469966   0.0261507   0.0352812
   17  -0.0037469   0.0025333   0.0036215   0.0468875   0.0008594  -0.0113722
   18   0.0012371  -0.0009559  -0.0005735   0.0214436   0.0019657   0.0021988
   19  -0.0002779   0.0006956   0.0008978  -0.0039642   0.0039909   0.0020048
   20  -0.0031049   0.0046124   0.0006053  -0.0002519   0.0030229  -0.0000326
   21  -0.0017197   0.0029256   0.0013254   0.0003873  -0.0000319  -0.0009862
   22  -0.0018080   0.0056418  -0.0063652  -0.0002908  -0.0001736  -0.0005335
   23   0.0153736  -0.0145323   0.0092870   0.0007945  -0.0008649   0.0003424
   24   0.0161997  -0.0255476   0.0002931   0.0002504  -0.0013098   0.0003200
   25  -0.1776537   0.1804531  -0.0662808  -0.0003261  -0.0001777   0.0001824
   26   0.1666091  -0.2138393   0.0746646   0.0000062   0.0004016  -0.0004289
   27  -0.0862075   0.1039615  -0.0578007   0.0004269   0.0009448  -0.0009663
   28  -0.0000854   0.0003494   0.0002086  -0.1930533   0.1485912   0.0425656
   29  -0.0000499   0.0000427  -0.0000586   0.1478215  -0.1995960  -0.0236851
   30  -0.0002757   0.0004425   0.0003454   0.0426345  -0.0236001  -0.0485604
   31   0.0000401  -0.0001264   0.0001014   0.0031389  -0.0174773   0.0104659
   32  -0.0000003  -0.0001306  -0.0000843   0.0024260   0.0046427  -0.0012091
   33   0.0000055  -0.0000505   0.0002184   0.0004044   0.0114049  -0.0015540
   34   0.0022931  -0.0042509  -0.0031974  -0.0834350   0.0154065   0.0185060
   35  -0.0009449   0.0016691   0.0009265   0.0388230  -0.3694498   0.1205080
   36   0.0004502  -0.0009826  -0.0005194   0.0138859   0.1433372  -0.1318989
   37   0.0000539   0.0000385  -0.0000063   0.0069513   0.0027810  -0.0039288
   38   0.0000106  -0.0000943   0.0000056  -0.0197254  -0.0028511   0.0171732
   39   0.0000323  -0.0001638  -0.0001782   0.0063096  -0.0006401  -0.0015871
           13          14          15          16          17          18
    1   0.0367280  -0.0055537  -0.0120338  -0.1330414  -0.0202108   0.0144648
    2   0.0342495  -0.1000524   0.0327039  -0.0306857  -0.0744534   0.0330679
    3  -0.0268333   0.0468823  -0.0065593   0.0409623   0.0537848  -0.1117729
    4  -0.0009481  -0.0008576   0.0008770   0.0019655   0.0022116  -0.0030579
    5  -0.0019732   0.0030414   0.0022526  -0.0053658  -0.0308289  -0.0035047
    6  -0.0052101   0.0065283   0.0005729  -0.0018020  -0.0226632   0.0008559
    7  -0.0005821   0.0010267   0.0003083   0.0001069  -0.0037469   0.0012371
    8   0.0001259  -0.0004186  -0.0014995   0.0012211   0.0025333  -0.0009559
    9   0.0034675  -0.0022205  -0.0013618  -0.0002016   0.0036215  -0.0005735
   10  -0.1645571  -0.0152006   0.0676137  -0.0469966   0.0468875   0.0214436
   11  -0.0058774  -0.1014693   0.0150699   0.0261507   0.0008594   0.0019657
   12   0.0691237   0.0220240  -0.1158794   0.0352812  -0.0113722   0.0021988
   13   0.4622409  -0.1205920  -0.1406767  -0.2304417   0.1745470   0.0107383
   14  -0.1205920   0.7532357  -0.2465917   0.1875955  -0.3275475   0.0220196
   15  -0.1406767  -0.2465917   0.3533889   0.0123355   0.0287458  -0.0741233
   16  -0.2304417   0.1875955   0.0123355   0.4295903  -0.1792640  -0.1030628
   17   0.1745470  -0.3275475   0.0287458  -0.1792640   0.4602905  -0.0741755
   18   0.0107383   0.0220196  -0.0741233  -0.1030628  -0.0741755   0.1935796
   19  -0.0029027  -0.0021428   0.0025468   0.0137889  -0.0101354   0.0113808
   20  -0.0047860   0.0032095   0.0034374   0.0125947  -0.0201975   0.0156316
   21   0.0014424   0.0049326  -0.0031163  -0.0097775   0.0034397  -0.0063114
   22   0.0006792  -0.0004000  -0.0006058   0.0002110   0.0006879   0.0007169
   23  -0.0006024   0.0004085  -0.0005842   0.0000143  -0.0030536  -0.0012280
   24   0.0016775  -0.0019291  -0.0002786   0.0005817   0.0049090  -0.0003309
   25   0.0008240  -0.0005604  -0.0000606  -0.0002491   0.0013810  -0.0002045
   26   0.0000474  -0.0002176   0.0002852  -0.0001901   0.0011129  -0.0000141
   27  -0.0009221   0.0004077   0.0004671   0.0000484  -0.0004250   0.0001984
   28  -0.0057655   0.0160594  -0.0040581  -0.0043128   0.0017225   0.0041922
   29  -0.0065900   0.0079567   0.0004279  -0.0025891  -0.0005630   0.0030986
   30   0.0035632  -0.0138604   0.0023979   0.0049251  -0.0019722   0.0014430
   31  -0.0718996  -0.0510004   0.0501846   0.0063323   0.0185988  -0.0149691
   32  -0.0485521  -0.2222209   0.1309438  -0.0055451  -0.0229368   0.0125922
   33   0.0505479   0.1355474  -0.1411307  -0.0075546  -0.0011490   0.0016500
   34  -0.0237937  -0.0124127   0.0206413  -0.0339459  -0.0329518   0.0531405
   35  -0.0226808  -0.0106493   0.0302297  -0.0088090   0.0140487  -0.0081397
   36   0.0293219   0.0237404  -0.0173021   0.0268940   0.0151504  -0.0091263
   37   0.0004183   0.0040386   0.0029278  -0.0030075   0.0002726   0.0039802
   38   0.0026841  -0.0052761   0.0045794   0.0048724   0.0007359  -0.0003576
   39   0.0037596   0.0025195   0.0029246   0.0013704   0.0021059   0.0023126
           19          20          21          22          23          24
    1  -0.1474253   0.0682070  -0.1121962   0.0022796   0.0019531   0.0011095
    2   0.0853897  -0.0781678   0.1181829   0.0028749  -0.0052574  -0.0123975
    3  -0.1079713   0.1022306  -0.1704835   0.0026881  -0.0098317  -0.0128971
    4   0.0006962   0.0046904   0.0025940  -0.1406362   0.1084685  -0.1359154
    5  -0.0007593  -0.0106503  -0.0069512   0.1168042  -0.1307931   0.1517504
    6  -0.0003470  -0.0111834  -0.0081026  -0.1123852   0.1185896  -0.1294363
    7  -0.0002779  -0.0031049  -0.0017197  -0.0018080   0.0153736   0.0161997
    8   0.0006956   0.0046124   0.0029256   0.0056418  -0.0145323  -0.0255476
    9   0.0008978   0.0006053   0.0013254  -0.0063652   0.0092870   0.0002931
   10  -0.0039642  -0.0002519   0.0003873  -0.0002908   0.0007945   0.0002504
   11   0.0039909   0.0030229  -0.0000319  -0.0001736  -0.0008649  -0.0013098
   12   0.0020048  -0.0000326  -0.0009862  -0.0005335   0.0003424   0.0003200
   13  -0.0029027  -0.0047860   0.0014424   0.0006792  -0.0006024   0.0016775
   14  -0.0021428   0.0032095   0.0049326  -0.0004000   0.0004085  -0.0019291
   15   0.0025468   0.0034374  -0.0031163  -0.0006058  -0.0005842  -0.0002786
   16   0.0137889   0.0125947  -0.0097775   0.0002110   0.0000143   0.0005817
   17  -0.0101354  -0.0201975   0.0034397   0.0006879  -0.0030536   0.0049090
   18   0.0113808   0.0156316  -0.0063114   0.0007169  -0.0012280  -0.0003309
   19   0.1466929  -0.0885664   0.1106929  -0.0000634   0.0001311   0.0000765
   20  -0.0885664   0.1044770  -0.1156138  -0.0002311   0.0005322   0.0012359
   21   0.1106929  -0.1156138   0.1783931  -0.0001769   0.0002605   0.0006248
   22  -0.0000634  -0.0002311  -0.0001769   0.1367538  -0.1272405   0.1174733
   23   0.0001311   0.0005322   0.0002605  -0.1272405   0.1519130  -0.1167760
   24   0.0000765   0.0012359   0.0006248   0.1174733  -0.1167760   0.1391156
   25   0.0000997   0.0000337   0.0000673   0.0030288   0.0029059  -0.0000575
   26  -0.0000543  -0.0000788  -0.0001611   0.0027377   0.0007480  -0.0008603
   27  -0.0002003  -0.0003045  -0.0002986  -0.0013290   0.0000117   0.0025392
   28   0.0010624   0.0000680  -0.0005224   0.0000154   0.0000229   0.0000170
   29   0.0015106  -0.0003663  -0.0008030   0.0000510   0.0000042   0.0000404
   30   0.0003888  -0.0004479  -0.0004860   0.0001429   0.0001156   0.0001973
   31   0.0001109  -0.0000780  -0.0001043   0.0000253  -0.0000643  -0.0000070
   32  -0.0011043  -0.0014206   0.0008526   0.0000550  -0.0000799   0.0000909
   33  -0.0009604  -0.0008087   0.0009782   0.0000884  -0.0000071   0.0000298
   34  -0.0079823   0.0115396   0.0100022  -0.0001892  -0.0017396  -0.0013846
   35   0.0112908  -0.0044921  -0.0075524  -0.0008355   0.0009686   0.0008255
   36  -0.0192375   0.0060209   0.0085482   0.0002003  -0.0002090  -0.0001372
   37   0.0001647  -0.0001151  -0.0006892  -0.0000056  -0.0000171  -0.0000209
   38  -0.0002464  -0.0004805   0.0005195   0.0000282   0.0000067  -0.0000318
   39   0.0007282  -0.0007709  -0.0000852   0.0000857   0.0000291  -0.0000399
           25          26          27          28          29          30
    1  -0.0002139  -0.0006400  -0.0012624   0.0014253   0.0035284   0.0051311
    2  -0.0002517   0.0003941   0.0021019  -0.0002037  -0.0030738   0.0057837
    3   0.0000986   0.0006876   0.0020543   0.0049085   0.0044339   0.0029968
    4   0.0048344   0.0086121   0.0156735  -0.0000444  -0.0000903  -0.0000068
    5  -0.0061750  -0.0046307  -0.0237558  -0.0005843  -0.0002611  -0.0010394
    6  -0.0064435   0.0079839   0.0042439  -0.0003170  -0.0000302  -0.0008151
    7  -0.1776537   0.1666091  -0.0862075  -0.0000854  -0.0000499  -0.0002757
    8   0.1804531  -0.2138393   0.1039615   0.0003494   0.0000427   0.0004425
    9  -0.0662808   0.0746646  -0.0578007   0.0002086  -0.0000586   0.0003454
   10  -0.0003261   0.0000062   0.0004269  -0.1930533   0.1478215   0.0426345
   11  -0.0001777   0.0004016   0.0009448   0.1485912  -0.1995960  -0.0236001
   12   0.0001824  -0.0004289  -0.0009663   0.0425656  -0.0236851  -0.0485604
   13   0.0008240   0.0000474  -0.0009221  -0.0057655  -0.0065900   0.0035632
   14  -0.0005604  -0.0002176   0.0004077   0.0160594   0.0079567  -0.0138604
   15  -0.0000606   0.0002852   0.0004671  -0.0040581   0.0004279   0.0023979
   16  -0.0002491  -0.0001901   0.0000484  -0.0043128  -0.0025891   0.0049251
   17   0.0013810   0.0011129  -0.0004250   0.0017225  -0.0005630  -0.0019722
   18  -0.0002045  -0.0000141   0.0001984   0.0041922   0.0030986   0.0014430
   19   0.0000997  -0.0000543  -0.0002003   0.0010624   0.0015106   0.0003888
   20   0.0000337  -0.0000788  -0.0003045   0.0000680  -0.0003663  -0.0004479
   21   0.0000673  -0.0001611  -0.0002986  -0.0005224  -0.0008030  -0.0004860
   22   0.0030288   0.0027377  -0.0013290   0.0000154   0.0000510   0.0001429
   23   0.0029059   0.0007480   0.0000117   0.0000229   0.0000042   0.0001156
   24  -0.0000575  -0.0008603   0.0025392   0.0000170   0.0000404   0.0001973
   25   0.1697920  -0.1775929   0.0725973  -0.0000008   0.0000072   0.0000407
   26  -0.1775929   0.2164194  -0.0823187  -0.0000567   0.0000269  -0.0000131
   27   0.0725973  -0.0823187   0.0493879  -0.0000640   0.0000278  -0.0000900
   28  -0.0000008  -0.0000567  -0.0000640   0.1966503  -0.1612852  -0.0442275
   29   0.0000072   0.0000269   0.0000278  -0.1612852   0.2037637   0.0264272
   30   0.0000407  -0.0000131  -0.0000900  -0.0442275   0.0264272   0.0387811
   31   0.0000259   0.0000030  -0.0000328  -0.0003003   0.0005290  -0.0003978
   32   0.0000108   0.0000506   0.0000554  -0.0008533  -0.0003880   0.0004287
   33   0.0000461  -0.0000009  -0.0000584  -0.0001135  -0.0004951  -0.0004617
   34  -0.0001440   0.0005360   0.0012620   0.0055554   0.0185832  -0.0104192
   35  -0.0000561  -0.0003972  -0.0007056  -0.0034718  -0.0076112   0.0096768
   36   0.0000004   0.0001238   0.0002460  -0.0008092  -0.0084421   0.0062488
   37  -0.0000173  -0.0000174   0.0000099  -0.0011464  -0.0014264  -0.0014993
   38   0.0000222   0.0000100  -0.0000013  -0.0003583   0.0000652  -0.0019414
   39   0.0000142   0.0000520   0.0000772  -0.0017801  -0.0009418  -0.0019970
           31          32          33          34          35          36
    1   0.0015662   0.0062055   0.0064127  -0.1474156   0.0175986   0.0466467
    2   0.0052502  -0.0009249   0.0023840   0.0323692  -0.0816279   0.0028661
    3   0.0027479   0.0048138   0.0057651   0.0039762   0.0311396  -0.0955695
    4  -0.0001895  -0.0001182  -0.0002725  -0.0028323   0.0036957   0.0000654
    5   0.0004183   0.0003201   0.0002313   0.0053785  -0.0005337   0.0008473
    6   0.0000108   0.0000327  -0.0001428   0.0050776  -0.0000443   0.0002926
    7   0.0000401  -0.0000003   0.0000055   0.0022931  -0.0009449   0.0004502
    8  -0.0001264  -0.0001306  -0.0000505  -0.0042509   0.0016691  -0.0009826
    9   0.0001014  -0.0000843   0.0002184  -0.0031974   0.0009265  -0.0005194
   10   0.0031389   0.0024260   0.0004044  -0.0834350   0.0388230   0.0138859
   11  -0.0174773   0.0046427   0.0114049   0.0154065  -0.3694498   0.1433372
   12   0.0104659  -0.0012091  -0.0015540   0.0185060   0.1205080  -0.1318989
   13  -0.0718996  -0.0485521   0.0505479  -0.0237937  -0.0226808   0.0293219
   14  -0.0510004  -0.2222209   0.1355474  -0.0124127  -0.0106493   0.0237404
   15   0.0501846   0.1309438  -0.1411307   0.0206413   0.0302297  -0.0173021
   16   0.0063323  -0.0055451  -0.0075546  -0.0339459  -0.0088090   0.0268940
   17   0.0185988  -0.0229368  -0.0011490  -0.0329518   0.0140487   0.0151504
   18  -0.0149691   0.0125922   0.0016500   0.0531405  -0.0081397  -0.0091263
   19   0.0001109  -0.0011043  -0.0009604  -0.0079823   0.0112908  -0.0192375
   20  -0.0000780  -0.0014206  -0.0008087   0.0115396  -0.0044921   0.0060209
   21  -0.0001043   0.0008526   0.0009782   0.0100022  -0.0075524   0.0085482
   22   0.0000253   0.0000550   0.0000884  -0.0001892  -0.0008355   0.0002003
   23  -0.0000643  -0.0000799  -0.0000071  -0.0017396   0.0009686  -0.0002090
   24  -0.0000070   0.0000909   0.0000298  -0.0013846   0.0008255  -0.0001372
   25   0.0000259   0.0000108   0.0000461  -0.0001440  -0.0000561   0.0000004
   26   0.0000030   0.0000506  -0.0000009   0.0005360  -0.0003972   0.0001238
   27  -0.0000328   0.0000554  -0.0000584   0.0012620  -0.0007056   0.0002460
   28  -0.0003003  -0.0008533  -0.0001135   0.0055554  -0.0034718  -0.0008092
   29   0.0005290  -0.0003880  -0.0004951   0.0185832  -0.0076112  -0.0084421
   30  -0.0003978   0.0004287  -0.0004617  -0.0104192   0.0096768   0.0062488
   31   0.0644045   0.0461309  -0.0513232  -0.0038273  -0.0008224   0.0029332
   32   0.0461309   0.2431391  -0.1480407   0.0013708  -0.0004446  -0.0005457
   33  -0.0513232  -0.1480407   0.1358898   0.0028105   0.0002146  -0.0014578
   34  -0.0038273   0.0013708   0.0028105   0.4603226   0.0328112  -0.2391421
   35  -0.0008224  -0.0004446   0.0002146   0.0328112   0.5560476  -0.2705814
   36   0.0029332  -0.0005457  -0.0014578  -0.2391421  -0.2705814   0.4247953
   37   0.0005725  -0.0000256  -0.0000911  -0.1646059  -0.0665989   0.1387909
   38  -0.0013614   0.0003938   0.0007697  -0.0666400  -0.0975280   0.0886747
   39   0.0003904   0.0000696   0.0002742   0.1387269   0.0935028  -0.1841197
           37          38          39
    1  -0.0031738   0.0054439  -0.0009444
    2  -0.0142820   0.0089358   0.0018466
    3   0.0090770  -0.0117648  -0.0039746
    4  -0.0000919  -0.0001097  -0.0001555
    5  -0.0000279   0.0001448   0.0000796
    6  -0.0000129   0.0000632   0.0001040
    7   0.0000539   0.0000106   0.0000323
    8   0.0000385  -0.0000943  -0.0001638
    9  -0.0000063   0.0000056  -0.0001782
   10   0.0069513  -0.0197254   0.0063096
   11   0.0027810  -0.0028511  -0.0006401
   12  -0.0039288   0.0171732  -0.0015871
   13   0.0004183   0.0026841   0.0037596
   14   0.0040386  -0.0052761   0.0025195
   15   0.0029278   0.0045794   0.0029246
   16  -0.0030075   0.0048724   0.0013704
   17   0.0002726   0.0007359   0.0021059
   18   0.0039802  -0.0003576   0.0023126
   19   0.0001647  -0.0002464   0.0007282
   20  -0.0001151  -0.0004805  -0.0007709
   21  -0.0006892   0.0005195  -0.0000852
   22  -0.0000056   0.0000282   0.0000857
   23  -0.0000171   0.0000067   0.0000291
   24  -0.0000209  -0.0000318  -0.0000399
   25  -0.0000173   0.0000222   0.0000142
   26  -0.0000174   0.0000100   0.0000520
   27   0.0000099  -0.0000013   0.0000772
   28  -0.0011464  -0.0003583  -0.0017801
   29  -0.0014264   0.0000652  -0.0009418
   30  -0.0014993  -0.0019414  -0.0019970
   31   0.0005725  -0.0013614   0.0003904
   32  -0.0000256   0.0003938   0.0000696
   33  -0.0000911   0.0007697   0.0002742
   34  -0.1646059  -0.0666400   0.1387269
   35  -0.0665989  -0.0975280   0.0935028
   36   0.1387909   0.0886747  -0.1841197
   37   0.1638877   0.0753798  -0.1485373
   38   0.0753798   0.0959378  -0.0976885
   39  -0.1485373  -0.0976885   0.1862891
 Gradient time:  CPU 232.55 s  wall 271.08 s
 **********************************************************************
 **                                                                  **
 **                       VIBRATIONAL ANALYSIS                       **
 **                       --------------------                       **
 **                                                                  **
 **        VIBRATIONAL FREQUENCIES (CM**-1) AND NORMAL MODES         **
 **     FORCE CONSTANTS (mDYN/ANGSTROM) AND REDUCED MASSES (AMU)     **
 **                  INFRARED INTENSITIES (KM/MOL)                   **
 **                                                                  **
 **********************************************************************
 

 Mode:                 1                      2                      3
 Frequency:      -316.50                 -34.99                  90.63
 Force Cnst:      0.3791                 0.0018                 0.0195
 Red. Mass:       6.4230                 2.4708                 4.0265
 IR Active:          YES                    YES                    YES
 IR Intens:        7.329                  1.103                  2.642
 Raman Active:       YES                    YES                    YES
               X      Y      Z        X      Y      Z        X      Y      Z
 C          0.099 -0.221 -0.243    0.014  0.001 -0.100   -0.157 -0.079 -0.190
 C         -0.190  0.255  0.324    0.181  0.049 -0.061   -0.021 -0.131  0.002
 C         -0.120  0.211  0.116   -0.119 -0.157  0.104    0.202  0.003  0.076
 C          0.045 -0.123  0.005   -0.014 -0.005  0.084    0.103  0.147  0.188
 C          0.041 -0.011  0.031   -0.047  0.073  0.051    0.046  0.075  0.095
 N          0.073  0.045 -0.081   -0.035  0.081 -0.065   -0.125 -0.066 -0.157
 H          0.171  0.326  0.101    0.063  0.041 -0.110   -0.157 -0.092 -0.198
 H         -0.105 -0.103 -0.155    0.523  0.225 -0.220   -0.139 -0.319 -0.070
 H         -0.067  0.298  0.247   -0.434 -0.359  0.285    0.372  0.184  0.147
 H          0.059 -0.132  0.125   -0.017 -0.026  0.172    0.245  0.246  0.382
 H          0.026  0.081  0.148   -0.083  0.125  0.109    0.121  0.126  0.194
 C          0.031 -0.182 -0.160    0.017 -0.048 -0.020   -0.060  0.046 -0.024
 H          0.023 -0.242 -0.199    0.048 -0.110 -0.029   -0.067  0.049 -0.028
 TransDip   0.037 -0.077 -0.014    0.000 -0.020  0.027    0.033  0.021  0.034

 Mode:                 4                      5                      6
 Frequency:       172.31                 270.45                 548.79
 Force Cnst:      0.0717                 0.1418                 0.4450
 Red. Mass:       4.0967                 3.2907                 2.5078
 IR Active:          YES                    YES                    YES
 IR Intens:        2.141                  1.026                  7.081
 Raman Active:       YES                    YES                    YES
               X      Y      Z        X      Y      Z        X      Y      Z
 C         -0.102 -0.110  0.059   -0.074 -0.049  0.004   -0.064 -0.066 -0.107
 C          0.087  0.250 -0.141    0.173  0.065  0.302    0.001  0.004  0.047
 C         -0.010  0.171  0.102   -0.007 -0.050 -0.215    0.009  0.009 -0.003
 C          0.067  0.015  0.008    0.027  0.058  0.018   -0.117 -0.068 -0.166
 C          0.009 -0.170 -0.113   -0.006 -0.032 -0.046    0.056  0.049  0.102
 N         -0.062 -0.210 -0.044   -0.065 -0.055 -0.054   -0.012 -0.010 -0.033
 H         -0.117 -0.151  0.042   -0.056  0.196  0.170   -0.017 -0.328 -0.339
 H          0.290  0.297 -0.288    0.287  0.155  0.269    0.072 -0.004 -0.034
 H         -0.152  0.158  0.363   -0.092 -0.303 -0.616   -0.026 -0.057 -0.082
 H          0.162  0.107  0.018    0.106  0.125  0.075   -0.217 -0.131 -0.340
 H          0.028 -0.258 -0.229    0.012 -0.058 -0.077    0.272  0.229  0.434
 C          0.002  0.060  0.126   -0.054  0.051  0.010    0.108  0.095  0.173
 H          0.031  0.203  0.235   -0.052  0.129  0.058    0.177  0.156  0.271
 TransDip   0.014  0.042  0.015    0.029 -0.004 -0.014    0.028 -0.071 -0.038

 Mode:                 7                      8                      9
 Frequency:       586.97                 634.19                 657.45
 Force Cnst:      0.5677                 0.3463                 0.4102
 Red. Mass:       2.7966                 1.4612                 1.6107
 IR Active:          YES                    YES                    YES
 IR Intens:       24.507                 16.628                 22.469
 Raman Active:       YES                    YES                    YES
               X      Y      Z        X      Y      Z        X      Y      Z
 C         -0.058 -0.079 -0.169    0.026 -0.086 -0.017    0.001 -0.035 -0.017
 C         -0.001 -0.011  0.044   -0.055 -0.050 -0.005    0.121  0.077 -0.031
 C          0.010 -0.021 -0.012    0.059 -0.033 -0.104   -0.126 -0.117 -0.004
 C          0.002  0.043  0.049   -0.031  0.015 -0.019   -0.018  0.001 -0.017
 C         -0.106 -0.054 -0.138   -0.017 -0.014 -0.001   -0.002 -0.002  0.010
 N          0.115  0.113  0.205    0.013  0.034  0.039    0.004  0.007  0.019
 H         -0.250 -0.569 -0.369    0.114  0.528  0.368    0.023  0.163  0.111
 H          0.052 -0.112 -0.121    0.263 -0.088 -0.381   -0.306 -0.297  0.007
 H          0.030 -0.013 -0.026   -0.114  0.045  0.474    0.631  0.550  0.011
 H          0.115  0.118  0.226    0.031  0.069  0.023    0.025  0.035  0.024
 H         -0.221 -0.157 -0.324    0.024  0.019  0.058    0.038  0.028  0.066
 C          0.031  0.046  0.027   -0.026  0.064  0.042   -0.017  0.021  0.012
 H          0.127  0.073  0.130    0.023  0.185  0.160    0.021  0.081  0.082
 TransDip  -0.018 -0.118 -0.104    0.018  0.101  0.080    0.064  0.134  0.029

 Mode:                10                     11                     12
 Frequency:       717.32                 745.33                 758.23
 Force Cnst:      0.3820                 0.4707                 0.3860
 Red. Mass:       1.2600                 1.4381                 1.1396
 IR Active:          YES                    YES                    YES
 IR Intens:        8.728                189.124                 72.841
 Raman Active:       YES                    YES                    YES
               X      Y      Z        X      Y      Z        X      Y      Z
 C         -0.049  0.009  0.012   -0.051  0.085  0.046   -0.013  0.011  0.017
 C          0.005 -0.000 -0.043   -0.003 -0.010  0.065   -0.075 -0.048  0.007
 C          0.012  0.024  0.058   -0.009 -0.021 -0.106   -0.026 -0.010  0.041
 C         -0.014 -0.056 -0.061    0.009 -0.047 -0.028    0.008 -0.011 -0.007
 C          0.015  0.009 -0.019    0.031  0.029 -0.017    0.005  0.010 -0.005
 N          0.021  0.030  0.005   -0.003  0.001 -0.027   -0.001  0.008 -0.006
 H         -0.059  0.185  0.147   -0.116 -0.281 -0.173   -0.016  0.007  0.016
 H         -0.153 -0.070  0.048    0.069  0.232  0.243    0.619  0.408 -0.217
 H         -0.100 -0.214 -0.290    0.004  0.317  0.692    0.451  0.257 -0.333
 H          0.307  0.155  0.444    0.140  0.028  0.227    0.031 -0.001  0.051
 H          0.091  0.103  0.140    0.037  0.047  0.012   -0.008  0.006 -0.016
 C         -0.031 -0.054 -0.034   -0.001 -0.066 -0.027    0.007 -0.018 -0.009
 H          0.347  0.228  0.471    0.183  0.011  0.180    0.058  0.012  0.053
 TransDip   0.059 -0.036  0.065   -0.058  0.327  0.290    0.241  0.084 -0.099

 Mode:                13                     14                     15
 Frequency:       828.07                 842.47                 879.37
 Force Cnst:      1.8387                 1.3800                 0.6612
 Red. Mass:       4.5512                 3.3000                 1.4512
 IR Active:          YES                    YES                    YES
 IR Intens:       15.654                 18.814                  4.171
 Raman Active:       YES                    YES                    YES
               X      Y      Z        X      Y      Z        X      Y      Z
 C         -0.223 -0.099  0.088   -0.072  0.137 -0.052    0.031 -0.062  0.033
 C          0.004  0.002 -0.014   -0.002 -0.003  0.001   -0.002 -0.012 -0.015
 C          0.009 -0.015 -0.000   -0.002  0.002  0.005    0.001  0.002  0.007
 C          0.239 -0.152 -0.031   -0.001 -0.081  0.052   -0.021  0.009 -0.048
 C          0.113  0.209 -0.166   -0.015 -0.142 -0.073   -0.059 -0.006 -0.093
 N         -0.092  0.176  0.025    0.232  0.045 -0.118   -0.068  0.002  0.050
 H          0.005  0.157  0.086   -0.070  0.166 -0.032    0.110 -0.015  0.004
 H         -0.076 -0.226 -0.179    0.027  0.031  0.007   -0.018  0.164  0.189
 H         -0.014 -0.053 -0.037    0.022  0.013 -0.021    0.009  0.018  0.021
 H         -0.056 -0.401 -0.214    0.251  0.198 -0.067    0.194  0.111  0.468
 H         -0.031  0.142 -0.327    0.037  0.261  0.505    0.358  0.222  0.388
 C          0.015 -0.120  0.164   -0.165  0.006  0.192    0.097  0.036  0.004
 H         -0.438  0.009 -0.171   -0.419 -0.330 -0.228   -0.278 -0.136 -0.438
 TransDip  -0.020 -0.054 -0.113   -0.112  0.066  0.050    0.031  0.041  0.040

 Mode:                16                     17                     18
 Frequency:       906.59                 922.23                 953.91
 Force Cnst:      0.6377                 0.7196                 1.0064
 Red. Mass:       1.3168                 1.4360                 1.8771
 IR Active:          YES                    YES                    YES
 IR Intens:       14.817                 19.274                  6.666
 Raman Active:       YES                    YES                    YES
               X      Y      Z        X      Y      Z        X      Y      Z
 C         -0.023 -0.050 -0.053   -0.015 -0.088 -0.048    0.149 -0.024 -0.006
 C          0.003 -0.028 -0.039    0.003 -0.029 -0.045   -0.003 -0.002  0.003
 C          0.002  0.005  0.017    0.003  0.003  0.019   -0.000  0.002  0.002
 C          0.064  0.032  0.070   -0.049 -0.025 -0.056    0.126 -0.042 -0.069
 C         -0.045 -0.029 -0.059    0.042  0.024  0.088   -0.078  0.011  0.049
 N          0.005  0.019  0.032    0.043  0.030 -0.034   -0.059  0.012  0.014
 H          0.019  0.193  0.091   -0.005  0.153  0.126    0.344 -0.250 -0.335
 H         -0.081  0.415  0.519   -0.093  0.411  0.521    0.022  0.055  0.039
 H          0.014  0.039  0.057    0.016  0.029  0.038    0.003  0.003 -0.005
 H         -0.240 -0.166 -0.418    0.144  0.115  0.189    0.346  0.188 -0.162
 H          0.155  0.149  0.265   -0.357 -0.224 -0.416   -0.182  0.082  0.116
 C         -0.011 -0.016 -0.034    0.006  0.040  0.054   -0.142 -0.007  0.020
 H          0.174  0.133  0.220   -0.180 -0.005 -0.137   -0.335  0.503  0.150
 TransDip  -0.031  0.108  0.051   -0.101  0.070  0.067    0.081  0.000  0.019

 Mode:                19                     20                     21
 Frequency:      1006.73                1025.46                1119.38
 Force Cnst:      1.5653                 1.3423                 1.1442
 Red. Mass:       2.6213                 2.1665                 1.5498
 IR Active:          YES                    YES                    YES
 IR Intens:       27.108                  9.135                  7.476
 Raman Active:       YES                    YES                    YES
               X      Y      Z        X      Y      Z        X      Y      Z
 C         -0.071 -0.127  0.174    0.077 -0.119  0.093   -0.043  0.108 -0.064
 C          0.000  0.003  0.001   -0.001 -0.001 -0.004    0.001  0.001  0.005
 C          0.002 -0.006 -0.007   -0.000 -0.001  0.006   -0.002  0.003 -0.002
 C          0.061  0.043 -0.033   -0.127  0.030  0.092    0.068 -0.084 -0.002
 C         -0.136 -0.051  0.085    0.081  0.053 -0.091   -0.040 -0.046  0.047
 N          0.085  0.097 -0.127    0.090  0.034 -0.097    0.021 -0.052  0.022
 H         -0.419 -0.358  0.297    0.081 -0.344 -0.073   -0.126  0.162  0.034
 H         -0.017 -0.103 -0.098   -0.001  0.017  0.013    0.009 -0.013 -0.015
 H         -0.003 -0.001  0.019    0.009 -0.005 -0.025   -0.006  0.004  0.006
 H          0.087  0.095 -0.198   -0.436 -0.316  0.353   -0.270 -0.520  0.386
 H         -0.449  0.204  0.324    0.257  0.034 -0.064   -0.147 -0.011  0.073
 C          0.111  0.023 -0.093   -0.106  0.012 -0.012    0.062  0.064 -0.042
 H          0.012  0.182 -0.097   -0.252  0.449  0.127   -0.297  0.538 -0.105
 TransDip  -0.124 -0.086  0.070   -0.027  0.062  0.069   -0.085  0.013  0.017

 Mode:                22                     23                     24
 Frequency:      1273.06                1294.64                1369.41
 Force Cnst:      1.4001                 1.3191                 1.9937
 Red. Mass:       1.4662                 1.3357                 1.8044
 IR Active:          YES                    YES                    YES
 IR Intens:        0.948                  0.141                 33.739
 Raman Active:       YES                    YES                    YES
               X      Y      Z        X      Y      Z        X      Y      Z
 C         -0.135 -0.013  0.063   -0.011  0.038 -0.016   -0.013  0.026 -0.020
 C          0.002  0.001  0.004   -0.001 -0.001 -0.000    0.001  0.000  0.003
 C         -0.000  0.001 -0.002   -0.001 -0.001 -0.000   -0.002  0.003 -0.001
 C         -0.022  0.054 -0.002   -0.035 -0.024  0.038   -0.130 -0.027  0.096
 C          0.015 -0.084  0.031   -0.031 -0.055  0.047    0.079  0.064 -0.080
 N          0.034  0.037 -0.001   -0.019  0.083 -0.030    0.007 -0.085  0.041
 H          0.777  0.234 -0.525   -0.153 -0.001  0.065   -0.031  0.079  0.026
 H         -0.001 -0.028 -0.024   -0.003 -0.007 -0.006    0.007 -0.010 -0.011
 H          0.003  0.007  0.006    0.002  0.003  0.002   -0.004  0.004  0.001
 H         -0.043  0.030  0.031    0.159  0.220 -0.218    0.197  0.405 -0.312
 H         -0.074 -0.082  0.007    0.649 -0.422 -0.191   -0.446  0.357  0.093
 C          0.043 -0.021 -0.048    0.066 -0.067 -0.002    0.104 -0.075 -0.025
 H          0.010  0.083 -0.027   -0.242  0.358 -0.034   -0.271  0.457 -0.057
 TransDip  -0.028  0.013 -0.004    0.004 -0.006 -0.010   -0.008  0.172 -0.070

 Mode:                25                     26                     27
 Frequency:      1500.18                1590.02                1868.09
 Force Cnst:      9.5818                 6.5897                 9.1559
 Red. Mass:       7.2262                 4.4239                 4.4530
 IR Active:          YES                    YES                    YES
 IR Intens:        9.745                  6.167                  1.801
 Raman Active:       YES                    YES                    YES
               X      Y      Z        X      Y      Z        X      Y      Z
 C          0.030 -0.016  0.042   -0.078 -0.049  0.060    0.007 -0.026 -0.013
 C         -0.003  0.000 -0.006    0.004  0.001  0.004    0.216 -0.325  0.007
 C          0.003 -0.005  0.005   -0.002  0.006 -0.002   -0.222  0.332 -0.002
 C         -0.045 -0.357  0.202    0.007 -0.228  0.105    0.002 -0.000 -0.001
 C          0.259 -0.222 -0.039   -0.227  0.276  0.005    0.003 -0.004 -0.001
 N         -0.206  0.213 -0.000    0.166 -0.163 -0.011   -0.001  0.012  0.001
 H          0.003 -0.196 -0.081    0.311  0.096 -0.144    0.006  0.044  0.047
 H         -0.017  0.021  0.019    0.009 -0.014 -0.005    0.328 -0.451  0.069
 H          0.014 -0.007 -0.021   -0.011  0.001 -0.000   -0.346  0.497 -0.017
 H          0.325  0.035 -0.233    0.325  0.104 -0.236    0.001 -0.003  0.004
 H         -0.208  0.024  0.135    0.483 -0.104 -0.286   -0.004 -0.002 -0.001
 C         -0.046  0.372 -0.175   -0.010  0.186 -0.095   -0.004  0.003  0.001
 H          0.380 -0.115 -0.150    0.229 -0.105 -0.102    0.001 -0.006  0.002
 TransDip   0.052  0.082  0.022   -0.066  0.043  0.011   -0.024  0.036 -0.003

 Mode:                28                     29                     30
 Frequency:      3183.86                3205.08                3239.85
 Force Cnst:      6.4941                 6.6121                 6.7608
 Red. Mass:       1.0873                 1.0925                 1.0932
 IR Active:          YES                    YES                    YES
 IR Intens:        7.118                 21.588                 11.252
 Raman Active:       YES                    YES                    YES
               X      Y      Z        X      Y      Z        X      Y      Z
 C         -0.047  0.043 -0.056   -0.003  0.005 -0.005    0.001  0.000  0.000
 C         -0.000  0.001  0.000    0.000 -0.000  0.000    0.000 -0.000  0.000
 C          0.000 -0.000  0.000    0.000  0.000 -0.000   -0.000  0.000 -0.000
 C          0.000 -0.001  0.000   -0.010  0.014  0.001    0.058 -0.059 -0.012
 C          0.002  0.004 -0.004   -0.018 -0.068  0.048   -0.006 -0.014  0.012
 N         -0.000  0.000  0.000   -0.001  0.002  0.000   -0.001  0.001 -0.000
 H          0.554 -0.488  0.662    0.041 -0.037  0.047   -0.004  0.001 -0.004
 H          0.002 -0.002  0.003   -0.003  0.002 -0.002   -0.001  0.001 -0.001
 H          0.002 -0.002  0.000    0.000  0.000  0.000   -0.000  0.000 -0.000
 H         -0.005  0.005  0.000    0.140 -0.148 -0.027   -0.658  0.662  0.142
 H         -0.016 -0.058  0.042    0.216  0.769 -0.554    0.049  0.158 -0.116
 C         -0.002 -0.003  0.003    0.001 -0.000 -0.001   -0.013 -0.004  0.012
 H          0.034  0.029 -0.039   -0.011 -0.006  0.012    0.152  0.095 -0.167
 TransDip  -0.033  0.076 -0.021   -0.046 -0.119  0.076    0.046 -0.096  0.012

 Mode:                31                     32                     33
 Frequency:      3281.62                3317.51                3436.60
 Force Cnst:      6.9771                 7.1349                 7.9767
 Red. Mass:       1.0996                 1.1003                 1.1463
 IR Active:          YES                    YES                    YES
 IR Intens:        5.254                 29.287                 16.725
 Raman Active:       YES                    YES                    YES
               X      Y      Z        X      Y      Z        X      Y      Z
 C         -0.005  0.004 -0.002   -0.000 -0.000 -0.001   -0.000  0.001  0.001
 C         -0.000  0.000  0.000    0.054 -0.058  0.046   -0.024  0.031 -0.010
 C         -0.000 -0.000 -0.000    0.006 -0.005  0.007    0.065 -0.079  0.023
 C          0.015 -0.020 -0.001    0.000  0.000  0.000   -0.000  0.000  0.000
 C         -0.002 -0.002  0.002   -0.000  0.001 -0.000    0.000 -0.000  0.000
 N         -0.001 -0.000  0.000    0.000 -0.001 -0.000   -0.000 -0.000  0.000
 H          0.035 -0.027  0.035    0.003 -0.002  0.003   -0.000 -0.002 -0.001
 H          0.001 -0.001  0.001   -0.552  0.570 -0.547    0.124 -0.126  0.129
 H          0.001 -0.001  0.001   -0.157  0.181 -0.070   -0.612  0.692 -0.293
 H         -0.163  0.169  0.034    0.000 -0.000 -0.000   -0.000  0.000  0.000
 H          0.008  0.022 -0.016   -0.001 -0.004  0.002    0.000  0.001 -0.000
 C          0.052  0.038 -0.059    0.000  0.000 -0.000    0.000 -0.000 -0.000
 H         -0.592 -0.386  0.657   -0.001 -0.001  0.001   -0.000 -0.000  0.001
 TransDip   0.058 -0.003 -0.045   -0.104  0.109 -0.086   -0.083  0.097 -0.030

 STANDARD THERMODYNAMIC QUANTITIES AT   298.15 K  AND     1.00 ATM

   This Molecule has  2 Imaginary Frequencies
   Zero point vibrational energy:       60.365 kcal/mol

   Atom    1 Element C  Has Mass   12.00000
   Atom    2 Element C  Has Mass   12.00000
   Atom    3 Element C  Has Mass   12.00000
   Atom    4 Element C  Has Mass   12.00000
   Atom    5 Element C  Has Mass   12.00000
   Atom    6 Element N  Has Mass   14.00307
   Atom    7 Element H  Has Mass    1.00783
   Atom    8 Element H  Has Mass    1.00783
   Atom    9 Element H  Has Mass    1.00783
   Atom   10 Element H  Has Mass    1.00783
   Atom   11 Element H  Has Mass    1.00783
   Atom   12 Element C  Has Mass   12.00000
   Atom   13 Element H  Has Mass    1.00783
   Molecular Mass:    92.050050 amu
   Principal axes and moments of inertia in amu*Bohr^2:
                             1           2           3
    Eigenvalues --      252.66495  1146.61413  1294.01901
          X              -0.40049    -0.59850     0.69384
          Y               0.85571    -0.51508     0.04962
          Z               0.32768     0.61359     0.71842
   Rotational Symmetry Number is   1
   The Molecule is an Asymmetric Top
   Translational Enthalpy:        0.889 kcal/mol
   Rotational Enthalpy:           0.889 kcal/mol
   Vibrational Enthalpy:         62.383 kcal/mol
   gas constant (RT):             0.592 kcal/mol
   Translational Entropy:        39.471  cal/mol.K
   Rotational Entropy:           27.418  cal/mol.K
   Vibrational Entropy:          11.434  cal/mol.K

   Total Enthalpy:               64.753 kcal/mol
   Total Entropy:                78.324  cal/mol.K
Archival summary:
1\1\c8-89\FREQ\ProcedureUnspecified\6-31G*\166(2)\hpark21\TueMar103:54:432022TueMar103:54:432022\0\\#,FREQ,ProcedureUnspecified,6-31G*,\\0,2\N\C,1,1.29778\H,2,1.08715,1,121.792\C,1,1.40443,2,106.085,3,-176.898,0\H,4,1.08902,1,117.823,2,-135.227,0\C,2,1.47093,1,113.209,3,178.742,0\H,6,1.08404,2,125.854,1,174.877,0\C,6,1.36376,2,105.679,1,-1.93246,0\H,8,1.08035,6,126.809,2,173.329,0\C,4,2.32655,1,86.8108,2,131.767,0\H,10,1.07983,4,85.7343,1,-61.823,0\C,10,1.23886,4,135.9,1,117.123,0\H,12,1.07161,10,156.483,4,-5.79327,0\\\@

 Total job time:  290.42s(wall), 235.78s(cpu) 
 Tue Mar  1 03:54:43 2022

        *************************************************************
        *                                                           *
        *  Thank you very much for using Q-Chem.  Have a nice day.  *
        *                                                           *
        *************************************************************


