13
image # 1 Energy = -286.85060
C 0.45549   -0.24404  0.20044   
C 0.34328   -1.35594  -0.84504  
C 0.88110   -2.54646  -0.73249  
C -1.08456  1.44339   0.50707   
C 0.11039   1.89547   -0.22214  
N 1.00073   0.98043   -0.41005  
H 1.14712   -0.56558  0.99077   
H -0.24604  -1.08908  -1.72382  
H 1.49762   -3.08362  -0.02213  
H -1.93912  2.05831   0.76624   
H 0.26873   2.91161   -0.58147  
C -0.88710  0.14029   0.77710   
H -1.54763  -0.54477  1.29552   
13
image # 2 Energy = -286.84663
C 0.41794   -0.25272  0.25185   
C 0.38537   -1.39427  -0.86186  
C 0.95023   -2.59841  -0.81293  
C -1.10183  1.48646   0.51256   
C 0.09597   1.88638   -0.24138  
N 0.97438   0.95264   -0.37890  
H 1.09082   -0.55887  1.07010   
H -0.21209  -1.09657  -1.73063  
H 1.58558   -3.16336  -0.14678  
H -1.93770  2.13049   0.76221   
H 0.26997   2.88230   -0.64025  
C -0.92883  0.18251   0.82348   
H -1.59413  -0.46232  1.38149   
13
image # 3 Energy = -286.83932
C 0.38145   -0.27825  0.28368   
C 0.42513   -1.43930  -0.85081  
C 1.00264   -2.59722  -0.88876  
C -1.11523  1.51646   0.51769   
C 0.08132   1.87308   -0.25292  
N 0.95063   0.92287   -0.35159  
H 1.02937   -0.55988  1.13765   
H -0.17101  -1.10790  -1.73160  
H 1.67588   -3.24113  -0.27029  
H -1.93382  2.20274   0.75813   
H 0.27186   2.85112   -0.69961  
C -0.96464  0.22297   0.85745   
H -1.64153  -0.37615  1.47018   
13
image # 4 Energy = -286.83170
C 0.33429   -0.29090  0.33135   
C 0.44149   -1.46609  -0.84414  
C 1.08732   -2.60789  -0.95008  
C -1.13213  1.54970   0.52314   
C 0.06937   1.85061   -0.26166  
N 0.92789   0.88608   -0.33287  
H 0.95445   -0.56881  1.19854   
H -0.11200  -1.12622  -1.71578  
H 1.76117   -3.31023  -0.42603  
H -1.92081  2.27721   0.75258   
H 0.27401   2.81034   -0.76348  
C -1.00580  0.25191   0.89089   
H -1.68944  -0.27114  1.56627   
13
image # 5 Energy = -286.82076
C 0.28517   -0.29183  0.37390   
C 0.47536   -1.50471  -0.83298  
C 1.15975   -2.61629  -0.99725  
C -1.14209  1.57580   0.52778   
C 0.06569   1.83733   -0.27841  
N 0.89959   0.85061   -0.31624  
H 0.88952   -0.58306  1.24950   
H -0.06991  -1.13387  -1.71062  
H 1.83264   -3.35988  -0.56506  
H -1.90410  2.33768   0.74720   
H 0.27294   2.76144   -0.81154  
C -1.05087  0.28637   0.92603   
H -1.72426  -0.17560  1.64551   
13
image # 6 Energy = -286.80740
C 0.23340   -0.29605  0.41826   
C 0.50633   -1.53808  -0.82482  
C 1.22939   -2.61331  -1.03881  
C -1.14834  1.61133   0.52620   
C 0.05145   1.80751   -0.28686  
N 0.86945   0.81097   -0.29856  
H 0.81818   -0.60238  1.29744   
H -0.02201  -1.14419  -1.69653  
H 1.91071   -3.40982  -0.71357  
H -1.88067  2.39483   0.74123   
H 0.27382   2.71358   -0.86458  
C -1.09305  0.32475   0.95905   
H -1.75989  -0.07521  1.72825   
13
image # 7 Energy = -286.79020
C 0.17631   -0.29492  0.47312   
C 0.54436   -1.58316  -0.83363  
C 1.30419   -2.61619  -1.07718  
C -1.15625  1.64222   0.52775   
C 0.03447   1.78983   -0.30583  
N 0.83580   0.75978   -0.27442  
H 0.73938   -0.62828  1.34757   
H 0.02917   -1.15367  -1.67689  
H 1.99255   -3.45506  -0.87522  
H -1.85553  2.45917   0.73384   
H 0.27325   2.65399   -0.91712  
C -1.13559  0.37442   1.00013   
H -1.79353  0.03591   1.81187   
13
image # 8 Energy = -286.78810
C 0.12906   -0.21014  0.56826   
C 0.64412   -1.70723  -0.98323  
C 1.34657   -2.73669  -1.17213  
C -1.17184  1.70175   0.54119   
C 0.01639   1.79142   -0.31112  
N 0.79009   0.75199   -0.23657  
H 0.71130   -0.64158  1.38305   
H 0.03618   -1.14566  -1.68530  
H 2.04300   -3.51083  -0.89641  
H -1.87034  2.51910   0.72401   
H 0.26671   2.63941   -0.93873  
C -1.14743  0.44129   1.07212   
H -1.80550  0.09099   1.85684   
13
image # 9 Energy = -286.80182
C 0.07339   -0.12603  0.67001   
C 0.70605   -1.80321  -1.11134  
C 1.39881   -2.79382  -1.22104  
C -1.18243  1.73642   0.55189   
C -0.00856  1.78901   -0.31431  
N 0.75545   0.71441   -0.21337  
H 0.66019   -0.67825  1.40527   
H 0.06908   -1.14870  -1.65625  
H 2.10535   -3.56369  -0.97386  
H -1.86909  2.57481   0.71320   
H 0.26438   2.60694   -0.97202  
C -1.15866  0.51072   1.11933   
H -1.82789  0.16298   1.91638   
13
image # 10 Energy = -286.81650
C 0.02930   -0.05643  0.76226   
C 0.74004   -1.87173  -1.20730  
C 1.47924   -2.83722  -1.25041  
C -1.19537  1.78356   0.55332   
C -0.02296  1.77174   -0.31847  
N 0.71335   0.67572   -0.19461  
H 0.58852   -0.72921  1.41483   
H 0.11133   -1.14726  -1.60862  
H 2.17003   -3.61336  -1.08588  
H -1.85698  2.62193   0.70023   
H 0.26173   2.56313   -1.01023  
C -1.18636  0.56646   1.17930   
H -1.84790  0.25041   1.97441   
13
image # 11 Energy = -286.82494
C 0.00620   -0.00177  0.84986   
C 0.78680   -1.96342  -1.30456  
C 1.54208   -2.86518  -1.28153  
C -1.20466  1.82400   0.55652   
C -0.03342  1.75857   -0.32691  
N 0.66383   0.65035   -0.16926  
H 0.51216   -0.78172  1.41211   
H 0.14816   -1.13362  -1.55673  
H 2.23681   -3.66828  -1.18651  
H -1.85361  2.66864   0.68531   
H 0.25701   2.51881   -1.04278  
C -1.21146  0.63507   1.24233   
H -1.86768  0.33180   2.02888   
13
image # 12 Energy = -286.83110
C -0.00333  0.02893   0.91495   
C 0.80104   -2.01532  -1.39647  
C 1.60737   -2.91467  -1.31404  
C -1.20934  1.84862   0.56597   
C -0.04987  1.75820   -0.33173  
N 0.62795   0.63814   -0.13867  
H 0.44521   -0.82866  1.39660   
H 0.19115   -1.12958  -1.50147  
H 2.29148   -3.71789  -1.25965  
H -1.86591  2.71020   0.66858   
H 0.25218   2.48502   -1.06853  
C -1.21733  0.71247   1.29319   
H -1.88995  0.39451   2.07807   
13
image # 13 Energy = -286.83273
C -0.05892  0.01026   0.91300   
C 0.84453   -2.03765  -1.38814  
C 1.64714   -2.94495  -1.40993  
C -1.21221  1.89510   0.58524   
C -0.07794  1.73960   -0.32863  
N 0.59215   0.60568   -0.12575  
H 0.37506   -0.83890  1.42872   
H 0.26839   -1.15746  -1.45663  
H 2.34408   -3.75178  -1.34576  
H -1.85577  2.75768   0.65738   
H 0.24396   2.44154   -1.09464  
C -1.22080  0.76170   1.34027   
H -1.90998  0.48629   2.13255   
13
image # 14 Energy = -286.83354
C -0.12281  0.00565   0.94843   
C 0.91445   -2.07070  -1.38936  
C 1.71526   -2.97173  -1.48280  
C -1.20589  1.92997   0.59019   
C -0.10140  1.71112   -0.33758  
N 0.53314   0.56075   -0.10586  
H 0.28248   -0.85013  1.47610   
H 0.32407   -1.17954  -1.42153  
H 2.40016   -3.78129  -1.47188  
H -1.82564  2.82077   0.64818   
H 0.23061   2.37440   -1.12523  
C -1.24029  0.81932   1.38433   
H -1.92558  0.59637   2.19681   
13
image # 15 Energy = -286.83410
C -0.18224  0.00672   0.98734   
C 0.98232   -2.08710  -1.39022  
C 1.77967   -2.99188  -1.54668  
C -1.20375  1.96332   0.59594   
C -0.12441  1.67370   -0.33657  
N 0.47328   0.51136   -0.08840  
H 0.18632   -0.85837  1.52242   
H 0.38114   -1.21140  -1.38729  
H 2.45528   -3.81255  -1.60019  
H -1.78903  2.87681   0.63869   
H 0.21621   2.31040   -1.15919  
C -1.26431  0.87753   1.42145   
H -1.93357  0.70603   2.25611   
13
image # 16 Energy = -286.83501
C -0.24609  0.01311   1.02871   
C 1.06285   -2.10457  -1.39143  
C 1.84118   -3.01112  -1.61155  
C -1.20388  1.99609   0.60315   
C -0.14337  1.64991   -0.34955  
N 0.40811   0.45768   -0.06531  
H 0.08354   -0.86830  1.57064   
H 0.44272   -1.24681  -1.34880  
H 2.50603   -3.83864  -1.73326  
H -1.74630  2.92776   0.62687   
H 0.19365   2.23507   -1.18225  
C -1.28748  0.93719   1.45679   
H -1.93629  0.81914   2.31470   
13
image # 17 Energy = -286.83641
C -0.30648  0.02667   1.07192   
C 1.15258   -2.12248  -1.40655  
C 1.89402   -3.04461  -1.67976  
C -1.19358  2.02626   0.60084   
C -0.17049  1.61493   -0.34131  
N 0.33789   0.41463   -0.04489  
H -0.01505  -0.86940  1.61970   
H 0.50605   -1.28384  -1.31336  
H 2.54840   -3.86077  -1.84942  
H -1.70890  2.97914   0.61561   
H 0.17162   2.16898   -1.20731  
C -1.30590  0.99452   1.48994   
H -1.93526  0.92352   2.36968   
13
image # 18 Energy = -286.83704
C -0.36510  0.03265   1.10688   
C 1.23981   -2.13384  -1.40972  
C 1.93970   -3.07015  -1.74429  
C -1.19196  2.05744   0.60728   
C -0.19187  1.58218   -0.34234  
N 0.27899   0.36219   -0.02617  
H -0.11368  -0.86499  1.66705   
H 0.57307   -1.32120  -1.27867  
H 2.58813   -3.87894  -1.96603  
H -1.67061  3.02921   0.60263   
H 0.14647   2.10285   -1.22777  
C -1.32621  1.04516   1.52306   
H -1.93070  1.02689   2.42038   
13
image # 19 Energy = -286.83858
C -0.41641  0.05487   1.14043   
C 1.31169   -2.16308  -1.43216  
C 1.98704   -3.08828  -1.80191  
C -1.18888  2.08338   0.61819   
C -0.21717  1.54854   -0.33738  
N 0.21265   0.30995   -0.00810  
H -0.20925  -0.86812  1.70436   
H 0.65263   -1.34612  -1.22531  
H 2.62326   -3.89375  -2.07403  
H -1.63701  3.07081   0.58801   
H 0.12456   2.04067   -1.24816  
C -1.33921  1.10235   1.55832   
H -1.92622  1.12134   2.46011   
13
image # 20 Energy = -286.83868
C -0.47741  0.05638   1.19234   
C 1.37986   -2.19056  -1.44915  
C 2.03510   -3.10506  -1.85809  
C -1.18473  2.11444   0.62542   
C -0.25292  1.52604   -0.33227  
N 0.15859   0.25568   -0.00196  
H -0.30313  -0.86152  1.73610   
H 0.73272   -1.36507  -1.16752  
H 2.65151   -3.90099  -2.17766  
H -1.59926  3.10041   0.57281   
H 0.10385   1.97876   -1.26737  
C -1.34259  1.15752   1.58375   
H -1.92146  1.20972   2.49837   
13
image # 21 Energy = -286.83957
C -0.54260  0.03484   1.20916   
C 1.45227   -2.19388  -1.44608  
C 2.08125   -3.11451  -1.92153  
C -1.15912  2.14547   0.60781   
C -0.27523  1.46467   -0.35096  
N 0.05720   0.25788   0.04597   
H -0.41494  -0.85173  1.78886   
H 0.83082   -1.40042  -1.10743  
H 2.68705   -3.91057  -2.30580  
H -1.54890  3.13273   0.55348   
H 0.07146   1.90130   -1.27532  
C -1.35065  1.20470   1.64065   
H -1.90036  1.30975   2.52616   
13
image # 22 Energy = -286.84174
C -0.61067  0.03671   1.26391   
C 1.49292   -2.18238  -1.44140  
C 2.15860   -3.14773  -2.00112  
C -1.14129  2.13090   0.63538   
C -0.31050  1.43184   -0.35025  
N -0.02531  0.19950   0.06107   
H -0.53062  -0.84116  1.82934   
H 0.94512   -1.43072  -1.03182  
H 2.70557   -3.89676  -2.42363  
H -1.50078  3.17475   0.52962   
H 0.04192   1.81913   -1.29036  
C -1.33721  1.28365   1.62863   
H -1.89169  1.41096   2.57271   
13
image # 23 Energy = -286.84377
C -0.67377  0.06920   1.29107   
C 1.56903   -2.23219  -1.47192  
C 2.18204   -3.10945  -2.02929  
C -1.12513  2.16257   0.62423   
C -0.34368  1.39911   -0.34125  
N -0.08534  0.14611   0.08154   
H -0.62667  -0.84412  1.87522   
H 1.02585   -1.44916  -0.96953  
H 2.72207   -3.88502  -2.52408  
H -1.45161  3.18790   0.50941   
H 0.01696   1.74703   -1.30398  
C -1.33644  1.31198   1.66855   
H -1.87330  1.49605   2.59003   
