13   
From optimize.out: Frame 4 / 5, Energy=    -286.8505973773
C        0.4556283744   -0.2440434559    0.2002947438
C        0.3427997002   -1.3563676241   -0.8445979894
C        0.8808806592   -2.5467900593   -0.7322657859
C       -1.0846620042    1.4434213999    0.5061920816
C        0.1120311673    1.8965232616   -0.2193801825
N        1.0003827572    0.9802669516   -0.4108748766
H        1.1474616248   -0.5652592280    0.9906073916
H       -0.2492391948   -1.0904876804   -1.7218850297
H        1.4997060965   -3.0831676815   -0.0233021517
H       -1.9399505811    2.0579974304    0.7637253815
H        0.2696246603    2.9122756731   -0.5802296105
C       -0.8868969286    0.1405314116    0.7771461405
H       -1.5477663317   -0.5449003991    1.2945698876
