13   
From qcopt_rct.out: Frame 2 / 2, Energy=    -286.8505969074
C        0.4554924847   -0.2440426720    0.2004361506
C        0.3432825577   -1.3559443260   -0.8450396722
C        0.8810974976   -2.5464639423   -0.7324905237
C       -1.0845592484    1.4433932196    0.5070676338
C        0.1103894269    1.8954701917   -0.2221417819
N        1.0007320819    0.9804322681   -0.4100490230
H        1.1471245858   -0.5655830385    0.9907740219
H       -0.2460440492   -1.0890833926   -1.7238192466
H        1.4976167924   -3.0836174074   -0.0221348083
H       -1.9391210594    2.0583099575    0.7662419079
H        0.2687254311    2.9116056672   -0.5814679767
C       -0.8871034018    0.1402947658    0.7770996199
H       -1.5476330996   -0.5447712913    1.2955236985
13   
From qcopt_prd.out: Frame 2 / 2, Energy=    -286.8437719949
C       -0.6743378440    0.0691805663    1.2907772046
C        1.5694126343   -2.2322679139   -1.4713996000
C        2.1825574091   -3.1095587754   -2.0285660126
C       -1.1251472279    2.1626594179    0.6238999378
C       -0.3433625379    1.3991734407   -0.3412922316
N       -0.0853533545    0.1461092959    0.0815145326
H       -0.6276067536   -0.8441914809    1.8748774391
H        1.0261019209   -1.4492052735   -0.9691900969
H        2.7227126690   -3.8851539032   -2.5231785051
H       -1.4514454894    3.1880325737    0.5090177794
H        0.0177545009    1.7471291971   -1.3038398819
C       -1.3370185166    1.3120170019    1.6680606217
H       -1.8742674101    1.4960758532    2.5893188129
