13   
From optimize.out: Frame 1 / 2, Energy=    -286.8723920416
C        0.0682520000   -0.1403850000   -0.0000000000
C        0.0374300000    0.0088570000    0.0000000000
C       -0.1865320000   -0.0086700000    0.0000000000
C       -0.1934430000   -0.0053600000    0.0000000000
C        0.0275910000   -0.0026320000    0.0000000000
N       -0.4014410000    0.0194200000   -0.0000000000
H        0.1630150000    0.0689880000   -0.0000000000
H        0.1549170000    0.0005250000    0.0000000000
H        0.1289150000    0.0008290000    0.0000000000
H        0.1285280000    0.0010040000    0.0000000000
H        0.1450490000    0.0000980000    0.0000000000
C       -0.2445010000    1.0623050000   -0.0000000000
H        0.1722200000   -0.0049800000   -0.0000000000
