13   
From optimize.out: Frame 1 / 2, Energy=    -286.8723920416
C        1.3518348802    0.6300180924   -0.8207201120
C       -0.0469536888   -1.1294359329    0.2554017478
C       -1.2669836185   -1.1471279889    0.8845487930
C       -1.7778327050    0.1879828857    0.8733815310
C       -0.8505976165    0.9745854136    0.2378035297
N        0.2130458096    0.1704271542   -0.1427021702
H        1.3223076348    1.7056819527   -1.0164330487
H        0.6663571469   -1.9129104959    0.0475368735
H       -1.7438704792   -2.0201679127    1.3097119443
H       -2.7185409356    0.5247103126    1.2866645691
H       -0.8405711559    2.0331380075    0.0187636744
C        2.3793635754   -0.0974870051   -1.2112937241
H        3.3124411527    0.0805855165   -1.7226636078
