13   
From optimize.out: Frame 1 / 2, Energy=    -286.9243193853
C        0.0358210000   -0.1134840000   -0.0000000000
C       -0.1110860000    0.0919600000   -0.0000000000
C       -0.1114870000    0.0954160000    0.0000000000
C       -0.1312760000    0.3457810000    0.0000000000
C        0.0351910000   -0.1118960000    0.0000000000
N       -0.4233920000    0.3869340000   -0.0000000000
H        0.1426050000    0.0034460000   -0.0000000000
H        0.1419150000   -0.0065520000   -0.0000000000
H        0.1418980000   -0.0067180000    0.0000000000
H        0.1344220000   -0.0182780000    0.0000000000
H        0.1426690000    0.0033670000    0.0000000000
C       -0.1316740000    0.3484240000   -0.0000000000
H        0.1343930000   -0.0183990000   -0.0000000000
