
Running Job 1 of 1 optimize.in
qchem optimize.in_24096.0 ./optimize.d/ 1
/home/leeping/opt/qchem/5.0.2-openmp/exe/qcprog.exe_s optimize.in_24096.0 ./optimize.d/
Check license passed

                  Welcome to Q-Chem
     A Quantum Leap Into The Future Of Chemistry


 Q-Chem 5.0, Q-Chem, Inc., Pleasanton, CA (2017)

 Yihan Shao,  Zhengting Gan,  E. Epifanovsky,  A. T. B. Gilbert,  M. Wormit,  
 J. Kussmann,  A. W. Lange,  A. Behn,  Jia Deng,  Xintian Feng,  D. Ghosh,  
 M. Goldey,  P. R. Horn,  L. D. Jacobson,  I. Kaliman,  T. Kus,  A. Landau,  
 Jie Liu,  E. I. Proynov,  R. M. Richard,  R. P. Steele,  E. J. Sundstrom,  
 H. L. Woodcock III,  P. M. Zimmerman,  D. Zuev,  B. Albrecht,  E. Alguire,  
 S. A. Baeppler,  D. Barton,  Z. Benda,  Y. A. Bernard,  E. J. Berquist,  
 K. B. Bravaya,  H. Burton,  D. Casanova,  Chun-Min Chang,  Yunqing Chen,  
 A. Chien,  K. D. Closser,  M. P. Coons,  S. Dasgupta,  A. L. Dempwolff,  
 M. Diedenhofen,  Hainam Do,  R. G. Edgar,  Po-Tung Fang,  S. Fatehi,  
 Qingguo Feng,  J. Fosso-Tande,  Qinghui Ge,  A. Ghysels,  G. Gidofalvi,  
 J. Gomes,  J. Gonthier,  A. Gunina,  M. W. D. Hanson-Heine,  
 P. H. P. Harbach,  A. W. Hauser,  J. E. Herr,  E. G. Hohenstein,  
 Z. C. Holden,  Kerwin Hui,  T.-C. Jagau,  Hyunjun Ji,  B. Kaduk,  
 K. Khistyaev,  Jaehoon Kim,  P. Klunzinger,  K. Koh,  D. Kosenkov,  
 L. Koulias,  T. Kowalczyk,  C. M. Krauter,  A. Kunitsa,  Ka Un Lao,  
 A. Laurent,  K. V. Lawler,  Joonho Lee,  D. Lefrancois,  S. Lehtola,  
 D. S. Levine,  Yi-Pei Li,  You-Sheng Lin,  Fenglai Liu,  E. Livshits,  
 A. Luenser,  P. Manohar,  E. Mansoor,  S. F. Manzer,  Shan-Ping Mao,  
 Yuezhi Mao,  N. Mardirossian,  A. V. Marenich,  T. Markovich,  
 L. A. Martinez-Martinez,  S. A. Maurer,  N. J. Mayhall,  S. C. McKenzie,  
 J.-M. Mewes,  A. F. Morrison,  J. W. Mullinax,  K. Nanda,  
 T. S. Nguyen-Beck,  R. Olivares-Amaya,  J. A. Parkhill,  T. M. Perrine,  
 F. Plasser,  S. Prager,  A. Prociuk,  E. Ramos,  D. R. Rehn,  F. Rob,  
 M. Schneider,  N. Sergueev,  S. M. Sharada,  S. Sharma,  D. W. Small,  
 T. Stauch,  T. Stein,  Yu-Chuan Su,  A. J. W. Thom,  A. Tkatchenko,  
 T. Tsuchimochi,  L. Vogt,  O. Vydrov,  M. A. Watson,  J. Wenzel,  
 M. de Wergifosse,  T. A. Wesolowski,  A. White,  J. Witte,  A. Yamada,  
 Jun Yang,  K. Yao,  S. Yeganeh,  S. R. Yost,  Zhi-Qiang You,  A. Zech,  
 Igor Ying Zhang,  Xing Zhang,  Yan Zhao,  Ying Zhu,  B. R. Brooks,  
 G. K. L. Chan,  C. J. Cramer,  M. S. Gordon,  W. J. Hehre,  A. Klamt,  
 M. W. Schmidt,  C. D. Sherrill,  D. G. Truhlar,  A. Aspuru-Guzik,  R. Baer,  
 A. T. Bell,  N. A. Besley,  Jeng-Da Chai,  R. A. DiStasio Jr.,  A. Dreuw,  
 B. D. Dunietz,  T. R. Furlani,  Chao-Ping Hsu,  Yousung Jung,  Jing Kong,  
 D. S. Lambrecht,  WanZhen Liang,  C. Ochsenfeld,  V. A. Rassolov,  
 L. V. Slipchenko,  J. E. Subotnik,  T. Van Voorhis,  J. M. Herbert,  
 A. I. Krylov,  P. M. W. Gill,  M. Head-Gordon

 Contributors to earlier versions of Q-Chem not listed above: 
 R. D. Adamson,  B. Austin,  J. Baker,  G. J. O. Beran,  K. Brandhorst,  
 S. T. Brown,  E. F. C. Byrd,  A. K. Chakraborty,  C.-L. Cheng,  
 Siu Hung Chien,  D. M. Chipman,  D. L. Crittenden,  H. Dachsel,  
 R. J. Doerksen,  A. D. Dutoi,  L. Fusti-Molnar,  W. A. Goddard III,  
 A. Golubeva-Zadorozhnaya,  S. R. Gwaltney,  G. Hawkins,  A. Heyden,  
 S. Hirata,  G. Kedziora,  F. J. Keil,  C. Kelley,  Jihan Kim,  R. A. King,  
 R. Z. Khaliullin,  P. P. Korambath,  W. Kurlancheek,  A. M. Lee,  M. S. Lee,  
 S. V. Levchenko,  Ching Yeh Lin,  D. Liotard,  R. C. Lochan,  I. Lotan,  
 P. E. Maslen,  N. Nair,  D. P. O'Neill,  D. Neuhauser,  E. Neuscamman,  
 C. M. Oana,  R. Olson,  B. Peters,  R. Peverati,  P. A. Pieniazek,  
 Y. M. Rhee,  J. Ritchie,  M. A. Rohrdanz,  E. Rosta,  N. J. Russ,  
 H. F. Schaefer III,  N. E. Schultz,  N. Shenvi,  A. C. Simmonett,  A. Sodt,  
 D. Stuck,  K. S. Thanthiriwatte,  V. Vanovschi,  Tao Wang,  A. Warshel,  
 C. F. Williams,  Q. Wu,  X. Xu,  W. Zhang

 Please cite Q-Chem as follows:
 Y. Shao et al., Mol. Phys. 113, 184-215 (2015)
 DOI: 10.1080/00268976.2014.952696

 Q-Chem 5.0.2 for Intel X86 EM64T Linux

 Parts of Q-Chem use Armadillo 5.200.1 (Boston Tea Smuggler).
 http://arma.sourceforge.net/

 Q-Chem begins on Tue Mar  1 09:29:05 2022  

Host: 
0

     Scratch files written to ./optimize.d//
 Dec517 15110_ 26548  26544 5633   
Processing $rem in /home/leeping/opt/qchem/5.0.2-openmp/config/preferences.
 MEM_STATIC 2000
 MEM_TOTAL  8000
 SYMMETRY   OFF
 SYM_IGNORE TRUE 

Checking the input file for inconsistencies... 	...done.

--------------------------------------------------------------
User input:
--------------------------------------------------------------
$molecule
0 2
C        1.3485174303    0.1004741853   -0.3059517649
C        0.5649244532   -1.1341035190   -0.9066400225
C       -0.7874069181   -0.7088204752   -1.4349574475
C       -1.3431652362   -0.0592319809   -0.3077093835
C       -0.6741227207    0.9737531129   -1.1814977656
N        0.6854694200    1.0910346708   -1.2258648573
H        2.4179519964    0.1638830809   -0.4994443889
H        0.9244223605   -2.2031458889   -0.8225417199
H       -0.8729529111   -0.5876057884   -2.5458141753
H       -2.2886639063    0.0475097376    0.2273248330
H       -1.2326452195    1.4825291730   -2.0102280754
C        0.1667749428   -0.3325527267    0.3865020033
H       -0.1438927290   -0.8581122012    1.1785909113
$end

$rem
method                b3lyp
basis                 6-31g(d)
unrestricted          true
symmetry              off
sym_ignore            true
incdft                false
incfock               0
scf_convergence       8
thresh                14
jobtype               opt
scf_guess             read
scf_algorithm         diis
max_scf_cycles        100
geom_opt_tol_gradient 600
geom_opt_tol_displacement 2400
geom_opt_tol_energy   200
geom_opt_max_cycles   100
$end

--------------------------------------------------------------
 ----------------------------------------------------------------
             Standard Nuclear Orientation (Angstroms)
    I     Atom           X                Y                Z
 ----------------------------------------------------------------
    1      C       1.3485174303     0.1004741853    -0.3059517649
    2      C       0.5649244532    -1.1341035190    -0.9066400225
    3      C      -0.7874069181    -0.7088204752    -1.4349574475
    4      C      -1.3431652362    -0.0592319809    -0.3077093835
    5      C      -0.6741227207     0.9737531129    -1.1814977656
    6      N       0.6854694200     1.0910346708    -1.2258648573
    7      H       2.4179519964     0.1638830809    -0.4994443889
    8      H       0.9244223605    -2.2031458889    -0.8225417199
    9      H      -0.8729529111    -0.5876057884    -2.5458141753
   10      H      -2.2886639063     0.0475097376     0.2273248330
   11      H      -1.2326452195     1.4825291730    -2.0102280754
   12      C       0.1667749428    -0.3325527267     0.3865020033
   13      H      -0.1438927290    -0.8581122012     1.1785909113
 ----------------------------------------------------------------
 Nuclear Repulsion Energy =   288.1138685826 hartrees
 There are       25 alpha and       24 beta electrons
 Requested basis set is 6-31G(d)
 There are 40 shells and 117 basis functions

 Total QAlloc Memory Limit   8000 MB
 Mega-Array Size      1956 MB
 MEM_STATIC part      2000 MB
 A cutoff of  1.0D-14 yielded    812 shell pairs
 There are      7084 function pairs
 
 -------------------------------------------------------
 OpenMP Integral Computing Module                       
 Release: version 1.0, May 2013, Q-Chem Inc. Pittsburgh 
 -------------------------------------------------------
 Integral Job Info:
 Integral job number is                      11
 Integral operator is                         1
 short-range coefficients                     0
 long-range coefficients              100000000
 Omega coefficients                           0
 if combine SR and LR in K                    0
 Integral screening is                        0
 Integral computing path is                   2
 max size of driver memory is            800000
 size of driver memory is                593474
 size of scratch memory is              2361544
 max col of scratch BK array               1296
 max len of scratch array in speh3          155
 max len of scratch index in speh4           18
 max int batch size is                      520
 min int batch size is                       52
 fixed nKL is                                52
 max L of basis functions is                  2
 order of int derivative is                   0
 number of shells is                         40
 number of basis is                         117
 number of cartesian basis is               117
 number of contracted shell pairs           812
 number of primitive shell pairs           3647
 maxK2 (contraction) of shell pair           36
 max number of K2 of shell pair               1
 max number of CS2 of shell pair             84
 max number of PS2 of shell pair            396
 mem total for path MDJ                  535308
 -------------------------------------------------------
 Smallest overlap matrix eigenvalue = 1.35E-03

 Scale SEOQF with 1.000000e-01/1.000000e-01/1.000000e-01

 Standard Electronic Orientation quadrupole field applied
 Nucleus-field energy     =    -0.0000000014 hartrees
 Guess MOs from SCF MO coefficient file
 Reading MOs from coefficient file
 Reading MOs from coefficient file
 An unrestricted hybrid HF-DFT SCF calculation will be
 performed using Pulay DIIS extrapolation
 Exchange:     0.2000 Hartree-Fock + 0.0800 Slater + 0.7200 B88
 Correlation:  0.1900 VWN1RPA + 0.8100 LYP
 Using SG-1 standard quadrature grid
 SCF converges when DIIS error is below 1.0E-08
Using Q-Chem read-in guess as SCF_GUESS READ specified.

 using 4 threads for integral computing
 -------------------------------------------------------
 OpenMP Integral computing Module                
 Release: version 1.0, May 2013, Q-Chem Inc. Pittsburgh 
 -------------------------------------------------------
 -------------------------------------------------------
 OpenMP BLAS3 based DFT computing Module                
 Release: version 1.0, May 2013, Q-Chem Inc. Pittsburgh 
 -------------------------------------------------------
 ---------------------------------------
  Cycle       Energy         DIIS Error
 ---------------------------------------
    1    -286.6813952775      7.83E-10
    2    -286.6813952775      1.45E-09 Convergence criterion met
 ---------------------------------------
 <S^2> = 0.7664
 SCF time:  CPU 5.94 s  wall 6.53 s
 SCF   energy in the final basis set = -286.68139528
 Total energy in the final basis set = -286.68139528
 
 --------------------------------------------------------------
 
                    Orbital Energies (a.u.)
 --------------------------------------------------------------
 
 Alpha MOs
 -- Occupied --
-14.325 -10.243 -10.231 -10.226 -10.217 -10.212 -10.199  -0.991
 -0.827  -0.806  -0.656  -0.608  -0.570  -0.543  -0.527  -0.481
 -0.426  -0.414  -0.399  -0.396  -0.299  -0.289  -0.257  -0.233
 -0.185
 -- Virtual --
  0.032   0.059   0.086   0.110   0.122   0.133   0.149   0.166
  0.173   0.192   0.210   0.241   0.267   0.312   0.350   0.364
  0.486   0.520   0.525   0.536   0.552   0.584   0.588   0.605
  0.614   0.652   0.668   0.696   0.726   0.748   0.771   0.787
  0.794   0.804   0.834   0.840   0.856   0.880   0.908   0.918
  0.967   0.994   1.032   1.170   1.258   1.312   1.360   1.400
  1.434   1.493   1.512   1.567   1.612   1.652   1.687   1.737
  1.774   1.806   1.837   1.908   1.937   1.981   2.011   2.028
  2.061   2.119   2.209   2.231   2.258   2.305   2.393   2.411
  2.429   2.463   2.485   2.548   2.559   2.601   2.646   2.683
  2.725   2.835   2.850   2.870   2.979   3.919   4.234   4.253
  4.372   4.513   4.571   4.670
 
 Beta MOs
 -- Occupied --
-14.311 -10.244 -10.230 -10.228 -10.212 -10.211 -10.197  -0.981
 -0.814  -0.795  -0.649  -0.606  -0.563  -0.539  -0.523  -0.479
 -0.421  -0.404  -0.391  -0.378  -0.295  -0.274  -0.242  -0.225
 -- Virtual --
 -0.062   0.034   0.075   0.091   0.113   0.125   0.138   0.152
  0.169   0.176   0.198   0.214   0.243   0.271   0.315   0.355
  0.368   0.488   0.521   0.533   0.544   0.559   0.588   0.590
  0.609   0.618   0.654   0.678   0.697   0.733   0.765   0.775
  0.794   0.798   0.808   0.842   0.842   0.861   0.883   0.912
  0.936   0.972   1.000   1.034   1.174   1.263   1.313   1.372
  1.404   1.449   1.500   1.519   1.575   1.620   1.658   1.692
  1.750   1.778   1.812   1.841   1.921   1.946   1.986   2.013
  2.035   2.067   2.126   2.210   2.239   2.270   2.315   2.405
  2.423   2.437   2.472   2.493   2.556   2.574   2.606   2.656
  2.690   2.731   2.838   2.853   2.876   2.982   3.940   4.239
  4.256   4.375   4.515   4.574   4.675
 --------------------------------------------------------------
 
          Ground-State Mulliken Net Atomic Charges

     Atom                 Charge (a.u.)    Spin (a.u.)
  --------------------------------------------------------
      1 C                     0.012279      -0.047322
      2 C                    -0.170636       0.090381
      3 C                    -0.095563       0.373357
      4 C                    -0.161095       0.013000
      5 C                    -0.017997      -0.122236
      6 N                    -0.329757       0.697084
      7 H                     0.193402       0.002730
      8 H                     0.140308      -0.003762
      9 H                     0.155649      -0.019563
     10 H                     0.156249       0.009797
     11 H                     0.146513       0.004486
     12 C                    -0.163830      -0.000113
     13 H                     0.134477       0.002160
  --------------------------------------------------------
  Sum of atomic charges =     0.000000
  Sum of spin   charges =     1.000000

 -----------------------------------------------------------------
                    Cartesian Multipole Moments
 -----------------------------------------------------------------
    Charge (ESU x 10^10)
                 0.0000
    Dipole Moment (Debye)
         X      -0.9930      Y      -1.4022      Z       0.9670
       Tot       1.9716
    Quadrupole Moments (Debye-Ang)
        XX     -36.5436     XY      -2.8697     YY     -43.7746
        XZ       1.5665     YZ       0.8781     ZZ     -42.0329
    Octopole Moments (Debye-Ang^2)
       XXX       6.4883    XXY       2.2325    XYY      -0.2170
       YYY      -1.4499    XXZ      30.3556    XYZ       5.2057
       YYZ      33.7213    XZZ      -6.3484    YZZ      -0.3709
       ZZZ      88.4943
    Hexadecapole Moments (Debye-Ang^3)
      XXXX    -234.9165   XXXY       0.8165   XXYY     -84.2741
      XYYY      -7.5124   YYYY    -209.1394   XXXZ     -21.8097
      XXYZ       1.9588   XYYZ      -0.3317   YYYZ      16.8032
      XXZZ     -96.6017   XYZZ      -7.8427   YYZZ     -88.8825
      XZZZ      -0.3019   YZZZ      13.2743   ZZZZ    -284.6249
 -----------------------------------------------------------------
 Calculating analytic gradient of the SCF energy
 Gradient of SCF Energy
            1           2           3           4           5           6
    1   0.0625056  -0.0025077  -0.0304952  -0.0598268   0.0051235  -0.0200105
    2  -0.0320470   0.0280213   0.0311804  -0.0618424  -0.0108027  -0.0445918
    3   0.0944282  -0.0369481   0.0865516  -0.0311101   0.0381057  -0.0060986
            7           8           9          10          11          12
    1   0.0003698   0.0073688   0.0246908  -0.0022595  -0.0105907   0.0391679
    2   0.0040901  -0.0263314   0.0165792   0.0032876   0.0033235   0.0493328
    3  -0.0320408   0.0020637  -0.0180117   0.0036166  -0.0186130  -0.0057197
           13
    1  -0.0135359
    2   0.0398004
    3  -0.0762239
 Max gradient component =       9.443E-02
 RMS gradient           =       3.682E-02
 Gradient time:  CPU 8.05 s  wall 2.76 s
 Geometry Optimization Parameters
   NAtoms,    NIC,     NZ,  NCons,   NDum,   NFix, NCnnct, MaxDiis
       13     151       0       0       0       0       0       0


** GEOMETRY OPTIMIZATION IN DELOCALIZED INTERNAL COORDINATES **
   Searching for a Minimum

   Optimization Cycle:   1

                       Coordinates (Angstroms)
     ATOM                X               Y               Z
      1  C         1.3485174303    0.1004741853   -0.3059517649
      2  C         0.5649244532   -1.1341035190   -0.9066400225
      3  C        -0.7874069181   -0.7088204752   -1.4349574475
      4  C        -1.3431652362   -0.0592319809   -0.3077093835
      5  C        -0.6741227207    0.9737531129   -1.1814977656
      6  N         0.6854694200    1.0910346708   -1.2258648573
      7  H         2.4179519964    0.1638830809   -0.4994443889
      8  H         0.9244223605   -2.2031458889   -0.8225417199
      9  H        -0.8729529111   -0.5876057884   -2.5458141753
     10  H        -2.2886639063    0.0475097376    0.2273248330
     11  H        -1.2326452195    1.4825291730   -2.0102280754
     12  C         0.1667749428   -0.3325527267    0.3865020033
     13  H        -0.1438927290   -0.8581122012    1.1785909113
   Point Group: c1    Number of degrees of freedom:    33


   Energy is   -286.681395277


 Attempting to Generate Delocalized Internal Coordinates

 33 Hessian modes will be used to form the next step
  Hessian Eigenvalues:
     0.012474    0.016733    0.020140    0.023105    0.023756    0.025077
     0.027825    0.030042    0.043525    0.050462    0.058358    0.063159
     0.074769    0.077781    0.092485    0.106279    0.129291    0.139777
     0.149708    0.169710    0.195343    0.231812    0.250620    0.287780
     0.301019    0.304740    0.314197    0.314909    0.324780    0.346267
     0.349696    0.452049    0.476767

 Minimum Search - Taking Simple RFO Step
 Searching for Lamda that Minimizes Along All modes
 Value Taken    Lamda =  -0.08679592
 Calculated Step too Large.  Step scaled by  0.452271
 Step Taken.  Stepsize is  0.300000

                             Maximum     Tolerance    Cnvgd?
         Gradient           0.068267      0.000600      NO
         Displacement       0.123278      0.002400      NO
         Energy change     *********      0.000002      NO


 New Cartesian Coordinates Obtained by Inverse Iteration

 Displacement from previous Coordinates is:  0.242681
 ----------------------------------------------------------------
             Standard Nuclear Orientation (Angstroms)
    I     Atom           X                Y                Z
 ----------------------------------------------------------------
    1      C       1.3166922933     0.1127021220    -0.3210395644
    2      C       0.5566398570    -1.1423052620    -0.9052181399
    3      C      -0.7833132239    -0.7205664882    -1.4569669627
    4      C      -1.3186270493    -0.0468516065    -0.3125423114
    5      C      -0.6626649661     0.9874433374    -1.2018643318
    6      N       0.6904484327     1.1289375252    -1.2399464429
    7      H       2.3880166192     0.1733285908    -0.4829805303
    8      H       0.9219748838    -2.1904888059    -0.8081322030
    9      H      -0.8975718277    -0.6149385931    -2.5561418510
   10      H      -2.2601881785     0.0611441325     0.2246128265
   11      H      -1.2222515187     1.4979645530    -2.0121156367
   12      C       0.1552765009    -0.3589399907     0.3980311652
   13      H      -0.1192208603    -0.9118181341     1.2260721291
 ----------------------------------------------------------------
 Nuclear Repulsion Energy =   287.2268624173 hartrees
 There are       25 alpha and       24 beta electrons
 Applying Cartesian multipole field
    Component          Value
    ---------          -----
     (2,0,0)        1.00000E-11
     (0,2,0)        2.00000E-11
     (0,0,2)       -3.00000E-11
 Nucleus-field energy     =    -0.0000000014 hartrees
 Requested basis set is 6-31G(d)
 There are 40 shells and 117 basis functions
 A cutoff of  1.0D-14 yielded    813 shell pairs
 There are      7085 function pairs
 Smallest overlap matrix eigenvalue = 1.33E-03
 Guess MOs from SCF MO coefficient file
 Reading MOs from coefficient file
 Reading MOs from coefficient file
 An unrestricted hybrid HF-DFT SCF calculation will be
 performed using Pulay DIIS extrapolation
 Exchange:     0.2000 Hartree-Fock + 0.0800 Slater + 0.7200 B88
 Correlation:  0.1900 VWN1RPA + 0.8100 LYP
 Using SG-1 standard quadrature grid
 SCF converges when DIIS error is below 1.0E-08
 Geometry optimization detected.  Setting ReadMinima to 0
 Setting SaveMinima to 0
Using Q-Chem read-in guess as SCF_GUESS READ specified.

 using 4 threads for integral computing
 -------------------------------------------------------
 OpenMP Integral computing Module                
 Release: version 1.0, May 2013, Q-Chem Inc. Pittsburgh 
 -------------------------------------------------------
 -------------------------------------------------------
 OpenMP BLAS3 based DFT computing Module                
 Release: version 1.0, May 2013, Q-Chem Inc. Pittsburgh 
 -------------------------------------------------------
 ---------------------------------------
  Cycle       Energy         DIIS Error
 ---------------------------------------
    1    -286.7268197347      2.17E-03
    2    -286.7153958176      6.85E-04
    3    -286.7153818693      7.50E-04
    4    -286.7162943333      1.14E-04
    5    -286.7163147399      6.91E-05
    6    -286.7163252389      1.17E-05
    7    -286.7163268071      7.48E-06
    8    -286.7163274965      2.44E-06
    9    -286.7163276733      1.76E-06
   10    -286.7163276957      4.52E-07
   11    -286.7163276988      1.28E-07
   12    -286.7163276992      7.51E-08
   13    -286.7163276994      2.12E-08
   14    -286.7163276994      1.17E-08
   15    -286.7163276994      4.09E-09 Convergence criterion met
 ---------------------------------------
 <S^2> = 0.7681
 SCF time:  CPU 39.88 s  wall 46.20 s
 SCF   energy in the final basis set = -286.71632770
 Total energy in the final basis set = -286.71632770
 
 --------------------------------------------------------------
 
                    Orbital Energies (a.u.)
 --------------------------------------------------------------
 
 Alpha MOs
 -- Occupied --
-14.327 -10.239 -10.230 -10.225 -10.218 -10.212 -10.197  -0.985
 -0.825  -0.803  -0.656  -0.604  -0.570  -0.542  -0.526  -0.476
 -0.428  -0.409  -0.399  -0.393  -0.305  -0.293  -0.262  -0.233
 -0.188
 -- Virtual --
  0.044   0.060   0.087   0.113   0.121   0.135   0.149   0.170
  0.172   0.196   0.210   0.244   0.263   0.309   0.352   0.366
  0.486   0.518   0.526   0.534   0.554   0.585   0.593   0.603
  0.617   0.658   0.665   0.697   0.723   0.743   0.763   0.785
  0.799   0.803   0.829   0.842   0.857   0.876   0.913   0.916
  0.958   0.980   1.019   1.163   1.262   1.321   1.361   1.407
  1.429   1.504   1.529   1.562   1.613   1.646   1.687   1.720
  1.784   1.812   1.836   1.896   1.942   1.970   1.997   2.029
  2.059   2.103   2.188   2.226   2.259   2.291   2.397   2.407
  2.429   2.461   2.496   2.545   2.560   2.608   2.635   2.668
  2.732   2.826   2.847   2.871   2.960   3.909   4.230   4.256
  4.366   4.496   4.572   4.671
 
 Beta MOs
 -- Occupied --
-14.313 -10.240 -10.230 -10.227 -10.212 -10.212 -10.196  -0.975
 -0.806  -0.799  -0.648  -0.602  -0.564  -0.538  -0.522  -0.474
 -0.423  -0.402  -0.388  -0.376  -0.303  -0.278  -0.245  -0.226
 -- Virtual --
 -0.067   0.047   0.077   0.092   0.116   0.124   0.140   0.151
  0.172   0.176   0.202   0.215   0.247   0.267   0.311   0.356
  0.370   0.488   0.520   0.533   0.543   0.560   0.588   0.596
  0.607   0.621   0.660   0.676   0.698   0.731   0.758   0.766
  0.793   0.802   0.808   0.834   0.845   0.862   0.880   0.917
  0.931   0.963   0.988   1.021   1.167   1.267   1.321   1.373
  1.412   1.444   1.511   1.535   1.570   1.622   1.652   1.691
  1.733   1.787   1.817   1.841   1.907   1.951   1.974   2.002
  2.036   2.061   2.110   2.194   2.233   2.269   2.301   2.409
  2.418   2.439   2.470   2.502   2.554   2.575   2.611   2.646
  2.674   2.737   2.829   2.851   2.877   2.962   3.930   4.236
  4.258   4.369   4.498   4.575   4.675
 --------------------------------------------------------------
 
          Ground-State Mulliken Net Atomic Charges

     Atom                 Charge (a.u.)    Spin (a.u.)
  --------------------------------------------------------
      1 C                    -0.005574      -0.039949
      2 C                    -0.169049       0.072502
      3 C                    -0.096165       0.408942
      4 C                    -0.157915       0.013691
      5 C                    -0.022963      -0.131490
      6 N                    -0.323641       0.677952
      7 H                     0.185605       0.001820
      8 H                     0.144831      -0.003478
      9 H                     0.158135      -0.020705
     10 H                     0.154976       0.010232
     11 H                     0.148580       0.005158
     12 C                    -0.157679       0.003628
     13 H                     0.140859       0.001698
  --------------------------------------------------------
  Sum of atomic charges =     0.000000
  Sum of spin   charges =     1.000000

 -----------------------------------------------------------------
                    Cartesian Multipole Moments
 -----------------------------------------------------------------
    Charge (ESU x 10^10)
                -0.0000
    Dipole Moment (Debye)
         X      -1.0828      Y      -1.4843      Z       0.9143
       Tot       2.0522
    Quadrupole Moments (Debye-Ang)
        XX     -36.9979     XY      -2.9855     YY     -43.6296
        XZ       1.8003     YZ       0.8740     ZZ     -41.6906
    Octopole Moments (Debye-Ang^2)
       XXX       5.9594    XXY       2.0699    XYY      -0.3865
       YYY      -2.3184    XXZ      30.7012    XYZ       5.2045
       YYZ      33.9922    XZZ      -6.7107    YZZ      -0.8653
       ZZZ      88.5102
    Hexadecapole Moments (Debye-Ang^3)
      XXXX    -232.5841   XXXY      -0.2826   XXYY     -84.0293
      XYYY      -8.9546   YYYY    -214.4095   XXXZ     -20.8052
      XXYZ       2.6928   XYYZ       0.1068   YYYZ      18.4882
      XXZZ     -96.2312   XYZZ      -8.0118   YYZZ     -90.1681
      XZZZ       0.6554   YZZZ      15.2906   ZZZZ    -287.4861
 -----------------------------------------------------------------
 Calculating analytic gradient of the SCF energy
 Gradient of SCF Energy
            1           2           3           4           5           6
    1   0.0515961  -0.0023628  -0.0223165  -0.0613114   0.0015025  -0.0120482
    2  -0.0279110   0.0151070   0.0244440  -0.0512744  -0.0083424  -0.0282288
    3   0.0885886  -0.0358689   0.0659346  -0.0240382   0.0310826  -0.0156034
            7           8           9          10          11          12
    1  -0.0016007   0.0039542   0.0217027  -0.0000372  -0.0056495   0.0461600
    2   0.0047779  -0.0181232   0.0145601   0.0024394   0.0014679   0.0509485
    3  -0.0314377   0.0043084  -0.0137908   0.0040504  -0.0139730  -0.0119686
           13
    1  -0.0195893
    2   0.0201350
    3  -0.0472840
 Max gradient component =       8.859E-02
 RMS gradient           =       3.115E-02
 Gradient time:  CPU 8.08 s  wall 3.32 s
 Geometry Optimization Parameters
   NAtoms,    NIC,     NZ,  NCons,   NDum,   NFix, NCnnct, MaxDiis
       13     151       0       0       0       0       0       0

 Cartesian Hessian Update
 Hessian Updated using BFGS Update


** GEOMETRY OPTIMIZATION IN DELOCALIZED INTERNAL COORDINATES **
   Searching for a Minimum

   Optimization Cycle:   2

                       Coordinates (Angstroms)
     ATOM                X               Y               Z
      1  C         1.3166922933    0.1127021220   -0.3210395644
      2  C         0.5566398570   -1.1423052620   -0.9052181399
      3  C        -0.7833132239   -0.7205664882   -1.4569669627
      4  C        -1.3186270493   -0.0468516065   -0.3125423114
      5  C        -0.6626649661    0.9874433374   -1.2018643318
      6  N         0.6904484327    1.1289375252   -1.2399464429
      7  H         2.3880166192    0.1733285908   -0.4829805303
      8  H         0.9219748838   -2.1904888059   -0.8081322030
      9  H        -0.8975718277   -0.6149385931   -2.5561418510
     10  H        -2.2601881785    0.0611441325    0.2246128265
     11  H        -1.2222515187    1.4979645530   -2.0121156367
     12  C         0.1552765009   -0.3589399907    0.3980311652
     13  H        -0.1192208603   -0.9118181341    1.2260721291
   Point Group: c1    Number of degrees of freedom:    33


   Energy is   -286.716327699

 Hessian Updated using BFGS Update

 33 Hessian modes will be used to form the next step
  Hessian Eigenvalues:
     0.012496    0.016816    0.020102    0.023009    0.023746    0.024552
     0.027676    0.029898    0.043451    0.047791    0.056623    0.065152
     0.074426    0.077380    0.092526    0.106236    0.108943    0.141881
     0.149773    0.166997    0.195890    0.231422    0.253425    0.288760
     0.300385    0.306855    0.314458    0.315604    0.323683    0.346409
     0.350191    0.450816    0.530500

 Minimum Search - Taking Simple RFO Step
 Searching for Lamda that Minimizes Along All modes
 Value Taken    Lamda =  -0.07078152
 Calculated Step too Large.  Step scaled by  0.418220
 Step Taken.  Stepsize is  0.300000

                             Maximum     Tolerance    Cnvgd?
         Gradient           0.047011      0.000600      NO
         Displacement       0.119912      0.002400      NO
         Energy change     -0.034932      0.000002      NO


 New Cartesian Coordinates Obtained by Inverse Iteration

 Displacement from previous Coordinates is:  0.218504
 ----------------------------------------------------------------
             Standard Nuclear Orientation (Angstroms)
    I     Atom           X                Y                Z
 ----------------------------------------------------------------
    1      C       1.2847575030     0.1227515878    -0.3399225304
    2      C       0.5495397740    -1.1482780148    -0.9046995118
    3      C      -0.7805911031    -0.7365957009    -1.4787984877
    4      C      -1.2883580919    -0.0363431776    -0.3186690577
    5      C      -0.6508287377     0.9996992264    -1.2166168292
    6      N       0.6922267192     1.1581665175    -1.2443342738
    7      H       2.3609558989     0.1751472251    -0.4558568765
    8      H       0.9246998435    -2.1772267003    -0.7962163278
    9      H      -0.9264399629    -0.6448553471    -2.5655563890
   10      H      -2.2276474683     0.0745845116     0.2196012654
   11      H      -1.2173743159     1.5141399134    -2.0062427864
   12      C       0.1388272112    -0.3802996012     0.4022632018
   13      H      -0.0945563078    -0.9452790597     1.2568167499
 ----------------------------------------------------------------
 Nuclear Repulsion Energy =   287.1543935299 hartrees
 There are       25 alpha and       24 beta electrons
 Applying Cartesian multipole field
    Component          Value
    ---------          -----
     (2,0,0)        1.00000E-11
     (0,2,0)        2.00000E-11
     (0,0,2)       -3.00000E-11
 Nucleus-field energy     =    -0.0000000015 hartrees
 Requested basis set is 6-31G(d)
 There are 40 shells and 117 basis functions
 A cutoff of  1.0D-14 yielded    813 shell pairs
 There are      7085 function pairs
 Smallest overlap matrix eigenvalue = 1.31E-03
 Guess MOs from SCF MO coefficient file
 Reading MOs from coefficient file
 Reading MOs from coefficient file
 An unrestricted hybrid HF-DFT SCF calculation will be
 performed using Pulay DIIS extrapolation
 Exchange:     0.2000 Hartree-Fock + 0.0800 Slater + 0.7200 B88
 Correlation:  0.1900 VWN1RPA + 0.8100 LYP
 Using SG-1 standard quadrature grid
 SCF converges when DIIS error is below 1.0E-08
 Geometry optimization detected.  Setting ReadMinima to 0
 Setting SaveMinima to 0
Using Q-Chem read-in guess as SCF_GUESS READ specified.

 using 4 threads for integral computing
 -------------------------------------------------------
 OpenMP Integral computing Module                
 Release: version 1.0, May 2013, Q-Chem Inc. Pittsburgh 
 -------------------------------------------------------
 -------------------------------------------------------
 OpenMP BLAS3 based DFT computing Module                
 Release: version 1.0, May 2013, Q-Chem Inc. Pittsburgh 
 -------------------------------------------------------
 ---------------------------------------
  Cycle       Energy         DIIS Error
 ---------------------------------------
    1    -286.7667938036      1.96E-03
    2    -286.7421505994      6.50E-04
    3    -286.7421721108      7.02E-04
    4    -286.7429738828      1.44E-04
    5    -286.7430123853      6.71E-05
    6    -286.7430240773      1.26E-05
    7    -286.7430269804      7.91E-06
    8    -286.7430278771      2.62E-06
    9    -286.7430280784      9.25E-07
   10    -286.7430280887      5.57E-07
   11    -286.7430280909      1.04E-07
   12    -286.7430280915      7.91E-08
   13    -286.7430280916      2.27E-08
   14    -286.7430280917      1.44E-08
   15    -286.7430280917      7.93E-09 Convergence criterion met
 ---------------------------------------
 <S^2> = 0.7702
 SCF time:  CPU 39.92 s  wall 35.01 s
 SCF   energy in the final basis set = -286.74302809
 Total energy in the final basis set = -286.74302809
 
 --------------------------------------------------------------
 
                    Orbital Energies (a.u.)
 --------------------------------------------------------------
 
 Alpha MOs
 -- Occupied --
-14.327 -10.236 -10.228 -10.224 -10.218 -10.210 -10.196  -0.984
 -0.828  -0.798  -0.657  -0.602  -0.572  -0.542  -0.527  -0.471
 -0.431  -0.405  -0.400  -0.393  -0.314  -0.294  -0.265  -0.233
 -0.191
 -- Virtual --
  0.054   0.064   0.089   0.113   0.122   0.139   0.150   0.171
  0.175   0.200   0.214   0.248   0.261   0.305   0.356   0.369
  0.485   0.516   0.526   0.533   0.557   0.588   0.596   0.602
  0.621   0.659   0.665   0.699   0.722   0.739   0.756   0.783
  0.801   0.803   0.827   0.845   0.857   0.873   0.915   0.920
  0.952   0.974   1.010   1.159   1.261   1.332   1.357   1.413
  1.427   1.512   1.546   1.556   1.609   1.642   1.693   1.706
  1.791   1.820   1.840   1.891   1.947   1.956   1.989   2.034
  2.072   2.100   2.167   2.221   2.271   2.291   2.399   2.409
  2.438   2.465   2.509   2.548   2.566   2.609   2.638   2.656
  2.742   2.818   2.847   2.872   2.953   3.907   4.231   4.261
  4.362   4.484   4.576   4.672
 
 Beta MOs
 -- Occupied --
-14.314 -10.236 -10.228 -10.226 -10.212 -10.210 -10.194  -0.974
 -0.808  -0.796  -0.649  -0.600  -0.566  -0.538  -0.522  -0.469
 -0.426  -0.400  -0.387  -0.375  -0.312  -0.280  -0.248  -0.226
 -- Virtual --
 -0.072   0.061   0.079   0.094   0.116   0.124   0.143   0.153
  0.175   0.176   0.206   0.218   0.251   0.265   0.308   0.360
  0.373   0.487   0.520   0.534   0.542   0.563   0.590   0.599
  0.605   0.626   0.664   0.672   0.701   0.730   0.753   0.760
  0.792   0.804   0.809   0.831   0.847   0.862   0.880   0.923
  0.928   0.957   0.983   1.013   1.162   1.266   1.332   1.369
  1.421   1.440   1.519   1.553   1.562   1.617   1.650   1.697
  1.720   1.794   1.827   1.846   1.899   1.955   1.960   1.996
  2.039   2.074   2.107   2.175   2.229   2.282   2.298   2.411
  2.421   2.447   2.473   2.515   2.556   2.582   2.614   2.647
  2.661   2.747   2.821   2.851   2.877   2.956   3.927   4.238
  4.263   4.365   4.486   4.579   4.676
 --------------------------------------------------------------
 
          Ground-State Mulliken Net Atomic Charges

     Atom                 Charge (a.u.)    Spin (a.u.)
  --------------------------------------------------------
      1 C                    -0.019761      -0.030894
      2 C                    -0.168686       0.054078
      3 C                    -0.095739       0.455588
      4 C                    -0.162577       0.011919
      5 C                    -0.021798      -0.140530
      6 N                    -0.318836       0.647112
      7 H                     0.177265       0.000899
      8 H                     0.148069      -0.002594
      9 H                     0.159751      -0.022112
     10 H                     0.153626       0.011073
     11 H                     0.149338       0.005722
     12 C                    -0.143596       0.008676
     13 H                     0.142944       0.001062
  --------------------------------------------------------
  Sum of atomic charges =    -0.000000
  Sum of spin   charges =     1.000000

 -----------------------------------------------------------------
                    Cartesian Multipole Moments
 -----------------------------------------------------------------
    Charge (ESU x 10^10)
                -0.0000
    Dipole Moment (Debye)
         X      -1.1515      Y      -1.5465      Z       0.8648
       Tot       2.1132
    Quadrupole Moments (Debye-Ang)
        XX     -37.3954     XY      -3.1187     YY     -43.4796
        XZ       2.0387     YZ       0.8947     ZZ     -41.3502
    Octopole Moments (Debye-Ang^2)
       XXX       5.6633    XXY       1.9400    XYY      -0.5338
       YYY      -2.8920    XXZ      31.0044    XYZ       5.1623
       YYZ      34.2071    XZZ      -7.0008    YZZ      -1.2861
       ZZZ      88.5899
    Hexadecapole Moments (Debye-Ang^3)
      XXXX    -229.6542   XXXY      -1.3688   XXYY     -83.5104
      XYYY     -10.2491   YYYY    -219.0514   XXXZ     -19.7509
      XXYZ       3.1692   XYYZ       0.4736   YYYZ      19.3211
      XXZZ     -95.4312   XYZZ      -8.0286   YYZZ     -91.0071
      XZZZ       1.4135   YZZZ      16.6045   ZZZZ    -289.0935
 -----------------------------------------------------------------
 Calculating analytic gradient of the SCF energy
 Gradient of SCF Energy
            1           2           3           4           5           6
    1   0.0389512  -0.0024186  -0.0148437  -0.0548000  -0.0005867  -0.0066565
    2  -0.0223954   0.0063876   0.0199775  -0.0414522  -0.0092459  -0.0183169
    3   0.0784762  -0.0335825   0.0469910  -0.0180147   0.0256944  -0.0184832
            7           8           9          10          11          12
    1  -0.0016723   0.0007597   0.0185760   0.0016369  -0.0020117   0.0430365
    2   0.0047966  -0.0106094   0.0124287   0.0017954  -0.0003222   0.0470581
    3  -0.0298470   0.0061834  -0.0092661   0.0047289  -0.0098567  -0.0105062
           13
    1  -0.0199708
    2   0.0098982
    3  -0.0325175
 Max gradient component =       7.848E-02
 RMS gradient           =       2.592E-02
 Gradient time:  CPU 8.07 s  wall 2.86 s
 Geometry Optimization Parameters
   NAtoms,    NIC,     NZ,  NCons,   NDum,   NFix, NCnnct, MaxDiis
       13     151       0       0       0       0       0       0

 Cartesian Hessian Update
 Hessian Updated using BFGS Update


** GEOMETRY OPTIMIZATION IN DELOCALIZED INTERNAL COORDINATES **
   Searching for a Minimum

   Optimization Cycle:   3

                       Coordinates (Angstroms)
     ATOM                X               Y               Z
      1  C         1.2847575030    0.1227515878   -0.3399225304
      2  C         0.5495397740   -1.1482780148   -0.9046995118
      3  C        -0.7805911031   -0.7365957009   -1.4787984877
      4  C        -1.2883580919   -0.0363431776   -0.3186690577
      5  C        -0.6508287377    0.9996992264   -1.2166168292
      6  N         0.6922267192    1.1581665175   -1.2443342738
      7  H         2.3609558989    0.1751472251   -0.4558568765
      8  H         0.9246998435   -2.1772267003   -0.7962163278
      9  H        -0.9264399629   -0.6448553471   -2.5655563890
     10  H        -2.2276474683    0.0745845116    0.2196012654
     11  H        -1.2173743159    1.5141399134   -2.0062427864
     12  C         0.1388272112   -0.3802996012    0.4022632018
     13  H        -0.0945563078   -0.9452790597    1.2568167499
   Point Group: c1    Number of degrees of freedom:    33


   Energy is   -286.743028092

 Hessian Updated using BFGS Update

 33 Hessian modes will be used to form the next step
  Hessian Eigenvalues:
     0.012480    0.016756    0.020111    0.022972    0.023762    0.024663
     0.027530    0.029828    0.043006    0.045767    0.055748    0.066528
     0.074888    0.077817    0.092068    0.100993    0.107533    0.142685
     0.150024    0.172225    0.195872    0.230986    0.255560    0.288737
     0.301009    0.308279    0.314560    0.319885    0.325398    0.346571
     0.350615    0.449668    0.540071

 Minimum Search - Taking Simple RFO Step
 Searching for Lamda that Minimizes Along All modes
 Value Taken    Lamda =  -0.05496868
 Calculated Step too Large.  Step scaled by  0.416506
 Step Taken.  Stepsize is  0.300000

                             Maximum     Tolerance    Cnvgd?
         Gradient           0.033948      0.000600      NO
         Displacement       0.122630      0.002400      NO
         Energy change     -0.026700      0.000002      NO


 New Cartesian Coordinates Obtained by Inverse Iteration

 Displacement from previous Coordinates is:  0.210878
 ----------------------------------------------------------------
             Standard Nuclear Orientation (Angstroms)
    I     Atom           X                Y                Z
 ----------------------------------------------------------------
    1      C       1.2565179269     0.1307843628    -0.3594324333
    2      C       0.5450248983    -1.1539250110    -0.9042485992
    3      C      -0.7811025709    -0.7551151555    -1.4970005244
    4      C      -1.2595184781    -0.0251629090    -0.3258459144
    5      C      -0.6405515282     1.0140836956    -1.2292518872
    6      N       0.6915850480     1.1825756370    -1.2435476670
    7      H       2.3370828670     0.1740728895    -0.4210962958
    8      H       0.9332412490    -2.1689845963    -0.7886562651
    9      H      -0.9584467084    -0.6776140790    -2.5738427589
   10      H      -2.1992624567     0.0903848954     0.2100882906
   11      H      -1.2170969678     1.5346257176    -1.9997998824
   12      C       0.1237366386    -0.3999496221     0.4029699343
   13      H      -0.0659989553    -0.9701644448     1.2814321496
 ----------------------------------------------------------------
 Nuclear Repulsion Energy =   287.1325619249 hartrees
 There are       25 alpha and       24 beta electrons
 Applying Cartesian multipole field
    Component          Value
    ---------          -----
     (2,0,0)        1.00000E-11
     (0,2,0)        2.00000E-11
     (0,0,2)       -3.00000E-11
 Nucleus-field energy     =    -0.0000000016 hartrees
 Requested basis set is 6-31G(d)
 There are 40 shells and 117 basis functions
 A cutoff of  1.0D-14 yielded    813 shell pairs
 There are      7085 function pairs
 Smallest overlap matrix eigenvalue = 1.31E-03
 Guess MOs from SCF MO coefficient file
 Reading MOs from coefficient file
 Reading MOs from coefficient file
 An unrestricted hybrid HF-DFT SCF calculation will be
 performed using Pulay DIIS extrapolation
 Exchange:     0.2000 Hartree-Fock + 0.0800 Slater + 0.7200 B88
 Correlation:  0.1900 VWN1RPA + 0.8100 LYP
 Using SG-1 standard quadrature grid
 SCF converges when DIIS error is below 1.0E-08
 Geometry optimization detected.  Setting ReadMinima to 0
 Setting SaveMinima to 0
Using Q-Chem read-in guess as SCF_GUESS READ specified.

 using 4 threads for integral computing
 -------------------------------------------------------
 OpenMP Integral computing Module                
 Release: version 1.0, May 2013, Q-Chem Inc. Pittsburgh 
 -------------------------------------------------------
 -------------------------------------------------------
 OpenMP BLAS3 based DFT computing Module                
 Release: version 1.0, May 2013, Q-Chem Inc. Pittsburgh 
 -------------------------------------------------------
 ---------------------------------------
  Cycle       Energy         DIIS Error
 ---------------------------------------
    1    -286.7849027997      1.80E-03
    2    -286.7628357919      5.90E-04
    3    -286.7627549879      6.86E-04
    4    -286.7635396229      1.63E-04
    5    -286.7635937571      5.67E-05
    6    -286.7636052449      1.42E-05
    7    -286.7636097880      8.74E-06
    8    -286.7636107786      3.08E-06
    9    -286.7636109700      1.74E-06
   10    -286.7636109908      5.24E-07
   11    -286.7636109938      1.55E-07
   12    -286.7636109948      7.91E-08
   13    -286.7636109950      3.36E-08
   14    -286.7636109950      8.78E-09 Convergence criterion met
 ---------------------------------------
 <S^2> = 0.7724
 SCF time:  CPU 37.32 s  wall 33.38 s
 SCF   energy in the final basis set = -286.76361100
 Total energy in the final basis set = -286.76361100
 
 --------------------------------------------------------------
 
                    Orbital Energies (a.u.)
 --------------------------------------------------------------
 
 Alpha MOs
 -- Occupied --
-14.326 -10.233 -10.225 -10.223 -10.219 -10.208 -10.195  -0.983
 -0.832  -0.793  -0.658  -0.600  -0.573  -0.541  -0.528  -0.466
 -0.434  -0.403  -0.400  -0.392  -0.322  -0.294  -0.266  -0.233
 -0.193
 -- Virtual --
  0.055   0.073   0.093   0.111   0.124   0.142   0.151   0.171
  0.179   0.203   0.217   0.253   0.259   0.303   0.357   0.376
  0.485   0.512   0.526   0.533   0.561   0.591   0.597   0.601
  0.626   0.654   0.667   0.702   0.722   0.736   0.752   0.781
  0.799   0.805   0.828   0.845   0.855   0.870   0.915   0.927
  0.946   0.972   1.006   1.155   1.255   1.341   1.354   1.412
  1.433   1.517   1.540   1.561   1.601   1.642   1.693   1.703
  1.795   1.821   1.855   1.887   1.940   1.946   1.989   2.036
  2.088   2.102   2.153   2.214   2.272   2.305   2.397   2.413
  2.450   2.469   2.520   2.551   2.574   2.603   2.644   2.652
  2.749   2.812   2.846   2.870   2.952   3.908   4.231   4.268
  4.358   4.472   4.577   4.672
 
 Beta MOs
 -- Occupied --
-14.314 -10.233 -10.225 -10.225 -10.212 -10.208 -10.194  -0.973
 -0.814  -0.790  -0.649  -0.598  -0.567  -0.537  -0.523  -0.464
 -0.429  -0.399  -0.388  -0.374  -0.319  -0.282  -0.250  -0.226
 -- Virtual --
 -0.076   0.073   0.079   0.097   0.114   0.126   0.146   0.154
  0.175   0.179   0.208   0.222   0.256   0.263   0.305   0.361
  0.380   0.487   0.519   0.534   0.541   0.566   0.593   0.600
  0.604   0.633   0.662   0.671   0.705   0.730   0.748   0.755
  0.791   0.803   0.811   0.830   0.847   0.860   0.878   0.924
  0.930   0.951   0.981   1.008   1.159   1.260   1.344   1.363
  1.424   1.442   1.524   1.547   1.567   1.609   1.651   1.705
  1.708   1.798   1.829   1.861   1.894   1.942   1.955   1.997
  2.039   2.092   2.107   2.163   2.223   2.283   2.311   2.411
  2.423   2.458   2.477   2.529   2.558   2.588   2.611   2.651
  2.658   2.754   2.815   2.849   2.875   2.955   3.927   4.239
  4.270   4.361   4.474   4.581   4.675
 --------------------------------------------------------------
 
          Ground-State Mulliken Net Atomic Charges

     Atom                 Charge (a.u.)    Spin (a.u.)
  --------------------------------------------------------
      1 C                    -0.030453      -0.020656
      2 C                    -0.168311       0.034322
      3 C                    -0.095183       0.511556
      4 C                    -0.171858       0.007778
      5 C                    -0.015394      -0.147470
      6 N                    -0.316510       0.605910
      7 H                     0.169594       0.000038
      8 H                     0.150088      -0.001352
      9 H                     0.160351      -0.023732
     10 H                     0.152611       0.012505
     11 H                     0.149647       0.006189
     12 C                    -0.128633       0.014601
     13 H                     0.144050       0.000312
  --------------------------------------------------------
  Sum of atomic charges =    -0.000000
  Sum of spin   charges =     1.000000

 -----------------------------------------------------------------
                    Cartesian Multipole Moments
 -----------------------------------------------------------------
    Charge (ESU x 10^10)
                -0.0000
    Dipole Moment (Debye)
         X      -1.2116      Y      -1.5951      Z       0.8252
       Tot       2.1664
    Quadrupole Moments (Debye-Ang)
        XX     -37.7129     XY      -3.2664     YY     -43.3473
        XZ       2.2962     YZ       0.9145     ZZ     -41.0609
    Octopole Moments (Debye-Ang^2)
       XXX       5.4489    XXY       1.8459    XYY      -0.6649
       YYY      -3.3062    XXZ      31.2589    XYZ       5.1148
       YYZ      34.3543    XZZ      -7.2588    YZZ      -1.6268
       ZZZ      88.7863
    Hexadecapole Moments (Debye-Ang^3)
      XXXX    -227.1147   XXXY      -2.2139   XXYY     -83.1232
      XYYY     -11.3197   YYYY    -223.9241   XXXZ     -18.8670
      XXYZ       3.5275   XYYZ       0.7682   YYYZ      19.7673
      XXZZ     -94.6145   XYZZ      -7.9462   YYZZ     -91.6568
      XZZZ       1.9239   YZZZ      17.5199   ZZZZ    -290.3765
 -----------------------------------------------------------------
 Calculating analytic gradient of the SCF energy
 Gradient of SCF Energy
            1           2           3           4           5           6
    1   0.0268932  -0.0012822  -0.0098829  -0.0446786  -0.0020369  -0.0029474
    2  -0.0165662   0.0015949   0.0180481  -0.0324526  -0.0117208  -0.0118853
    3   0.0663294  -0.0301921   0.0314691  -0.0125123   0.0201959  -0.0175935
            7           8           9          10          11          12
    1  -0.0008372  -0.0014726   0.0155046   0.0027044  -0.0000080   0.0362913
    2   0.0043381  -0.0061927   0.0103931   0.0013893  -0.0012474   0.0419471
    3  -0.0271824   0.0078349  -0.0062230   0.0054010  -0.0072842  -0.0086358
           13
    1  -0.0182477
    2   0.0023544
    3  -0.0216069
 Max gradient component =       6.633E-02
 RMS gradient           =       2.102E-02
 Gradient time:  CPU 7.63 s  wall 2.79 s
 Geometry Optimization Parameters
   NAtoms,    NIC,     NZ,  NCons,   NDum,   NFix, NCnnct, MaxDiis
       13     151       0       0       0       0       0       0

 Cartesian Hessian Update
 Hessian Updated using BFGS Update


** GEOMETRY OPTIMIZATION IN DELOCALIZED INTERNAL COORDINATES **
   Searching for a Minimum

   Optimization Cycle:   4

                       Coordinates (Angstroms)
     ATOM                X               Y               Z
      1  C         1.2565179269    0.1307843628   -0.3594324333
      2  C         0.5450248983   -1.1539250110   -0.9042485992
      3  C        -0.7811025709   -0.7551151555   -1.4970005244
      4  C        -1.2595184781   -0.0251629090   -0.3258459144
      5  C        -0.6405515282    1.0140836956   -1.2292518872
      6  N         0.6915850480    1.1825756370   -1.2435476670
      7  H         2.3370828670    0.1740728895   -0.4210962958
      8  H         0.9332412490   -2.1689845963   -0.7886562651
      9  H        -0.9584467084   -0.6776140790   -2.5738427589
     10  H        -2.1992624567    0.0903848954    0.2100882906
     11  H        -1.2170969678    1.5346257176   -1.9997998824
     12  C         0.1237366386   -0.3999496221    0.4029699343
     13  H        -0.0659989553   -0.9701644448    1.2814321496
   Point Group: c1    Number of degrees of freedom:    33


   Energy is   -286.763610995

 Hessian Updated using BFGS Update

 33 Hessian modes will be used to form the next step
  Hessian Eigenvalues:
     0.012539    0.016562    0.020109    0.022960    0.023713    0.024846
     0.027475    0.029760    0.042271    0.044801    0.055249    0.067402
     0.074421    0.078737    0.090693    0.097416    0.110976    0.142876
     0.150066    0.178608    0.196254    0.230658    0.256122    0.289685
     0.301306    0.308440    0.314607    0.320212    0.326997    0.346644
     0.350791    0.449071    0.550657

 Minimum Search - Taking Simple RFO Step
 Searching for Lamda that Minimizes Along All modes
 Value Taken    Lamda =  -0.04168980
 Calculated Step too Large.  Step scaled by  0.422621
 Step Taken.  Stepsize is  0.300000

                             Maximum     Tolerance    Cnvgd?
         Gradient           0.024809      0.000600      NO
         Displacement       0.126155      0.002400      NO
         Energy change     -0.020583      0.000002      NO


 New Cartesian Coordinates Obtained by Inverse Iteration

 Displacement from previous Coordinates is:  0.209830
 ----------------------------------------------------------------
             Standard Nuclear Orientation (Angstroms)
    I     Atom           X                Y                Z
 ----------------------------------------------------------------
    1      C       1.2326863979     0.1362624300    -0.3790423184
    2      C       0.5420339498    -1.1603962236    -0.9040319730
    3      C      -0.7841417637    -0.7772979276    -1.5105047169
    4      C      -1.2346470825    -0.0138890689    -0.3347175564
    5      C      -0.6311601694     1.0312729592    -1.2388046055
    6      N       0.6899842037     1.2043428147    -1.2395989182
    7      H       2.3151941948     0.1712086957    -0.3811746946
    8      H       0.9460536923    -2.1640853821    -0.7875038610
    9      H      -0.9923623737    -0.7152445415    -2.5788224243
   10      H      -2.1780142377     0.1076199728     0.1936865846
   11      H      -1.2183837678     1.5600945016    -1.9904540485
   12      C       0.1114374525    -0.4182739841     0.4011851967
   13      H      -0.0334695339    -0.9860028659     1.3015514822
 ----------------------------------------------------------------
 Nuclear Repulsion Energy =   287.0095662861 hartrees
 There are       25 alpha and       24 beta electrons
 Applying Cartesian multipole field
    Component          Value
    ---------          -----
     (2,0,0)        1.00000E-11
     (0,2,0)        2.00000E-11
     (0,0,2)       -3.00000E-11
 Nucleus-field energy     =    -0.0000000016 hartrees
 Requested basis set is 6-31G(d)
 There are 40 shells and 117 basis functions
 A cutoff of  1.0D-14 yielded    813 shell pairs
 There are      7085 function pairs
 Smallest overlap matrix eigenvalue = 1.32E-03
 Guess MOs from SCF MO coefficient file
 Reading MOs from coefficient file
 Reading MOs from coefficient file
 An unrestricted hybrid HF-DFT SCF calculation will be
 performed using Pulay DIIS extrapolation
 Exchange:     0.2000 Hartree-Fock + 0.0800 Slater + 0.7200 B88
 Correlation:  0.1900 VWN1RPA + 0.8100 LYP
 Using SG-1 standard quadrature grid
 SCF converges when DIIS error is below 1.0E-08
 Geometry optimization detected.  Setting ReadMinima to 0
 Setting SaveMinima to 0
Using Q-Chem read-in guess as SCF_GUESS READ specified.

 using 4 threads for integral computing
 -------------------------------------------------------
 OpenMP Integral computing Module                
 Release: version 1.0, May 2013, Q-Chem Inc. Pittsburgh 
 -------------------------------------------------------
 -------------------------------------------------------
 OpenMP BLAS3 based DFT computing Module                
 Release: version 1.0, May 2013, Q-Chem Inc. Pittsburgh 
 -------------------------------------------------------
 ---------------------------------------
  Cycle       Energy         DIIS Error
 ---------------------------------------
    1    -286.7970168653      1.66E-03
    2    -286.7787296664      5.29E-04
    3    -286.7785872870      6.66E-04
    4    -286.7793492837      1.57E-04
    5    -286.7794035712      5.22E-05
    6    -286.7794170540      1.67E-05
    7    -286.7794237633      1.00E-05
    8    -286.7794249000      3.65E-06
    9    -286.7794251188      1.81E-06
   10    -286.7794251435      5.79E-07
   11    -286.7794251482      2.47E-07
   12    -286.7794251498      1.19E-07
   13    -286.7794251499      3.92E-08
   14    -286.7794251499      1.11E-08
   15    -286.7794251500      7.35E-09 Convergence criterion met
 ---------------------------------------
 <S^2> = 0.7744
 SCF time:  CPU 40.39 s  wall 37.96 s
 SCF   energy in the final basis set = -286.77942515
 Total energy in the final basis set = -286.77942515
 
 --------------------------------------------------------------
 
                    Orbital Energies (a.u.)
 --------------------------------------------------------------
 
 Alpha MOs
 -- Occupied --
-14.325 -10.230 -10.223 -10.222 -10.221 -10.207 -10.195  -0.982
 -0.836  -0.788  -0.659  -0.600  -0.573  -0.540  -0.529  -0.462
 -0.437  -0.404  -0.401  -0.390  -0.329  -0.293  -0.266  -0.234
 -0.195
 -- Virtual --
  0.052   0.080   0.098   0.108   0.127   0.145   0.153   0.170
  0.181   0.204   0.219   0.256   0.258   0.301   0.355   0.383
  0.485   0.507   0.526   0.533   0.565   0.595   0.597   0.600
  0.632   0.649   0.669   0.705   0.723   0.732   0.749   0.778
  0.799   0.807   0.830   0.843   0.855   0.867   0.914   0.933
  0.943   0.972   1.003   1.153   1.246   1.341   1.358   1.406
  1.444   1.519   1.530   1.559   1.598   1.643   1.679   1.709
  1.790   1.829   1.868   1.886   1.930   1.941   1.991   2.040
  2.090   2.116   2.146   2.208   2.273   2.318   2.392   2.417
  2.462   2.472   2.528   2.549   2.582   2.603   2.637   2.664
  2.752   2.807   2.842   2.870   2.953   3.911   4.230   4.277
  4.354   4.462   4.576   4.670
 
 Beta MOs
 -- Occupied --
-14.314 -10.230 -10.225 -10.222 -10.212 -10.206 -10.194  -0.973
 -0.820  -0.784  -0.649  -0.597  -0.568  -0.535  -0.523  -0.459
 -0.432  -0.400  -0.389  -0.373  -0.324  -0.283  -0.251  -0.227
 -- Virtual --
 -0.078   0.075   0.083   0.103   0.112   0.129   0.149   0.156
  0.174   0.182   0.210   0.223   0.259   0.264   0.303   0.360
  0.387   0.487   0.518   0.533   0.540   0.569   0.596   0.600
  0.602   0.639   0.657   0.673   0.709   0.731   0.742   0.752
  0.789   0.803   0.812   0.832   0.846   0.859   0.875   0.922
  0.936   0.947   0.980   1.007   1.156   1.251   1.351   1.359
  1.419   1.451   1.527   1.535   1.566   1.606   1.652   1.694
  1.713   1.795   1.836   1.874   1.891   1.933   1.950   1.999
  2.043   2.098   2.118   2.157   2.217   2.285   2.324   2.407
  2.426   2.468   2.479   2.539   2.555   2.593   2.612   2.643
  2.670   2.757   2.810   2.846   2.875   2.956   3.929   4.240
  4.279   4.356   4.464   4.580   4.673
 --------------------------------------------------------------
 
          Ground-State Mulliken Net Atomic Charges

     Atom                 Charge (a.u.)    Spin (a.u.)
  --------------------------------------------------------
      1 C                    -0.037619      -0.008946
      2 C                    -0.168165       0.013090
      3 C                    -0.094111       0.576651
      4 C                    -0.183922       0.001164
      5 C                    -0.004883      -0.150501
      6 N                    -0.316796       0.552715
      7 H                     0.163023      -0.000663
      8 H                     0.151385       0.000122
      9 H                     0.159955      -0.025399
     10 H                     0.152011       0.014547
     11 H                     0.149578       0.006550
     12 C                    -0.115090       0.021206
     13 H                     0.144634      -0.000536
  --------------------------------------------------------
  Sum of atomic charges =    -0.000000
  Sum of spin   charges =     1.000000

 -----------------------------------------------------------------
                    Cartesian Multipole Moments
 -----------------------------------------------------------------
    Charge (ESU x 10^10)
                -0.0000
    Dipole Moment (Debye)
         X      -1.2684      Y      -1.6360      Z       0.7993
       Tot       2.2190
    Quadrupole Moments (Debye-Ang)
        XX     -37.9374     XY      -3.4233     YY     -43.2370
        XZ       2.5619     YZ       0.9490     ZZ     -40.8417
    Octopole Moments (Debye-Ang^2)
       XXX       5.2112    XXY       1.7703    XYY      -0.7919
       YYY      -3.5745    XXZ      31.4612    XYZ       5.0653
       YYZ      34.4223    XZZ      -7.4592    YZZ      -1.9186
       ZZZ      89.1491
    Hexadecapole Moments (Debye-Ang^3)
      XXXX    -225.0451   XXXY      -2.8976   XXYY     -82.9418
      XYYY     -12.2915   YYYY    -229.2994   XXXZ     -18.0995
      XXYZ       3.8191   XYYZ       1.0130   YYYZ      19.9268
      XXZZ     -93.8308   XYZZ      -7.8055   YYZZ     -92.1865
      XZZZ       2.1904   YZZZ      18.1474   ZZZZ    -291.4682
 -----------------------------------------------------------------
 Calculating analytic gradient of the SCF energy
 Gradient of SCF Energy
            1           2           3           4           5           6
    1   0.0165426   0.0008274  -0.0066680  -0.0341780  -0.0033761  -0.0001095
    2  -0.0113865  -0.0010513   0.0182306  -0.0244137  -0.0154075  -0.0070825
    3   0.0533021  -0.0261525   0.0190510  -0.0071922   0.0141764  -0.0146411
            7           8           9          10          11          12
    1   0.0001655  -0.0031890   0.0125737   0.0032331   0.0011303   0.0282968
    2   0.0036980  -0.0035023   0.0084052   0.0012268  -0.0017836   0.0360173
    3  -0.0235847   0.0091182  -0.0040854   0.0057527  -0.0053729  -0.0066634
           13
    1  -0.0152490
    2  -0.0029504
    3  -0.0137082
 Max gradient component =       5.330E-02
 RMS gradient           =       1.662E-02
 Gradient time:  CPU 7.54 s  wall 2.35 s
 Geometry Optimization Parameters
   NAtoms,    NIC,     NZ,  NCons,   NDum,   NFix, NCnnct, MaxDiis
       13     151       0       0       0       0       0       0

 Cartesian Hessian Update
 Hessian Updated using BFGS Update


** GEOMETRY OPTIMIZATION IN DELOCALIZED INTERNAL COORDINATES **
   Searching for a Minimum

   Optimization Cycle:   5

                       Coordinates (Angstroms)
     ATOM                X               Y               Z
      1  C         1.2326863979    0.1362624300   -0.3790423184
      2  C         0.5420339498   -1.1603962236   -0.9040319730
      3  C        -0.7841417637   -0.7772979276   -1.5105047169
      4  C        -1.2346470825   -0.0138890689   -0.3347175564
      5  C        -0.6311601694    1.0312729592   -1.2388046055
      6  N         0.6899842037    1.2043428147   -1.2395989182
      7  H         2.3151941948    0.1712086957   -0.3811746946
      8  H         0.9460536923   -2.1640853821   -0.7875038610
      9  H        -0.9923623737   -0.7152445415   -2.5788224243
     10  H        -2.1780142377    0.1076199728    0.1936865846
     11  H        -1.2183837678    1.5600945016   -1.9904540485
     12  C         0.1114374525   -0.4182739841    0.4011851967
     13  H        -0.0334695339   -0.9860028659    1.3015514822
   Point Group: c1    Number of degrees of freedom:    33


   Energy is   -286.779425150

 Hessian Updated using BFGS Update

 33 Hessian modes will be used to form the next step
  Hessian Eigenvalues:
     0.012568    0.016030    0.020093    0.022830    0.023426    0.025276
     0.027375    0.029686    0.040558    0.044020    0.054729    0.068030
     0.072332    0.078921    0.089860    0.096170    0.115481    0.143069
     0.150098    0.186286    0.198574    0.230583    0.256165    0.291085
     0.301631    0.308490    0.314631    0.320070    0.328515    0.346684
     0.350926    0.448552    0.562977

 Minimum Search - Taking Simple RFO Step
 Searching for Lamda that Minimizes Along All modes
 Value Taken    Lamda =  -0.03227897
 Calculated Step too Large.  Step scaled by  0.421996
 Step Taken.  Stepsize is  0.300000

                             Maximum     Tolerance    Cnvgd?
         Gradient           0.017987      0.000600      NO
         Displacement       0.125709      0.002400      NO
         Energy change     -0.015814      0.000002      NO


 New Cartesian Coordinates Obtained by Inverse Iteration

 Displacement from previous Coordinates is:  0.214810
 ----------------------------------------------------------------
             Standard Nuclear Orientation (Angstroms)
    I     Atom           X                Y                Z
 ----------------------------------------------------------------
    1      C       1.2129310079     0.1392061131    -0.3980374377
    2      C       0.5397121463    -1.1680645003    -0.9040973426
    3      C      -0.7888084372    -0.8041377954    -1.5190574128
    4      C      -1.2140012181    -0.0032315918    -0.3457685632
    5      C      -0.6220991821     1.0522256285    -1.2441143141
    6      N       0.6881365288     1.2239024524    -1.2342684824
    7      H       2.2941614325     0.1669112714    -0.3396306962
    8      H       0.9627449378    -2.1612210433    -0.7933855601
    9      H      -1.0266445949    -0.7584874676    -2.5795525622
   10      H      -2.1636676539     0.1248228994     0.1701314612
   11      H      -1.2194124581     1.5915293410    -1.9769035275
   12      C       0.1017494759    -0.4350830809     0.3978141561
   13      H       0.0004089773    -0.9927608463     1.3186384284
 ----------------------------------------------------------------
 Nuclear Repulsion Energy =   286.7505054446 hartrees
 There are       25 alpha and       24 beta electrons
 Applying Cartesian multipole field
    Component          Value
    ---------          -----
     (2,0,0)        1.00000E-11
     (0,2,0)        2.00000E-11
     (0,0,2)       -3.00000E-11
 Nucleus-field energy     =    -0.0000000015 hartrees
 Requested basis set is 6-31G(d)
 There are 40 shells and 117 basis functions
 A cutoff of  1.0D-14 yielded    813 shell pairs
 There are      7085 function pairs
 Smallest overlap matrix eigenvalue = 1.36E-03
 Guess MOs from SCF MO coefficient file
 Reading MOs from coefficient file
 Reading MOs from coefficient file
 An unrestricted hybrid HF-DFT SCF calculation will be
 performed using Pulay DIIS extrapolation
 Exchange:     0.2000 Hartree-Fock + 0.0800 Slater + 0.7200 B88
 Correlation:  0.1900 VWN1RPA + 0.8100 LYP
 Using SG-1 standard quadrature grid
 SCF converges when DIIS error is below 1.0E-08
 Geometry optimization detected.  Setting ReadMinima to 0
 Setting SaveMinima to 0
Using Q-Chem read-in guess as SCF_GUESS READ specified.

 using 4 threads for integral computing
 -------------------------------------------------------
 OpenMP Integral computing Module                
 Release: version 1.0, May 2013, Q-Chem Inc. Pittsburgh 
 -------------------------------------------------------
 -------------------------------------------------------
 OpenMP BLAS3 based DFT computing Module                
 Release: version 1.0, May 2013, Q-Chem Inc. Pittsburgh 
 -------------------------------------------------------
 ---------------------------------------
  Cycle       Energy         DIIS Error
 ---------------------------------------
    1    -286.8054904525      1.57E-03
    2    -286.7910880149      4.76E-04
    3    -286.7909518052      6.36E-04
    4    -286.7916600574      1.45E-04
    5    -286.7917113335      5.19E-05
    6    -286.7917288014      1.91E-05
    7    -286.7917380665      1.17E-05
    8    -286.7917395406      4.01E-06
    9    -286.7917398497      1.92E-06
   10    -286.7917398857      7.51E-07
   11    -286.7917398955      3.49E-07
   12    -286.7917398982      1.71E-07
   13    -286.7917398985      3.62E-08
   14    -286.7917398986      1.15E-08
   15    -286.7917398986      6.47E-09 Convergence criterion met
 ---------------------------------------
 <S^2> = 0.7751
 SCF time:  CPU 39.76 s  wall 37.41 s
 SCF   energy in the final basis set = -286.79173990
 Total energy in the final basis set = -286.79173990
 
 --------------------------------------------------------------
 
                    Orbital Energies (a.u.)
 --------------------------------------------------------------
 
 Alpha MOs
 -- Occupied --
-14.323 -10.228 -10.223 -10.221 -10.220 -10.205 -10.195  -0.981
 -0.839  -0.783  -0.659  -0.599  -0.574  -0.538  -0.530  -0.458
 -0.439  -0.405  -0.402  -0.386  -0.334  -0.292  -0.266  -0.236
 -0.195
 -- Virtual --
  0.047   0.084   0.104   0.107   0.130   0.147   0.154   0.168
  0.181   0.206   0.219   0.257   0.261   0.299   0.352   0.390
  0.485   0.502   0.526   0.534   0.567   0.596   0.598   0.600
  0.633   0.649   0.670   0.708   0.724   0.730   0.747   0.776
  0.800   0.807   0.832   0.838   0.855   0.864   0.912   0.939
  0.941   0.972   1.003   1.150   1.237   1.337   1.363   1.397
  1.454   1.514   1.524   1.551   1.603   1.645   1.663   1.712
  1.779   1.839   1.872   1.888   1.932   1.936   1.991   2.044
  2.091   2.131   2.143   2.203   2.277   2.325   2.383   2.421
  2.470   2.472   2.527   2.547   2.588   2.609   2.636   2.674
  2.750   2.802   2.838   2.875   2.956   3.917   4.229   4.288
  4.348   4.454   4.572   4.668
 
 Beta MOs
 -- Occupied --
-14.313 -10.228 -10.225 -10.220 -10.212 -10.205 -10.195  -0.972
 -0.825  -0.778  -0.648  -0.597  -0.569  -0.533  -0.523  -0.455
 -0.435  -0.401  -0.390  -0.371  -0.328  -0.284  -0.251  -0.228
 -- Virtual --
 -0.080   0.070   0.088   0.109   0.111   0.132   0.151   0.157
  0.172   0.182   0.212   0.223   0.261   0.266   0.302   0.358
  0.393   0.487   0.516   0.532   0.540   0.571   0.598   0.601
  0.603   0.643   0.655   0.674   0.713   0.732   0.737   0.750
  0.787   0.804   0.812   0.833   0.844   0.858   0.871   0.920
  0.943   0.945   0.980   1.007   1.154   1.242   1.347   1.364
  1.409   1.462   1.522   1.528   1.558   1.612   1.654   1.678
  1.717   1.786   1.847   1.879   1.891   1.935   1.945   1.999
  2.048   2.099   2.133   2.155   2.213   2.288   2.331   2.400
  2.429   2.474   2.481   2.539   2.555   2.596   2.619   2.641
  2.680   2.754   2.806   2.842   2.879   2.959   3.932   4.240
  4.290   4.350   4.456   4.577   4.670
 --------------------------------------------------------------
 
          Ground-State Mulliken Net Atomic Charges

     Atom                 Charge (a.u.)    Spin (a.u.)
  --------------------------------------------------------
      1 C                    -0.041538       0.004616
      2 C                    -0.168544      -0.008933
      3 C                    -0.091924       0.649887
      4 C                    -0.197659      -0.008195
      5 C                     0.008959      -0.146247
      6 N                    -0.319588       0.484619
      7 H                     0.157879      -0.001070
      8 H                     0.152200       0.001718
      9 H                     0.158513      -0.026900
     10 H                     0.151729       0.017125
     11 H                     0.149064       0.006704
     12 C                    -0.104105       0.028091
     13 H                     0.145013      -0.001416
  --------------------------------------------------------
  Sum of atomic charges =     0.000000
  Sum of spin   charges =     1.000000

 -----------------------------------------------------------------
                    Cartesian Multipole Moments
 -----------------------------------------------------------------
    Charge (ESU x 10^10)
                -0.0000
    Dipole Moment (Debye)
         X      -1.3191      Y      -1.6675      Z       0.7890
       Tot       2.2679
    Quadrupole Moments (Debye-Ang)
        XX     -38.0779     XY      -3.5863     YY     -43.1503
        XZ       2.8153     YZ       1.0014     ZZ     -40.7019
    Octopole Moments (Debye-Ang^2)
       XXX       4.9346    XXY       1.6985    XYY      -0.9128
       YYY      -3.6648    XXZ      31.6088    XYZ       5.0285
       YYZ      34.4129    XZZ      -7.5774    YZZ      -2.1706
       ZZZ      89.6876
    Hexadecapole Moments (Debye-Ang^3)
      XXXX    -223.3667   XXXY      -3.4838   XXYY     -82.9702
      XYYY     -13.2329   YYYY    -235.3256   XXXZ     -17.4108
      XXYZ       4.0722   XYYZ       1.2117   YYYZ      19.8281
      XXZZ     -93.0860   XYZZ      -7.6556   YYZZ     -92.6798
      XZZZ       2.2302   YZZZ      18.5314   ZZZZ    -292.4435
 -----------------------------------------------------------------
 Calculating analytic gradient of the SCF energy
 Gradient of SCF Energy
            1           2           3           4           5           6
    1   0.0084413   0.0034672  -0.0044456  -0.0250858  -0.0044490   0.0019204
    2  -0.0074733  -0.0022179   0.0201997  -0.0176782  -0.0199798  -0.0031174
    3   0.0404077  -0.0218349   0.0093422  -0.0020037   0.0078127  -0.0108018
            7           8           9          10          11          12
    1   0.0009451  -0.0045734   0.0098182   0.0033577   0.0017509   0.0205930
    2   0.0030982  -0.0018430   0.0065210   0.0013408  -0.0021418   0.0297752
    3  -0.0194453   0.0099679  -0.0024515   0.0056886  -0.0038627  -0.0048533
           13
    1  -0.0117401
    2  -0.0064835
    3  -0.0079659
 Max gradient component =       4.041E-02
 RMS gradient           =       1.304E-02
 Gradient time:  CPU 8.08 s  wall 5.53 s
 Geometry Optimization Parameters
   NAtoms,    NIC,     NZ,  NCons,   NDum,   NFix, NCnnct, MaxDiis
       13     151       0       0       0       0       0       0

 Cartesian Hessian Update
 Hessian Updated using BFGS Update


** GEOMETRY OPTIMIZATION IN DELOCALIZED INTERNAL COORDINATES **
   Searching for a Minimum

   Optimization Cycle:   6

                       Coordinates (Angstroms)
     ATOM                X               Y               Z
      1  C         1.2129310079    0.1392061131   -0.3980374377
      2  C         0.5397121463   -1.1680645003   -0.9040973426
      3  C        -0.7888084372   -0.8041377954   -1.5190574128
      4  C        -1.2140012181   -0.0032315918   -0.3457685632
      5  C        -0.6220991821    1.0522256285   -1.2441143141
      6  N         0.6881365288    1.2239024524   -1.2342684824
      7  H         2.2941614325    0.1669112714   -0.3396306962
      8  H         0.9627449378   -2.1612210433   -0.7933855601
      9  H        -1.0266445949   -0.7584874676   -2.5795525622
     10  H        -2.1636676539    0.1248228994    0.1701314612
     11  H        -1.2194124581    1.5915293410   -1.9769035275
     12  C         0.1017494759   -0.4350830809    0.3978141561
     13  H         0.0004089773   -0.9927608463    1.3186384284
   Point Group: c1    Number of degrees of freedom:    33


   Energy is   -286.791739899

 Hessian Updated using BFGS Update

 33 Hessian modes will be used to form the next step
  Hessian Eigenvalues:
     0.012424    0.014736    0.020060    0.022153    0.023226    0.026038
     0.027148    0.029695    0.037354    0.043695    0.054308    0.068609
     0.069413    0.078660    0.090974    0.095790    0.120100    0.143639
     0.150147    0.190820    0.208529    0.231308    0.256159    0.292752
     0.301993    0.308553    0.314644    0.319846    0.330932    0.346734
     0.351116    0.448099    0.578297

 Minimum Search - Taking Simple RFO Step
 Searching for Lamda that Minimizes Along All modes
 Value Taken    Lamda =  -0.02674118
 Calculated Step too Large.  Step scaled by  0.407242
 Step Taken.  Stepsize is  0.300000

                             Maximum     Tolerance    Cnvgd?
         Gradient           0.012767      0.000600      NO
         Displacement       0.117370      0.002400      NO
         Energy change     -0.012315      0.000002      NO


 New Cartesian Coordinates Obtained by Inverse Iteration

 Displacement from previous Coordinates is:  0.223260
 ----------------------------------------------------------------
             Standard Nuclear Orientation (Angstroms)
    I     Atom           X                Y                Z
 ----------------------------------------------------------------
    1      C       1.1961607431     0.1404946291    -0.4158075346
    2      C       0.5373295333    -1.1769835626    -0.9042920847
    3      C      -0.7942747751    -0.8363044256    -1.5232422829
    4      C      -1.1965395112     0.0062182567    -0.3593289202
    5      C      -0.6130211263     1.0778346867    -1.2443131270
    6      N       0.6864759811     1.2416099919    -1.2287825724
    7      H       2.2731580243     0.1612905967    -0.3006303650
    8      H       0.9823765994    -2.1593951514    -0.8043994162
    9      H      -1.0594565837    -0.8075274098    -2.5763796619
   10      H      -2.1540631739     0.1400703683     0.1408796780
   11      H      -1.2189826753     1.6298136888    -1.9583748711
   12      C       0.0935971948    -0.4499157643     0.3933249866
   13      H       0.0324507315    -0.9915945244     1.3331143184
 ----------------------------------------------------------------
 Nuclear Repulsion Energy =   286.3768414986 hartrees
 There are       25 alpha and       24 beta electrons
 Applying Cartesian multipole field
    Component          Value
    ---------          -----
     (2,0,0)        1.00000E-11
     (0,2,0)        2.00000E-11
     (0,0,2)       -3.00000E-11
 Nucleus-field energy     =    -0.0000000014 hartrees
 Requested basis set is 6-31G(d)
 There are 40 shells and 117 basis functions
 A cutoff of  1.0D-14 yielded    813 shell pairs
 There are      7085 function pairs
 Smallest overlap matrix eigenvalue = 1.42E-03
 Guess MOs from SCF MO coefficient file
 Reading MOs from coefficient file
 Reading MOs from coefficient file
 An unrestricted hybrid HF-DFT SCF calculation will be
 performed using Pulay DIIS extrapolation
 Exchange:     0.2000 Hartree-Fock + 0.0800 Slater + 0.7200 B88
 Correlation:  0.1900 VWN1RPA + 0.8100 LYP
 Using SG-1 standard quadrature grid
 SCF converges when DIIS error is below 1.0E-08
 Geometry optimization detected.  Setting ReadMinima to 0
 Setting SaveMinima to 0
Using Q-Chem read-in guess as SCF_GUESS READ specified.

 using 4 threads for integral computing
 -------------------------------------------------------
 OpenMP Integral computing Module                
 Release: version 1.0, May 2013, Q-Chem Inc. Pittsburgh 
 -------------------------------------------------------
 -------------------------------------------------------
 OpenMP BLAS3 based DFT computing Module                
 Release: version 1.0, May 2013, Q-Chem Inc. Pittsburgh 
 -------------------------------------------------------
 ---------------------------------------
  Cycle       Energy         DIIS Error
 ---------------------------------------
    1    -286.8126103660      1.56E-03
    2    -286.8011047836      4.44E-04
    3    -286.8010171981      6.09E-04
    4    -286.8016664797      1.39E-04
    5    -286.8017173363      5.29E-05
    6    -286.8017395223      2.02E-05
    7    -286.8017508970      1.36E-05
    8    -286.8017530623      4.34E-06
    9    -286.8017536173      2.20E-06
   10    -286.8017536918      9.76E-07
   11    -286.8017537177      4.15E-07
   12    -286.8017537234      1.88E-07
   13    -286.8017537240      3.41E-08
   14    -286.8017537240      1.01E-08
   15    -286.8017537240      5.50E-09 Convergence criterion met
 ---------------------------------------
 <S^2> = 0.7731
 SCF time:  CPU 39.65 s  wall 23.29 s
 SCF   energy in the final basis set = -286.80175372
 Total energy in the final basis set = -286.80175372
 
 --------------------------------------------------------------
 
                    Orbital Energies (a.u.)
 --------------------------------------------------------------
 
 Alpha MOs
 -- Occupied --
-14.320 -10.226 -10.223 -10.221 -10.217 -10.204 -10.196  -0.979
 -0.842  -0.777  -0.660  -0.600  -0.574  -0.537  -0.530  -0.456
 -0.441  -0.406  -0.403  -0.382  -0.337  -0.291  -0.265  -0.238
 -0.196
 -- Virtual --
  0.040   0.088   0.106   0.111   0.133   0.150   0.154   0.167
  0.181   0.207   0.218   0.258   0.265   0.298   0.349   0.395
  0.486   0.498   0.525   0.536   0.567   0.594   0.598   0.603
[...]
     0.069779    0.078423    0.089368    0.100560    0.119346    0.139091
     0.148228    0.173266    0.206359    0.229956    0.250745    0.292734
     0.303386    0.308562    0.315097    0.318955    0.334025    0.346845
     0.351449    0.455137    0.562870

 Minimum Search - Taking Simple RFO Step
 Searching for Lamda that Minimizes Along All modes
 Value Taken    Lamda =   0.00000000
 Step Taken.  Stepsize is  0.006430

                             Maximum     Tolerance    Cnvgd?
         Gradient           0.000071      0.000600     YES
         Displacement       0.003112      0.002400      NO
         Energy change     -0.000002      0.000002      NO


 New Cartesian Coordinates Obtained by Inverse Iteration

 Displacement from previous Coordinates is:  0.004992
 ----------------------------------------------------------------
             Standard Nuclear Orientation (Angstroms)
    I     Atom           X                Y                Z
 ----------------------------------------------------------------
    1      C       1.1454923309     0.1235839111    -0.4866609275
    2      C       0.5004671595    -1.2766994805    -0.9052278594
    3      C      -0.8172017943    -1.0815102142    -1.4943713196
    4      C      -1.1535330000     0.0445251170    -0.5191625627
    5      C      -0.5667916972     1.2988838070    -1.1553127443
    6      N       0.7162717348     1.3119245648    -1.1804907887
    7      H       2.1861800330     0.0684635664    -0.1838627674
    8      H       1.1608415997    -2.1343557999    -0.9872989849
    9      H      -1.2214567675    -1.3144574502    -2.4767257283
   10      H      -2.1628472110     0.1077287794    -0.1064053187
   11      H      -1.1572304171     2.0563377126    -1.6684637506
   12      C       0.0601493035    -0.4740839946     0.3334251274
   13      H       0.0748696881    -0.7547291388     1.3823257715
 ----------------------------------------------------------------
 Nuclear Repulsion Energy =   282.1770825550 hartrees
 There are       25 alpha and       24 beta electrons
 Applying Cartesian multipole field
    Component          Value
    ---------          -----
     (2,0,0)        1.00000E-11
     (0,2,0)        2.00000E-11
     (0,0,2)       -3.00000E-11
 Nucleus-field energy     =    -0.0000000004 hartrees
 Requested basis set is 6-31G(d)
 There are 40 shells and 117 basis functions
 A cutoff of  1.0D-14 yielded    812 shell pairs
 There are      7084 function pairs
 Smallest overlap matrix eigenvalue = 1.65E-03
 Guess MOs from SCF MO coefficient file
 Reading MOs from coefficient file
 Reading MOs from coefficient file
 An unrestricted hybrid HF-DFT SCF calculation will be
 performed using Pulay DIIS extrapolation
 Exchange:     0.2000 Hartree-Fock + 0.0800 Slater + 0.7200 B88
 Correlation:  0.1900 VWN1RPA + 0.8100 LYP
 Using SG-1 standard quadrature grid
 SCF converges when DIIS error is below 1.0E-08
 Geometry optimization detected.  Setting ReadMinima to 0
 Setting SaveMinima to 0
Using Q-Chem read-in guess as SCF_GUESS READ specified.

 using 4 threads for integral computing
 -------------------------------------------------------
 OpenMP Integral computing Module                
 Release: version 1.0, May 2013, Q-Chem Inc. Pittsburgh 
 -------------------------------------------------------
 -------------------------------------------------------
 OpenMP BLAS3 based DFT computing Module                
 Release: version 1.0, May 2013, Q-Chem Inc. Pittsburgh 
 -------------------------------------------------------
 ---------------------------------------
  Cycle       Energy         DIIS Error
 ---------------------------------------
    1    -286.8382157661      2.66E-05
    2    -286.8383330024      4.50E-06
    3    -286.8383329871      6.34E-06
    4    -286.8383330518      1.61E-06
    5    -286.8383330563      5.27E-07
    6    -286.8383330570      1.48E-07
    7    -286.8383330573      7.51E-08
    8    -286.8383330573      2.65E-08
    9    -286.8383330574      1.08E-08
   10    -286.8383330574      4.94E-09 Convergence criterion met
 ---------------------------------------
 <S^2> = 0.7566
 SCF time:  CPU 26.43 s  wall 24.64 s
 SCF   energy in the final basis set = -286.83833306
 Total energy in the final basis set = -286.83833306
 
 --------------------------------------------------------------
 
                    Orbital Energies (a.u.)
 --------------------------------------------------------------
 
 Alpha MOs
 -- Occupied --
-14.320 -10.224 -10.220 -10.210 -10.209 -10.208 -10.206  -0.968
 -0.856  -0.749  -0.664  -0.606  -0.571  -0.535  -0.517  -0.467
 -0.439  -0.405  -0.400  -0.356  -0.336  -0.298  -0.274  -0.256
 -0.182
 -- Virtual --
  0.004   0.101   0.114   0.128   0.150   0.150   0.153   0.162
  0.177   0.200   0.221   0.262   0.280   0.296   0.348   0.391
  0.494   0.513   0.524   0.543   0.558   0.573   0.601   0.604
  0.605   0.659   0.675   0.677   0.720   0.741   0.770   0.777
  0.805   0.807   0.822   0.842   0.855   0.877   0.889   0.936
  0.954   0.973   1.043   1.096   1.206   1.237   1.327   1.390
  1.446   1.475   1.504   1.517   1.587   1.632   1.673   1.713
  1.743   1.828   1.873   1.881   1.933   1.954   1.988   2.026
  2.061   2.167   2.207   2.218   2.232   2.253   2.363   2.380
  2.456   2.490   2.502   2.541   2.590   2.626   2.664   2.676
  2.718   2.808   2.841   2.914   2.963   3.958   4.194   4.239
  4.363   4.433   4.508   4.641
 
 Beta MOs
 -- Occupied --
-14.319 -10.222 -10.219 -10.211 -10.209 -10.207 -10.193  -0.964
 -0.850  -0.741  -0.652  -0.602  -0.567  -0.528  -0.511  -0.461
 -0.434  -0.402  -0.393  -0.348  -0.332  -0.292  -0.262  -0.251
 -- Virtual --
 -0.062   0.019   0.102   0.118   0.134   0.151   0.156   0.157
  0.165   0.181   0.204   0.227   0.267   0.284   0.298   0.360
  0.394   0.497   0.518   0.532   0.553   0.561   0.578   0.607
  0.610   0.622   0.669   0.679   0.683   0.729   0.745   0.775
  0.787   0.808   0.809   0.824   0.844   0.858   0.882   0.892
  0.940   0.958   0.976   1.047   1.108   1.208   1.243   1.334
  1.392   1.449   1.480   1.514   1.525   1.593   1.640   1.677
  1.716   1.751   1.835   1.878   1.894   1.941   1.970   1.994
  2.034   2.069   2.172   2.222   2.226   2.242   2.270   2.368
  2.390   2.463   2.497   2.510   2.546   2.594   2.632   2.666
  2.684   2.725   2.813   2.846   2.917   2.964   3.960   4.208
  4.245   4.369   4.438   4.511   4.644
 --------------------------------------------------------------
 
          Ground-State Mulliken Net Atomic Charges

     Atom                 Charge (a.u.)    Spin (a.u.)
  --------------------------------------------------------
      1 C                    -0.019070       0.097642
      2 C                    -0.163765      -0.096075
      3 C                    -0.066284       0.887940
      4 C                    -0.258091      -0.065728
      5 C                     0.088753       0.047609
      6 N                    -0.342325       0.038838
      7 H                     0.151415       0.002822
      8 H                     0.147262       0.005270
      9 H                     0.136227      -0.019238
     10 H                     0.142828       0.022758
     11 H                     0.143074       0.001350
     12 C                    -0.108130       0.077570
     13 H                     0.148105      -0.000757
  --------------------------------------------------------
  Sum of atomic charges =     0.000000
  Sum of spin   charges =     1.000000

 -----------------------------------------------------------------
                    Cartesian Multipole Moments
 -----------------------------------------------------------------
    Charge (ESU x 10^10)
                -0.0000
    Dipole Moment (Debye)
         X      -1.1354      Y      -1.4447      Z       0.9063
       Tot       2.0488
    Quadrupole Moments (Debye-Ang)
        XX     -38.4031     XY      -4.5085     YY     -42.7293
        XZ       3.1096     YZ       1.6965     ZZ     -40.8421
    Octopole Moments (Debye-Ang^2)
       XXX       4.2935    XXY       0.0825    XYY      -2.1117
       YYY       0.8326    XXZ      31.6152    XYZ       5.2933
       YYZ      31.8980    XZZ      -5.6716    YZZ      -3.3551
       ZZZ      95.0781
    Hexadecapole Moments (Debye-Ang^3)
      XXXX    -220.1185   XXXY      -8.3489   XXYY     -89.2792
      XYYY     -21.9800   YYYY    -296.3845   XXXZ     -14.5233
      XXYZ       4.9408   XYYZ       2.4421   YYYZ      11.4489
      XXZZ     -88.5090   XYZZ      -6.6481   YYZZ     -95.6530
      XZZZ      -2.5348   YZZZ      15.3889   ZZZZ    -287.8767
 -----------------------------------------------------------------
 Calculating analytic gradient of the SCF energy
 Gradient of SCF Energy
            1           2           3           4           5           6
    1   0.0000009   0.0000732  -0.0000148   0.0000608  -0.0001139  -0.0000152
    2  -0.0000380   0.0000554  -0.0000045   0.0000271   0.0000598   0.0000505
    3   0.0000521  -0.0000305   0.0000329  -0.0000049  -0.0000270  -0.0000108
            7           8           9          10          11          12
    1   0.0000010   0.0000228   0.0000230  -0.0000034  -0.0000084  -0.0000397
    2   0.0000172  -0.0000103  -0.0000290  -0.0000133   0.0000002  -0.0000804
    3   0.0000003   0.0000090   0.0000138   0.0000079  -0.0000223  -0.0000081
           13
    1   0.0000137
    2  -0.0000348
    3  -0.0000125
 Max gradient component =       1.139E-04
 RMS gradient           =       3.669E-05
 Gradient time:  CPU 7.57 s  wall 3.46 s
 Geometry Optimization Parameters
   NAtoms,    NIC,     NZ,  NCons,   NDum,   NFix, NCnnct, MaxDiis
       13     151       0       0       0       0       0       0

 Cartesian Hessian Update
 Hessian Updated using BFGS Update


** GEOMETRY OPTIMIZATION IN DELOCALIZED INTERNAL COORDINATES **
   Searching for a Minimum

   Optimization Cycle:  21

                       Coordinates (Angstroms)
     ATOM                X               Y               Z
      1  C         1.1454923309    0.1235839111   -0.4866609275
      2  C         0.5004671595   -1.2766994805   -0.9052278594
      3  C        -0.8172017943   -1.0815102142   -1.4943713196
      4  C        -1.1535330000    0.0445251170   -0.5191625627
      5  C        -0.5667916972    1.2988838070   -1.1553127443
      6  N         0.7162717348    1.3119245648   -1.1804907887
      7  H         2.1861800330    0.0684635664   -0.1838627674
      8  H         1.1608415997   -2.1343557999   -0.9872989849
      9  H        -1.2214567675   -1.3144574502   -2.4767257283
     10  H        -2.1628472110    0.1077287794   -0.1064053187
     11  H        -1.1572304171    2.0563377126   -1.6684637506
     12  C         0.0601493035   -0.4740839946    0.3334251274
     13  H         0.0748696881   -0.7547291388    1.3823257715
   Point Group: c1    Number of degrees of freedom:    33


   Energy is   -286.838333057

 Hessian Updated using BFGS Update

 33 Hessian modes will be used to form the next step
  Hessian Eigenvalues:
     0.008677    0.012899    0.015406    0.020151    0.023743    0.024806
     0.026620    0.032238    0.034054    0.039268    0.043777    0.058982
     0.069814    0.079115    0.088019    0.105747    0.119464    0.146843
     0.150900    0.172766    0.208569    0.230231    0.252618    0.293800
     0.308124    0.311980    0.318348    0.320955    0.334840    0.346845
     0.351686    0.455708    0.561827

 Minimum Search - Taking Simple RFO Step
 Searching for Lamda that Minimizes Along All modes
 Value Taken    Lamda =   0.00000000
 Step Taken.  Stepsize is  0.003083

                             Maximum     Tolerance    Cnvgd?
         Gradient           0.000056      0.000600     YES
         Displacement       0.001580      0.002400     YES
         Energy change     -0.000000      0.000002     YES


                       Distance Matrix (Angstroms)
             C (  1)   C (  2)   C (  3)   C (  4)   C (  5)   N (  6)
   C (  2)  1.597513
   C (  3)  2.513941  1.456517
   C (  4)  2.300614  2.151836  1.527124
   C (  5)  2.181821  2.799145  2.417425  1.523932
   N (  6)  1.441452  2.612148  2.859824  2.353684  1.283377
   H (  7)  1.085245  2.274084  3.472776  3.356588  3.168044  2.167970
   H (  8)  2.312826  1.085543  2.297447  3.212943  3.847087  3.480203
   H (  9)  3.410391  2.331535  1.087523  2.384009  3.000712  3.511823
   H ( 10)  3.330159  3.106123  2.269692  1.092281  2.250878  3.300466
   H ( 11)  3.230283  3.799951  3.161015  2.316959  1.088889  2.074194
   C ( 12)  1.485839  1.540238  2.116495  1.571269  2.398502  2.431515
   H ( 13)  2.326108  2.384636  3.029515  2.400716  3.326960  3.354174
             H (  7)   H (  8)   H (  9)   H ( 10)   H ( 11)   C ( 12)
   H (  8)  2.559149
   H (  9)  4.333784  2.926768
   H ( 10)  4.349894  4.104854  2.920145
   H ( 11)  4.163421  4.837288  3.466940  2.692279
   C ( 12)  2.254318  2.390050  3.200889  2.339588  3.448566
   H ( 13)  2.754673  2.949208  4.109262  2.822681  4.327526  1.085896

 
 Final energy is   -286.838333057379     


 ******************************
 **  OPTIMIZATION CONVERGED  **
 ******************************

                       Coordinates (Angstroms)
     ATOM                X               Y               Z
      1  C         1.1454923309    0.1235839111   -0.4866609275
      2  C         0.5004671595   -1.2766994805   -0.9052278594
      3  C        -0.8172017943   -1.0815102142   -1.4943713196
      4  C        -1.1535330000    0.0445251170   -0.5191625627
      5  C        -0.5667916972    1.2988838070   -1.1553127443
      6  N         0.7162717348    1.3119245648   -1.1804907887
      7  H         2.1861800330    0.0684635664   -0.1838627674
      8  H         1.1608415997   -2.1343557999   -0.9872989849
      9  H        -1.2214567675   -1.3144574502   -2.4767257283
     10  H        -2.1628472110    0.1077287794   -0.1064053187
     11  H        -1.1572304171    2.0563377126   -1.6684637506
     12  C         0.0601493035   -0.4740839946    0.3334251274
     13  H         0.0748696881   -0.7547291388    1.3823257715

Z-matrix Print:
$molecule
0 2
N 
C  1 1.283377
H  2 1.088889 1 121.721681
C  1 1.441452 2 106.252845 3 -175.987204 0
H  4 1.085245 1 117.497955 2 -165.244709 0
C  4 1.485839 1 112.319535 2 -16.512105 0
H  6 1.085896 4 128.842846 1 -128.026308 0
C  2 1.523932 1 113.670577 3 172.078822 0
H  8 1.092281 2 117.767797 1 156.573284 0
C  8 1.527124 2 104.806417 1 -68.270424 0
H  10 1.087523 8 130.761479 2 -72.147267 0
C  10 1.456517 8 92.278370 2 85.290220 0
H  12 1.085543 10 128.729257 8 161.671754 0
$end

 
 --------------------------------------------------------------
 
                    Orbital Energies (a.u.)
 --------------------------------------------------------------
 
 Alpha MOs
 -- Occupied --
-14.320 -10.224 -10.220 -10.210 -10.209 -10.208 -10.206  -0.968
 -0.856  -0.749  -0.664  -0.606  -0.571  -0.535  -0.517  -0.467
 -0.439  -0.405  -0.400  -0.356  -0.336  -0.298  -0.274  -0.256
 -0.182
 -- Virtual --
  0.004   0.101   0.114   0.128   0.150   0.150   0.153   0.162
  0.177   0.200   0.221   0.262   0.280   0.296   0.348   0.391
  0.494   0.513   0.524   0.543   0.558   0.573   0.601   0.604
  0.605   0.659   0.675   0.677   0.720   0.741   0.770   0.777
  0.805   0.807   0.822   0.842   0.855   0.877   0.889   0.936
  0.954   0.973   1.043   1.096   1.206   1.237   1.327   1.390
  1.446   1.475   1.504   1.517   1.587   1.632   1.673   1.713
  1.743   1.828   1.873   1.881   1.933   1.954   1.988   2.026
  2.061   2.167   2.207   2.218   2.232   2.253   2.363   2.380
  2.456   2.490   2.502   2.541   2.590   2.626   2.664   2.676
  2.718   2.808   2.841   2.914   2.963   3.958   4.194   4.239
  4.363   4.433   4.508   4.641
 
 Beta MOs
 -- Occupied --
-14.319 -10.222 -10.219 -10.211 -10.209 -10.207 -10.193  -0.964
 -0.850  -0.741  -0.652  -0.602  -0.567  -0.528  -0.511  -0.461
 -0.434  -0.402  -0.393  -0.348  -0.332  -0.292  -0.262  -0.251
 -- Virtual --
 -0.062   0.019   0.102   0.118   0.134   0.151   0.156   0.157
  0.165   0.181   0.204   0.227   0.267   0.284   0.298   0.360
  0.394   0.497   0.518   0.532   0.553   0.561   0.578   0.607
  0.610   0.622   0.669   0.679   0.683   0.729   0.745   0.775
  0.787   0.808   0.809   0.824   0.844   0.858   0.882   0.892
  0.940   0.958   0.976   1.047   1.108   1.208   1.243   1.334
  1.392   1.449   1.480   1.514   1.525   1.593   1.640   1.677
  1.716   1.751   1.835   1.878   1.894   1.941   1.970   1.994
  2.034   2.069   2.172   2.222   2.226   2.242   2.270   2.368
  2.390   2.463   2.497   2.510   2.546   2.594   2.632   2.666
  2.684   2.725   2.813   2.846   2.917   2.964   3.960   4.208
  4.245   4.369   4.438   4.511   4.644
 --------------------------------------------------------------
 
          Ground-State Mulliken Net Atomic Charges

     Atom                 Charge (a.u.)    Spin (a.u.)
  --------------------------------------------------------
      1 C                    -0.019070       0.097642
      2 C                    -0.163765      -0.096075
      3 C                    -0.066284       0.887940
      4 C                    -0.258091      -0.065728
      5 C                     0.088753       0.047609
      6 N                    -0.342325       0.038838
      7 H                     0.151415       0.002822
      8 H                     0.147262       0.005270
      9 H                     0.136227      -0.019238
     10 H                     0.142828       0.022758
     11 H                     0.143074       0.001350
     12 C                    -0.108130       0.077570
     13 H                     0.148105      -0.000757
  --------------------------------------------------------
  Sum of atomic charges =     0.000000
  Sum of spin   charges =     1.000000

 -----------------------------------------------------------------
                    Cartesian Multipole Moments
 -----------------------------------------------------------------
    Charge (ESU x 10^10)
                -0.0000
    Dipole Moment (Debye)
         X      -1.1354      Y      -1.4447      Z       0.9063
       Tot       2.0488
    Quadrupole Moments (Debye-Ang)
        XX     -38.4031     XY      -4.5085     YY     -42.7293
        XZ       3.1096     YZ       1.6965     ZZ     -40.8421
    Octopole Moments (Debye-Ang^2)
       XXX       4.2935    XXY       0.0825    XYY      -2.1117
       YYY       0.8326    XXZ      31.6152    XYZ       5.2933
       YYZ      31.8980    XZZ      -5.6716    YZZ      -3.3551
       ZZZ      95.0781
    Hexadecapole Moments (Debye-Ang^3)
      XXXX    -220.1185   XXXY      -8.3489   XXYY     -89.2792
      XYYY     -21.9800   YYYY    -296.3845   XXXZ     -14.5233
      XXYZ       4.9408   XYYZ       2.4421   YYYZ      11.4489
      XXZZ     -88.5090   XYZZ      -6.6481   YYZZ     -95.6530
      XZZZ      -2.5348   YZZZ      15.3889   ZZZZ    -287.8767
 -----------------------------------------------------------------
Archival summary:
1\1\c8-66\OPT\ProcedureUnspecified\6-31G*\166(2)\hpark21\TueMar109:41:592022TueMar109:41:592022\0\\#,OPT,ProcedureUnspecified,6-31G*,\\0,2\N\C,1,1.28338\H,2,1.08889,1,121.722\C,1,1.44145,2,106.253,3,-175.987,0\H,4,1.08524,1,117.498,2,-165.245,0\C,4,1.48584,1,112.32,2,-16.5121,0\H,6,1.0859,4,128.843,1,-128.026,0\C,2,1.52393,1,113.671,3,172.079,0\H,8,1.09228,2,117.768,1,156.573,0\C,8,1.52712,2,104.806,1,-68.2704,0\H,10,1.08752,8,130.761,2,-72.1473,0\C,10,1.45652,8,92.2784,2,85.2902,0\H,12,1.08554,10,128.729,8,161.672,0\\\@

 Total job time:  773.67s(wall), 918.60s(cpu) 
 Tue Mar  1 09:41:59 2022

        *************************************************************
        *                                                           *
        *  Thank you very much for using Q-Chem.  Have a nice day.  *
        *                                                           *
        *************************************************************


