13   
From optimize.out: Frame 1 / 21, Energy=    -286.6813952775
C        0.0122790000   -0.0473220000   -0.0000000000
C       -0.1706360000    0.0903810000   -0.0000000000
C       -0.0955630000    0.3733570000   -0.0000000000
C       -0.1610950000    0.0130000000   -0.0000000000
C       -0.0179970000   -0.1222360000   -0.0000000000
N       -0.3297570000    0.6970840000   -0.0000000000
H        0.1934020000    0.0027300000   -0.0000000000
H        0.1403080000   -0.0037620000   -0.0000000000
H        0.1556490000   -0.0195630000   -0.0000000000
H        0.1562490000    0.0097970000    0.0000000000
H        0.1465130000    0.0044860000   -0.0000000000
C       -0.1638300000   -0.0001130000    0.0000000000
H        0.1344770000    0.0021600000    0.0000000000
13   
From optimize.out: Frame 2 / 21, Energy=    -286.7163276994
C       -0.0055740000   -0.0399490000   -0.0000000000
C       -0.1690490000    0.0725020000   -0.0000000000
C       -0.0961650000    0.4089420000   -0.0000000000
C       -0.1579150000    0.0136910000   -0.0000000000
C       -0.0229630000   -0.1314900000   -0.0000000000
N       -0.3236410000    0.6779520000   -0.0000000000
H        0.1856050000    0.0018200000   -0.0000000000
H        0.1448310000   -0.0034780000   -0.0000000000
H        0.1581350000   -0.0207050000   -0.0000000000
H        0.1549760000    0.0102320000    0.0000000000
H        0.1485800000    0.0051580000   -0.0000000000
C       -0.1576790000    0.0036280000    0.0000000000
H        0.1408590000    0.0016980000    0.0000000000
13   
From optimize.out: Frame 3 / 21, Energy=    -286.7430280917
C       -0.0197610000   -0.0308940000   -0.0000000000
C       -0.1686860000    0.0540780000   -0.0000000000
C       -0.0957390000    0.4555880000   -0.0000000000
C       -0.1625770000    0.0119190000   -0.0000000000
C       -0.0217980000   -0.1405300000   -0.0000000000
N       -0.3188360000    0.6471120000   -0.0000000000
H        0.1772650000    0.0008990000   -0.0000000000
H        0.1480690000   -0.0025940000   -0.0000000000
H        0.1597510000   -0.0221120000   -0.0000000000
H        0.1536260000    0.0110730000    0.0000000000
H        0.1493380000    0.0057220000   -0.0000000000
C       -0.1435960000    0.0086760000    0.0000000000
H        0.1429440000    0.0010620000    0.0000000000
13   
From optimize.out: Frame 4 / 21, Energy=    -286.7636109950
C       -0.0304530000   -0.0206560000   -0.0000000000
C       -0.1683110000    0.0343220000   -0.0000000000
C       -0.0951830000    0.5115560000   -0.0000000000
C       -0.1718580000    0.0077780000   -0.0000000000
C       -0.0153940000   -0.1474700000   -0.0000000000
N       -0.3165100000    0.6059100000   -0.0000000000
H        0.1695940000    0.0000380000   -0.0000000000
H        0.1500880000   -0.0013520000   -0.0000000000
H        0.1603510000   -0.0237320000   -0.0000000000
H        0.1526110000    0.0125050000    0.0000000000
H        0.1496470000    0.0061890000   -0.0000000000
C       -0.1286330000    0.0146010000    0.0000000000
H        0.1440500000    0.0003120000    0.0000000000
13   
From optimize.out: Frame 5 / 21, Energy=    -286.7794251500
C       -0.0376190000   -0.0089460000   -0.0000000000
C       -0.1681650000    0.0130900000   -0.0000000000
C       -0.0941110000    0.5766510000   -0.0000000000
C       -0.1839220000    0.0011640000   -0.0000000000
C       -0.0048830000   -0.1505010000   -0.0000000000
N       -0.3167960000    0.5527150000   -0.0000000000
H        0.1630230000   -0.0006630000   -0.0000000000
H        0.1513850000    0.0001220000   -0.0000000000
H        0.1599550000   -0.0253990000   -0.0000000000
H        0.1520110000    0.0145470000    0.0000000000
H        0.1495780000    0.0065500000   -0.0000000000
C       -0.1150900000    0.0212060000    0.0000000000
H        0.1446340000   -0.0005360000    0.0000000000
13   
From optimize.out: Frame 6 / 21, Energy=    -286.7917398986
C       -0.0415380000    0.0046160000   -0.0000000000
C       -0.1685440000   -0.0089330000   -0.0000000000
C       -0.0919240000    0.6498870000   -0.0000000000
C       -0.1976590000   -0.0081950000   -0.0000000000
C        0.0089590000   -0.1462470000   -0.0000000000
N       -0.3195880000    0.4846190000   -0.0000000000
H        0.1578790000   -0.0010700000   -0.0000000000
H        0.1522000000    0.0017180000   -0.0000000000
H        0.1585130000   -0.0269000000   -0.0000000000
H        0.1517290000    0.0171250000    0.0000000000
H        0.1490640000    0.0067040000   -0.0000000000
C       -0.1041050000    0.0280910000    0.0000000000
H        0.1450130000   -0.0014160000    0.0000000000
13   
From optimize.out: Frame 7 / 21, Energy=    -286.8017537240
C       -0.0429160000    0.0199230000   -0.0000000000
C       -0.1695590000   -0.0302210000   -0.0000000000
C       -0.0884350000    0.7262240000   -0.0000000000
C       -0.2124660000   -0.0199190000   -0.0000000000
C        0.0254850000   -0.1302390000   -0.0000000000
N       -0.3240250000    0.4010490000   -0.0000000000
H        0.1542380000   -0.0010830000   -0.0000000000
H        0.1526570000    0.0032740000   -0.0000000000
H        0.1559550000   -0.0278680000   -0.0000000000
H        0.1514900000    0.0199170000    0.0000000000
H        0.1480260000    0.0064730000   -0.0000000000
C       -0.0959040000    0.0346670000    0.0000000000
H        0.1454540000   -0.0021970000    0.0000000000
13   
From optimize.out: Frame 8 / 21, Energy=    -286.8103216547
C       -0.0424570000    0.0354580000   -0.0000000000
C       -0.1709190000   -0.0485140000   -0.0000000000
C       -0.0842650000    0.7944690000   -0.0000000000
C       -0.2271330000   -0.0321830000   -0.0000000000
C        0.0430650000   -0.1016800000   -0.0000000000
N       -0.3285430000    0.3106000000   -0.0000000000
H        0.1519480000   -0.0006850000   -0.0000000000
H        0.1527650000    0.0045510000   -0.0000000000
H        0.1524300000   -0.0278390000   -0.0000000000
H        0.1508850000    0.0223330000    0.0000000000
H        0.1466260000    0.0057700000   -0.0000000000
C       -0.0905290000    0.0404460000    0.0000000000
H        0.1461260000   -0.0027270000    0.0000000000
13   
From optimize.out: Frame 9 / 21, Energy=    -286.8177559826
C       -0.0404350000    0.0489910000   -0.0000000000
C       -0.1721220000   -0.0621700000   -0.0000000000
C       -0.0801690000    0.8445970000   -0.0000000000
C       -0.2396490000   -0.0426670000   -0.0000000000
C        0.0588820000   -0.0677040000   -0.0000000000
N       -0.3320830000    0.2288990000   -0.0000000000
H        0.1507030000    0.0000260000   -0.0000000000
H        0.1524760000    0.0053740000   -0.0000000000
H        0.1485050000   -0.0266100000   -0.0000000000
H        0.1497020000    0.0238750000    0.0000000000
H        0.1452950000    0.0048110000   -0.0000000000
C       -0.0880910000    0.0455420000    0.0000000000
H        0.1469850000   -0.0029630000    0.0000000000
13   
From optimize.out: Frame 10 / 21, Energy=    -286.8240423535
C       -0.0370590000    0.0594170000   -0.0000000000
C       -0.1727170000   -0.0713720000   -0.0000000000
C       -0.0764680000    0.8752520000   -0.0000000000
C       -0.2486440000   -0.0502860000   -0.0000000000
C        0.0708870000   -0.0370170000   -0.0000000000
N       -0.3348220000    0.1658900000   -0.0000000000
H        0.1501680000    0.0008820000   -0.0000000000
H        0.1518010000    0.0057550000   -0.0000000000
H        0.1448540000   -0.0244670000   -0.0000000000
H        0.1481220000    0.0245220000    0.0000000000
H        0.1444320000    0.0039050000   -0.0000000000
C       -0.0883820000    0.0505050000    0.0000000000
H        0.1478290000   -0.0029860000    0.0000000000
13   
From optimize.out: Frame 11 / 21, Energy=    -286.8291211267
C       -0.0329610000    0.0671290000   -0.0000000000
C       -0.1724240000   -0.0774760000   -0.0000000000
C       -0.0733590000    0.8913030000   -0.0000000000
C       -0.2540900000   -0.0553360000   -0.0000000000
C        0.0789540000   -0.0128380000   -0.0000000000
N       -0.3370830000    0.1211460000   -0.0000000000
H        0.1500440000    0.0017340000   -0.0000000000
H        0.1508630000    0.0058210000   -0.0000000000
H        0.1418290000   -0.0219770000   -0.0000000000
H        0.1464690000    0.0245440000    0.0000000000
H        0.1440390000    0.0031820000   -0.0000000000
C       -0.0907650000    0.0556450000    0.0000000000
H        0.1484850000   -0.0028750000    0.0000000000
13   
From optimize.out: Frame 12 / 21, Energy=    -286.8329959548
C       -0.0288360000    0.0730280000   -0.0000000000
C       -0.1712040000   -0.0818260000   -0.0000000000
C       -0.0709880000    0.8982310000   -0.0000000000
C       -0.2567280000   -0.0586260000   -0.0000000000
C        0.0839560000    0.0053880000   -0.0000000000
N       -0.3389190000    0.0901750000   -0.0000000000
H        0.1501240000    0.0024740000   -0.0000000000
H        0.1498340000    0.0057100000   -0.0000000000
H        0.1394840000   -0.0196730000   -0.0000000000
H        0.1449770000    0.0241940000   -0.0000000000
H        0.1439150000    0.0026410000   -0.0000000000
C       -0.0944770000    0.0609440000    0.0000000000
H        0.1488630000   -0.0026590000    0.0000000000
13   
From optimize.out: Frame 13 / 21, Energy=    -286.8357268386
C       -0.0251280000    0.0779500000   -0.0000000000
C       -0.1691610000   -0.0853600000   -0.0000000000
C       -0.0693090000    0.9000030000   -0.0000000000
C       -0.2574970000   -0.0608950000   -0.0000000000
C        0.0868240000    0.0191660000   -0.0000000000
N       -0.3403970000    0.0687490000   -0.0000000000
H        0.1503040000    0.0030370000   -0.0000000000
H        0.1488620000    0.0055300000   -0.0000000000
H        0.1377750000   -0.0179560000   -0.0000000000
H        0.1437730000    0.0236330000   -0.0000000000
H        0.1438900000    0.0022440000   -0.0000000000
C       -0.0988740000    0.0662280000    0.0000000000
H        0.1489360000   -0.0023300000    0.0000000000
13   
From optimize.out: Frame 14 / 21, Energy=    -286.8373916087
C       -0.0221140000    0.0826520000   -0.0000000000
C       -0.1664700000   -0.0887010000   -0.0000000000
C       -0.0681380000    0.8991310000   -0.0000000000
C       -0.2572860000   -0.0626770000   -0.0000000000
C        0.0883360000    0.0300040000   -0.0000000000
N       -0.3415410000    0.0536680000   -0.0000000000
H        0.1505330000    0.0033720000   -0.0000000000
H        0.1480430000    0.0053550000   -0.0000000000
H        0.1366220000   -0.0171150000   -0.0000000000
H        0.1429000000    0.0229750000   -0.0000000000
H        0.1438250000    0.0019420000   -0.0000000000
C       -0.1034290000    0.0712560000    0.0000000000
H        0.1487200000   -0.0018610000    0.0000000000
13   
From optimize.out: Frame 15 / 21, Energy=    -286.8380819019
C       -0.0200840000    0.0877380000   -0.0000000000
C       -0.1634660000   -0.0921670000   -0.0000000000
C       -0.0673070000    0.8969460000   -0.0000000000
C       -0.2568920000   -0.0642870000   -0.0000000000
C        0.0890430000    0.0387000000   -0.0000000000
N       -0.3423700000    0.0434230000   -0.0000000000
H        0.1508240000    0.0034190000   -0.0000000000
H        0.1474620000    0.0052500000   -0.0000000000
H        0.1359990000   -0.0174560000   -0.0000000000
H        0.1424350000    0.0223650000   -0.0000000000
H        0.1436050000    0.0016990000   -0.0000000000
C       -0.1075090000    0.0756210000    0.0000000000
H        0.1482610000   -0.0012500000    0.0000000000
13   
From optimize.out: Frame 16 / 21, Energy=    -286.8381963924
C       -0.0199350000    0.0900410000   -0.0000000000
C       -0.1628400000   -0.0933800000   -0.0000000000
C       -0.0670130000    0.8957030000   -0.0000000000
C       -0.2570910000   -0.0648280000   -0.0000000000
C        0.0891760000    0.0409010000   -0.0000000000
N       -0.3424250000    0.0419270000   -0.0000000000
H        0.1509700000    0.0032610000   -0.0000000000
H        0.1473910000    0.0052770000   -0.0000000000
H        0.1360310000   -0.0182110000   -0.0000000000
H        0.1425500000    0.0223250000   -0.0000000000
H        0.1433280000    0.0016170000   -0.0000000000
C       -0.1081740000    0.0764090000    0.0000000000
H        0.1480320000   -0.0010410000    0.0000000000
13   
From optimize.out: Frame 17 / 21, Energy=    -286.8382896202
C       -0.0198180000    0.0935340000   -0.0000000000
C       -0.1626230000   -0.0947860000   -0.0000000000
C       -0.0666910000    0.8930020000   -0.0000000000
C       -0.2577060000   -0.0654180000   -0.0000000000
C        0.0892620000    0.0436450000   -0.0000000000
N       -0.3424040000    0.0408280000   -0.0000000000
H        0.1512020000    0.0029770000   -0.0000000000
H        0.1473190000    0.0053240000   -0.0000000000
H        0.1361540000   -0.0192250000   -0.0000000000
H        0.1427880000    0.0224470000   -0.0000000000
H        0.1430160000    0.0014940000   -0.0000000000
C       -0.1083650000    0.0770100000    0.0000000000
H        0.1478670000   -0.0008310000    0.0000000000
13   
From optimize.out: Frame 18 / 21, Energy=    -286.8383191550
C       -0.0195590000    0.0956160000   -0.0000000000
C       -0.1630310000   -0.0954870000   -0.0000000000
C       -0.0664720000    0.8908360000   -0.0000000000
C       -0.2580600000   -0.0656540000   -0.0000000000
C        0.0890920000    0.0453920000   -0.0000000000
N       -0.3423320000    0.0401960000   -0.0000000000
H        0.1513270000    0.0028350000   -0.0000000000
H        0.1472730000    0.0053240000   -0.0000000000
H        0.1362720000   -0.0195410000   -0.0000000000
H        0.1428810000    0.0225970000   -0.0000000000
H        0.1429500000    0.0014200000   -0.0000000000
C       -0.1082570000    0.0772360000    0.0000000000
H        0.1479160000   -0.0007690000    0.0000000000
13   
From optimize.out: Frame 19 / 21, Energy=    -286.8383306669
C       -0.0192510000    0.0970240000   -0.0000000000
C       -0.1635110000   -0.0958820000   -0.0000000000
C       -0.0663530000    0.8889150000   -0.0000000000
C       -0.2581850000   -0.0657390000   -0.0000000000
C        0.0888740000    0.0468360000   -0.0000000000
N       -0.3423230000    0.0394460000   -0.0000000000
H        0.1514030000    0.0027910000   -0.0000000000
H        0.1472570000    0.0052970000   -0.0000000000
H        0.1362750000   -0.0194670000   -0.0000000000
H        0.1428770000    0.0227160000   -0.0000000000
H        0.1430210000    0.0013690000   -0.0000000000
C       -0.1081190000    0.0774470000    0.0000000000
H        0.1480340000   -0.0007540000    0.0000000000
13   
From optimize.out: Frame 20 / 21, Energy=    -286.8383327539
C       -0.0191170000    0.0974930000   -0.0000000000
C       -0.1637130000   -0.0960710000   -0.0000000000
C       -0.0662600000    0.8882900000   -0.0000000000
C       -0.2581300000   -0.0657470000   -0.0000000000
C        0.0887470000    0.0473780000   -0.0000000000
N       -0.3422700000    0.0390600000   -0.0000000000
H        0.1514020000    0.0028010000   -0.0000000000
H        0.1472360000    0.0052810000   -0.0000000000
H        0.1363090000   -0.0193570000   -0.0000000000
H        0.1428570000    0.0227510000   -0.0000000000
H        0.1430180000    0.0013560000   -0.0000000000
C       -0.1081700000    0.0775240000    0.0000000000
H        0.1480910000   -0.0007580000    0.0000000000
