13   
From optimize.out: Frame 1 / 21, Energy=    -286.6813952775
C        1.3485174303    0.1004741853   -0.3059517649
C        0.5649244532   -1.1341035190   -0.9066400225
C       -0.7874069181   -0.7088204752   -1.4349574475
C       -1.3431652362   -0.0592319809   -0.3077093835
C       -0.6741227207    0.9737531129   -1.1814977656
N        0.6854694200    1.0910346708   -1.2258648573
H        2.4179519964    0.1638830809   -0.4994443889
H        0.9244223605   -2.2031458889   -0.8225417199
H       -0.8729529111   -0.5876057884   -2.5458141753
H       -2.2886639063    0.0475097376    0.2273248330
H       -1.2326452195    1.4825291730   -2.0102280754
C        0.1667749428   -0.3325527267    0.3865020033
H       -0.1438927290   -0.8581122012    1.1785909113
13   
From optimize.out: Frame 2 / 21, Energy=    -286.7163276994
C        1.3166922933    0.1127021220   -0.3210395644
C        0.5566398570   -1.1423052620   -0.9052181399
C       -0.7833132239   -0.7205664882   -1.4569669627
C       -1.3186270493   -0.0468516065   -0.3125423114
C       -0.6626649661    0.9874433374   -1.2018643318
N        0.6904484327    1.1289375252   -1.2399464429
H        2.3880166192    0.1733285908   -0.4829805303
H        0.9219748838   -2.1904888059   -0.8081322030
H       -0.8975718277   -0.6149385931   -2.5561418510
H       -2.2601881785    0.0611441325    0.2246128265
H       -1.2222515187    1.4979645530   -2.0121156367
C        0.1552765009   -0.3589399907    0.3980311652
H       -0.1192208603   -0.9118181341    1.2260721291
13   
From optimize.out: Frame 3 / 21, Energy=    -286.7430280917
C        1.2847575030    0.1227515878   -0.3399225304
C        0.5495397740   -1.1482780148   -0.9046995118
C       -0.7805911031   -0.7365957009   -1.4787984877
C       -1.2883580919   -0.0363431776   -0.3186690577
C       -0.6508287377    0.9996992264   -1.2166168292
N        0.6922267192    1.1581665175   -1.2443342738
H        2.3609558989    0.1751472251   -0.4558568765
H        0.9246998435   -2.1772267003   -0.7962163278
H       -0.9264399629   -0.6448553471   -2.5655563890
H       -2.2276474683    0.0745845116    0.2196012654
H       -1.2173743159    1.5141399134   -2.0062427864
C        0.1388272112   -0.3802996012    0.4022632018
H       -0.0945563078   -0.9452790597    1.2568167499
13   
From optimize.out: Frame 4 / 21, Energy=    -286.7636109950
C        1.2565179269    0.1307843628   -0.3594324333
C        0.5450248983   -1.1539250110   -0.9042485992
C       -0.7811025709   -0.7551151555   -1.4970005244
C       -1.2595184781   -0.0251629090   -0.3258459144
C       -0.6405515282    1.0140836956   -1.2292518872
N        0.6915850480    1.1825756370   -1.2435476670
H        2.3370828670    0.1740728895   -0.4210962958
H        0.9332412490   -2.1689845963   -0.7886562651
H       -0.9584467084   -0.6776140790   -2.5738427589
H       -2.1992624567    0.0903848954    0.2100882906
H       -1.2170969678    1.5346257176   -1.9997998824
C        0.1237366386   -0.3999496221    0.4029699343
H       -0.0659989553   -0.9701644448    1.2814321496
13   
From optimize.out: Frame 5 / 21, Energy=    -286.7794251500
C        1.2326863979    0.1362624300   -0.3790423184
C        0.5420339498   -1.1603962236   -0.9040319730
C       -0.7841417637   -0.7772979276   -1.5105047169
C       -1.2346470825   -0.0138890689   -0.3347175564
C       -0.6311601694    1.0312729592   -1.2388046055
N        0.6899842037    1.2043428147   -1.2395989182
H        2.3151941948    0.1712086957   -0.3811746946
H        0.9460536923   -2.1640853821   -0.7875038610
H       -0.9923623737   -0.7152445415   -2.5788224243
H       -2.1780142377    0.1076199728    0.1936865846
H       -1.2183837678    1.5600945016   -1.9904540485
C        0.1114374525   -0.4182739841    0.4011851967
H       -0.0334695339   -0.9860028659    1.3015514822
13   
From optimize.out: Frame 6 / 21, Energy=    -286.7917398986
C        1.2129310079    0.1392061131   -0.3980374377
C        0.5397121463   -1.1680645003   -0.9040973426
C       -0.7888084372   -0.8041377954   -1.5190574128
C       -1.2140012181   -0.0032315918   -0.3457685632
C       -0.6220991821    1.0522256285   -1.2441143141
N        0.6881365288    1.2239024524   -1.2342684824
H        2.2941614325    0.1669112714   -0.3396306962
H        0.9627449378   -2.1612210433   -0.7933855601
H       -1.0266445949   -0.7584874676   -2.5795525622
H       -2.1636676539    0.1248228994    0.1701314612
H       -1.2194124581    1.5915293410   -1.9769035275
C        0.1017494759   -0.4350830809    0.3978141561
H        0.0004089773   -0.9927608463    1.3186384284
13   
From optimize.out: Frame 7 / 21, Energy=    -286.8017537240
C        1.1961607431    0.1404946291   -0.4158075346
C        0.5373295333   -1.1769835626   -0.9042920847
C       -0.7942747751   -0.8363044256   -1.5232422829
C       -1.1965395112    0.0062182567   -0.3593289202
C       -0.6130211263    1.0778346867   -1.2443131270
N        0.6864759811    1.2416099919   -1.2287825724
H        2.2731580243    0.1612905967   -0.3006303650
H        0.9823765994   -2.1593951514   -0.8043994162
H       -1.0594565837   -0.8075274098   -2.5763796619
H       -2.1540631739    0.1400703683    0.1408796780
H       -1.2189826753    1.6298136888   -1.9583748711
C        0.0935971948   -0.4499157643    0.3933249866
H        0.0324507315   -0.9915945244    1.3331143184
13   
From optimize.out: Frame 8 / 21, Energy=    -286.8103216547
C        1.1816866266    0.1410600474   -0.4318007997
C        0.5344923155   -1.1869077287   -0.9046824519
C       -0.8001344499   -0.8733306361   -1.5239638539
C       -1.1813514920    0.0145268816   -0.3754945380
C       -0.6042484300    1.1078518951   -1.2398316894
N        0.6854234992    1.2580702643   -1.2230350905
H        2.2524799358    0.1543579113   -0.2664048154
H        1.0034154597   -2.1580019449   -0.8179464461
H       -1.0898155222   -0.8620570988   -2.5702121258
H       -2.1472519124    0.1521718303    0.1080042196
H       -1.2169437436    1.6747266451   -1.9353445474
C        0.0863001301   -0.4624117618    0.3878505292
H        0.0611585456   -0.9844449245    1.3446297559
13   
From optimize.out: Frame 9 / 21, Energy=    -286.8177559826
C        1.1697805456    0.1409237634   -0.4457497046
C        0.5310091956   -1.1974674656   -0.9055398691
C       -0.8062676696   -0.9132498271   -1.5219196041
C       -1.1685530142    0.0218907910   -0.3940077796
C       -0.5964459341    1.1404939205   -1.2320132316
N        0.6860687722    1.2732960931   -1.2165549314
H        2.2332108332    0.1458096169   -0.2364635047
H        1.0251338120   -2.1565746615   -0.8336584831
H       -1.1180456799   -0.9211029248   -2.5616415379
H       -2.1428988690    0.1600416717    0.0731941250
H       -1.2136817427    1.7250089579   -1.9086003485
C        0.0797834243   -0.4720707782    0.3814023278
H        0.0861172888   -0.9713877771    1.3533206886
13   
From optimize.out: Frame 10 / 21, Energy=    -286.8240423535
C        1.1608813113    0.1394106521   -0.4579009487
C        0.5268680359   -1.2085499062   -0.9067659587
C       -0.8123613013   -0.9531118929   -1.5176610667
C       -1.1588439292    0.0281676115   -0.4142906295
C       -0.5900673100    1.1734247340   -1.2221200661
N        0.6893076730    1.2864338533   -1.2095613743
H        2.2162602654    0.1352106343   -0.2099849019
H        1.0477203874   -2.1546980012   -0.8527063786
H       -1.1444603476   -0.9828324020   -2.5509527866
H       -2.1415960142    0.1621112200    0.0377905962
H       -1.2091751601    1.7791887362   -1.8784237051
C        0.0741565685   -0.4784778822    0.3741310805
H        0.1065207832   -0.9506659767    1.3602142863
13   
From optimize.out: Frame 11 / 21, Energy=    -286.8291211267
C        1.1546082457    0.1361859068   -0.4687360798
C        0.5223402572   -1.2203749460   -0.9079128582
C       -0.8177948464   -0.9902401017   -1.5117199886
C       -1.1524485781    0.0331339484   -0.4354461500
C       -0.5847952338    1.2046284397   -1.2109163204
N        0.6945018409    1.2964669013   -1.2028737304
H        2.2018295166    0.1232599398   -0.1875282008
H        1.0711083460   -2.1523255688   -0.8757609576
H       -1.1684245584   -1.0452364349   -2.5384271522
H       -2.1433026298    0.1576872907    0.0031941472
H       -1.2025616691    1.8357630134   -1.8447275575
C        0.0693956665   -0.4819529407    0.3662972435
H        0.1207546050   -0.9213840681    1.3663257516
13   
From optimize.out: Frame 12 / 21, Energy=    -286.8329959548
C        1.1502110275    0.1315535854   -0.4784441110
C        0.5178530293   -1.2330895463   -0.9085414563
C       -0.8218964555   -1.0229989583   -1.5048709812
C       -1.1490068868    0.0367620133   -0.4565917355
C       -0.5801172750    1.2328216333   -1.1988815163
N        0.7003684819    1.3030861170   -1.1972033645
H        2.1900108167    0.1107825635   -0.1702971432
H        1.0945833746   -2.1495878906   -0.9023717967
H       -1.1887810944   -1.1069317246   -2.5246279229
H       -2.1472161131    0.1476787460   -0.0294282204
H       -1.1935744660    1.8930090592   -1.8073261042
C        0.0653548017   -0.4832494771    0.3581662940
H        0.1274217216   -0.8842247406    1.3721862052
13   
From optimize.out: Frame 13 / 21, Energy=    -286.8357268386
C        1.1471033996    0.1260453464   -0.4869262314
C        0.5136858150   -1.2466310052   -0.9083093106
C       -0.8241004188   -1.0505863735   -1.4982578589
C       -1.1480246698    0.0391393303   -0.4770772869
C       -0.5758553702    1.2573384610   -1.1862713811
N        0.7060150623    1.3066923493   -1.1927876554
H        2.1811086235    0.0978424696   -0.1593860883
H        1.1171567530   -2.1466447429   -0.9312805534
H       -1.2044182591   -1.1671755621   -2.5105206724
H       -2.1524711395    0.1340314304   -0.0594117016
H       -1.1830105087    1.9489967832   -1.7660076608
C        0.0618857910   -0.4829910662    0.3500413004
H        0.1261358841   -0.8404460401    1.3779632471
13   
From optimize.out: Frame 14 / 21, Energy=    -286.8373916087
C        1.1448014444    0.1202873390   -0.4937281212
C        0.5098739639   -1.2608181168   -0.9069430547
C       -0.8240194017   -1.0725143117   -1.4930129912
C       -1.1490585332    0.0405394802   -0.4963731437
C       -0.5719571684    1.2778343158   -1.1732592915
N        0.7108858020    1.3078632061   -1.1896059436
H        2.1755321860    0.0844265682   -0.1557930314
H        1.1380354019   -2.1435957807   -0.9609988710
H       -1.2145083738   -1.2256639423   -2.4970274607
H       -2.1583800280    0.1192079743   -0.0862368677
H       -1.1719285879    2.0017279931   -1.7209839035
C        0.0588752439   -0.4817558478    0.3422885551
H        0.1170590131   -0.7919274972    1.3834422720
13   
From optimize.out: Frame 15 / 21, Energy=    -286.8380819019
C        1.1432609420    0.1153153741   -0.4975310110
C        0.5063184888   -1.2745331628   -0.9043176605
C       -0.8212604659   -1.0867842928   -1.4904612568
C       -1.1519555401    0.0413928264   -0.5130881518
C       -0.5686437680    1.2932294960   -1.1607700774
N        0.7145499148    1.3073348751   -1.1872200059
H        2.1744916747    0.0708762630   -0.1613747387
H        1.1556969821   -2.1404872941   -0.9882018880
H       -1.2180218600   -1.2797338662   -2.4853706364
H       -2.1643724648    0.1061940465   -0.1078371858
H       -1.1620741800    2.0467178617   -1.6757585673
C        0.0565413732   -0.4797603520    0.3357617963
H        0.1006798654   -0.7441503948    1.3879375300
13   
From optimize.out: Frame 16 / 21, Energy=    -286.8381963924
C        1.1433441097    0.1153142249   -0.4959179777
C        0.5050231308   -1.2773515915   -0.9033020894
C       -0.8191076222   -1.0859684217   -1.4915939514
C       -1.1537292277    0.0419267290   -0.5161351437
C       -0.5678769319    1.2951244892   -1.1578924351
N        0.7149930577    1.3069338149   -1.1863664364
H        2.1774342154    0.0675830687   -0.1691436046
H        1.1590330381   -2.1394827899   -0.9922103406
H       -1.2161998404   -1.2931395759   -2.4833443894
H       -2.1658377824    0.1048993062   -0.1100986705
H       -1.1605419590    2.0544922555   -1.6655690311
C        0.0565477809   -0.4786448646    0.3347653486
H        0.0921289932   -0.7360752647    1.3885768680
13   
From optimize.out: Frame 17 / 21, Energy=    -286.8382896202
C        1.1438807560    0.1176961866   -0.4915651762
C        0.5028865571   -1.2781582114   -0.9029480204
C       -0.8164343421   -1.0819706665   -1.4938013272
C       -1.1551113777    0.0431908171   -0.5180743083
C       -0.5673337386    1.2965382434   -1.1557018022
N        0.7151218402    1.3076581794   -1.1845059819
H        2.1826014910    0.0654319611   -0.1809722442
H        1.1599507728   -2.1379589518   -0.9913616094
H       -1.2139770265   -1.3059027362   -2.4813231897
H       -2.1659045519    0.1047436053   -0.1090593520
H       -1.1594845612    2.0583618823   -1.6607581716
C        0.0575286831   -0.4766071886    0.3342871367
H        0.0814864600   -0.7374117404    1.3875521932
13   
From optimize.out: Frame 18 / 21, Energy=    -286.8383191550
C        1.1445613445    0.1203199649   -0.4885532947
C        0.5015414851   -1.2773601247   -0.9037466651
C       -0.8160837135   -1.0801801687   -1.4950058272
C       -1.1548871269    0.0438642003   -0.5185551760
C       -0.5671441464    1.2973079400   -1.1551179580
N        0.7154291572    1.3090851596   -1.1827527305
H        2.1852986382    0.0665054673   -0.1854837288
H        1.1595681514   -2.1366645364   -0.9886162066
H       -1.2154917232   -1.3109607610   -2.4799624202
H       -2.1647481859    0.1056706461   -0.1072913858
H       -1.1585297528    2.0577863938   -1.6629609296
C        0.0587028121   -0.4752138553    0.3341582490
H        0.0769940226   -0.7445489458    1.3856562203
13   
From optimize.out: Frame 19 / 21, Energy=    -286.8383306669
C        1.1451478271    0.1226831559   -0.4867349428
C        0.5007628202   -1.2765302396   -0.9047653479
C       -0.8165510906   -1.0802275039   -1.4949829205
C       -1.1541014107    0.0444091786   -0.5188528581
C       -0.5670554877    1.2983556100   -1.1551342777
N        0.7158454574    1.3109942227   -1.1811325783
H        2.1864363847    0.0676405743   -0.1860212399
H        1.1598361275   -2.1352146290   -0.9868667704
H       -1.2186645083   -1.3138163684   -2.4780426487
H       -2.1634344107    0.1068847152   -0.1061866084
H       -1.1576407288    2.0567832448   -1.6667625118
C        0.0596561353   -0.4743926182    0.3338055398
H        0.0749738469   -0.7519579621    1.3834453116
13   
From optimize.out: Frame 20 / 21, Energy=    -286.8383327539
C        1.1454200495    0.1233202030   -0.4867614750
C        0.5004009835   -1.2765794816   -0.9051468870
C       -0.8170451984   -1.0810445898   -1.4950234733
C       -1.1536617278    0.0442218835   -0.5190862143
C       -0.5668007873    1.2985802446   -1.1549554047
N        0.7162166724    1.3115800830   -1.1806390299
H        2.1863510794    0.0685382266   -0.1848190688
H        1.1601261808   -2.1347311359   -0.9866403041
H       -1.2206663827   -1.3142058185   -2.4775701261
H       -2.1629614717    0.1071728092   -0.1062928388
H       -1.1571692536    2.0562947936   -1.6677156577
C        0.0600547235   -0.4738317578    0.3336263941
H        0.0749460946   -0.7537040798    1.3827922324
