13   
From optimize.out: Frame 1 / 2, Energy=    -286.7239556821
C        0.0102840000    0.0030710000   -0.0000000000
C       -0.2257190000    1.0569450000    0.0000000000
C       -0.1333900000   -0.1637660000    0.0000000000
C       -0.1168180000    0.0693600000    0.0000000000
C        0.0086930000   -0.0591950000    0.0000000000
N       -0.3884670000   -0.0015750000    0.0000000000
H        0.1799220000    0.0020860000   -0.0000000000
H        0.1532960000    0.0056780000    0.0000000000
H        0.1393890000    0.0832680000    0.0000000000
H        0.1227300000   -0.0025110000    0.0000000000
H        0.1286380000    0.0046660000    0.0000000000
C       -0.0522840000    0.0001730000   -0.0000000000
H        0.1737250000    0.0018000000   -0.0000000000
