13   
From optimize.out: Frame 6 / 47, Energy=    -286.8274221311
C        1.0794514127    0.2310538929    0.4633299753
C        0.9289042621   -0.9674814235   -0.4057512860
C       -0.3899805699   -1.0340040545   -0.6664680716
C       -1.0639505014    0.2250613326    0.1294938497
C       -0.4291479966    1.4215180609   -0.5226731690
N        0.8464027053    1.4742767714   -0.3321849531
H        2.0277345769    0.4263136630    0.9769710731
H        1.7287085651   -1.5582246586   -0.8258977503
H       -1.0075493272   -1.8618957285   -0.9681904808
H       -2.1448701339    0.2210717848   -0.0510420056
H       -0.9888294263    2.1714836306   -1.0806540838
C       -0.2520621434    0.0573567834    1.3128449508
H       -0.3348114239   -0.8065300546    1.9702219512
13   
From optimize.out: Frame 5 / 47, Energy=    -286.8097415252
C        1.0676643279    0.2183900537    0.4355535964
C        0.9573000911   -0.9594797265   -0.4319500724
C       -0.3703795112   -1.0188538070   -0.6374237216
C       -1.0443566349    0.2377953202    0.1403639476
C       -0.4249873801    1.4394021977   -0.5179440109
N        0.8505229063    1.4963193002   -0.3302699154
H        2.0206695629    0.4125619655    0.9442498227
H        1.7501694829   -1.5525099032   -0.8666825977
H       -0.9997467663   -1.8790769921   -0.8400229389
H       -2.1174652248    0.2411310314   -0.1047033909
H       -0.9956725219    2.1845657818   -1.0720445092
C       -0.3010889994    0.0276850754    1.3222281963
H       -0.3926293326   -0.8479302970    1.9586455941
13   
From optimize.out: Frame 4 / 47, Energy=    -286.7824259233
C        1.0402906829    0.2020262757    0.4062948181
C        0.9840451617   -0.9899948961   -0.4717156478
C       -0.3373635963   -1.1028912273   -0.6731138583
C       -1.0503121562    0.3000722407    0.1847958852
C       -0.4330825857    1.5057994042   -0.5056846619
N        0.8357378911    1.5335219102   -0.3389260670
H        2.0063261366    0.3709172213    0.8990823538
H        1.7969127237   -1.5733313809   -0.8991133824
H       -0.9035278441   -2.0450343794   -0.8155310743
H       -2.1235814748    0.3425397197   -0.0841550460
H       -1.0040154728    2.2595986699   -1.0489322580
C       -0.3507911109    0.0346937412    1.3584718746
H       -0.4606383550   -0.8379172993    1.9885270638
13   
From optimize.out: Frame 3 / 47, Energy=    -286.7397663650
C        1.0092454868    0.1942844035    0.3894510275
C        0.9850851567   -1.0373462413   -0.5135560393
C       -0.3282363948   -1.2521396495   -0.7580898066
C       -1.0536663581    0.3774588157    0.2443969029
C       -0.4388726033    1.5937455307   -0.4881549856
N        0.8172134490    1.5838082153   -0.3475726416
H        1.9908031134    0.3315138386    0.8602196142
H        1.8281920019   -1.6001025251   -0.9265883841
H       -0.7658698846   -2.2949212912   -0.8771654695
H       -2.1308505279    0.4646565091   -0.0313044413
H       -1.0071655339    2.3582646228   -1.0205359177
C       -0.3887870123    0.0709539220    1.4172018238
H       -0.5170908930   -0.7901761504    2.0516983173
13   
From optimize.out: Frame 2 / 47, Energy=    -286.6920728409
C        0.9780223928    0.1866389466    0.3741690945
C        0.9844287037   -1.0814379490   -0.5558639294
C       -0.3224647734   -1.3736936619   -0.8264895901
C       -1.0471970714    0.4356793665    0.2913781309
C       -0.4427510891    1.6749301472   -0.4754480808
N        0.8005200784    1.6381819909   -0.3527107012
H        1.9721426017    0.2970415539    0.8246233222
H        1.8469606710   -1.6311890517   -0.9623581042
H       -0.6372721206   -2.4944586357   -0.9059115920
H       -2.1252735393    0.5595896266   -0.0001393640
H       -1.0111693028    2.4465438497   -0.9990099676
C       -0.4256260837    0.0967953464    1.4754038229
H       -0.5703204672   -0.7546215294    2.1123569589
13   
From optimize.out: Frame 1 / 47, Energy=    -286.6394887888
C        0.9521764258    0.1853319685    0.3687752582
C        0.9814389850   -1.1155146625   -0.5944968677
C       -0.3335955708   -1.4439927176   -0.8651078885
C       -1.0196057455    0.4612470286    0.3117214303
C       -0.4451444339    1.7450965257   -0.4720127966
N        0.7785539939    1.6980379199   -0.3429904389
H        1.9522415596    0.2788535995    0.8062698555
H        1.8486100259   -1.6683994438   -1.0077750034
H       -0.5565895878   -2.6210158391   -0.8886194318
H       -2.0918654593    0.6059620449   -0.0128228585
H       -1.0150806311    2.5156772356   -0.9962055068
C       -0.4487388852    0.1013276009    1.5287215807
H       -0.6024006766   -0.7426112606    2.1645426676
13   
C5H5N+CH->C6H6N atoms 1-13 frame 149 charge +0.000 sz -1.000 sz^2 0.894
C        0.9521764258    0.1853319685    0.3687752582
C        0.9814389850   -1.1155146625   -0.5944968677
C       -0.3335955708   -1.4439927176   -0.8651078885
C       -1.0196057455    0.4612470286    0.3117214303
C       -0.4451444339    1.7450965257   -0.4720127966
N        0.7785539939    1.6980379199   -0.3429904389
H        1.9522415596    0.2788535995    0.8062698555
H        1.8486100259   -1.6683994438   -1.0077750034
H       -0.5565895878   -2.6210158391   -0.8886194318
H       -2.0918654593    0.6059620449   -0.0128228585
H       -1.0150806311    2.5156772356   -0.9962055068
C       -0.4487388852    0.1013276009    1.5287215807
H       -0.6024006766   -0.7426112606    2.1645426676
13   
C5H5N+CH->C6H6N atoms 1-13 frame 150 charge -0.000 sz -1.000 sz^2 0.901
C        0.9407297453    0.1806893400    0.3841555430
C        0.9776372215   -1.1107156451   -0.6078283032
C       -0.3364994517   -1.4456674367   -0.8676884297
C       -1.0178668935    0.4640919305    0.3352680609
C       -0.4431352884    1.7363513976   -0.4697384780
N        0.7939826824    1.6976914883   -0.3572776966
H        1.9376537598    0.2796554569    0.8166606682
H        1.8503235131   -1.6458465769   -1.0225786628
H       -0.5667061857   -2.6142527689   -0.8873501591
H       -2.0761270724    0.6135670531   -0.0259172566
H       -1.0183718732    2.4902406563   -1.0076609222
C       -0.4305364569    0.0973422484    1.5379850583
H       -0.6110837004   -0.7431471434    2.1719705778
13   
C5H5N+CH->C6H6N atoms 1-13 frame 151 charge +0.000 sz -1.000 sz^2 0.915
C        0.9306170331    0.1761433601    0.3993682896
C        0.9732023358   -1.1058304301   -0.6209122697
C       -0.3389062897   -1.4482594895   -0.8699693698
C       -1.0171600274    0.4677532279    0.3578829014
C       -0.4412948519    1.7268084925   -0.4681527914
N        0.8102866306    1.6965853574   -0.3725576617
H        1.9236106461    0.2801101247    0.8282400283
H        1.8516557000   -1.6225069573   -1.0356764928
H       -0.5778969233   -2.6019138590   -0.8874592449
H       -2.0605736567    0.6170440739   -0.0365559928
H       -1.0218697317    2.4642260424   -1.0197387523
C       -0.4116272612    0.0938976154    1.5455701337
H       -0.6200436037   -0.7440575585    2.1799612222
13   
C5H5N+CH->C6H6N atoms 1-13 frame 152 charge +0.000 sz -1.000 sz^2 0.933
C        0.9218202207    0.1717188411    0.4144058528
C        0.9681344100   -1.1008197003   -0.6336473234
C       -0.3407963119   -1.4516919729   -0.8720152699
C       -1.0174799536    0.4723550673    0.3794567288
C       -0.4394212400    1.7165351120   -0.4672338084
N        0.8272704743    1.6947206869   -0.3887484822
H        1.9104599567    0.2801039887    0.8412039102
H        1.8528245601   -1.5985598264   -1.0471920370
H       -0.5901796374   -2.5844546843   -0.8890589961
H       -2.0456396519    0.6163414455   -0.0444314617
H       -1.0255895321    2.4378461895   -1.0325047037
C       -0.3922073567    0.0910056439    1.5514545770
H       -0.6291959382   -0.7451007911    2.1883110135
13   
C5H5N+CH->C6H6N atoms 1-13 frame 153 charge -0.000 sz -1.000 sz^2 0.960
C        0.9143095324    0.1674373318    0.4292869372
C        0.9624456579   -1.0956306335   -0.6459281720
C       -0.3421438566   -1.4558425442   -0.8738935226
C       -1.0188113412    0.4780082631    0.3999104964
C       -0.4373187141    1.7056182744   -0.4669289905
N        0.8447476335    1.6921102544   -0.4057101765
H        1.8985385914    0.2795306398    0.8557245738
H        1.8540607312   -1.5741586646   -1.0572630411
H       -0.6036400518   -2.5626135691   -0.8922924903
H       -2.0317964075    0.6115040184   -0.0492882167
H       -1.0295014313    2.4112878924   -1.0459543614
C       -0.3724904827    0.0886444065    1.5556525088
H       -0.6383998613   -0.7458956695    2.1966844550
13   
From optimize.out: Frame 1 / 42, Energy=    -286.6450782744
C        0.9080506872    0.1633250300    0.4440530380
C        0.9561663156   -1.0901903689   -0.6576505003
C       -0.3429103175   -1.4605339316   -0.8756758730
C       -1.0211249526    0.4848163176    0.4191916028
C       -0.4348028302    1.6941714280   -0.4671629764
N        0.8625504994    1.6887873901   -0.4232513898
H        1.8881481222    0.2782971901    0.8719362508
H        1.8555873937   -1.5494118181   -1.0660278665
H       -0.6184516359   -2.5374433810   -0.8973334891
H       -2.0195373193    0.6026784838   -0.0509330797
H       -1.0335139482    2.3847076107   -1.0600102038
C       -0.3527029526    0.0867733342    1.5582065293
H       -0.6474590619   -0.7459772850    2.2046579578
13   
From optimize.out: Frame 2 / 42, Energy=    -286.6928686977
C        0.9280667291    0.1616312395    0.4359381849
C        0.9597379933   -1.0697293215   -0.6164926345
C       -0.3200686188   -1.4400066516   -0.8593023295
C       -1.0571406902    0.4880808604    0.4043833235
C       -0.4359915678    1.6502779803   -0.4600321653
N        0.8589872768    1.6239740501   -0.4241834629
H        1.9137800973    0.2813509031    0.8703192263
H        1.8663930389   -1.5218770662   -1.0135327586
H       -0.6477078789   -2.4932172602   -0.9323054746
H       -2.0788664456    0.6013621555   -0.0112118694
H       -1.0235365465    2.3596741718   -1.0441802900
C       -0.3398071852    0.0957441110    1.5032007432
H       -0.6238462023   -0.7372651724    2.1473995068
13   
From optimize.out: Frame 3 / 42, Energy=    -286.7324012834
C        0.9463989424    0.1656477078    0.4320789414
C        0.9566730502   -1.0461524310   -0.5768194151
C       -0.3065885852   -1.4184141880   -0.8399210686
C       -1.0890983302    0.4868087999    0.3829549539
C       -0.4392301446    1.6066138057   -0.4565728174
N        0.8506235358    1.5592819691   -0.4130684267
H        1.9316723835    0.2920659634    0.8760766872
H        1.8692008314   -1.4944314137   -0.9636855563
H       -0.6836452523   -2.4437082529   -0.9574864085
H       -2.1256012711    0.5984694397    0.0195814062
H       -1.0073585478    2.3336278203   -1.0382217276
C       -0.3180212342    0.0982750245    1.4455257533
H       -0.5850253778   -0.7380842448    2.0895576780
13   
From optimize.out: Frame 4 / 42, Energy=    -286.7619897834
C        0.9651990297    0.1763544317    0.4358152538
C        0.9543230038   -1.0300662060   -0.5388443275
C       -0.2967629303   -1.3950195264   -0.8259862496
C       -1.1206512043    0.4822747914    0.3649322003
C       -0.4440104859    1.5646775989   -0.4585617445
N        0.8418224273    1.4986169842   -0.4028662423
H        1.9476037227    0.3114562184    0.8912770388
H        1.8705065175   -1.4776590343   -0.9183145220
H       -0.7254695600   -2.3853224228   -0.9980967300
H       -2.1701852372    0.5896303969    0.0579481558
H       -0.9892749991    2.3058606316   -1.0439096333
C       -0.2949179963    0.0993255741    1.3944489564
H       -0.5381822879   -0.7401294376    2.0421578440
13   
From optimize.out: Frame 5 / 42, Energy=    -286.7817982311
C        0.9854262658    0.1918085423    0.4455670289
C        0.9530617235   -1.0240916954   -0.5036742626
C       -0.2884677568   -1.3717307632   -0.8188666467
C       -1.1490615779    0.4758574809    0.3524845647
C       -0.4508571902    1.5272565039   -0.4665316477
N        0.8320477121    1.4500529838   -0.3992148928
H        1.9625932531    0.3337501411    0.9149093801
H        1.8711938446   -1.4742821487   -0.8760586641
H       -0.7668681546   -2.3190279174   -1.0574031361
H       -2.2098907033    0.5795706026    0.1078872886
H       -0.9753993635    2.2758035682   -1.0610211100
C       -0.2751135667    0.0975947135    1.3526866253
H       -0.4886644860   -0.7425620116    2.0092354725
13   
From optimize.out: Frame 6 / 42, Energy=    -286.7938512542
C        1.0046375768    0.2078613934    0.4560335246
C        0.9513979875   -1.0264218244   -0.4730662013
C       -0.2811419066   -1.3541072253   -0.8198826289
C       -1.1711529686    0.4710448137    0.3463195165
C       -0.4595903345    1.4981214460   -0.4784140085
N        0.8217447230    1.4190549397   -0.4051071677
H        1.9748125600    0.3492347709    0.9412382796
H        1.8714940454   -1.4817943101   -0.8348332431
H       -0.7946350932   -2.2556131516   -1.1341296960
H       -2.2413865322    0.5767405467    0.1713344487
H       -0.9703021715    2.2457549627   -1.0856862911
C       -0.2618412801    0.0926187071    1.3221372559
H       -0.4440366059   -0.7424950688    1.9940562112
13   
From optimize.out: Frame 7 / 42, Energy=    -286.8012710380
C        1.0158012975    0.2223163389    0.4595724982
C        0.9477254903   -1.0324381162   -0.4553676623
C       -0.2725644947   -1.3637613632   -0.8263117825
C       -1.1901426768    0.4791729102    0.3447196708
C       -0.4681572230    1.4851799613   -0.4878551195
N        0.8127533915    1.4041303851   -0.4130406335
H        1.9781917265    0.3508046263    0.9621878263
H        1.8731295757   -1.4913477514   -0.7997260604
H       -0.7888235603   -2.2328398558   -1.2111832874
H       -2.2665785045    0.5977302376    0.2504525903
H       -0.9681492736    2.2298574382   -1.1074018036
C       -0.2579507804    0.0878999703    1.2968422074
H       -0.4152349684   -0.7367047814    1.9871115562
13   
From optimize.out: Frame 14 / 42, Energy=    -286.8059409442
C        0.9175043648    0.2042105807    0.5013028516
C        0.9022917559   -1.0586336225   -0.5405082129
C       -0.0910328891   -1.6392162684   -1.1356996555
C       -1.2829440606    0.7433001284    0.5752473323
C       -0.5689780735    1.4659207421   -0.4887395209
N        0.7154744725    1.2308777717   -0.5398120031
H        1.8693835650   -0.0312102666    0.9752720270
H        1.9319512318   -1.3696092874   -0.7466514557
H       -0.3103990763   -2.5063358852   -1.7392875972
H       -2.3100182917    1.0095933692    0.8024674234
H       -1.0150253659    2.1453168846   -1.2095927817
C       -0.3003461449    0.2584830466    1.3685412073
H       -0.4578614879   -0.4526971930    2.1774603855
13   
From optimize.out: Frame 15 / 42, Energy=    -286.8144371145
C        0.9154297959    0.2076884381    0.4756860968
C        0.9159731118   -1.0630268280   -0.5178719059
C       -0.0991935405   -1.6582307377   -1.0701938958
C       -1.2844451137    0.7429450109    0.5471379669
C       -0.5534513286    1.4994347984   -0.4925414907
N        0.7264772659    1.2763520155   -0.5239167880
H        1.8777267852    0.0093164232    0.9474908792
H        1.9418412034   -1.3740950345   -0.7449354375
H       -0.3392238979   -2.5387769763   -1.6465206886
H       -2.3122683676    1.0072210020    0.7735686913
H       -0.9977321129    2.2016489689   -1.1944640984
C       -0.3178808551    0.2096679197    1.3277959364
H       -0.4732529459   -0.5201450002    2.1187647342
13   
From optimize.out: Frame 16 / 42, Energy=    -286.8208922559
C        0.9156681548    0.2140671227    0.4463757848
C        0.9238918068   -1.0751907220   -0.5041710896
C       -0.0952033549   -1.6953317206   -1.0238894292
C       -1.2915205549    0.7643761869    0.5418484142
C       -0.5463794326    1.5250267761   -0.4889842513
N        0.7272100289    1.2927952774   -0.5263222545
H        1.8703765697    0.0392505478    0.9442256823
H        1.9480682107   -1.3850721456   -0.7422454707
H       -0.3312163904   -2.5695236838   -1.6114786836
H       -2.3147420699    1.0321582058    0.7818662992
H       -0.9896308596    2.2387532994   -1.1810625675
C       -0.3339698610    0.1765256288    1.2887359693
H       -0.4825522475   -0.5578347729    2.0751015966
13   
From optimize.out: Frame 17 / 42, Energy=    -286.8260688701
C        0.9096304008    0.2062288777    0.4228135080
C        0.9364056302   -1.0839192201   -0.4956434544
C       -0.0952425086   -1.7174050003   -0.9822693894
C       -1.2933943825    0.7741739744    0.5266228647
C       -0.5380399234    1.5493099029   -0.4871559734
N        0.7314498744    1.3093919476   -0.5209358245
H        1.8675888500    0.0841083090    0.9322706830
H        1.9563439964   -1.3949384425   -0.7500885011
H       -0.3318387629   -2.6076230501   -1.5460753645
H       -2.3126545035    1.0497247518    0.7739767313
H       -0.9772454516    2.2849776197   -1.1593019995
C       -0.3482435912    0.1433154220    1.2540777331
H       -0.5047596281   -0.5973450920    2.0317089867
13   
From optimize.out: Frame 18 / 42, Energy=    -286.8304797375
C        0.9022134682    0.1985056418    0.3994660922
C        0.9440618083   -1.1015485771   -0.4883828726
C       -0.0847649927   -1.7593398419   -0.9564598019
C       -1.2991686824    0.8074890986    0.5369154754
C       -0.5397068050    1.5683816336   -0.4845566120
N        0.7237648680    1.3066969006   -0.5340132998
H        1.8491493536    0.1073344013    0.9375477577
H        1.9645030166   -1.4047893118   -0.7511502197
H       -0.2993740605   -2.6387422650   -1.5463657446
H       -2.3091700020    1.0979177307    0.8033591489
H       -0.9774031614    2.3112452183   -1.1506531798
C       -0.3625939235    0.1211842864    1.2256807540
H       -0.5115108871   -0.6143349155    2.0086125022
13   
From optimize.out: Frame 19 / 42, Energy=    -286.8342659419
C        0.8897163778    0.1817463077    0.3771362673
C        0.9540561653   -1.1158732349   -0.4913968558
C       -0.0742658886   -1.7975757261   -0.9310498977
C       -1.3022194223    0.8307845504    0.5344141521
C       -0.5355464578    1.5926948547   -0.4776992949
N        0.7199928364    1.3057870452   -0.5388364627
H        1.8350416714    0.1490716198    0.9264866838
H        1.9735762732   -1.4123163781   -0.7650613870
H       -0.2697839641   -2.6960009241   -1.4997574213
H       -2.3036401622    1.1369719366    0.8148479123
H       -0.9633971264    2.3600565326   -1.1222698209
C       -0.3803109012    0.1002805031    1.1970184318
H       -0.5432194015   -0.6356270868    1.9761676931
13   
From optimize.out: Frame 20 / 42, Energy=    -286.8376864094
C        0.8738260790    0.1634796517    0.3554266052
C        0.9617851943   -1.1355918778   -0.4935557837
C       -0.0553956264   -1.8482672026   -0.9141926925
C       -1.3041375360    0.8713672284    0.5547319197
C       -0.5390566016    1.6095376727   -0.4728760906
N        0.7076239067    1.2925012532   -0.5566517742
H        1.8063498602    0.1679972316    0.9290891295
H        1.9833667642   -1.4156557633   -0.7774071565
H       -0.2180424794   -2.7367880393   -1.5095601915
H       -2.2922888357    1.1979965672    0.8578739750
H       -0.9618087549    2.3844595078   -1.1120025108
C       -0.3990007632    0.0865301400    1.1748875633
H       -0.5632212072   -0.6375663695    1.9642370071
13   
From optimize.out: Frame 21 / 42, Energy=    -286.8405931867
C        0.8518176832    0.1420929353    0.3358637725
C        0.9691530920   -1.1539212075   -0.4997427190
C       -0.0342988564   -1.9047251404   -0.8913980590
C       -1.3085145757    0.9067122540    0.5593865639
C       -0.5363628845    1.6390523609   -0.4637336901
N        0.6965934363    1.2786915437   -0.5744209442
H        1.7783261065    0.1977545958    0.9183917082
H        1.9926384015   -1.4110397370   -0.7979373233
H       -0.1672334458   -2.8093438232   -1.4707279300
H       -2.2843618439    1.2523010745    0.8809690213
H       -0.9420184965    2.4406552665   -1.0806761283
C       -0.4245415800    0.0739011237    1.1484768230
H       -0.5911970366   -0.6521312462    1.9355489049
13   
From optimize.out: Frame 22 / 42, Energy=    -286.8431020571
C        0.8309706960    0.1183656207    0.3129045374
C        0.9790575657   -1.1715085453   -0.5126884085
C       -0.0035933935   -1.9639958876   -0.8724870828
C       -1.3027633559    0.9487985620    0.5847016391
C       -0.5373113790    1.6565726317   -0.4569557483
N        0.6824055525    1.2621336565   -0.5945804217
H        1.7445530841    0.2111314615    0.9131514580
H        2.0037140143   -1.3989887031   -0.8304470760
H       -0.1063882666   -2.8666105581   -1.4618766768
H       -2.2626736539    1.3143442659    0.9312894498
H       -0.9332798662    2.4705303577   -1.0637614726
C       -0.4447987652    0.0634980917    1.1281761423
H       -0.6498922323   -0.6442709536    1.9225736602
13   
From optimize.out: Frame 23 / 42, Energy=    -286.8451372677
C        0.7991534760    0.0966750705    0.2964261289
C        0.9814239450   -1.1869892281   -0.5188272679
C        0.0226545255   -2.0213927666   -0.8472121189
C       -1.3069873249    0.9901702516    0.5942874294
C       -0.5318302510    1.6803499942   -0.4510459993
N        0.6701874760    1.2416696283   -0.6152562594
H        1.6978844100    0.2239605499    0.9148206618
H        2.0064557837   -1.3803222847   -0.8572214795
H       -0.0515430479   -2.9283730385   -1.4349355435
H       -2.2544028867    1.3701204152    0.9598911428
H       -0.9075632945    2.5124960711   -1.0457905693
C       -0.4797869658    0.0596710204    1.1051251038
H       -0.6456458454   -0.6580356833    1.8997387711
13   
From optimize.out: Frame 24 / 42, Energy=    -286.8467970840
C        0.7753937716    0.0773198001    0.2778209089
C        0.9882124632   -1.2028998666   -0.5284303649
C        0.0583505608   -2.0853278105   -0.8123742224
C       -1.3028672860    1.0250704253    0.6027046511
C       -0.5249864738    1.7097735111   -0.4403369272
N        0.6552845022    1.2254949910   -0.6384010330
H        1.6658263598    0.2335277329    0.9036791528
H        2.0076701006   -1.3506982503   -0.9041921124
H        0.0058694224   -3.0038469571   -1.3843912391
H       -2.2380744280    1.4165292575    0.9867999449
H       -0.8812542119    2.5637923214   -1.0155718563
C       -0.5037252453    0.0522954564    1.0810896540
H       -0.7056995356   -0.6610306112    1.8716034436
13   
From optimize.out: Frame 25 / 42, Energy=    -286.8480844060
C        0.7489787523    0.0585726381    0.2591710862
C        0.9914415929   -1.2112133453   -0.5428663059
C        0.0944429616   -2.1395827164   -0.7756518654
C       -1.2973911874    1.0592673360    0.6136563986
C       -0.5160499805    1.7282870966   -0.4366765379
N        0.6474724962    1.2127697302   -0.6539793777
H        1.6235611505    0.2324688687    0.9048400947
H        2.0011946451   -1.3140265798   -0.9574402706
H        0.0606313032   -3.0674739091   -1.3338494313
H       -2.2232705325    1.4570591179    1.0139950141
H       -0.8527356071    2.5994376005   -0.9976666156
C       -0.5309411339    0.0479307853    1.0590986362
H       -0.7473344603   -0.6634966227    1.8473691746
13   
From optimize.out: Frame 26 / 42, Energy=    -286.8490122947
C        0.7267852375    0.0461696030    0.2449356306
C        0.9929794841   -1.2199918694   -0.5516539862
C        0.1323730303   -2.1932742788   -0.7301926841
C       -1.2941697223    1.0875950249    0.6154738710
C       -0.5032222602    1.7523793917   -0.4286388994
N        0.6405133301    1.2024930611   -0.6681698071
H        1.5899079571    0.2271707702    0.9059185507
H        1.9835497447   -1.2720163189   -1.0185034289
H        0.1118649856   -3.1307489852   -1.2724122236
H       -2.2154922865    1.4856069105    1.0257451443
H       -0.8222580346    2.6368544000   -0.9788838345
C       -0.5551171530    0.0460778768    1.0377273928
H       -0.7877143128   -0.6683155861    1.8186542744
13   
From optimize.out: Frame 27 / 42, Energy=    -286.8496752004
C        0.7056222091    0.0344237254    0.2290988560
C        0.9911690661   -1.2236409478   -0.5655935571
C        0.1700155054   -2.2388038596   -0.6828653965
C       -1.2905342419    1.1114861599    0.6151000935
C       -0.4900474455    1.7715537003   -0.4255718007
N        0.6392860464    1.1991776474   -0.6759272132
H        1.5570269789    0.2221965619    0.9052749399
H        1.9583809389   -1.2313379346   -1.0813865921
H        0.1670289213   -3.1938518362   -1.1936189854
H       -2.2114831774    1.5068701995    1.0291881685
H       -0.7870721931    2.6754402357   -0.9562836490
C       -0.5786101130    0.0435089237    1.0168015475
H       -0.8307824952   -0.6770225758    1.7857835886
13   
From optimize.out: Frame 28 / 42, Energy=    -286.8501000104
C        0.6890264760    0.0288165387    0.2175427948
C        0.9871803435   -1.2265542451   -0.5764787625
C        0.2116173603   -2.2817794001   -0.6321936329
C       -1.2885015590    1.1330408053    0.6145562161
C       -0.4753394361    1.7914419613   -0.4176971306
N        0.6389317027    1.1959999216   -0.6821585334
H        1.5298803104    0.2079043079    0.9105541761
H        1.9230399848   -1.1911898763   -1.1461555280
H        0.2201257701   -3.2449996487   -1.1267048312
H       -2.2126809817    1.5224349652    1.0267857428
H       -0.7600446942    2.7020720365   -0.9436277297
C       -0.5981875678    0.0448680936    0.9989379630
H       -0.8650477090   -0.6820554600    1.7566392555
13   
From optimize.out: Frame 29 / 42, Energy=    -286.8503339635
C        0.6765312024    0.0231758987    0.2090913045
C        0.9826290945   -1.2304489254   -0.5834550792
C        0.2498663612   -2.3171513739   -0.5801408332
C       -1.2879497547    1.1468052219    0.6072083055
C       -0.4637145513    1.8061789728   -0.4153951335
N        0.6430188572    1.1998908681   -0.6801492059
H        1.5114531146    0.2031778710    0.9100744848
H        1.8757671932   -1.1567204740   -1.2144916221
H        0.2752341178   -3.2934324970   -1.0475404631
H       -2.2199185710    1.5317706927    1.0061779818
H       -0.7298206739    2.7327114855   -0.9230659261
C       -0.6146368419    0.0454338969    0.9850071109
H       -0.8984595479   -0.6913916373    1.7266790756
13   
From optimize.out: Frame 30 / 42, Energy=    -286.8504228657
C        0.6640091406    0.0229993692    0.1966638850
C        0.9678069197   -1.2267568674   -0.6023052773
C        0.2894388096   -2.3473665312   -0.5363539690
C       -1.2886118575    1.1626213909    0.6087489037
C       -0.4519014526    1.8226883067   -0.4070360060
N        0.6451073798    1.2032602912   -0.6824908949
H        1.4937129326    0.1832635671    0.9094592572
H        1.8395754907   -1.1321915020   -1.2599843664
H        0.3354216705   -3.3342132748   -0.9787271868
H       -2.2281759785    1.5424505724    0.9943251143
H       -0.7087734207    2.7551349824   -0.9088436472
C       -0.6293314848    0.0469600755    0.9700941363
H       -0.9282781495   -0.6988503801    1.6964500510
13   
From optimize.out: Frame 31 / 42, Energy=    -286.8504722384
C        0.6669084340    0.0241478084    0.2027631682
C        0.9678299171   -1.2292613828   -0.5965407899
C        0.2946248073   -2.3528022436   -0.5253400804
C       -1.2876638863    1.1658023366    0.6027317757
C       -0.4499709464    1.8270717418   -0.4084439728
N        0.6517360087    1.2086518881   -0.6746410534
H        1.4971737979    0.1799910942    0.9154885603
H        1.8195720015   -1.1259176961   -1.2786819759
H        0.3373025600   -3.3362215001   -0.9757799532
H       -2.2341315075    1.5266050056    0.9897581485
H       -0.7078512116    2.7563342546   -0.9154689280
C       -0.6280249536    0.0522572825    0.9706063836
H       -0.9275050211   -0.6966585892    1.6935487174
13   
From optimize.out: Frame 33 / 42, Energy=    -286.8505294565
C        0.6750432405    0.0286907059    0.2090619783
C        0.9668966976   -1.2268614434   -0.5916556491
C        0.2783025674   -2.3418525989   -0.5348902210
C       -1.2906359380    1.1547485722    0.6007843838
C       -0.4548892934    1.8186823218   -0.4107301629
N        0.6534171149    1.2116916321   -0.6693980794
H        1.5135145979    0.1864648529    0.9105702978
H        1.8298015457   -1.1360843697   -1.2616309975
H        0.3167552651   -3.3211825333   -0.9948277394
H       -2.2396290342    1.5221675387    0.9748621804
H       -0.7142574306    2.7484649222   -0.9158600982
C       -0.6198553792    0.0512056707    0.9784684730
H       -0.9144639537   -0.6961352711    1.7052456342
13   
From optimize.out: Frame 34 / 42, Energy=    -286.8505485113
C        0.6733558200    0.0279800241    0.2079106497
C        0.9639145195   -1.2262360046   -0.5944940343
C        0.2803219279   -2.3449954520   -0.5336789268
C       -1.2880646064    1.1591254153    0.6036441615
C       -0.4522229800    1.8223698932   -0.4085087762
N        0.6548424691    1.2125707231   -0.6691516748
H        1.5123492907    0.1828771556    0.9098697749
H        1.8273232239   -1.1336111986   -1.2635704288
H        0.3225910686   -3.3248533961   -0.9922879123
H       -2.2404838787    1.5180338857    0.9775328304
H       -0.7138729374    2.7491859907   -0.9180025259
C       -0.6209723520    0.0526284231    0.9779208113
H       -0.9190815653   -0.6950754596    1.7028160513
13   
From optimize.out: Frame 35 / 42, Energy=    -286.8505674719
C        0.6752839495    0.0297867005    0.2098644186
C        0.9621766160   -1.2256165441   -0.5931623967
C        0.2783752434   -2.3440906808   -0.5328812357
C       -1.2879574358    1.1582441024    0.6039999234
C       -0.4530356071    1.8213856837   -0.4089622493
N        0.6556429756    1.2136779337   -0.6679372789
H        1.5170037695    0.1816118984    0.9090205590
H        1.8262451577   -1.1346668417   -1.2617370588
H        0.3196695751   -3.3216781956   -0.9965275428
H       -2.2447184655    1.5131108918    0.9704533657
H       -0.7147414092    2.7485501745   -0.9177685932
C       -0.6187750177    0.0536776675    0.9800007391