
Running Job 1 of 1 qcfsm.in
qchem qcfsm.in_18286.0 ./qcfsm.d/ 1
/home/leeping/opt/qchem/5.0.2-openmp/exe/qcprog.exe_s qcfsm.in_18286.0 ./qcfsm.d/
Check license passed

                  Welcome to Q-Chem
     A Quantum Leap Into The Future Of Chemistry


 Q-Chem 5.0, Q-Chem, Inc., Pleasanton, CA (2017)

 Yihan Shao,  Zhengting Gan,  E. Epifanovsky,  A. T. B. Gilbert,  M. Wormit,  
 J. Kussmann,  A. W. Lange,  A. Behn,  Jia Deng,  Xintian Feng,  D. Ghosh,  
 M. Goldey,  P. R. Horn,  L. D. Jacobson,  I. Kaliman,  T. Kus,  A. Landau,  
 Jie Liu,  E. I. Proynov,  R. M. Richard,  R. P. Steele,  E. J. Sundstrom,  
 H. L. Woodcock III,  P. M. Zimmerman,  D. Zuev,  B. Albrecht,  E. Alguire,  
 S. A. Baeppler,  D. Barton,  Z. Benda,  Y. A. Bernard,  E. J. Berquist,  
 K. B. Bravaya,  H. Burton,  D. Casanova,  Chun-Min Chang,  Yunqing Chen,  
 A. Chien,  K. D. Closser,  M. P. Coons,  S. Dasgupta,  A. L. Dempwolff,  
 M. Diedenhofen,  Hainam Do,  R. G. Edgar,  Po-Tung Fang,  S. Fatehi,  
 Qingguo Feng,  J. Fosso-Tande,  Qinghui Ge,  A. Ghysels,  G. Gidofalvi,  
 J. Gomes,  J. Gonthier,  A. Gunina,  M. W. D. Hanson-Heine,  
 P. H. P. Harbach,  A. W. Hauser,  J. E. Herr,  E. G. Hohenstein,  
 Z. C. Holden,  Kerwin Hui,  T.-C. Jagau,  Hyunjun Ji,  B. Kaduk,  
 K. Khistyaev,  Jaehoon Kim,  P. Klunzinger,  K. Koh,  D. Kosenkov,  
 L. Koulias,  T. Kowalczyk,  C. M. Krauter,  A. Kunitsa,  Ka Un Lao,  
 A. Laurent,  K. V. Lawler,  Joonho Lee,  D. Lefrancois,  S. Lehtola,  
 D. S. Levine,  Yi-Pei Li,  You-Sheng Lin,  Fenglai Liu,  E. Livshits,  
 A. Luenser,  P. Manohar,  E. Mansoor,  S. F. Manzer,  Shan-Ping Mao,  
 Yuezhi Mao,  N. Mardirossian,  A. V. Marenich,  T. Markovich,  
 L. A. Martinez-Martinez,  S. A. Maurer,  N. J. Mayhall,  S. C. McKenzie,  
 J.-M. Mewes,  A. F. Morrison,  J. W. Mullinax,  K. Nanda,  
 T. S. Nguyen-Beck,  R. Olivares-Amaya,  J. A. Parkhill,  T. M. Perrine,  
 F. Plasser,  S. Prager,  A. Prociuk,  E. Ramos,  D. R. Rehn,  F. Rob,  
 M. Schneider,  N. Sergueev,  S. M. Sharada,  S. Sharma,  D. W. Small,  
 T. Stauch,  T. Stein,  Yu-Chuan Su,  A. J. W. Thom,  A. Tkatchenko,  
 T. Tsuchimochi,  L. Vogt,  O. Vydrov,  M. A. Watson,  J. Wenzel,  
 M. de Wergifosse,  T. A. Wesolowski,  A. White,  J. Witte,  A. Yamada,  
 Jun Yang,  K. Yao,  S. Yeganeh,  S. R. Yost,  Zhi-Qiang You,  A. Zech,  
 Igor Ying Zhang,  Xing Zhang,  Yan Zhao,  Ying Zhu,  B. R. Brooks,  
 G. K. L. Chan,  C. J. Cramer,  M. S. Gordon,  W. J. Hehre,  A. Klamt,  
 M. W. Schmidt,  C. D. Sherrill,  D. G. Truhlar,  A. Aspuru-Guzik,  R. Baer,  
 A. T. Bell,  N. A. Besley,  Jeng-Da Chai,  R. A. DiStasio Jr.,  A. Dreuw,  
 B. D. Dunietz,  T. R. Furlani,  Chao-Ping Hsu,  Yousung Jung,  Jing Kong,  
 D. S. Lambrecht,  WanZhen Liang,  C. Ochsenfeld,  V. A. Rassolov,  
 L. V. Slipchenko,  J. E. Subotnik,  T. Van Voorhis,  J. M. Herbert,  
 A. I. Krylov,  P. M. W. Gill,  M. Head-Gordon

 Contributors to earlier versions of Q-Chem not listed above: 
 R. D. Adamson,  B. Austin,  J. Baker,  G. J. O. Beran,  K. Brandhorst,  
 S. T. Brown,  E. F. C. Byrd,  A. K. Chakraborty,  C.-L. Cheng,  
 Siu Hung Chien,  D. M. Chipman,  D. L. Crittenden,  H. Dachsel,  
 R. J. Doerksen,  A. D. Dutoi,  L. Fusti-Molnar,  W. A. Goddard III,  
 A. Golubeva-Zadorozhnaya,  S. R. Gwaltney,  G. Hawkins,  A. Heyden,  
 S. Hirata,  G. Kedziora,  F. J. Keil,  C. Kelley,  Jihan Kim,  R. A. King,  
 R. Z. Khaliullin,  P. P. Korambath,  W. Kurlancheek,  A. M. Lee,  M. S. Lee,  
 S. V. Levchenko,  Ching Yeh Lin,  D. Liotard,  R. C. Lochan,  I. Lotan,  
 P. E. Maslen,  N. Nair,  D. P. O'Neill,  D. Neuhauser,  E. Neuscamman,  
 C. M. Oana,  R. Olson,  B. Peters,  R. Peverati,  P. A. Pieniazek,  
 Y. M. Rhee,  J. Ritchie,  M. A. Rohrdanz,  E. Rosta,  N. J. Russ,  
 H. F. Schaefer III,  N. E. Schultz,  N. Shenvi,  A. C. Simmonett,  A. Sodt,  
 D. Stuck,  K. S. Thanthiriwatte,  V. Vanovschi,  Tao Wang,  A. Warshel,  
 C. F. Williams,  Q. Wu,  X. Xu,  W. Zhang

 Please cite Q-Chem as follows:
 Y. Shao et al., Mol. Phys. 113, 184-215 (2015)
 DOI: 10.1080/00268976.2014.952696

 Q-Chem 5.0.2 for Intel X86 EM64T Linux

 Parts of Q-Chem use Armadillo 5.200.1 (Boston Tea Smuggler).
 http://arma.sourceforge.net/

 Q-Chem begins on Wed Mar  2 23:52:20 2022  

Host: 
0

     Scratch files written to ./qcfsm.d//
 Dec517 15110_ 26548  26544 5633   
Processing $rem in /home/leeping/opt/qchem/5.0.2-openmp/config/preferences.
 MEM_STATIC 2000
 MEM_TOTAL  8000
 SYMMETRY   OFF
 SYM_IGNORE TRUE 
 Now reading second FSM geometry

Checking the input file for inconsistencies... 	...done.

--------------------------------------------------------------
User input:
--------------------------------------------------------------
$molecule
0 2
C        1.3915629877    0.8456298448   -0.4532011840
C        0.3327596462   -1.4191299512   -0.0084647962
C       -0.9372459130   -1.0640392653    0.3358374337
C       -1.4732362344    0.2709984383    0.4082704565
C       -0.8282364513    1.4662632049    0.1483439022
N        0.4320413586    1.7760278673   -0.2340189819
H        2.3384515023    1.2997111233   -0.7534589563
H        0.5701190180   -2.4810445442   -0.0122387312
H       -1.6288423538   -1.8664394923    0.5848956409
H       -2.5162658085    0.3548122936    0.7038817878
H       -1.4480843328    2.3571561805    0.2722610443
C        1.4094190941   -0.5335789134   -0.3736495680
H        2.3575574872   -1.0063667865   -0.6184580478
****
C        1.7129564614    0.1668558846   -0.5035963917
C       -0.1456953885   -1.3328549554    0.1265314287
C       -1.4597846519   -1.1907208554    0.4946138501
C       -1.7523410790    0.2082354119    0.4916174965
C       -0.6072744821    0.8698111231    0.1216488075
N        0.3817814852   -0.0714452832   -0.1043298441
H        2.2839793979   -0.7549782642   -0.6079733316
H        0.4714861713   -2.2115338365    0.0045454748
H       -2.1392854434   -1.9953493493    0.7407638569
H       -2.6984662687    0.6729001337    0.7350640688
H       -0.4032597937    1.9227371105   -0.0030320463
C        2.2837670629    1.3291686770   -0.7435910204
H        2.0721365285    2.3871742033   -0.7522623491
$end

$rem
method                b3lyp
basis                 6-31g(d)
unrestricted          true
symmetry              off
sym_ignore            true
incdft                false
incfock               0
scf_convergence       8
thresh                14
jobtype               fsm
scf_guess             core
scf_guess_mix         5
scf_algorithm         diis
max_scf_cycles        100
fsm_nnode             21
fsm_ngrad             6
fsm_mode              2
fsm_opt_mode          2
$end

--------------------------------------------------------------
 ----------------------------------------------------------------
             Standard Nuclear Orientation (Angstroms)
    I     Atom           X                Y                Z
 ----------------------------------------------------------------
    1      C       1.3915629877     0.8456298448    -0.4532011840
    2      C       0.3327596462    -1.4191299512    -0.0084647962
    3      C      -0.9372459130    -1.0640392653     0.3358374337
    4      C      -1.4732362344     0.2709984383     0.4082704565
    5      C      -0.8282364513     1.4662632049     0.1483439022
    6      N       0.4320413586     1.7760278673    -0.2340189819
    7      H       2.3384515023     1.2997111233    -0.7534589563
    8      H       0.5701190180    -2.4810445442    -0.0122387312
    9      H      -1.6288423538    -1.8664394923     0.5848956409
   10      H      -2.5162658085     0.3548122936     0.7038817878
   11      H      -1.4480843328     2.3571561805     0.2722610443
   12      C       1.4094190941    -0.5335789134    -0.3736495680
   13      H       2.3575574872    -1.0063667865    -0.6184580478
 ----------------------------------------------------------------
 Nuclear Repulsion Energy =   260.7271076355 hartrees
 There are       25 alpha and       24 beta electrons
 Requested basis set is 6-31G(d)
 There are 40 shells and 117 basis functions

 Total QAlloc Memory Limit   8000 MB
 Mega-Array Size      1956 MB
 MEM_STATIC part      2000 MB
 beginning FSman 

*******************************************
*******************************************
******** Starting FSM Calculation *********
*******************************************
*******************************************
-FSM parameters:
 Maximum displacement of each coordinate during optimization (Angstrom)      0.05
 Maximum optimization steps for each new node                                6
 The scaling factor for optimization (hartrees/Angstrom^2)                   1.75
 The number of LST interpolations used for reparameterization                100
-Aligning product structure to maximum coincidence with the reactant structure
 Total R --> P Distance 5.212504
 New node interpolation distace (Angstroms): 0.25
-Performing force calculation on reactant structure in state:0
 ----------------------------------------------------------------
             Standard Nuclear Orientation (Angstroms)
    I     Atom           X                Y                Z
 ----------------------------------------------------------------
    1      C       1.3915629877     0.8456298448    -0.4532011840
    2      C       0.3327596462    -1.4191299512    -0.0084647962
    3      C      -0.9372459130    -1.0640392653     0.3358374337
    4      C      -1.4732362344     0.2709984383     0.4082704565
    5      C      -0.8282364513     1.4662632049     0.1483439022
    6      N       0.4320413586     1.7760278673    -0.2340189819
    7      H       2.3384515023     1.2997111233    -0.7534589563
    8      H       0.5701190180    -2.4810445442    -0.0122387312
    9      H      -1.6288423538    -1.8664394923     0.5848956409
   10      H      -2.5162658085     0.3548122936     0.7038817878
   11      H      -1.4480843328     2.3571561805     0.2722610443
   12      C       1.4094190941    -0.5335789134    -0.3736495680
   13      H       2.3575574872    -1.0063667865    -0.6184580478
 ----------------------------------------------------------------
 Nuclear Repulsion Energy =   260.7271076355 hartrees
 There are       25 alpha and       24 beta electrons

                       Distance Matrix (Angstroms)
             C (  1)   C (  2)   C (  3)   C (  4)   C (  5)   N (  6)
   C (  2)  2.539290
   C (  3)  3.113321  1.362919
   C (  4)  3.046212  2.508351  1.440437
   C (  5)  2.382132  3.114160  2.539580  1.382839
   N (  6)  1.354387  3.204647  3.204008  2.511520  1.352943
   H (  7)  1.092219  3.459756  4.183787  4.115438  3.296802  2.032510
   H (  8)  3.454849  1.088125  2.097906  3.453385  4.190754  4.265081
   H (  9)  4.189966  2.097628  1.088201  2.150361  3.455207  4.264438
   H ( 10)  4.104981  3.430926  2.154507  1.087346  2.096041  3.404707
   H ( 11)  3.297666  4.184561  3.459708  2.090738  1.092363  2.031970
   C ( 12)  1.381616  1.441095  2.508306  3.093290  3.046137  2.511782
   H ( 13)  2.095315  2.154593  3.430705  4.166631  4.105017  3.405455
             H (  7)   H (  8)   H (  9)   H ( 10)   H ( 11)   C ( 12)
   H (  8)  4.239165
   H (  9)  5.249297  2.360030
   H ( 10)  5.156060  4.252139  2.394919
   H ( 11)  4.063022  5.249978  4.239006  2.310128
   C ( 12)  2.090050  2.151201  3.453456  4.166691  4.115687
   H ( 13)  2.310105  2.395227  4.251961  5.230253  5.156508  1.087394

 
 Requested basis set is 6-31G(d)
 There are 40 shells and 117 basis functions
 A cutoff of  1.0D-14 yielded    791 shell pairs
 There are      7063 function pairs
 
 -------------------------------------------------------
 OpenMP Integral Computing Module                       
 Release: version 1.0, May 2013, Q-Chem Inc. Pittsburgh 
 -------------------------------------------------------
 Integral Job Info:
 Integral job number is                      11
 Integral operator is                         1
 short-range coefficients                     0
 long-range coefficients              100000000
 Omega coefficients                           0
 if combine SR and LR in K                    0
 Integral screening is                        0
 Integral computing path is                   2
 max size of driver memory is            800000
 size of driver memory is                593474
 size of scratch memory is              2361544
 max col of scratch BK array               1296
 max len of scratch array in speh3          155
 max len of scratch index in speh4           18
 max int batch size is                      520
 min int batch size is                       52
 fixed nKL is                                52
 max L of basis functions is                  2
 order of int derivative is                   0
 number of shells is                         40
 number of basis is                         117
 number of cartesian basis is               117
 number of contracted shell pairs           791
 number of primitive shell pairs           3395
 maxK2 (contraction) of shell pair           36
 max number of K2 of shell pair               1
 max number of CS2 of shell pair             94
 max number of PS2 of shell pair            402
 mem total for path MDJ                  535308
 -------------------------------------------------------
 Smallest overlap matrix eigenvalue = 1.33E-03

 Scale SEOQF with 1.000000e-01/1.000000e-01/1.000000e+00

 Standard Electronic Orientation quadrupole field applied
 Nucleus-field energy     =     0.0000000015 hartrees
 Guess MOs from core Hamiltonian diagonalization
 Mixing HOMO and LUMO in initial guess
 Adding  50% of the LUMO to the HOMO
 An unrestricted hybrid HF-DFT SCF calculation will be
 performed using Pulay DIIS extrapolation
 Exchange:     0.2000 Hartree-Fock + 0.0800 Slater + 0.7200 B88
 Correlation:  0.1900 VWN1RPA + 0.8100 LYP
 Using SG-1 standard quadrature grid
 SCF converges when DIIS error is below 1.0E-08
 using 4 threads for integral computing
 -------------------------------------------------------
 OpenMP Integral computing Module                
 Release: version 1.0, May 2013, Q-Chem Inc. Pittsburgh 
 -------------------------------------------------------
 -------------------------------------------------------
 OpenMP BLAS3 based DFT computing Module                
 Release: version 1.0, May 2013, Q-Chem Inc. Pittsburgh 
 -------------------------------------------------------
 ---------------------------------------
  Cycle       Energy         DIIS Error
 ---------------------------------------
    1    -239.4881177381      1.26E-01
    2    -227.8989019863      1.03E-01
    3    -250.2601515264      1.03E-01
    4    -281.9133393905      4.85E-02
    5    -282.4538049813      4.74E-02
    6    -285.5309662753      2.31E-02
    7    -286.6138155464      1.25E-02
    8    -286.8608506608      4.94E-03
    9    -286.9210077964      8.95E-04
   10    -286.9229554062      7.33E-04
   11    -286.9239641823      1.81E-04
   12    -286.9241662651      7.99E-05
   13    -286.9242691764      3.92E-05
   14    -286.9243002700      1.24E-05
   15    -286.9243088493      4.64E-06
   16    -286.9243106100      2.83E-06
   17    -286.9243110915      6.77E-07
   18    -286.9243111260      2.63E-07
   19    -286.9243111297      1.27E-07
   20    -286.9243111302      5.76E-08
   21    -286.9243111303      3.76E-08
   22    -286.9243111304      1.88E-08
   23    -286.9243111304      4.52E-09 Convergence criterion met
 ---------------------------------------
 <S^2> = 0.7684
 SCF time:  CPU 55.91 s  wall 20.16 s
 SCF   energy in the final basis set = -286.92431113
 Total energy in the final basis set = -286.92431113
 
 --------------------------------------------------------------
 
                    Orbital Energies (a.u.)
 --------------------------------------------------------------
 
 Alpha MOs
 -- Occupied --
-14.322 -10.232 -10.232 -10.212 -10.211 -10.201 -10.200  -0.922
 -0.818  -0.784  -0.693  -0.667  -0.551  -0.537  -0.518  -0.449
 -0.439  -0.414  -0.394  -0.386  -0.349  -0.322  -0.299  -0.251
 -0.162
 -- Virtual --
 -0.072   0.077   0.097   0.101   0.117   0.142   0.181   0.184
  0.193   0.213   0.266   0.320   0.356   0.390   0.412   0.483
  0.497   0.521   0.547   0.576   0.584   0.587   0.591   0.610
  0.619   0.624   0.646   0.658   0.713   0.718   0.833   0.840
  0.847   0.854   0.868   0.872   0.885   0.922   0.965   0.975
  1.024   1.027   1.043   1.127   1.177   1.185   1.300   1.303
  1.326   1.401   1.429   1.480   1.482   1.546   1.574   1.586
  1.682   1.732   1.769   1.829   1.850   1.919   1.925   2.030
  2.046   2.048   2.100   2.141   2.142   2.191   2.247   2.391
  2.410   2.415   2.446   2.545   2.577   2.601   2.614   2.739
  2.748   2.807   3.052   3.249   3.250   4.018   4.046   4.102
  4.196   4.239   4.532   4.595
 
 Beta MOs
 -- Occupied --
-14.314 -10.234 -10.233 -10.210 -10.210 -10.196 -10.196  -0.911
 -0.809  -0.777  -0.681  -0.665  -0.546  -0.535  -0.514  -0.447
 -0.438  -0.411  -0.383  -0.373  -0.348  -0.295  -0.276  -0.242
 -- Virtual --
 -0.078  -0.070   0.078   0.118   0.124   0.125   0.142   0.182
  0.187   0.196   0.219   0.268   0.324   0.360   0.393   0.415
  0.486   0.505   0.525   0.551   0.587   0.588   0.592   0.596
  0.614   0.624   0.629   0.649   0.676   0.716   0.729   0.834
  0.843   0.846   0.869   0.875   0.880   0.887   0.925   0.967
  0.979   1.026   1.030   1.045   1.133   1.180   1.189   1.311
  1.315   1.333   1.411   1.429   1.489   1.492   1.560   1.582
  1.597   1.685   1.737   1.781   1.831   1.854   1.922   1.933
  2.036   2.058   2.061   2.110   2.142   2.147   2.203   2.259
  2.399   2.422   2.426   2.448   2.558   2.579   2.611   2.624
  2.742   2.761   2.810   3.054   3.252   3.254   4.030   4.053
  4.109   4.200   4.239   4.537   4.601
 --------------------------------------------------------------
 
          Ground-State Mulliken Net Atomic Charges

     Atom                 Charge (a.u.)    Spin (a.u.)
  --------------------------------------------------------
      1 C                     0.035324      -0.110561
      2 C                    -0.111622       0.098063
      3 C                    -0.110822       0.089399
      4 C                    -0.131931       0.350372
      5 C                     0.035826      -0.114636
      6 N                    -0.423390       0.386985
      7 H                     0.142585       0.003301
      8 H                     0.141919      -0.006844
      9 H                     0.141956      -0.006429
     10 H                     0.134314      -0.018492
     11 H                     0.142619       0.003501
     12 C                    -0.131192       0.343511
     13 H                     0.134415      -0.018172
  --------------------------------------------------------
  Sum of atomic charges =     0.000000
  Sum of spin   charges =     1.000000

 -----------------------------------------------------------------
                    Cartesian Multipole Moments
 -----------------------------------------------------------------
    Charge (ESU x 10^10)
                -0.0000
    Dipole Moment (Debye)
         X      -0.5274      Y      -2.1627      Z       0.2850
       Tot       2.2442
    Quadrupole Moments (Debye-Ang)
        XX     -35.4237     XY      -1.9774     YY     -41.8128
        XZ      -2.1672     YZ       0.4768     ZZ     -42.7651
    Octopole Moments (Debye-Ang^2)
       XXX      -3.2552    XXY      -5.4900    XYY      -7.2251
       YYY     -37.0054    XXZ       0.4595    XYZ       0.2679
       YYZ       3.6433    XZZ      -1.3467    YZZ      -6.0720
       ZZZ       2.2951
    Hexadecapole Moments (Debye-Ang^3)
      XXXX    -351.2228   XXXY       3.9369   XXYY    -121.4144
      XYYY     -15.4299   YYYY    -429.6039   XXXZ      35.0474
      XXYZ       2.3062   XYYZ      12.7386   YYYZ      15.9481
      XXZZ     -76.2967   XYZZ       1.8634   YYZZ     -85.2075
      XZZZ      51.6423   YZZZ      11.0242   ZZZZ     -75.1543
 -----------------------------------------------------------------
 Calculating analytic gradient of the SCF energy
 Gradient of SCF Energy
            1           2           3           4           5           6
    1   0.0001087   0.0000043  -0.0000087  -0.0000315   0.0001567  -0.0002085
    2  -0.0002062  -0.0000603   0.0000515  -0.0001047   0.0000874   0.0000645
    3  -0.0000158   0.0000553  -0.0000279   0.0000276  -0.0000693   0.0000456
            7           8           9          10          11          12
    1  -0.0000133  -0.0000046   0.0000106   0.0000021  -0.0000169   0.0000045
    2   0.0000264  -0.0000039  -0.0000118   0.0000025  -0.0000076   0.0001567
    3   0.0000342  -0.0000268  -0.0000025   0.0000007   0.0000055  -0.0000215
           13
    1  -0.0000035
    2   0.0000055
    3  -0.0000051
 Max gradient component =       2.085E-04
 RMS gradient           =       7.030E-05
 Gradient time:  CPU 7.27 s  wall 1.97 s
-Performing force calculation on product structure in state0
 ----------------------------------------------------------------
             Standard Nuclear Orientation (Angstroms)
    I     Atom           X                Y                Z
 ----------------------------------------------------------------
    1      C       1.7129744886     0.1671138263    -0.5034495221
    2      C      -0.1455007208    -1.3328758182     0.1265356647
    3      C      -1.4596439107    -1.1909398319     0.4945019887
    4      C      -1.7524159434     0.2079712364     0.4914624431
    5      C      -0.6074192724     0.8697189460     0.1215849551
    6      N       0.3818015781    -0.0713876920    -0.1042957319
    7      H       2.2841487413    -0.7546335199    -0.6077651026
    8      H       0.4718270269    -2.2114609976     0.0046145374
    9      H      -2.1390419400    -1.9956700503     0.7406031023
   10      H      -2.6986339941     0.6724930416     0.7348208305
   11      H      -0.4035562182     1.9226748222    -0.0030915113
   12      C       2.2836266005     1.3295116450    -0.7434092485
   13      H       2.0718335644     2.3874843921    -0.7521124054
 ----------------------------------------------------------------
 Nuclear Repulsion Energy =   262.6372744641 hartrees
 There are       25 alpha and       24 beta electrons

                       Distance Matrix (Angstroms)
             C (  1)   C (  2)   C (  3)   C (  4)   C (  5)   N (  6)
   C (  2)  2.469976
   C (  3)  3.592454  1.372049
   C (  4)  3.605614  2.256005  1.429222
   C (  5)  2.503707  2.250515  2.260900  1.373221
   N (  6)  1.410045  1.386609  2.236711  2.233350  1.383930
   H (  7)  1.089376  2.603221  3.927001  4.292874  3.395827  2.083082
   H (  8)  2.730603  1.080680  2.238757  3.322338  3.266822  2.144733
   H (  9)  4.589481  2.188740  1.081544  2.251130  3.307492  3.281976
   H ( 10)  4.609882  3.303030  2.250607  1.081819  2.188181  3.278194
   H ( 11)  2.795005  3.268334  3.325284  2.237010  1.079732  2.145534
   C ( 12)  1.316964  3.707529  4.679442  4.367196  3.052502  2.447023
   H ( 13)  2.262887  4.419239  5.179817  4.574018  3.200837  3.053183
             H (  7)   H (  8)   H (  9)   H ( 10)   H ( 11)   C ( 12)
   H (  8)  2.404551
   H (  9)  4.787785  2.721191
   H ( 10)  5.354190  4.347668  2.726219
   H ( 11)  3.841532  4.225806  4.349531  2.715668
   C ( 12)  2.088555  4.047301  5.728798  5.238297  2.849713
   H ( 13)  3.152589  4.927774  6.258731  5.282947  2.627667  1.078999

 
 Applying Cartesian multipole field
    Component          Value
    ---------          -----
     (2,0,0)        1.00000E-11
     (0,2,0)        2.00000E-11
     (0,0,2)       -3.00000E-10
 Nucleus-field energy     =    -0.0000000031 hartrees
 Requested basis set is 6-31G(d)
 There are 40 shells and 117 basis functions
 A cutoff of  1.0D-14 yielded    785 shell pairs
 There are      7007 function pairs
 Smallest overlap matrix eigenvalue = 9.98E-04
 Guess MOs from core Hamiltonian diagonalization
 Mixing HOMO and LUMO in initial guess
 Adding  50% of the LUMO to the HOMO
 An unrestricted hybrid HF-DFT SCF calculation will be
 performed using Pulay DIIS extrapolation
 Exchange:     0.2000 Hartree-Fock + 0.0800 Slater + 0.7200 B88
 Correlation:  0.1900 VWN1RPA + 0.8100 LYP
 Using SG-1 standard quadrature grid
 SCF converges when DIIS error is below 1.0E-08
 using 4 threads for integral computing
 -------------------------------------------------------
 OpenMP Integral computing Module                
 Release: version 1.0, May 2013, Q-Chem Inc. Pittsburgh 
 -------------------------------------------------------
 -------------------------------------------------------
 OpenMP BLAS3 based DFT computing Module                
 Release: version 1.0, May 2013, Q-Chem Inc. Pittsburgh 
 -------------------------------------------------------
 ---------------------------------------
  Cycle       Energy         DIIS Error
 ---------------------------------------
    1    -222.4850582095      1.50E-01
    2    -184.7509809708      1.39E-01
    3    -242.7228076523      1.15E-01
    4    -250.1916326751      1.12E-01
    5    -276.6950447021      4.79E-02
    6    -281.8213738243      4.12E-02
    7    -286.7223128751      7.78E-03
    8    -286.8258983774      4.95E-03
    9    -286.8552642340      2.58E-03
   10    -286.8671542104      1.18E-03
   11    -286.8703743108      4.59E-04
   12    -286.8707008051      1.68E-04
   13    -286.8707745978      4.03E-05
   14    -286.8707818967      1.55E-05
   15    -286.8707844252      5.51E-06
   16    -286.8707858737      1.30E-06
   17    -286.8707866539      6.29E-07
   18    -286.8707870943      4.09E-07
   19    -286.8707872922      2.03E-07
   20    -286.8707873095      4.19E-08
   21    -286.8707873095      7.13E-09 Convergence criterion met
 ---------------------------------------
 <S^2> = 0.7624
 SCF time:  CPU 51.58 s  wall 18.17 s
 SCF   energy in the final basis set = -286.87078731
 Total energy in the final basis set = -286.87078731
 
 --------------------------------------------------------------
 
                    Orbital Energies (a.u.)
 --------------------------------------------------------------
 
 Alpha MOs
 -- Occupied --
-14.394 -10.241 -10.214 -10.206 -10.204 -10.173 -10.172  -0.989
 -0.817  -0.737  -0.722  -0.618  -0.574  -0.547  -0.533  -0.459
 -0.436  -0.425  -0.415  -0.386  -0.376  -0.304  -0.255  -0.226
 -0.213
 -- Virtual --
 -0.008   0.074   0.089   0.100   0.114   0.139   0.172   0.174
  0.180   0.217   0.234   0.276   0.339   0.353   0.405   0.462
  0.506   0.513   0.539   0.546   0.560   0.574   0.587   0.597
  0.607   0.617   0.620   0.647   0.672   0.703   0.801   0.819
  0.836   0.850   0.852   0.854   0.876   0.901   0.929   0.949
  0.985   1.018   1.078   1.139   1.186   1.233   1.272   1.345
  1.385   1.385   1.459   1.475   1.493   1.508   1.541   1.549
  1.670   1.692   1.805   1.844   1.887   1.982   2.001   2.001
  2.071   2.084   2.175   2.194   2.209   2.248   2.287   2.300
  2.330   2.335   2.529   2.577   2.592   2.630   2.670   2.717
  2.742   2.866   3.042   3.095   3.200   3.967   4.062   4.121
  4.170   4.274   4.471   4.481
 
 Beta MOs
 -- Occupied --
-14.393 -10.243 -10.206 -10.204 -10.199 -10.173 -10.172  -0.987
 -0.812  -0.726  -0.718  -0.605  -0.571  -0.545  -0.524  -0.452
 -0.432  -0.425  -0.413  -0.385  -0.375  -0.301  -0.217  -0.213
 -- Virtual --
 -0.086   0.000   0.076   0.089   0.107   0.117   0.141   0.173
  0.175   0.184   0.221   0.238   0.281   0.345   0.355   0.413
  0.469   0.507   0.522   0.541   0.552   0.566   0.587   0.597
  0.608   0.620   0.625   0.628   0.650   0.671   0.703   0.804
  0.821   0.839   0.852   0.854   0.855   0.884   0.912   0.930
  0.949   0.989   1.027   1.085   1.140   1.187   1.238   1.273
  1.346   1.384   1.387   1.465   1.477   1.501   1.511   1.544
  1.551   1.718   1.736   1.827   1.858   1.895   1.984   2.003
  2.009   2.076   2.091   2.178   2.198   2.211   2.248   2.292
  2.305   2.332   2.338   2.529   2.586   2.593   2.652   2.671
  2.717   2.746   2.869   3.042   3.097   3.206   3.968   4.094
  4.122   4.171   4.277   4.471   4.483
 --------------------------------------------------------------
 
          Ground-State Mulliken Net Atomic Charges

     Atom                 Charge (a.u.)    Spin (a.u.)
  --------------------------------------------------------
      1 C                     0.045978      -0.142992
      2 C                     0.029356       0.001762
      3 C                    -0.192831      -0.004851
      4 C                    -0.186083      -0.008486
      5 C                     0.035681       0.000802
      6 N                    -0.403086       0.042123
      7 H                     0.163425       0.034808
      8 H                     0.146989       0.000213
      9 H                     0.129529       0.001770
     10 H                     0.129527       0.001030
     11 H                     0.145424       0.001084
     12 C                    -0.213781       1.079662
     13 H                     0.169872      -0.006925
  --------------------------------------------------------
  Sum of atomic charges =    -0.000000
  Sum of spin   charges =     1.000000

 -----------------------------------------------------------------
                    Cartesian Multipole Moments
 -----------------------------------------------------------------
    Charge (ESU x 10^10)
                -0.0000
    Dipole Moment (Debye)
         X       0.4156      Y       0.1130      Z      -0.1263
       Tot       0.4488
    Quadrupole Moments (Debye-Ang)
        XX     -40.1353     XY      -1.2179     YY     -34.6730
        XZ      -1.2850     YZ      -0.3011     ZZ     -44.4789
    Octopole Moments (Debye-Ang^2)
       XXX     -18.0534    XXY      -4.5381    XYY       1.3934
       YYY       4.4673    XXZ       4.3519    XYZ       1.0343
       YYZ      -0.7180    XZZ      -3.1163    YZZ      -0.3322
       ZZZ       2.0586
    Hexadecapole Moments (Debye-Ang^3)
      XXXX    -575.0199   XXXY     -90.9499   XXYY    -131.1783
      XYYY     -63.2420   YYYY    -260.7573   XXXZ      73.1491
      XXYZ      10.5258   XYYZ      19.7340   YYYZ      22.5858
      XXZZ    -118.0741   XYZZ     -28.1367   YYZZ     -69.3475
      XZZZ      89.0734   YZZZ      33.7933   ZZZZ    -101.9714
 -----------------------------------------------------------------
 Calculating analytic gradient of the SCF energy
 Gradient of SCF Energy
            1           2           3           4           5           6
    1  -0.0000057   0.0000284  -0.0000280  -0.0000009  -0.0000036  -0.0000038
    2  -0.0000528  -0.0000126  -0.0000396   0.0000395  -0.0000324  -0.0000379
    3  -0.0000116   0.0000409  -0.0000041  -0.0000131   0.0000591  -0.0000816
            7           8           9          10          11          12
    1  -0.0000417  -0.0000047   0.0000171   0.0000055   0.0000132   0.0000140
    2   0.0000245   0.0000220   0.0000439   0.0000150   0.0000229   0.0000510
    3  -0.0000160   0.0000306  -0.0000060   0.0000238  -0.0000122   0.0000291
           13
    1   0.0000101
    2  -0.0000435
    3  -0.0000389
 Max gradient component =       8.164E-05
 RMS gradient           =       3.101E-05
 Gradient time:  CPU 7.01 s  wall 1.94 s

STARTING FREEZING STRING ITERATION # 1
 The distance between the innermost nodes (Angstroms): 5.213
-Adding two new nodes
 The distance between the previous and current R_nodes (Angstroms): 0.2349
 The distance between the previous and current P_nodes (Angstroms): 0.2538
-Optimizing new reactant side node
 Using BFGS, step: 2 E_tol 0.0535
 max_steps 6, node_spacing 0.2482, sigma 0.7000
 ----------------------------------------------------------------
             Standard Nuclear Orientation (Angstroms)
    I     Atom           X                Y                Z
 ----------------------------------------------------------------
    1      C       1.4186036360     0.8458998230    -0.4618474647
    2      C       0.2744134440    -1.4232176157     0.0111552002
    3      C      -0.9944001148    -1.0760392994     0.3534571621
    4      C      -1.5107887304     0.2604128585     0.4196904981
    5      C      -0.8360249153     1.4295838480     0.1513579629
    6      N       0.4232731503     1.7170651258    -0.2260287497
    7      H       2.3453379804     1.3412667432    -0.7553340558
    8      H       0.5228072443    -2.4832852390     0.0029945136
    9      H      -1.6875604124    -1.8766114145     0.6041056121
   10      H      -2.5514874959     0.3684042607     0.7156250380
   11      H      -1.4149598947     2.3483623464     0.2646692948
   12      C       1.5092417938    -0.5091160024    -0.4270374383
   13      H       2.4695182414    -0.9591501127    -0.6502540274
 ----------------------------------------------------------------
 Nuclear Repulsion Energy =   258.8431414590 hartrees
 There are       25 alpha and       24 beta electrons

                       Distance Matrix (Angstroms)
             C (  1)   C (  2)   C (  3)   C (  4)   C (  5)   N (  6)
   C (  2)  2.584917
   C (  3)  3.190793  1.359261
   C (  4)  3.114682  2.487661  1.434276
   C (  5)  2.408331  3.064508  2.518745  1.376325
   N (  6)  1.343586  3.152743  3.185441  2.505870  1.345696
   H (  7)  1.091036  3.538164  4.269267  4.173565  3.309224  2.028724
   H (  8)  3.478793  1.088811  2.098829  3.440498  4.144753  4.207767
   H (  9)  4.265745  2.099166  1.088215  2.152238  3.443983  4.249618
   H ( 10)  4.168461  3.419342  2.154554  1.087333  2.094591  3.399235
   H ( 11)  3.288511  4.140419  3.451272  2.095888  1.091860  2.004600
   C ( 12)  1.358490  1.597622  2.683057  3.229506  3.097317  2.485078
   H ( 13)  2.097170  2.339082  3.608300  4.298251  4.156350  3.395470
             H (  7)   H (  8)   H (  9)   H ( 10)   H ( 11)   C ( 12)
   H (  8)  4.303938
   H (  9)  5.335456  2.369623
   H ( 10)  5.204717  4.253383  2.408091
   H ( 11)  4.024238  5.212316  4.247344  2.327078
   C ( 12)  2.056879  2.248405  3.626685  4.308740  4.146637
   H ( 13)  2.306161  2.557226  4.438069  5.370151  5.183232  1.083738

 
 Applying Cartesian multipole field
    Component          Value
    ---------          -----
     (2,0,0)        1.00000E-11
     (0,2,0)        2.00000E-11
     (0,0,2)       -3.00000E-10
 Nucleus-field energy     =     0.0000000010 hartrees
 Requested basis set is 6-31G(d)
 There are 40 shells and 117 basis functions
 A cutoff of  1.0D-14 yielded    789 shell pairs
 There are      7061 function pairs
 Smallest overlap matrix eigenvalue = 1.47E-03
 Guess MOs from core Hamiltonian diagonalization
 Mixing HOMO and LUMO in initial guess
 Adding  50% of the LUMO to the HOMO
 An unrestricted hybrid HF-DFT SCF calculation will be
 performed using Pulay DIIS extrapolation
 Exchange:     0.2000 Hartree-Fock + 0.0800 Slater + 0.7200 B88
 Correlation:  0.1900 VWN1RPA + 0.8100 LYP
 Using SG-1 standard quadrature grid
 SCF converges when DIIS error is below 1.0E-08
 using 4 threads for integral computing
 -------------------------------------------------------
 OpenMP Integral computing Module                
 Release: version 1.0, May 2013, Q-Chem Inc. Pittsburgh 
 -------------------------------------------------------
 -------------------------------------------------------
 OpenMP BLAS3 based DFT computing Module                
 Release: version 1.0, May 2013, Q-Chem Inc. Pittsburgh 
 -------------------------------------------------------
 ---------------------------------------
  Cycle       Energy         DIIS Error
 ---------------------------------------
    1    -238.3714285734      1.27E-01
    2    -220.5296354750      1.05E-01
    3    -238.9523947102      1.09E-01
    4    -283.1460475405      4.24E-02
    5    -284.1584999560      3.66E-02
    6    -286.4707857877      1.40E-02
    7    -286.8326557301      5.95E-03
    8    -286.8758532413      4.00E-03
    9    -286.9077442180      7.49E-04
   10    -286.9089746035      4.09E-04
   11    -286.9093922400      1.38E-04
   12    -286.9095279852      7.06E-05
   13    -286.9095632110      2.39E-05
   14    -286.9095758437      9.53E-06
   15    -286.9095841031      9.46E-06
   16    -286.9095871285      3.02E-06
   17    -286.9095880733      1.40E-06
   18    -286.9095882267      7.97E-07
   19    -286.9095882911      4.16E-07
   20    -286.9095883003      1.44E-07
   21    -286.9095883020      3.09E-08
   22    -286.9095883021      7.83E-09 Convergence criterion met
 ---------------------------------------
 <S^2> = 0.7755
 SCF time:  CPU 53.26 s  wall 17.09 s
 SCF   energy in the final basis set = -286.90958830
 Total energy in the final basis set = -286.90958830
 
 --------------------------------------------------------------
 
                    Orbital Energies (a.u.)
 --------------------------------------------------------------
 
 Alpha MOs
 -- Occupied --
-14.321 -10.229 -10.225 -10.220 -10.213 -10.211 -10.201  -0.922
 -0.812  -0.781  -0.698  -0.658  -0.555  -0.529  -0.513  -0.454
 -0.433  -0.419  -0.393  -0.390  -0.337  -0.320  -0.296  -0.245
 -0.171
 -- Virtual --
 -0.064   0.080   0.088   0.105   0.118   0.142   0.152   0.183
  0.191   0.201   0.264   0.313   0.347   0.380   0.415   0.481
  0.494   0.497   0.560   0.574   0.580   0.584   0.586   0.608
  0.616   0.637   0.648   0.653   0.715   0.721   0.828   0.839
  0.853   0.858   0.867   0.877   0.889   0.919   0.945   0.973
  1.011   1.036   1.045   1.129   1.168   1.188   1.293   1.304
  1.326   1.407   1.423   1.468   1.494   1.543   1.582   1.588
  1.641   1.690   1.790   1.821   1.859   1.924   1.930   1.982
  2.012   2.071   2.075   2.127   2.168   2.173   2.250   2.349
  2.364   2.435   2.455   2.521   2.570   2.593   2.619   2.725
  2.749   2.802   3.043   3.179   3.285   4.016   4.027   4.097
  4.210   4.246   4.516   4.571
 
 Beta MOs
 -- Occupied --
-14.314 -10.231 -10.226 -10.217 -10.213 -10.206 -10.196  -0.911
 -0.803  -0.774  -0.686  -0.655  -0.550  -0.528  -0.509  -0.452
 -0.432  -0.416  -0.388  -0.371  -0.336  -0.295  -0.271  -0.236
 -- Virtual --
 -0.085  -0.061   0.081   0.113   0.120   0.129   0.142   0.159
  0.185   0.193   0.205   0.266   0.317   0.350   0.382   0.418
  0.484   0.497   0.505   0.564   0.583   0.584   0.589   0.590
  0.611   0.620   0.642   0.650   0.672   0.723   0.726   0.831
  0.843   0.852   0.869   0.880   0.884   0.893   0.922   0.949
  0.977   1.013   1.038   1.046   1.135   1.173   1.191   1.303
  1.311   1.338   1.416   1.425   1.478   1.503   1.558   1.591
  1.598   1.648   1.695   1.797   1.825   1.863   1.928   1.936
  1.999   2.018   2.081   2.087   2.129   2.174   2.180   2.261
  2.356   2.375   2.445   2.459   2.535   2.574   2.602   2.628
  2.728   2.761   2.804   3.045   3.183   3.288   4.025   4.038
  4.105   4.215   4.246   4.522   4.577
 --------------------------------------------------------------
 
          Ground-State Mulliken Net Atomic Charges

     Atom                 Charge (a.u.)    Spin (a.u.)
  --------------------------------------------------------
      1 C                     0.040292      -0.117410
      2 C                    -0.140212       0.185340
      3 C                    -0.101973      -0.014873
      4 C                    -0.123758       0.397934
      5 C                     0.032111      -0.151124
      6 N                    -0.418643       0.383404
      7 H                     0.136334       0.003510
      8 H                     0.137454      -0.011171
      9 H                     0.147971      -0.001378
     10 H                     0.134836      -0.020515
     11 H                     0.140845       0.005459
     12 C                    -0.129265       0.359999
     13 H                     0.144006      -0.019175
  --------------------------------------------------------
  Sum of atomic charges =    -0.000000
  Sum of spin   charges =     1.000000

 -----------------------------------------------------------------
                    Cartesian Multipole Moments
 -----------------------------------------------------------------
    Charge (ESU x 10^10)
                 0.0000
    Dipole Moment (Debye)
         X      -0.5293      Y      -2.0985      Z       0.2997
       Tot       2.1849
    Quadrupole Moments (Debye-Ang)
        XX     -34.9372     XY      -1.7688     YY     -41.6905
        XZ      -2.3046     YZ       0.3764     ZZ     -42.8244
    Octopole Moments (Debye-Ang^2)
       XXX      -1.9148    XXY      -5.9022    XYY      -6.8934
       YYY     -33.8497    XXZ       0.3494    XYZ       0.5239
       YYZ       3.5197    XZZ      -1.3040    YZZ      -5.4206
       ZZZ       2.4838
    Hexadecapole Moments (Debye-Ang^3)
      XXXX    -366.1630   XXXY      -0.1731   XXYY    -123.0832
      XYYY     -15.2145   YYYY    -417.7229   XXXZ      37.1670
      XXYZ       2.6911   XYYZ      13.6973   YYYZ      15.2030
      XXZZ     -79.9796   XYZZ       0.8450   YYZZ     -83.9882
      XZZZ      55.4879   YZZZ      11.4437   ZZZZ     -77.9591
 -----------------------------------------------------------------
 Calculating analytic gradient of the SCF energy
 Gradient of SCF Energy
            1           2           3           4           5           6
    1  -0.0111949  -0.0546831  -0.0087433   0.0059358  -0.0082118   0.0078952
    2  -0.0029770  -0.0153325  -0.0077808   0.0077278  -0.0117720  -0.0098543
    3   0.0050115   0.0199227   0.0026664  -0.0018113   0.0026233  -0.0018372
            7           8           9          10          11          12
    1  -0.0011840   0.0007509  -0.0011107   0.0001430   0.0033102   0.0639966
    2  -0.0035544  -0.0000722   0.0006382  -0.0001388   0.0012800   0.0349967
    3   0.0002654  -0.0005724  -0.0000824   0.0000297  -0.0008322  -0.0252080
           13
    1   0.0030961
    2   0.0068394
    3  -0.0001755
 Max gradient component =       6.400E-02
 RMS gradient           =       1.636E-02
 Gradient time:  CPU 7.13 s  wall 1.92 s
 ----------------------------------------------------------------
             Standard Nuclear Orientation (Angstroms)
    I     Atom           X                Y                Z
 ----------------------------------------------------------------
    1      C       1.4291888045     0.8467516467    -0.4651673868
    2      C       0.2993336800    -1.4130138207     0.0025164735
    3      C      -0.9968233114    -1.0724638908     0.3541833231
    4      C      -1.5196851515     0.2548404314     0.4222798744
    5      C      -0.8323299400     1.4316015646     0.1501101153
    6      N       0.4176603518     1.7133581323    -0.2234424994
    7      H       2.3467937508     1.3485141767    -0.7552181571
    8      H       0.5166532542    -2.4817819273     0.0055223583
    9      H      -1.6945626554    -1.8778564860     0.6065079284
   10      H      -2.5566327587     0.3708094032     0.7170176577
   11      H      -1.4119207022     2.3466541861     0.2636626122
   12      C       1.4858495658    -0.5272243192    -0.4213382498
   13      H       2.4844473329    -0.9566107854    -0.6540826713
 ----------------------------------------------------------------
 Nuclear Repulsion Energy =   258.7154974356 hartrees
 There are       25 alpha and       24 beta electrons

                       Distance Matrix (Angstroms)
             C (  1)   C (  2)   C (  3)   C (  4)   C (  5)   N (  6)
   C (  2)  2.569405
   C (  3)  3.200040  1.385520
   C (  4)  3.135886  2.503351  1.428201
   C (  5)  2.415592  3.065009  2.517747  1.389712
   N (  6)  1.353746  3.136760  3.177298  2.509490  1.334692
   H (  7)  1.085308  3.520269  4.274539  4.187157  3.306562  2.034073
   H (  8)  3.483304  1.090643  2.097225  3.436490  4.141887  4.202550
   H (  9)  4.281332  2.134598  1.095064  2.147771  3.450255  4.248191
   H ( 10)  4.184597  3.442249  2.155851  1.084241  2.102352  3.396074
   H ( 11)  3.294359  4.139045  3.445413  2.100585  1.089101  1.996422
   C ( 12)  1.375842  1.540161  2.657515  3.218160  3.088286  2.490060
   H ( 13)  2.097946  2.326832  3.626192  4.319635  4.165489  3.403791
             H (  7)   H (  8)   H (  9)   H ( 10)   H ( 11)   C ( 12)
   H (  8)  4.312692
   H (  9)  5.347553  2.369680
   H ( 10)  5.212195  4.253068  2.410783
   H ( 11)  4.020241  5.205750  4.247814  2.328059
   C ( 12)  2.090717  2.223027  3.604954  4.294646  4.138294
   H ( 13)  2.311445  2.575546  4.461155  5.390218  5.189942  1.111639

 
 Applying Cartesian multipole field
    Component          Value
    ---------          -----
     (2,0,0)        1.00000E-11
     (0,2,0)        2.00000E-11
     (0,0,2)       -3.00000E-10
 Nucleus-field energy     =     0.0000000010 hartrees
 Requested basis set is 6-31G(d)
 There are 40 shells and 117 basis functions
 A cutoff of  1.0D-14 yielded    789 shell pairs
 There are      7061 function pairs
 Smallest overlap matrix eigenvalue = 1.49E-03
 Guess MOs from core Hamiltonian diagonalization
 Mixing HOMO and LUMO in initial guess
 Adding  50% of the LUMO to the HOMO
 An unrestricted hybrid HF-DFT SCF calculation will be
 performed using Pulay DIIS extrapolation
 Exchange:     0.2000 Hartree-Fock + 0.0800 Slater + 0.7200 B88
 Correlation:  0.1900 VWN1RPA + 0.8100 LYP
 Using SG-1 standard quadrature grid
 SCF converges when DIIS error is below 1.0E-08
 using 4 threads for integral computing
 -------------------------------------------------------
 OpenMP Integral computing Module                
 Release: version 1.0, May 2013, Q-Chem Inc. Pittsburgh 
 -------------------------------------------------------
 -------------------------------------------------------
 OpenMP BLAS3 based DFT computing Module                
 Release: version 1.0, May 2013, Q-Chem Inc. Pittsburgh 
 -------------------------------------------------------
 ---------------------------------------
  Cycle       Energy         DIIS Error
 ---------------------------------------
    1    -238.6002165656      1.26E-01
    2    -222.7660317700      1.03E-01
    3    -238.9856021388      1.10E-01
    4    -282.9683377769      4.32E-02
    5    -282.2085559821      4.24E-02
    6    -285.9857100219      1.94E-02
    7    -286.6170415492      1.15E-02
    8    -286.8801129699      4.38E-03
    9    -286.9106163407      1.35E-03
   10    -286.9139083757      5.06E-04
   11    -286.9144599425      1.93E-04
   12    -286.9146137930      9.39E-05
   13    -286.9146778265      5.03E-05
   14    -286.9146979078      1.23E-05
   15    -286.9147021391      5.36E-06
   16    -286.9147050894      3.66E-06
   17    -286.9147056342      1.36E-06
   18    -286.9147057404      6.47E-07
   19    -286.9147057545      2.71E-07
   20    -286.9147057577      1.35E-07
   21    -286.9147057590      6.03E-08
   22    -286.9147057594      2.91E-08
   23    -286.9147057594      8.46E-09 Convergence criterion met
 ---------------------------------------
 <S^2> = 0.7737
 SCF time:  CPU 54.60 s  wall 15.53 s
 SCF   energy in the final basis set = -286.91470576
 Total energy in the final basis set = -286.91470576
 
 --------------------------------------------------------------
 
                    Orbital Energies (a.u.)
 --------------------------------------------------------------
 
 Alpha MOs
 -- Occupied --
-14.320 -10.231 -10.229 -10.220 -10.217 -10.212 -10.199  -0.922
 -0.810  -0.782  -0.692  -0.663  -0.555  -0.532  -0.510  -0.451
 -0.433  -0.416  -0.392  -0.390  -0.346  -0.318  -0.297  -0.243
 -0.165
 -- Virtual --
 -0.070   0.078   0.087   0.103   0.116   0.143   0.160   0.183
  0.191   0.208   0.259   0.313   0.347   0.376   0.414   0.481
  0.498   0.500   0.557   0.575   0.579   0.583   0.586   0.607
  0.618   0.625   0.646   0.653   0.711   0.715   0.819   0.836
  0.851   0.858   0.869   0.876   0.885   0.923   0.947   0.974
  1.010   1.032   1.040   1.125   1.166   1.188   1.295   1.305
  1.316   1.406   1.423   1.469   1.491   1.548   1.574   1.580
  1.663   1.707   1.781   1.825   1.849   1.914   1.919   2.004
  2.005   2.065   2.070   2.116   2.162   2.169   2.249   2.361
  2.371   2.411   2.444   2.520   2.567   2.583   2.616   2.724
  2.743   2.793   3.045   3.182   3.271   4.016   4.021   4.098
  4.198   4.244   4.523   4.572
 
 Beta MOs
 -- Occupied --
-14.313 -10.233 -10.230 -10.217 -10.217 -10.208 -10.194  -0.911
 -0.801  -0.774  -0.680  -0.660  -0.550  -0.530  -0.506  -0.449
 -0.432  -0.413  -0.387  -0.371  -0.345  -0.292  -0.272  -0.234
 -- Virtual --
 -0.080  -0.067   0.080   0.113   0.117   0.127   0.143   0.166
  0.185   0.193   0.213   0.261   0.317   0.351   0.378   0.417
  0.483   0.503   0.507   0.561   0.583   0.585   0.587   0.591
  0.610   0.623   0.631   0.649   0.672   0.713   0.726   0.822
  0.839   0.851   0.870   0.879   0.883   0.888   0.926   0.950
  0.978   1.012   1.033   1.042   1.131   1.170   1.191   1.305
  1.313   1.328   1.415   1.424   1.479   1.501   1.563   1.581
  1.590   1.668   1.712   1.789   1.829   1.854   1.918   1.926
  2.012   2.020   2.075   2.081   2.119   2.164   2.181   2.260
  2.368   2.382   2.422   2.447   2.532   2.569   2.593   2.626
  2.728   2.755   2.795   3.047   3.185   3.274   4.024   4.031
  4.105   4.203   4.244   4.529   4.578
 --------------------------------------------------------------
 
          Ground-State Mulliken Net Atomic Charges

     Atom                 Charge (a.u.)    Spin (a.u.)
  --------------------------------------------------------
      1 C                     0.036945      -0.090240
      2 C                    -0.139359       0.213915
      3 C                    -0.102939      -0.021066
      4 C                    -0.131020       0.412281
      5 C                     0.041183      -0.151981
      6 N                    -0.420098       0.365046
      7 H                     0.142647       0.002259
      8 H                     0.137993      -0.012552
      9 H                     0.148425      -0.001069
     10 H                     0.134247      -0.021304
     11 H                     0.141077       0.005483
     12 C                    -0.130239       0.316775
     13 H                     0.141137      -0.017547
  --------------------------------------------------------
  Sum of atomic charges =     0.000000
  Sum of spin   charges =     1.000000

 -----------------------------------------------------------------
                    Cartesian Multipole Moments
 -----------------------------------------------------------------
    Charge (ESU x 10^10)
                 0.0000
    Dipole Moment (Debye)
         X      -0.5015      Y      -2.0112      Z       0.2879
       Tot       2.0927
    Quadrupole Moments (Debye-Ang)
        XX     -34.9264     XY      -1.5164     YY     -41.6900
        XZ      -2.3391     YZ       0.2932     ZZ     -42.8862
    Octopole Moments (Debye-Ang^2)
       XXX      -1.6926    XXY      -5.2216    XYY      -6.9748
       YYY     -33.3646    XXZ       0.2669    XYZ       0.3750
       YYZ       3.5453    XZZ      -1.2929    YZZ      -5.2171
       ZZZ       2.5004
    Hexadecapole Moments (Debye-Ang^3)
      XXXX    -366.5075   XXXY       1.9688   XXYY    -122.7482
      XYYY     -13.6151   YYYY    -417.1759   XXXZ      36.9397
      XXYZ       2.1466   XYYZ      13.5679   YYYZ      14.6336
      XXZZ     -80.1693   XYZZ       1.2257   YYZZ     -83.8652
      XZZZ      55.6636   YZZZ      11.1181   ZZZZ     -78.2203
 -----------------------------------------------------------------
 Calculating analytic gradient of the SCF energy
 Gradient of SCF Energy
            1           2           3           4           5           6
    1   0.0054371  -0.0205851  -0.0231013  -0.0004535  -0.0014821  -0.0030310
    2   0.0124196  -0.0085895  -0.0016159  -0.0000868  -0.0020222  -0.0106708
    3  -0.0004469   0.0094091   0.0065739   0.0004660   0.0000649   0.0014105
            7           8           9          10          11          12
    1  -0.0038378  -0.0017310  -0.0058449   0.0019311   0.0045053   0.0288800
    2  -0.0025243  -0.0017986  -0.0015257   0.0002214  -0.0006912   0.0134891
    3   0.0010091   0.0003377   0.0013725  -0.0004900  -0.0010475  -0.0145989
           13
    1   0.0193132
    2   0.0033947
    3  -0.0040604
 Max gradient component =       2.888E-02
 RMS gradient           =       9.064E-03
 Gradient time:  CPU 7.73 s  wall 2.22 s
 FSM gradient convergence criteria satisfied
done with opt_step_by_gradient, Reactant, iter1
-Optimizing new product side node
 Using BFGS, step: 2 E_tol 0.0535238
 max_steps 6, node_spacing 0.2482145, sigma 0.7000000
 ----------------------------------------------------------------
             Standard Nuclear Orientation (Angstroms)
    I     Atom           X                Y                Z
 ----------------------------------------------------------------
    1      C       1.7035647009     0.1473512524    -0.5111779059
    2      C      -0.1404212748    -1.3897372371     0.1291811763
    3      C      -1.4454838397    -1.1945832844     0.4905542835
    4      C      -1.7483918396     0.2013357701     0.4903392650
    5      C      -0.6382118341     0.9182625684     0.1252819937
    6      N       0.3950955994     0.0550876897    -0.1040807228
    7      H       2.3126161487    -0.7459504729    -0.6079870181
    8      H       0.4330295113    -2.2983280622     0.0197273378
    9      H      -2.1318285775    -1.9920375664     0.7413194490
   10      H      -2.7038693960     0.6423648710     0.7404132938
   11      H      -0.5054037708     1.9837087759     0.0226478462
   12      C       2.3165558956     1.2738292270    -0.7607265680
   13      H       2.1571656564     2.3355648355    -0.7717828377
 ----------------------------------------------------------------
 Nuclear Repulsion Energy =   260.4272496089 hartrees
 There are       25 alpha and       24 beta electrons

                       Distance Matrix (Angstroms)
             C (  1)   C (  2)   C (  3)   C (  4)   C (  5)   N (  6)
   C (  2)  2.484549
   C (  3)  3.566618  1.368161
   C (  4)  3.594712  2.290746  1.428406
   C (  5)  2.546233  2.361075  2.291120  1.371040
   N (  6)  1.373438  1.558431  2.302825  2.229184  1.365797
   H (  7)  1.085497  2.641074  3.940987  4.312245  3.466219  2.138333
   H (  8)  2.806683  1.079983  2.229068  3.350880  3.391925  2.356975
   H (  9)  4.566834  2.168682  1.081612  2.240737  3.328699  3.360174
   H ( 10)  4.608361  3.327809  2.240612  1.081657  2.172889  3.265218
   H ( 11)  2.921767  3.394805  3.347272  2.222748  1.078586  2.132261
   C ( 12)  1.306517  3.731388  4.670301  4.386252  3.105172  2.368232
   H ( 13)  2.249877  4.468615  5.199473  4.626150  3.260001  2.958258
             H (  7)   H (  8)   H (  9)   H ( 10)   H ( 11)   C ( 12)
   H (  8)  2.517290
   H (  9)  4.808997  2.681978
   H ( 10)  5.376870  4.359725  2.695794
   H ( 11)  3.973660  4.383663  4.355262  2.673507
   C ( 12)  2.025551  4.113039  5.719279  5.277958  3.013480
   H ( 13)  3.089778  5.007205  6.277985  5.365009  2.800750  1.073690

 
 Applying Cartesian multipole field
    Component          Value
    ---------          -----
     (2,0,0)        1.00000E-11
     (0,2,0)        2.00000E-11
     (0,0,2)       -3.00000E-10
 Nucleus-field energy     =    -0.0000000033 hartrees
 Requested basis set is 6-31G(d)
 There are 40 shells and 117 basis functions
 A cutoff of  1.0D-14 yielded    784 shell pairs
 There are      7006 function pairs
 Smallest overlap matrix eigenvalue = 1.09E-03
 Guess MOs from core Hamiltonian diagonalization
 Mixing HOMO and LUMO in initial guess
 Adding  50% of the LUMO to the HOMO
 An unrestricted hybrid HF-DFT SCF calculation will be
 performed using Pulay DIIS extrapolation
 Exchange:     0.2000 Hartree-Fock + 0.0800 Slater + 0.7200 B88
 Correlation:  0.1900 VWN1RPA + 0.8100 LYP
 Using SG-1 standard quadrature grid
 SCF converges when DIIS error is below 1.0E-08
 using 4 threads for integral computing
 -------------------------------------------------------
 OpenMP Integral computing Module                
 Release: version 1.0, May 2013, Q-Chem Inc. Pittsburgh 
 -------------------------------------------------------
 -------------------------------------------------------
 OpenMP BLAS3 based DFT computing Module                
 Release: version 1.0, May 2013, Q-Chem Inc. Pittsburgh 
 -------------------------------------------------------
 ---------------------------------------
  Cycle       Energy         DIIS Error
 ---------------------------------------
    1    -224.7003231368      1.47E-01
    2    -191.6532474477      1.36E-01
    3    -241.6672759968      1.15E-01
    4    -253.2465395690      1.14E-01
    5    -279.9359506589      4.15E-02
    6    -281.4929033741      4.31E-02
    7    -286.7984655916      4.75E-03
    8    -286.7710886157      6.40E-03
    9    -286.8458185127      9.55E-04
   10    -286.8474144372      5.13E-04
   11    -286.8478957779      2.10E-04
   12    -286.8480277115      9.31E-05
   13    -286.8480705990      2.13E-05
   14    -286.8480771316      8.07E-06
   15    -286.8480794711      3.10E-06
   16    -286.8480810091      8.92E-07
   17    -286.8480822863      4.76E-07
   18    -286.8480826714      2.05E-07
   19    -286.8480827325      1.05E-07
   20    -286.8480827334      3.34E-08
   21    -286.8480827339      8.85E-09 Convergence criterion met
 ---------------------------------------
 <S^2> = 0.7621
 SCF time:  CPU 50.43 s  wall 16.99 s
 SCF   energy in the final basis set = -286.84808273
 Total energy in the final basis set = -286.84808273
 
 --------------------------------------------------------------
 
                    Orbital Energies (a.u.)
 --------------------------------------------------------------
 
 Alpha MOs
 -- Occupied --
-14.394 -10.231 -10.216 -10.215 -10.199 -10.180 -10.174  -0.971
 -0.818  -0.735  -0.718  -0.615  -0.570  -0.548  -0.531  -0.457
 -0.446  -0.414  -0.403  -0.386  -0.374  -0.305  -0.243  -0.230
 -0.208
 -- Virtual --
 -0.008   0.063   0.096   0.097   0.110   0.132   0.137   0.170
  0.176   0.204   0.229   0.291   0.333   0.370   0.384   0.448
  0.509   0.511   0.540   0.545   0.561   0.577   0.587   0.594
  0.617   0.619   0.632   0.654   0.673   0.704   0.802   0.826
  0.828   0.836   0.844   0.849   0.880   0.909   0.931   0.943
  0.993   1.026   1.080   1.135   1.166   1.233   1.284   1.329
  1.345   1.386   1.460   1.478   1.496   1.510   1.534   1.535
  1.683   1.719   1.738   1.866   1.884   1.911   1.981   1.998
  2.031   2.103   2.125   2.159   2.219   2.248   2.278   2.304
  2.324   2.383   2.479   2.578   2.595   2.626   2.652   2.688
  2.736   2.889   2.999   3.079   3.243   3.944   4.073   4.115
  4.157   4.282   4.456   4.477
 
 Beta MOs
 -- Occupied --
-14.392 -10.233 -10.216 -10.215 -10.183 -10.180 -10.174  -0.968
 -0.813  -0.729  -0.708  -0.603  -0.568  -0.544  -0.522  -0.453
 -0.439  -0.415  -0.402  -0.385  -0.372  -0.303  -0.226  -0.202
 -- Virtual --
 -0.072  -0.001   0.066   0.097   0.100   0.111   0.137   0.140
  0.171   0.179   0.207   0.231   0.295   0.335   0.381   0.388
  0.453   0.509   0.517   0.542   0.548   0.566   0.587   0.594
  0.617   0.625   0.626   0.651   0.659   0.671   0.705   0.806
  0.826   0.832   0.837   0.845   0.850   0.888   0.917   0.932
  0.944   0.999   1.032   1.089   1.138   1.166   1.238   1.285
  1.332   1.346   1.386   1.466   1.479   1.504   1.512   1.535
  1.537   1.733   1.734   1.775   1.890   1.894   1.914   1.982
  2.004   2.037   2.109   2.126   2.161   2.219   2.250   2.283
  2.306   2.330   2.388   2.479   2.589   2.603   2.628   2.660
  2.689   2.745   2.890   3.001   3.080   3.250   3.945   4.103
  4.116   4.160   4.285   4.457   4.478
 --------------------------------------------------------------
 
          Ground-State Mulliken Net Atomic Charges

     Atom                 Charge (a.u.)    Spin (a.u.)
  --------------------------------------------------------
      1 C                     0.056184      -0.134805
      2 C                    -0.007115       0.001332
      3 C                    -0.161677      -0.001721
      4 C                    -0.195088      -0.014683
      5 C                     0.071786       0.003608
      6 N                    -0.439262       0.033653
      7 H                     0.170250       0.030252
      8 H                     0.160543       0.000203
      9 H                     0.134343       0.001575
     10 H                     0.129283       0.001490
     11 H                     0.154448       0.001191
     12 C                    -0.232385       1.085377
     13 H                     0.158690      -0.007474
  --------------------------------------------------------
  Sum of atomic charges =    -0.000000
  Sum of spin   charges =     1.000000

 -----------------------------------------------------------------
                    Cartesian Multipole Moments
 -----------------------------------------------------------------
    Charge (ESU x 10^10)
                 0.0000
    Dipole Moment (Debye)
         X      -0.0221      Y      -0.1185      Z       0.0373
       Tot       0.1262
    Quadrupole Moments (Debye-Ang)
        XX     -40.4826     XY      -1.5392     YY     -34.0573
        XZ      -1.1412     YZ      -0.2290     ZZ     -44.6514
    Octopole Moments (Debye-Ang^2)
       XXX     -19.6445    XXY      -5.7933    XYY       0.1705
       YYY       2.0053    XXZ       4.9417    XYZ       1.5394
       YYZ      -0.0634    XZZ      -3.7496    YZZ      -0.4211
       ZZZ       2.7276
    Hexadecapole Moments (Debye-Ang^3)
      XXXX    -584.3520   XXXY     -90.1685   XXYY    -132.9913
      XYYY     -63.6705   YYYY    -260.5056   XXXZ      75.7658
      XXYZ      11.0042   XYYZ      20.5382   YYYZ      23.0286
      XXZZ    -119.9652   XYZZ     -27.5695   YYZZ     -70.4291
      XZZZ      90.8500   YZZZ      33.6838   ZZZZ    -103.5853
 -----------------------------------------------------------------
 Calculating analytic gradient of the SCF energy
 Gradient of SCF Energy
            1           2           3           4           5           6
    1  -0.0161646   0.0045696  -0.0067603   0.0079686  -0.0042599   0.0240955
    2  -0.0220342  -0.0732227   0.0023586  -0.0022380   0.0040304   0.1101983
    3   0.0034225   0.0021115   0.0016627  -0.0018773  -0.0001634  -0.0114034
            7           8           9          10          11          12
    1   0.0108737  -0.0079340   0.0019293   0.0005507  -0.0007293  -0.0155541
    2   0.0094215  -0.0068786  -0.0000347   0.0002117  -0.0015283  -0.0160987
    3  -0.0027285   0.0025341  -0.0003405  -0.0000085   0.0003964   0.0060983
           13
    1   0.0014149
    2  -0.0041853
    3   0.0002961
 Max gradient component =       1.102E-01
 RMS gradient           =       2.268E-02
 Gradient time:  CPU 6.93 s  wall 1.89 s
 ----------------------------------------------------------------
             Standard Nuclear Orientation (Angstroms)
    I     Atom           X                Y                Z
 ----------------------------------------------------------------
    1      C       1.7088230014     0.1582652903    -0.5209280993
    2      C      -0.1405019573    -1.3524005573     0.1250408553
    3      C      -1.4360700172    -1.1971108548     0.4875080199
    4      C      -1.7521044062     0.2008898717     0.4909087334
    5      C      -0.6426644053     0.9260890756     0.1245288746
    6      N       0.3853477488     0.0124682007    -0.0851888914
    7      H       2.3127087156    -0.7470448401    -0.6035214182
    8      H       0.4327593590    -2.3093902956     0.0191721064
    9      H      -2.1299120098    -1.9912986014     0.7400055963
   10      H      -2.7047859516     0.6352799368     0.7409635395
   11      H      -0.5275552091     1.9974996959     0.0280878192
   12      C       2.3291186737     1.2745600172    -0.7698957273
   13      H       2.1692760994     2.3290623195    -0.7729836274
 ----------------------------------------------------------------
 Nuclear Repulsion Energy =   260.6874362906 hartrees
 There are       25 alpha and       24 beta electrons

                       Distance Matrix (Angstroms)
             C (  1)   C (  2)   C (  3)   C (  4)   C (  5)   N (  6)
   C (  2)  2.473740
   C (  3)  3.569922  1.354250
   C (  4)  3.606057  2.268002  1.433281
   C (  5)  2.556494  2.333170  2.295479  1.375138
   N (  6)  1.400968  1.477695  2.260227  2.221732  1.391220
   H (  7)  1.091369  2.629734  3.930171  4.314981  3.473279  2.135474
   H (  8)  2.830083  1.120565  2.224641  3.361201  3.411153  2.324686
   H (  9)  4.576731  2.178101  1.084392  2.238410  3.331947  3.320024
   H ( 10)  4.615177  3.302391  2.243109  1.076487  2.171844  3.258734
   H ( 11)  2.947132  3.373580  3.352910  2.222955  1.081883  2.187824
   C ( 12)  1.301102  3.714951  4.676202  4.404404  3.122967  2.416598
   H ( 13)  2.233363  4.437870  5.198197  4.637215  3.268160  3.003676
             H (  7)   H (  8)   H (  9)   H ( 10)   H ( 11)   C ( 12)
   H (  8)  2.522475
   H (  9)  4.805217  2.681057
   H ( 10)  5.375287  4.363056  2.688754
   H ( 11)  3.999819  4.412662  4.357165  2.665365
   C ( 12)  2.028506  4.130800  5.729624  5.294485  3.052868
   H ( 13)  3.084109  5.015799  6.279942  5.377492  2.832763  1.066553

 
 Applying Cartesian multipole field
    Component          Value
    ---------          -----
     (2,0,0)        1.00000E-11
     (0,2,0)        2.00000E-11
     (0,0,2)       -3.00000E-10
 Nucleus-field energy     =    -0.0000000034 hartrees
 Requested basis set is 6-31G(d)
 There are 40 shells and 117 basis functions
 A cutoff of  1.0D-14 yielded    785 shell pairs
 There are      7007 function pairs
 Smallest overlap matrix eigenvalue = 1.07E-03
 Guess MOs from core Hamiltonian diagonalization
 Mixing HOMO and LUMO in initial guess
 Adding  50% of the LUMO to the HOMO
 An unrestricted hybrid HF-DFT SCF calculation will be
 performed using Pulay DIIS extrapolation
 Exchange:     0.2000 Hartree-Fock + 0.0800 Slater + 0.7200 B88
 Correlation:  0.1900 VWN1RPA + 0.8100 LYP
 Using SG-1 standard quadrature grid
 SCF converges when DIIS error is below 1.0E-08
 using 4 threads for integral computing
 -------------------------------------------------------
 OpenMP Integral computing Module                
 Release: version 1.0, May 2013, Q-Chem Inc. Pittsburgh 
 -------------------------------------------------------
 -------------------------------------------------------
 OpenMP BLAS3 based DFT computing Module                
 Release: version 1.0, May 2013, Q-Chem Inc. Pittsburgh 
 -------------------------------------------------------
 ---------------------------------------
  Cycle       Energy         DIIS Error
 ---------------------------------------
    1    -224.5567374843      1.46E-01
    2    -180.4464240391      1.41E-01
    3    -231.9631962635      1.15E-01
    4    -245.2172438569      1.25E-01
    5    -283.4969944925      2.88E-02
    6    -282.2055312008      4.21E-02
    7    -286.2741717905      1.34E-02
    8    -286.7359454579      7.88E-03
    9    -286.8504743735      1.96E-03
   10    -286.8568294986      8.79E-04
   11    -286.8582130503      4.65E-04
   12    -286.8586825663      2.34E-04
   13    -286.8588588367      1.53E-04
   14    -286.8589586792      6.17E-05
   15    -286.8589805417      1.90E-05
   16    -286.8589853079      1.90E-06
   17    -286.8589859564      7.84E-07
   18    -286.8589861961      5.34E-07
   19    -286.8589863326      2.16E-07
   20    -286.8589864664      7.97E-08
   21    -286.8589864776      2.62E-08
   22    -286.8589864778      6.16E-09 Convergence criterion met
 ---------------------------------------
 <S^2> = 0.7613
 SCF time:  CPU 51.07 s  wall 15.61 s
 SCF   energy in the final basis set = -286.85898648
 Total energy in the final basis set = -286.85898648
 
 --------------------------------------------------------------
 
                    Orbital Energies (a.u.)
 --------------------------------------------------------------
 
 Alpha MOs
 -- Occupied --
-14.395 -10.233 -10.215 -10.213 -10.202 -10.175 -10.173  -0.972
 -0.816  -0.733  -0.722  -0.612  -0.566  -0.549  -0.530  -0.455
 -0.437  -0.415  -0.411  -0.384  -0.375  -0.304  -0.248  -0.226
 -0.214
 -- Virtual --
 -0.005   0.068   0.092   0.104   0.106   0.136   0.144   0.169
  0.179   0.208   0.227   0.284   0.339   0.358   0.391   0.447
  0.508   0.512   0.536   0.553   0.560   0.578   0.588   0.595
  0.614   0.619   0.622   0.653   0.673   0.705   0.795   0.811
  0.829   0.841   0.845   0.849   0.878   0.911   0.931   0.942
  0.988   1.030   1.083   1.135   1.171   1.229   1.271   1.334
  1.343   1.384   1.447   1.480   1.493   1.516   1.538   1.540
  1.678   1.710   1.794   1.841   1.882   1.924   1.986   2.004
  2.044   2.098   2.156   2.167   2.219   2.241   2.283   2.299
  2.332   2.363   2.494   2.581   2.608   2.618   2.646   2.702
  2.734   2.885   3.026   3.046   3.218   3.941   4.074   4.120
  4.159   4.275   4.461   4.478
 
 Beta MOs
 -- Occupied --
-14.394 -10.235 -10.215 -10.213 -10.187 -10.175 -10.173  -0.970
 -0.811  -0.725  -0.715  -0.601  -0.564  -0.546  -0.522  -0.449
 -0.432  -0.415  -0.409  -0.383  -0.375  -0.302  -0.222  -0.209
 -- Virtual --
 -0.078   0.002   0.071   0.092   0.104   0.111   0.139   0.147
  0.171   0.181   0.212   0.229   0.289   0.341   0.365   0.397
  0.455   0.509   0.521   0.537   0.558   0.565   0.588   0.595
  0.616   0.620   0.625   0.640   0.659   0.672   0.706   0.798
  0.813   0.833   0.842   0.847   0.849   0.886   0.920   0.931
  0.943   0.994   1.037   1.090   1.138   1.171   1.234   1.272
  1.336   1.345   1.384   1.452   1.481   1.499   1.522   1.541
  1.542   1.726   1.756   1.802   1.862   1.892   1.927   1.987
  2.011   2.049   2.107   2.157   2.169   2.219   2.244   2.289
  2.303   2.334   2.368   2.495   2.590   2.612   2.627   2.657
  2.702   2.741   2.887   3.027   3.049   3.225   3.942   4.105
  4.120   4.161   4.277   4.461   4.480
 --------------------------------------------------------------
 
          Ground-State Mulliken Net Atomic Charges

     Atom                 Charge (a.u.)    Spin (a.u.)
  --------------------------------------------------------
      1 C                     0.053629      -0.135701
      2 C                     0.022026       0.001707
      3 C                    -0.173074      -0.002843
      4 C                    -0.190139      -0.011310
      5 C                     0.055037       0.002386
      6 N                    -0.445533       0.039259
      7 H                     0.166820       0.034046
      8 H                     0.157461       0.000076
      9 H                     0.131555       0.001580
     10 H                     0.127525       0.001353
     11 H                     0.156339       0.000751
     12 C                    -0.222677       1.074170
     13 H                     0.161031      -0.005472
  --------------------------------------------------------
  Sum of atomic charges =    -0.000000
  Sum of spin   charges =     1.000000

 -----------------------------------------------------------------
                    Cartesian Multipole Moments
 -----------------------------------------------------------------
    Charge (ESU x 10^10)
                -0.0000
    Dipole Moment (Debye)
         X       0.1104      Y      -0.0234      Z       0.0023
       Tot       0.1129
    Quadrupole Moments (Debye-Ang)
        XX     -40.3623     XY      -1.3847     YY     -34.0790
        XZ      -1.1529     YZ      -0.2605     ZZ     -44.6413
    Octopole Moments (Debye-Ang^2)
       XXX     -18.9335    XXY      -4.9949    XYY       0.3879
       YYY       2.6424    XXZ       4.8545    XYZ       1.3045
       YYZ      -0.1219    XZZ      -3.6728    YZZ      -0.4550
       ZZZ       2.7813
    Hexadecapole Moments (Debye-Ang^3)
      XXXX    -584.8832   XXXY     -88.2012   XXYY    -132.5660
      XYYY     -63.2764   YYYY    -258.5547   XXXZ      76.0898
      XXYZ      10.6184   XYYZ      20.7215   YYYZ      23.0657
      XXZZ    -120.2706   XYZZ     -27.2752   YYZZ     -70.1883
      XZZZ      91.3418   YZZZ      33.5400   ZZZZ    -104.0303
 -----------------------------------------------------------------
 Calculating analytic gradient of the SCF energy
 Gradient of SCF Energy
            1           2           3           4           5           6
    1  -0.0018269  -0.0189704   0.0142513   0.0009569  -0.0029839   0.0061827
    2   0.0001023  -0.0261406  -0.0050713  -0.0022022   0.0191213   0.0605174
    3  -0.0047667   0.0042351  -0.0034806   0.0005233  -0.0030843   0.0005844
            7           8           9          10          11          12
    1   0.0105128   0.0038585  -0.0014586   0.0042417  -0.0049240  -0.0110378
    2   0.0053196  -0.0288560  -0.0002314  -0.0010373   0.0025440  -0.0141026
    3  -0.0014754   0.0003843   0.0007478  -0.0008844   0.0012497   0.0050876
           13
    1   0.0011977
    2  -0.0099632
    3   0.0008792
 Max gradient component =       6.052E-02
 RMS gradient           =       1.331E-02
 Gradient time:  CPU 7.27 s  wall 1.88 s
 FSM gradient convergence criteria satisfied
 After opt distance between the previous and current R_nodes (Angstroms): 0.2349
 After opt distance between the previous and current P_nodes (Angstroms): 0.2538
-Printing perpgrad.txt, Vfile.txt, and stringfile.txt

STARTING FREEZING STRING ITERATION # 2
 The distance between the innermost nodes (Angstroms): 4.982
-Adding two new nodes
 The distance between the previous and current R_nodes (Angstroms): 0.2514
 The distance between the previous and current P_nodes (Angstroms): 0.2503
-Optimizing new reactant side node
 Using BFGS, step: 3 E_tol 0.0535
 max_steps 6, node_spacing 0.2482, sigma 0.7000
 ----------------------------------------------------------------
             Standard Nuclear Orientation (Angstroms)
    I     Atom           X                Y                Z
 ----------------------------------------------------------------
    1      C       1.4574710036     0.8389861482    -0.4717140152
    2      C       0.2412879797    -1.4145430041     0.0254581221
    3      C      -1.0519394513    -1.0849609850     0.3712298852
    4      C      -1.5577268846     0.2446373418     0.4338955146
    5      C      -0.8446558977     1.3953466569     0.1532389009
    6      N       0.4110989803     1.6380759930    -0.2091873352
    7      H       2.3528559250     1.3830888526    -0.7534070431
    8      H       0.4703320304    -2.4851182592     0.0220326449
    9      H      -1.7512774585    -1.8878139905     0.6252339200
   10      H      -2.5913845742     0.3833154991     0.7290356085
   11      H      -1.3826911438     2.3363942345     0.2565894610
   12      C       1.5912456523    -0.5068627115    -0.4926533892
   13      H       2.6036705460    -0.9049587965    -0.6832717173
 ----------------------------------------------------------------
 Nuclear Repulsion Energy =   257.0748457037 hartrees
 There are       25 alpha and       24 beta electrons

                       Distance Matrix (Angstroms)
             C (  1)   C (  2)   C (  3)   C (  4)   C (  5)   N (  6)
   C (  2)  2.608577
   C (  3)  3.272502  1.378630
   C (  4)  3.203872  2.481160  1.423931
   C (  5)  2.449468  3.015142  2.498482  1.382523
   N (  6)  1.342520  3.066330  3.145202  2.496298  1.329357
   H (  7)  1.084948  3.590556  4.353012  4.242454  3.323588  2.032637
   H (  8)  3.502556  1.094808  2.097544  3.425525  4.099319  4.130097
   H (  9)  4.351414  2.134018  1.094607  2.149749  3.438588  4.219482
   H ( 10)  4.247666  3.428024  2.157256  1.083876  2.099240  3.386679
   H ( 11)  3.292291  4.093930  3.439217  2.106543  1.088914  1.980475
   C ( 12)  1.352643  1.707252  2.840232  3.367384  3.157403  2.464520
   H ( 13)  2.097588  2.518497  3.808918  4.459469  4.228724  3.391040
             H (  7)   H (  8)   H (  9)   H ( 10)   H ( 11)   C ( 12)
   H (  8)  4.371296
   H (  9)  5.426174  2.378271
   H ( 10)  5.257632  4.254630  2.423754
   H ( 11)  3.985373  5.170657  4.256253  2.344923
   C ( 12)  2.054254  2.331275  3.785388  4.447397  4.182078
   H ( 13)  2.302822  2.746906  4.652286  5.535599  5.223101  1.104455

 
 Applying Cartesian multipole field
    Component          Value
    ---------          -----
     (2,0,0)        1.00000E-11
     (0,2,0)        2.00000E-11
     (0,0,2)       -3.00000E-10
 Nucleus-field energy     =     0.0000000004 hartrees
 Requested basis set is 6-31G(d)
 There are 40 shells and 117 basis functions
 A cutoff of  1.0D-14 yielded    789 shell pairs
 There are      7061 function pairs
 Smallest overlap matrix eigenvalue = 1.65E-03
 Guess MOs from core Hamiltonian diagonalization
 Mixing HOMO and LUMO in initial guess
 Adding  50% of the LUMO to the HOMO
 An unrestricted hybrid HF-DFT SCF calculation will be
 performed using Pulay DIIS extrapolation
 Exchange:     0.2000 Hartree-Fock + 0.0800 Slater + 0.7200 B88
 Correlation:  0.1900 VWN1RPA + 0.8100 LYP
 Using SG-1 standard quadrature grid
 SCF converges when DIIS error is below 1.0E-08
 using 4 threads for integral computing
 -------------------------------------------------------
 OpenMP Integral computing Module                
 Release: version 1.0, May 2013, Q-Chem Inc. Pittsburgh 
 -------------------------------------------------------
 -------------------------------------------------------
 OpenMP BLAS3 based DFT computing Module                
 Release: version 1.0, May 2013, Q-Chem Inc. Pittsburgh 
 -------------------------------------------------------
 ---------------------------------------
  Cycle       Energy         DIIS Error
 ---------------------------------------
    1    -236.5067854568      1.31E-01
    2    -218.4093269342      1.10E-01
    3    -241.2052478686      1.01E-01
    4    -275.4656754879      6.79E-02
    5    -280.6132530473      4.67E-02
    6    -286.4381436145      1.35E-02
    7    -286.2660149443      1.61E-02
    8    -286.8027911213      5.68E-03
    9    -286.8491760193      3.89E-03
   10    -286.8813716876      8.89E-04
   11    -286.8830172382      3.42E-04
   12    -286.8833309415      7.89E-05
   13    -286.8834159415      4.08E-05
   14    -286.8834589997      2.05E-05
   15    -286.8834748377      1.20E-05
   16    -286.8834798975      2.79E-06
   17    -286.8834807171      1.59E-06
   18    -286.8834808268      8.68E-07
   19    -286.8834809012      3.70E-07
   20    -286.8834809041      1.35E-07
   21    -286.8834809047      5.03E-08
   22    -286.8834809049      2.29E-08
   23    -286.8834809049      1.19E-08
   24    -286.8834809050      4.93E-09 Convergence criterion met
 ---------------------------------------
 <S^2> = 0.7840
 SCF time:  CPU 58.91 s  wall 20.17 s
 SCF   energy in the final basis set = -286.88348090
 Total energy in the final basis set = -286.88348090
 
 --------------------------------------------------------------
 
                    Orbital Energies (a.u.)
 --------------------------------------------------------------
 
 Alpha MOs
 -- Occupied --
-14.319 -10.229 -10.228 -10.223 -10.219 -10.217 -10.200  -0.921
 -0.809  -0.777  -0.697  -0.654  -0.558  -0.525  -0.505  -0.456
 -0.430  -0.419  -0.392  -0.390  -0.332  -0.318  -0.291  -0.236
 -0.174
 -- Virtual --
 -0.062   0.073   0.078   0.106   0.113   0.119   0.144   0.183
  0.190   0.197   0.256   0.315   0.341   0.370   0.417   0.474
  0.485   0.498   0.567   0.570   0.572   0.578   0.586   0.604
  0.617   0.640   0.647   0.651   0.713   0.726   0.816   0.836
  0.854   0.861   0.870   0.880   0.888   0.903   0.947   0.970
  0.998   1.039   1.062   1.128   1.153   1.196   1.260   1.292
  1.351   1.390   1.413   1.452   1.496   1.552   1.583   1.593
  1.619   1.676   1.790   1.820   1.852   1.905   1.933   1.949
  2.003   2.051   2.096   2.109   2.161   2.198   2.252   2.297
  2.323   2.436   2.452   2.501   2.545   2.593   2.629   2.695
  2.759   2.803   3.047   3.106   3.315   3.997   4.026   4.096
  4.201   4.259   4.479   4.572
 
 Beta MOs
 -- Occupied --
-14.312 -10.231 -10.225 -10.224 -10.218 -10.215 -10.194  -0.911
[...]
      4 C                    -0.123837       0.009475
      5 C                    -0.016222      -0.020500
      6 N                    -0.345460       0.299339
      7 H                     0.141907       0.041345
      8 H                     0.170185      -0.000536
      9 H                     0.158363      -0.009495
     10 H                     0.140284      -0.000886
     11 H                     0.144552       0.009464
     12 C                    -0.193638       1.053482
     13 H                     0.179175      -0.039834
  --------------------------------------------------------
  Sum of atomic charges =    -0.000000
  Sum of spin   charges =     1.000000

 -----------------------------------------------------------------
                    Cartesian Multipole Moments
 -----------------------------------------------------------------
    Charge (ESU x 10^10)
                 0.0000
    Dipole Moment (Debye)
         X       0.5650      Y      -0.9975      Z      -0.7414
       Tot       1.3653
    Quadrupole Moments (Debye-Ang)
        XX     -34.4219     XY      -1.1886     YY     -40.0874
        XZ      -3.7946     YZ      -3.8935     ZZ     -43.5835
    Octopole Moments (Debye-Ang^2)
       XXX       1.8072    XXY      -3.4754    XYY      -4.7510
       YYY      -8.5276    XXZ      -3.0082    XYZ      -0.2953
       YYZ      -0.2938    XZZ       4.7484    YZZ      -3.6390
       ZZZ      -9.7273
    Hexadecapole Moments (Debye-Ang^3)
      XXXX    -389.2409   XXXY     -14.3875   XXYY    -117.8657
      XYYY     -21.2288   YYYY    -271.4262   XXXZ      27.3836
      XXYZ     -11.3439   XYYZ      10.2660   YYYZ     -32.0612
      XXZZ     -86.2253   XYZZ      -5.1023   YYZZ     -78.0011
      XZZZ      30.5847   YZZZ     -25.0179   ZZZZ    -139.1437
 -----------------------------------------------------------------
 Calculating analytic gradient of the SCF energy
 Gradient of SCF Energy
            1           2           3           4           5           6
    1  -0.0006003  -0.0112979  -0.0130986  -0.0044805  -0.0009873  -0.0408545
    2  -0.0359921   0.0012835  -0.0128122   0.0071552  -0.0271918   0.0211517
    3  -0.0772738   0.0260458   0.0147941   0.0055272  -0.0134713   0.0490993
            7           8           9          10          11          12
    1   0.0126154  -0.0019345  -0.0083789  -0.0151073   0.0162952   0.0553063
    2  -0.0118096   0.0105459   0.0013151   0.0038453  -0.0049298   0.0298634
    3   0.0079898   0.0078423  -0.0019647   0.0095543  -0.0080822  -0.0137102
           13
    1   0.0125229
    2   0.0175755
    3  -0.0063506
 Max gradient component =       7.727E-02
 RMS gradient           =       2.272E-02
 Gradient time:  CPU 7.21 s  wall 1.94 s
 ----------------------------------------------------------------
             Standard Nuclear Orientation (Angstroms)
    I     Atom           X                Y                Z
 ----------------------------------------------------------------
    1      C       1.6822960446     0.4886544606     0.0256036135
    2      C       0.0045694280    -1.1712154244     0.0724946405
    3      C      -1.3411610579    -1.1076843750     0.3385454394
    4      C      -1.8301180271     0.2315391770     0.3127898168
    5      C      -0.7448462852     1.0677523931     0.2634121819
    6      N       0.4718842891     0.4371656922     0.6973647449
    7      H       2.5628162189     0.4319082684     0.6478191808
    8      H       0.7313317822    -1.9921123691     0.1856147721
    9      H      -1.9411201444    -2.0071201737     0.6020507715
   10      H      -2.8671056771     0.5320905609     0.3602808568
   11      H      -0.7113236795     2.1581691810     0.1233416316
   12      C       1.5723877308     0.2168365996    -1.3930143355
   13      H       2.3999411243     0.3310481743    -2.1564159971
 ----------------------------------------------------------------
 Nuclear Repulsion Energy =   259.8491370467 hartrees
 There are       25 alpha and       24 beta electrons

                       Distance Matrix (Angstroms)
             C (  1)   C (  2)   C (  3)   C (  4)   C (  5)   N (  6)
   C (  2)  2.360537
   C (  3)  3.433296  1.373248
   C (  4)  3.533502  2.321969  1.425925
   C (  5)  2.506577  2.368766  2.256936  1.370951
   N (  6)  1.385284  1.787662  2.408827  2.342946  1.437494
   H (  7)  1.079670  3.073374  4.207973  4.410245  3.390088  2.091525
   H (  8)  2.661605  1.102203  2.258501  3.394381  3.398224  2.496116
   H (  9)  4.437378  2.182859  1.112821  2.259998  3.316714  3.436016
   H ( 10)  4.561902  3.351207  2.240054  1.080708  2.190959  3.357304
   H ( 11)  2.919974  3.405861  3.332988  2.235955  1.099887  2.165949
   C ( 12)  1.448600  2.555868  3.638876  3.806183  2.972773  2.372622
   H ( 13)  2.302404  3.600367  4.721295  4.899008  4.035838  3.445683
             H (  7)   H (  8)   H (  9)   H ( 10)   H ( 11)   C ( 12)
   H (  8)  3.073084
   H (  9)  5.122148  2.704745
   H ( 10)  5.438453  4.398961  2.713576
   H ( 11)  3.738321  4.394311  4.369347  2.710658
   C ( 12)  2.278641  2.842341  4.612050  4.783569  3.359084
   H ( 13)  2.810771  3.696815  5.649866  5.840887  4.267978  1.131667

 
 Applying Cartesian multipole field
    Component          Value
    ---------          -----
     (2,0,0)        1.00000E-11
     (0,2,0)        2.00000E-11
     (0,0,2)       -3.00000E-10
 Nucleus-field energy     =    -0.0000000179 hartrees
 Requested basis set is 6-31G(d)
 There are 40 shells and 117 basis functions
 A cutoff of  1.0D-14 yielded    794 shell pairs
 There are      7056 function pairs
 Smallest overlap matrix eigenvalue = 1.39E-03
 Guess MOs from core Hamiltonian diagonalization
 Mixing HOMO and LUMO in initial guess
 Adding  50% of the LUMO to the HOMO
 An unrestricted hybrid HF-DFT SCF calculation will be
 performed using Pulay DIIS extrapolation
 Exchange:     0.2000 Hartree-Fock + 0.0800 Slater + 0.7200 B88
 Correlation:  0.1900 VWN1RPA + 0.8100 LYP
 Using SG-1 standard quadrature grid
 SCF converges when DIIS error is below 1.0E-08
 using 4 threads for integral computing
 -------------------------------------------------------
 OpenMP Integral computing Module                
 Release: version 1.0, May 2013, Q-Chem Inc. Pittsburgh 
 -------------------------------------------------------
 -------------------------------------------------------
 OpenMP BLAS3 based DFT computing Module                
 Release: version 1.0, May 2013, Q-Chem Inc. Pittsburgh 
 -------------------------------------------------------
 ---------------------------------------
  Cycle       Energy         DIIS Error
 ---------------------------------------
    1    -231.7042082510      1.37E-01
    2    -206.1166553982      1.10E-01
    3    -254.4346785819      9.04E-02
    4    -263.6875288066      9.32E-02
    5    -284.2340109988      3.05E-02
    6    -286.1763158234      1.73E-02
    7    -286.5601954842      9.38E-03
    8    -286.6902652230      3.07E-03
    9    -286.6992161754      2.84E-03
   10    -286.7172638518      7.78E-04
   11    -286.7188295802      5.66E-04
   12    -286.7204910955      4.33E-04
   13    -286.7215392902      2.44E-04
   14    -286.7221512463      7.65E-05
   15    -286.7223502217      2.73E-05
   16    -286.7225115338      1.51E-05
   17    -286.7226032063      8.85E-06
   18    -286.7226301132      5.08E-06
   19    -286.7226426147      3.15E-06
   20    -286.7226524016      2.29E-06
   21    -286.7226597825      1.15E-06
   22    -286.7226608602      3.91E-07
   23    -286.7226608903      2.47E-07
   24    -286.7226609078      1.68E-07
   25    -286.7226609184      7.88E-08
   26    -286.7226609207      4.36E-08
   27    -286.7226609213      1.07E-08
   28    -286.7226609213      6.10E-09 Convergence criterion met
 ---------------------------------------
 <S^2> = 0.8794
 SCF time:  CPU 65.96 s  wall 18.10 s
 SCF   energy in the final basis set = -286.72266092
 Total energy in the final basis set = -286.72266092
 
 --------------------------------------------------------------
 
                    Orbital Energies (a.u.)
 --------------------------------------------------------------
 
 Alpha MOs
 -- Occupied --
-14.370 -10.227 -10.226 -10.220 -10.218 -10.200 -10.184  -0.937
 -0.806  -0.722  -0.681  -0.609  -0.551  -0.532  -0.502  -0.465
 -0.431  -0.403  -0.390  -0.367  -0.336  -0.279  -0.262  -0.233
 -0.189
 -- Virtual --
 -0.044  -0.010   0.043   0.100   0.110   0.134   0.150   0.159
  0.165   0.175   0.216   0.289   0.307   0.330   0.375   0.418
  0.492   0.517   0.540   0.556   0.561   0.577   0.585   0.590
  0.600   0.632   0.640   0.647   0.687   0.717   0.730   0.793
  0.805   0.827   0.835   0.860   0.870   0.899   0.909   0.931
  0.952   0.973   1.031   1.051   1.099   1.129   1.167   1.287
  1.307   1.365   1.468   1.486   1.504   1.521   1.618   1.677
  1.694   1.746   1.782   1.799   1.854   1.879   1.936   1.974
  1.992   2.062   2.080   2.148   2.202   2.218   2.239   2.260
  2.295   2.333   2.452   2.478   2.498   2.582   2.613   2.681
  2.702   2.790   2.833   2.947   3.036   4.014   4.071   4.109
  4.154   4.286   4.364   4.465
 
 Beta MOs
 -- Occupied --
-14.367 -10.230 -10.226 -10.222 -10.202 -10.198 -10.185  -0.934
 -0.805  -0.718  -0.669  -0.596  -0.549  -0.530  -0.499  -0.456
 -0.425  -0.403  -0.390  -0.369  -0.333  -0.265  -0.230  -0.191
 -- Virtual --
 -0.094  -0.034  -0.004   0.048   0.103   0.110   0.141   0.156
  0.161   0.165   0.176   0.221   0.292   0.308   0.347   0.375
  0.418   0.502   0.523   0.550   0.563   0.566   0.581   0.587
  0.594   0.610   0.634   0.646   0.653   0.690   0.722   0.742
  0.795   0.806   0.828   0.844   0.862   0.872   0.903   0.913
  0.935   0.961   0.978   1.035   1.052   1.103   1.130   1.169
  1.288   1.316   1.366   1.476   1.486   1.503   1.527   1.630
  1.686   1.707   1.778   1.793   1.837   1.870   1.887   1.946
  1.975   2.003   2.066   2.097   2.150   2.205   2.217   2.242
  2.266   2.302   2.332   2.454   2.481   2.504   2.589   2.617
  2.681   2.705   2.794   2.837   2.951   3.035   4.020   4.096
  4.110   4.158   4.284   4.364   4.467
 --------------------------------------------------------------
 
          Ground-State Mulliken Net Atomic Charges

     Atom                 Charge (a.u.)    Spin (a.u.)
  --------------------------------------------------------
      1 C                    -0.019318      -0.322836
      2 C                    -0.085224      -0.211792
      3 C                    -0.116982       0.140115
      4 C                    -0.141159      -0.045954
      5 C                     0.047250       0.094081
      6 N                    -0.403604       0.101278
      7 H                     0.160759       0.041051
      8 H                     0.154103       0.001043
      9 H                     0.146707      -0.013486
     10 H                     0.142193       0.002085
     11 H                     0.151346      -0.004815
     12 C                    -0.182994       1.188040
     13 H                     0.146922       0.031190
  --------------------------------------------------------
  Sum of atomic charges =    -0.000000
  Sum of spin   charges =     1.000000

 -----------------------------------------------------------------
                    Cartesian Multipole Moments
 -----------------------------------------------------------------
    Charge (ESU x 10^10)
                -0.0000
    Dipole Moment (Debye)
         X       0.0571      Y      -0.1948      Z       0.1014
       Tot       0.2269
    Quadrupole Moments (Debye-Ang)
        XX     -35.2976     XY      -0.2263     YY     -37.7431
        XZ      -0.9635     YZ      -0.9105     ZZ     -43.9533
    Octopole Moments (Debye-Ang^2)
       XXX       0.9517    XXY      -0.7964    XYY      -4.2170
       YYY      -4.1690    XXZ       0.3001    XYZ       0.8549
       YYZ       1.6094    XZZ       5.3891    YZZ      -0.1562
       ZZZ      -8.1916
    Hexadecapole Moments (Debye-Ang^3)
      XXXX    -448.5989   XXXY     -25.3847   XXYY    -118.6757
      XYYY     -31.9613   YYYY    -208.4353   XXXZ      51.6249
      XXYZ      -2.0321   XYYZ      20.4261   YYYZ       3.2165
      XXZZ     -99.7413   XYZZ      -6.5903   YYZZ     -68.8275
      XZZZ      53.5250   YZZZ       2.6928   ZZZZ    -157.0223
 -----------------------------------------------------------------
 Calculating analytic gradient of the SCF energy
 Gradient of SCF Energy
            1           2           3           4           5           6
    1  -0.0027696   0.0135544  -0.0019842  -0.0103089  -0.0199934   0.0639819
    2   0.0001244  -0.0284141   0.0308532  -0.0101412  -0.0162510   0.0768146
    3   0.1214467  -0.0708179   0.0047835  -0.0033982  -0.0337537   0.0503350
            7           8           9          10          11          12
    1  -0.0098582   0.0068272  -0.0028755   0.0008326   0.0031748  -0.0629496
    2  -0.0091760  -0.0130174  -0.0122834  -0.0010310   0.0089955  -0.0347721
    3   0.0029500  -0.0029279   0.0171640   0.0042663  -0.0032384  -0.0761053
           13
    1   0.0223686
    2   0.0082983
    3  -0.0107040
 Max gradient component =       1.214E-01
 RMS gradient           =       3.542E-02
 Gradient time:  CPU 7.25 s  wall 1.93 s
 E1 = -286.7295332, E2 = -286.7226609, Emax = -286.6735436
 Iteration 5, Curvature = -0.3320124
 Curvature, final (in Hartree/Bohr^2) = -0.0929729
 ----------------------------------------------------------------
             Standard Nuclear Orientation (Angstroms)
    I     Atom           X                Y                Z
 ----------------------------------------------------------------
    1      C       1.6206016127     0.4592646781     0.0386840763
    2      C       0.0000577747    -1.2706472977    -0.0627499840
    3      C      -1.2844078306    -1.0796025240     0.3285910942
    4      C      -1.7600557360     0.2750080472     0.2855845963
    5      C      -0.7025001918     1.1394519644     0.2506456814
    6      N       0.5464336695     0.7501563707     0.7473695772
    7      H       2.5550489518     0.3566967251     0.6124914189
    8      H       0.6794337534    -2.0731039899     0.1834605652
    9      H      -1.8864242595    -1.9167813140     0.7029205525
   10      H      -2.8104654978     0.5777573904     0.3446479032
   11      H      -0.7387221366     2.2108199940     0.0529727762
   12      C       1.4877645511     0.0421761166    -1.2965449963
   13      H       2.2654764004     0.1359209579    -2.0925509887
 ----------------------------------------------------------------
 Nuclear Repulsion Energy =   259.8534056906 hartrees
 There are       25 alpha and       24 beta electrons
 Requested basis set is 6-31G(d)
 There are 40 shells and 117 basis functions
 Geometry Optimization Parameters
   NAtoms,    NIC,     NZ,  NCons,   NDum,   NFix, NCnnct, MaxDiis
       13      69       0       0       0       0       0       0


** GEOMETRY OPTIMIZATION IN DELOCALIZED INTERNAL COORDINATES **
   Searching for a Minimum

   Optimization Cycle:   1

                       Coordinates (Angstroms)
     ATOM                X               Y               Z
      1  C         1.6206016127    0.4592646781    0.0386840763
      2  C         0.0000577747   -1.2706472977   -0.0627499840
      3  C        -1.2844078306   -1.0796025240    0.3285910942
      4  C        -1.7600557360    0.2750080472    0.2855845963
      5  C        -0.7025001918    1.1394519644    0.2506456814
      6  N         0.5464336695    0.7501563707    0.7473695772
      7  H         2.5550489518    0.3566967251    0.6124914189
      8  H         0.6794337534   -2.0731039899    0.1834605652
      9  H        -1.8864242595   -1.9167813140    0.7029205525
     10  H        -2.8104654978    0.5777573904    0.3446479032
     11  H        -0.7387221366    2.2108199940    0.0529727762
     12  C         1.4877645511    0.0421761166   -1.2965449963
     13  H         2.2654764004    0.1359209579   -2.0925509887
   Point Group: c1    Number of degrees of freedom:    33


   Energy is   -286.722660921


 Attempting to Generate Delocalized Internal Coordinates

 33 Hessian modes will be used to form the next step
  Hessian Eigenvalues:
     0.015734    0.017600    0.021090    0.021726    0.022315    0.024992
     0.025905    0.026314    0.026858    0.028190    0.158632    0.158828
     0.159663    0.159891    0.160000    0.160000    0.220032    0.220041
     0.220420    0.220637    0.250000    0.318902    0.335335    0.340158
     0.342679    0.348065    0.360107    0.400923    0.447777    0.457319
     0.516848    0.537064    0.620931

 Minimum Search - Taking Simple RFO Step
 Searching for Lamda that Minimizes Along All modes
 Value Taken    Lamda =  -0.19396103
 Calculated Step too Large.  Step scaled by  0.342034
 Step Taken.  Stepsize is  0.300000

                             Maximum     Tolerance    Cnvgd?
         Gradient           0.132881      0.000300      NO
         Displacement       0.182193      0.001200      NO
         Energy change     *********      0.000001      NO


 New Cartesian Coordinates Obtained by Inverse Iteration

 Displacement from previous Coordinates is:  1.048197
 ----------------------------------------------------------------
             Standard Nuclear Orientation (Angstroms)
    I     Atom           X                Y                Z
 ----------------------------------------------------------------
    1      C       1.6403757167     0.4144566536    -0.0558944265
    2      C      -0.0235008501    -1.2469407775     0.1284806793
    3      C      -1.3421710328    -1.0952186671     0.3438123205
    4      C      -1.7872335261     0.2596298550     0.2631867039
    5      C      -0.6942204125     1.0734142392     0.2679288408
    6      N       0.5535602208     0.6195709439     0.6856862924
    7      H       2.5704664776     0.2544036840     0.5162234270
    8      H       0.6381583548    -2.0228383989     0.4695985770
    9      H      -1.9698004755    -1.9260389159     0.6701427067
   10      H      -2.8300766115     0.5933648555     0.2794053011
   11      H      -0.6977039358     2.1479641100     0.1048747768
   12      C       1.5642211334     0.1712461031    -1.4102823226
   13      H       2.3501660021     0.3641034341    -2.1676406042
 ----------------------------------------------------------------
 Nuclear Repulsion Energy =   260.2625698591 hartrees
 There are       25 alpha and       24 beta electrons

































 Eigenvalues after right structure
 -0.0974018 -0.0000000 -0.0000000 -0.0000000 0.0000000 0.0000000 0.0003439 0.0016059 0.0039614 0.0060758 0.0133961 0.0158277 0.0281158 0.0353668 0.0488857 0.0496324 0.0595337 0.0681119 0.0813631 0.0920689 0.1083918 0.1165271 0.1470678 0.1681079 0.1828705 0.2147543 0.2746832 0.3312770 0.3998311 0.4869420 0.6379076 0.7111459 0.8363970 1.0025675 1.1609486 1.2552675 1.4354168 1.4860607 1.6719913
Archival summary:
1\1\c8-72\JobtypUnspecified\ProcedureUnspecified\6-31G*\166(2)\hpark21\ThuMar300:45:022022ThuMar300:45:022022\0\\#,JobtypUnspecified,ProcedureUnspecified,6-31G*,\\0,2\N\C,1,1.33161\H,2,1.10363,1,114.927\C,2,1.37816,1,121.964,3,168.368,0\H,4,1.10837,2,126.987,1,154.962,0\C,1,1.39192,2,127.932,3,167.859,0\H,6,1.08686,1,111.732,2,-77.6864,0\C,6,1.3627,1,121.693,2,110.749,0\H,8,1.09506,6,125.577,1,158.291,0\C,8,1.42835,6,108.441,1,-17.0451,0\H,10,1.09118,8,124.047,6,159.846,0\C,10,1.34472,8,113.799,6,-12.8411,0\H,12,1.07525,10,129.349,8,154.431,0\\\@

 Total job time:  3161.74s(wall), 9983.84s(cpu) 
 Thu Mar  3 00:45:02 2022

        *************************************************************
        *                                                           *
        *  Thank you very much for using Q-Chem.  Have a nice day.  *
        *                                                           *
        *************************************************************


