
Running Job 1 of 1 qcopt_prd.in
qchem qcopt_prd.in_18209.0 ./qcopt_prd.d/ 1
/home/leeping/opt/qchem/5.0.2-openmp/exe/qcprog.exe_s qcopt_prd.in_18209.0 ./qcopt_prd.d/
Check license passed

                  Welcome to Q-Chem
     A Quantum Leap Into The Future Of Chemistry


 Q-Chem 5.0, Q-Chem, Inc., Pleasanton, CA (2017)

 Yihan Shao,  Zhengting Gan,  E. Epifanovsky,  A. T. B. Gilbert,  M. Wormit,  
 J. Kussmann,  A. W. Lange,  A. Behn,  Jia Deng,  Xintian Feng,  D. Ghosh,  
 M. Goldey,  P. R. Horn,  L. D. Jacobson,  I. Kaliman,  T. Kus,  A. Landau,  
 Jie Liu,  E. I. Proynov,  R. M. Richard,  R. P. Steele,  E. J. Sundstrom,  
 H. L. Woodcock III,  P. M. Zimmerman,  D. Zuev,  B. Albrecht,  E. Alguire,  
 S. A. Baeppler,  D. Barton,  Z. Benda,  Y. A. Bernard,  E. J. Berquist,  
 K. B. Bravaya,  H. Burton,  D. Casanova,  Chun-Min Chang,  Yunqing Chen,  
 A. Chien,  K. D. Closser,  M. P. Coons,  S. Dasgupta,  A. L. Dempwolff,  
 M. Diedenhofen,  Hainam Do,  R. G. Edgar,  Po-Tung Fang,  S. Fatehi,  
 Qingguo Feng,  J. Fosso-Tande,  Qinghui Ge,  A. Ghysels,  G. Gidofalvi,  
 J. Gomes,  J. Gonthier,  A. Gunina,  M. W. D. Hanson-Heine,  
 P. H. P. Harbach,  A. W. Hauser,  J. E. Herr,  E. G. Hohenstein,  
 Z. C. Holden,  Kerwin Hui,  T.-C. Jagau,  Hyunjun Ji,  B. Kaduk,  
 K. Khistyaev,  Jaehoon Kim,  P. Klunzinger,  K. Koh,  D. Kosenkov,  
 L. Koulias,  T. Kowalczyk,  C. M. Krauter,  A. Kunitsa,  Ka Un Lao,  
 A. Laurent,  K. V. Lawler,  Joonho Lee,  D. Lefrancois,  S. Lehtola,  
 D. S. Levine,  Yi-Pei Li,  You-Sheng Lin,  Fenglai Liu,  E. Livshits,  
 A. Luenser,  P. Manohar,  E. Mansoor,  S. F. Manzer,  Shan-Ping Mao,  
 Yuezhi Mao,  N. Mardirossian,  A. V. Marenich,  T. Markovich,  
 L. A. Martinez-Martinez,  S. A. Maurer,  N. J. Mayhall,  S. C. McKenzie,  
 J.-M. Mewes,  A. F. Morrison,  J. W. Mullinax,  K. Nanda,  
 T. S. Nguyen-Beck,  R. Olivares-Amaya,  J. A. Parkhill,  T. M. Perrine,  
 F. Plasser,  S. Prager,  A. Prociuk,  E. Ramos,  D. R. Rehn,  F. Rob,  
 M. Schneider,  N. Sergueev,  S. M. Sharada,  S. Sharma,  D. W. Small,  
 T. Stauch,  T. Stein,  Yu-Chuan Su,  A. J. W. Thom,  A. Tkatchenko,  
 T. Tsuchimochi,  L. Vogt,  O. Vydrov,  M. A. Watson,  J. Wenzel,  
 M. de Wergifosse,  T. A. Wesolowski,  A. White,  J. Witte,  A. Yamada,  
 Jun Yang,  K. Yao,  S. Yeganeh,  S. R. Yost,  Zhi-Qiang You,  A. Zech,  
 Igor Ying Zhang,  Xing Zhang,  Yan Zhao,  Ying Zhu,  B. R. Brooks,  
 G. K. L. Chan,  C. J. Cramer,  M. S. Gordon,  W. J. Hehre,  A. Klamt,  
 M. W. Schmidt,  C. D. Sherrill,  D. G. Truhlar,  A. Aspuru-Guzik,  R. Baer,  
 A. T. Bell,  N. A. Besley,  Jeng-Da Chai,  R. A. DiStasio Jr.,  A. Dreuw,  
 B. D. Dunietz,  T. R. Furlani,  Chao-Ping Hsu,  Yousung Jung,  Jing Kong,  
 D. S. Lambrecht,  WanZhen Liang,  C. Ochsenfeld,  V. A. Rassolov,  
 L. V. Slipchenko,  J. E. Subotnik,  T. Van Voorhis,  J. M. Herbert,  
 A. I. Krylov,  P. M. W. Gill,  M. Head-Gordon

 Contributors to earlier versions of Q-Chem not listed above: 
 R. D. Adamson,  B. Austin,  J. Baker,  G. J. O. Beran,  K. Brandhorst,  
 S. T. Brown,  E. F. C. Byrd,  A. K. Chakraborty,  C.-L. Cheng,  
 Siu Hung Chien,  D. M. Chipman,  D. L. Crittenden,  H. Dachsel,  
 R. J. Doerksen,  A. D. Dutoi,  L. Fusti-Molnar,  W. A. Goddard III,  
 A. Golubeva-Zadorozhnaya,  S. R. Gwaltney,  G. Hawkins,  A. Heyden,  
 S. Hirata,  G. Kedziora,  F. J. Keil,  C. Kelley,  Jihan Kim,  R. A. King,  
 R. Z. Khaliullin,  P. P. Korambath,  W. Kurlancheek,  A. M. Lee,  M. S. Lee,  
 S. V. Levchenko,  Ching Yeh Lin,  D. Liotard,  R. C. Lochan,  I. Lotan,  
 P. E. Maslen,  N. Nair,  D. P. O'Neill,  D. Neuhauser,  E. Neuscamman,  
 C. M. Oana,  R. Olson,  B. Peters,  R. Peverati,  P. A. Pieniazek,  
 Y. M. Rhee,  J. Ritchie,  M. A. Rohrdanz,  E. Rosta,  N. J. Russ,  
 H. F. Schaefer III,  N. E. Schultz,  N. Shenvi,  A. C. Simmonett,  A. Sodt,  
 D. Stuck,  K. S. Thanthiriwatte,  V. Vanovschi,  Tao Wang,  A. Warshel,  
 C. F. Williams,  Q. Wu,  X. Xu,  W. Zhang

 Please cite Q-Chem as follows:
 Y. Shao et al., Mol. Phys. 113, 184-215 (2015)
 DOI: 10.1080/00268976.2014.952696

 Q-Chem 5.0.2 for Intel X86 EM64T Linux

 Parts of Q-Chem use Armadillo 5.200.1 (Boston Tea Smuggler).
 http://arma.sourceforge.net/

 Q-Chem begins on Wed Mar  2 23:51:27 2022  

Host: 
0

     Scratch files written to ./qcopt_prd.d//
 Dec517 15110_ 26548  26544 5633   
Processing $rem in /home/leeping/opt/qchem/5.0.2-openmp/config/preferences.
 MEM_STATIC 2000
 MEM_TOTAL  8000
 SYMMETRY   OFF
 SYM_IGNORE TRUE 

Checking the input file for inconsistencies... 	...done.

--------------------------------------------------------------
User input:
--------------------------------------------------------------
$molecule
0 2
C        1.7130215860    0.1670611838   -0.5032386452
C       -0.1457353605   -1.3324510280    0.1271661948
C       -1.4595308609   -1.1904498549    0.4959694350
C       -1.7522403587    0.2082901400    0.4923175028
C       -0.6074129166    0.8703438361    0.1221443696
N        0.3817456371   -0.0708565300   -0.1040121945
H        2.2842050677   -0.7551109763   -0.6090495923
H        0.4712364460   -2.2113997254    0.0046424563
H       -2.1402562938   -1.9955745949    0.7389927412
H       -2.6992450123    0.6710115068    0.7357928020
H       -0.4039078567    1.9228802981   -0.0047322992
C        2.2844853671    1.3288984671   -0.7431412085
H        2.0736345555    2.3873572776   -0.7528515620
$end

$rem
method                b3lyp
basis                 6-31g(d)
unrestricted          true
symmetry              off
sym_ignore            true
incdft                false
incfock               0
scf_convergence       8
thresh                14
jobtype               opt
scf_guess             core
scf_guess_mix         5
scf_algorithm         diis
max_scf_cycles        100
geom_opt_max_cycles   300
$end

--------------------------------------------------------------
 ----------------------------------------------------------------
             Standard Nuclear Orientation (Angstroms)
    I     Atom           X                Y                Z
 ----------------------------------------------------------------
    1      C       1.7130215860     0.1670611838    -0.5032386452
    2      C      -0.1457353605    -1.3324510280     0.1271661948
    3      C      -1.4595308609    -1.1904498549     0.4959694350
    4      C      -1.7522403587     0.2082901400     0.4923175028
    5      C      -0.6074129166     0.8703438361     0.1221443696
    6      N       0.3817456371    -0.0708565300    -0.1040121945
    7      H       2.2842050677    -0.7551109763    -0.6090495923
    8      H       0.4712364460    -2.2113997254     0.0046424563
    9      H      -2.1402562938    -1.9955745949     0.7389927412
   10      H      -2.6992450123     0.6710115068     0.7357928020
   11      H      -0.4039078567     1.9228802981    -0.0047322992
   12      C       2.2844853671     1.3288984671    -0.7431412085
   13      H       2.0736345555     2.3873572776    -0.7528515620
 ----------------------------------------------------------------
 Nuclear Repulsion Energy =   262.6251386028 hartrees
 There are       25 alpha and       24 beta electrons
 Requested basis set is 6-31G(d)
 There are 40 shells and 117 basis functions

 Total QAlloc Memory Limit   8000 MB
 Mega-Array Size      1956 MB
 MEM_STATIC part      2000 MB
 A cutoff of  1.0D-14 yielded    785 shell pairs
 There are      7007 function pairs
 
 -------------------------------------------------------
 OpenMP Integral Computing Module                       
 Release: version 1.0, May 2013, Q-Chem Inc. Pittsburgh 
 -------------------------------------------------------
 Integral Job Info:
 Integral job number is                      11
 Integral operator is                         1
 short-range coefficients                     0
 long-range coefficients              100000000
 Omega coefficients                           0
 if combine SR and LR in K                    0
 Integral screening is                        0
 Integral computing path is                   2
 max size of driver memory is            800000
 size of driver memory is                593474
 size of scratch memory is              2361544
 max col of scratch BK array               1296
 max len of scratch array in speh3          155
 max len of scratch index in speh4           18
 max int batch size is                      520
 min int batch size is                       52
 fixed nKL is                                52
 max L of basis functions is                  2
 order of int derivative is                   0
 number of shells is                         40
 number of basis is                         117
 number of cartesian basis is               117
 number of contracted shell pairs           785
 number of primitive shell pairs           3333
 maxK2 (contraction) of shell pair           36
 max number of K2 of shell pair               1
 max number of CS2 of shell pair             85
 max number of PS2 of shell pair            390
 mem total for path MDJ                  529068
 -------------------------------------------------------
 Smallest overlap matrix eigenvalue = 9.98E-04

 Scale SEOQF with 1.000000e-01/1.000000e-01/1.000000e+00

 Standard Electronic Orientation quadrupole field applied
 Nucleus-field energy     =    -0.0000000031 hartrees
 Guess MOs from core Hamiltonian diagonalization
 Mixing HOMO and LUMO in initial guess
 Adding  50% of the LUMO to the HOMO
 An unrestricted hybrid HF-DFT SCF calculation will be
 performed using Pulay DIIS extrapolation
 Exchange:     0.2000 Hartree-Fock + 0.0800 Slater + 0.7200 B88
 Correlation:  0.1900 VWN1RPA + 0.8100 LYP
 Using SG-1 standard quadrature grid
 SCF converges when DIIS error is below 1.0E-08
 using 4 threads for integral computing
 -------------------------------------------------------
 OpenMP Integral computing Module                
 Release: version 1.0, May 2013, Q-Chem Inc. Pittsburgh 
 -------------------------------------------------------
 -------------------------------------------------------
 OpenMP BLAS3 based DFT computing Module                
 Release: version 1.0, May 2013, Q-Chem Inc. Pittsburgh 
 -------------------------------------------------------
 ---------------------------------------
  Cycle       Energy         DIIS Error
 ---------------------------------------
    1    -222.5009814008      1.50E-01
    2    -184.6605578279      1.39E-01
    3    -242.5878247717      1.15E-01
    4    -250.3395929351      1.12E-01
    5    -276.6897987726      4.80E-02
    6    -281.8155477930      4.12E-02
    7    -286.7220044728      7.77E-03
    8    -286.8276213801      4.85E-03
    9    -286.8554245765      2.56E-03
   10    -286.8671918693      1.18E-03
   11    -286.8703836991      4.51E-04
   12    -286.8706991349      1.68E-04
   13    -286.8707726878      3.98E-05
   14    -286.8707800044      1.53E-05
   15    -286.8707825391      5.45E-06
   16    -286.8707839982      1.30E-06
   17    -286.8707847860      6.29E-07
   18    -286.8707852328      4.10E-07
   19    -286.8707854269      2.04E-07
   20    -286.8707854439      4.24E-08
   21    -286.8707854440      7.32E-09 Convergence criterion met
 ---------------------------------------
 <S^2> = 0.7624
 SCF time:  CPU 48.00 s  wall 13.56 s
 SCF   energy in the final basis set = -286.87078544
 Total energy in the final basis set = -286.87078544
 
 --------------------------------------------------------------
 
                    Orbital Energies (a.u.)
 --------------------------------------------------------------
 
 Alpha MOs
 -- Occupied --
-14.394 -10.241 -10.214 -10.206 -10.204 -10.173 -10.172  -0.989
 -0.817  -0.737  -0.722  -0.618  -0.574  -0.547  -0.533  -0.459
 -0.436  -0.425  -0.415  -0.386  -0.376  -0.304  -0.255  -0.226
 -0.213
 -- Virtual --
 -0.008   0.074   0.089   0.100   0.114   0.138   0.172   0.174
  0.180   0.217   0.234   0.276   0.339   0.353   0.405   0.462
  0.506   0.513   0.539   0.546   0.560   0.574   0.587   0.597
  0.607   0.617   0.620   0.647   0.672   0.703   0.801   0.819
  0.836   0.850   0.852   0.854   0.876   0.901   0.929   0.948
  0.984   1.018   1.078   1.138   1.186   1.233   1.272   1.345
  1.384   1.385   1.459   1.475   1.493   1.508   1.541   1.549
  1.670   1.692   1.805   1.843   1.887   1.982   2.000   2.001
  2.071   2.084   2.175   2.194   2.209   2.248   2.287   2.300
  2.330   2.335   2.529   2.577   2.592   2.630   2.670   2.717
  2.742   2.866   3.042   3.095   3.200   3.966   4.062   4.121
  4.170   4.274   4.471   4.481
 
 Beta MOs
 -- Occupied --
-14.393 -10.243 -10.206 -10.204 -10.199 -10.173 -10.172  -0.987
 -0.812  -0.726  -0.718  -0.605  -0.571  -0.545  -0.524  -0.452
 -0.432  -0.425  -0.412  -0.385  -0.375  -0.301  -0.217  -0.213
 -- Virtual --
 -0.086   0.000   0.076   0.089   0.106   0.117   0.141   0.172
  0.175   0.184   0.221   0.238   0.281   0.345   0.355   0.413
  0.469   0.507   0.522   0.541   0.552   0.566   0.587   0.597
  0.608   0.620   0.625   0.628   0.650   0.671   0.703   0.804
  0.821   0.839   0.852   0.854   0.855   0.884   0.912   0.930
  0.949   0.988   1.027   1.085   1.140   1.187   1.238   1.273
  1.346   1.384   1.387   1.465   1.477   1.501   1.511   1.544
  1.551   1.718   1.736   1.827   1.858   1.895   1.984   2.003
  2.009   2.076   2.091   2.178   2.198   2.211   2.248   2.292
  2.305   2.332   2.338   2.529   2.586   2.593   2.652   2.671
  2.717   2.746   2.869   3.043   3.097   3.206   3.968   4.094
  4.122   4.170   4.277   4.471   4.483
 --------------------------------------------------------------
 
          Ground-State Mulliken Net Atomic Charges

     Atom                 Charge (a.u.)    Spin (a.u.)
  --------------------------------------------------------
      1 C                     0.045888      -0.142959
      2 C                     0.029320       0.001749
      3 C                    -0.192573      -0.004835
      4 C                    -0.186210      -0.008493
      5 C                     0.035679       0.000807
      6 N                    -0.403190       0.042120
      7 H                     0.163460       0.034887
      8 H                     0.146957       0.000213
      9 H                     0.129568       0.001769
     10 H                     0.129514       0.001033
     11 H                     0.145456       0.001086
     12 C                    -0.213733       1.079519
     13 H                     0.169865      -0.006896
  --------------------------------------------------------
  Sum of atomic charges =    -0.000000
  Sum of spin   charges =     1.000000

 -----------------------------------------------------------------
                    Cartesian Multipole Moments
 -----------------------------------------------------------------
    Charge (ESU x 10^10)
                -0.0000
    Dipole Moment (Debye)
         X       0.4134      Y       0.1122      Z      -0.1327
       Tot       0.4484
    Quadrupole Moments (Debye-Ang)
        XX     -40.1301     XY      -1.2084     YY     -34.6730
        XZ      -1.2860     YZ      -0.3017     ZZ     -44.4800
    Octopole Moments (Debye-Ang^2)
       XXX     -18.1013    XXY      -4.5541    XYY       1.3929
       YYY       4.4457    XXZ       4.3126    XYZ       1.0241
       YYZ      -0.7657    XZZ      -3.1096    YZZ      -0.3299
       ZZZ       1.9835
    Hexadecapole Moments (Debye-Ang^3)
      XXXX    -575.1634   XXXY     -90.8741   XXYY    -131.1574
      XYYY     -63.1937   YYYY    -260.6640   XXXZ      73.1838
      XXYZ      10.5243   XYYZ      19.7602   YYYZ      22.5909
      XXZZ    -118.1033   XYZZ     -28.1371   YYZZ     -69.3489
      XZZZ      89.1455   YZZZ      33.8092   ZZZZ    -102.0481
 -----------------------------------------------------------------
 Calculating analytic gradient of the SCF energy
 Gradient of SCF Energy
            1           2           3           4           5           6
    1  -0.0001131  -0.0001862   0.0001368   0.0001070   0.0000655   0.0000387
    2   0.0002961   0.0000390   0.0002149   0.0000264   0.0001935   0.0002115
    3   0.0000840   0.0000614   0.0001891  -0.0000905   0.0001068  -0.0001437
            7           8           9          10          11          12
    1   0.0001987   0.0000229  -0.0002220  -0.0000272   0.0000010   0.0000074
    2  -0.0002075  -0.0000941  -0.0001927  -0.0001721  -0.0001413  -0.0003448
    3  -0.0001221   0.0000143  -0.0000769   0.0000498  -0.0000741   0.0000848
           13
    1  -0.0000297
    2   0.0001712
    3  -0.0000831
 Max gradient component =       3.448E-04
 RMS gradient           =       1.441E-04
 Gradient time:  CPU 7.11 s  wall 1.89 s
 Geometry Optimization Parameters
   NAtoms,    NIC,     NZ,  NCons,   NDum,   NFix, NCnnct, MaxDiis
       13      84       0       0       0       0       0       0


** GEOMETRY OPTIMIZATION IN DELOCALIZED INTERNAL COORDINATES **
   Searching for a Minimum

   Optimization Cycle:   1

                       Coordinates (Angstroms)
     ATOM                X               Y               Z
      1  C         1.7130215860    0.1670611838   -0.5032386452
      2  C        -0.1457353605   -1.3324510280    0.1271661948
      3  C        -1.4595308609   -1.1904498549    0.4959694350
      4  C        -1.7522403587    0.2082901400    0.4923175028
      5  C        -0.6074129166    0.8703438361    0.1221443696
      6  N         0.3817456371   -0.0708565300   -0.1040121945
      7  H         2.2842050677   -0.7551109763   -0.6090495923
      8  H         0.4712364460   -2.2113997254    0.0046424563
      9  H        -2.1402562938   -1.9955745949    0.7389927412
     10  H        -2.6992450123    0.6710115068    0.7357928020
     11  H        -0.4039078567    1.9228802981   -0.0047322992
     12  C         2.2844853671    1.3288984671   -0.7431412085
     13  H         2.0736345555    2.3873572776   -0.7528515620
   Point Group: c1    Number of degrees of freedom:    33


   Energy is   -286.870785444


 Attempting to Generate Delocalized Internal Coordinates

 33 Hessian modes will be used to form the next step
  Hessian Eigenvalues:
     0.014314    0.016626    0.019040    0.020469    0.021261    0.022234
     0.022359    0.022877    0.023900    0.033411    0.159998    0.159999
     0.160000    0.160000    0.160000    0.160000    0.220000    0.220000
     0.231808    0.250000    0.348260    0.357566    0.357823    0.358929
     0.360534    0.360791    0.385188    0.433207    0.439924    0.457061
     0.489173    0.503104    0.627327

 Minimum Search - Taking Simple RFO Step
 Searching for Lamda that Minimizes Along All modes
 Value Taken    Lamda =  -0.00000295
 Step Taken.  Stepsize is  0.008249

                             Maximum     Tolerance    Cnvgd?
         Gradient           0.000390      0.000300      NO
         Displacement       0.004234      0.001200      NO
         Energy change     *********      0.000001      NO


 New Cartesian Coordinates Obtained by Inverse Iteration

 Displacement from previous Coordinates is:  0.008416
 ----------------------------------------------------------------
             Standard Nuclear Orientation (Angstroms)
    I     Atom           X                Y                Z
 ----------------------------------------------------------------
    1      C       1.7127976984     0.1668762872    -0.5037628183
    2      C      -0.1458216155    -1.3328588926     0.1259869284
    3      C      -1.4595071657    -1.1905668327     0.4953649679
    4      C      -1.7523553533     0.2083098306     0.4917537322
    5      C      -0.6076116705     0.8699028836     0.1209077921
    6      N       0.3815465753    -0.0713693382    -0.1048603672
    7      H       2.2839494543    -0.7549891433    -0.6079382730
    8      H       0.4713714123    -2.2115594460     0.0039880046
    9      H      -2.1390950243    -1.9952119605     0.7413822588
   10      H      -2.6985730214     0.6723816396     0.7359858135
   11      H      -0.4037974264     1.9227222901    -0.0047666169
   12      C       2.2841551963     1.3291217047    -0.7426541358
   13      H       2.0729409403     2.3872409773    -0.7513872863
 ----------------------------------------------------------------
 Nuclear Repulsion Energy =   262.6365884199 hartrees
 There are       25 alpha and       24 beta electrons
 Applying Cartesian multipole field
    Component          Value
    ---------          -----
     (2,0,0)        1.00000E-11
     (0,2,0)        2.00000E-11
     (0,0,2)       -3.00000E-10
 Nucleus-field energy     =    -0.0000000031 hartrees
 Requested basis set is 6-31G(d)
 There are 40 shells and 117 basis functions
 A cutoff of  1.0D-14 yielded    785 shell pairs
 There are      7007 function pairs
 Smallest overlap matrix eigenvalue = 9.98E-04
 Guess MOs from SCF MO coefficient file
 Reading MOs from coefficient file
 Mixing HOMO and LUMO in initial guess
 Adding  50% of the LUMO to the HOMO
 Reading MOs from coefficient file
 An unrestricted hybrid HF-DFT SCF calculation will be
 performed using Pulay DIIS extrapolation
 Exchange:     0.2000 Hartree-Fock + 0.0800 Slater + 0.7200 B88
 Correlation:  0.1900 VWN1RPA + 0.8100 LYP
 Using SG-1 standard quadrature grid
 SCF converges when DIIS error is below 1.0E-08
 Geometry optimization detected.  Setting ReadMinima to 0
 Setting SaveMinima to 0
 using 4 threads for integral computing
 -------------------------------------------------------
 OpenMP Integral computing Module                
 Release: version 1.0, May 2013, Q-Chem Inc. Pittsburgh 
 -------------------------------------------------------
 -------------------------------------------------------
 OpenMP BLAS3 based DFT computing Module                
 Release: version 1.0, May 2013, Q-Chem Inc. Pittsburgh 
 -------------------------------------------------------
 ---------------------------------------
  Cycle       Energy         DIIS Error
 ---------------------------------------
    1    -286.8306572036      2.18E-03
    2    -286.8303492674      4.69E-03
    3    -286.8684019997      8.42E-04
    4    -286.8700319095      4.42E-04
    5    -286.8705703312      7.41E-05
    6    -286.8706780950      4.98E-05
    7    -286.8707257229      1.32E-05
    8    -286.8707523684      5.87E-06
    9    -286.8707664476      1.83E-06
   10    -286.8707759806      8.39E-07
   11    -286.8707826224      4.29E-07
   12    -286.8707860285      2.41E-07
   13    -286.8707869081      9.09E-08
   14    -286.8707869856      2.24E-08
   15    -286.8707869876      1.20E-08
   16    -286.8707869878      3.55E-09 Convergence criterion met
 ---------------------------------------
 <S^2> = 0.7624
 SCF time:  CPU 37.53 s  wall 11.13 s
 SCF   energy in the final basis set = -286.87078699
 Total energy in the final basis set = -286.87078699
 
 --------------------------------------------------------------
 
                    Orbital Energies (a.u.)
 --------------------------------------------------------------
 
 Alpha MOs
 -- Occupied --
-14.394 -10.241 -10.214 -10.206 -10.204 -10.173 -10.172  -0.989
 -0.817  -0.737  -0.722  -0.618  -0.574  -0.547  -0.533  -0.459
 -0.436  -0.425  -0.415  -0.386  -0.376  -0.304  -0.255  -0.226
 -0.213
 -- Virtual --
 -0.008   0.074   0.089   0.100   0.114   0.139   0.172   0.174
  0.180   0.217   0.234   0.276   0.339   0.353   0.405   0.462
  0.506   0.513   0.539   0.546   0.560   0.574   0.587   0.597
  0.607   0.617   0.620   0.647   0.672   0.703   0.801   0.819
  0.836   0.850   0.852   0.854   0.876   0.901   0.929   0.948
  0.985   1.018   1.078   1.139   1.186   1.233   1.272   1.345
  1.384   1.385   1.459   1.475   1.493   1.508   1.541   1.549
  1.670   1.692   1.805   1.844   1.887   1.982   2.000   2.001
  2.071   2.084   2.175   2.194   2.209   2.248   2.287   2.300
  2.330   2.335   2.529   2.577   2.592   2.630   2.670   2.717
  2.742   2.866   3.042   3.095   3.200   3.967   4.062   4.121
  4.170   4.274   4.471   4.481
 
 Beta MOs
 -- Occupied --
-14.393 -10.243 -10.206 -10.204 -10.199 -10.173 -10.172  -0.987
 -0.812  -0.726  -0.718  -0.605  -0.571  -0.545  -0.524  -0.452
 -0.432  -0.425  -0.413  -0.385  -0.375  -0.301  -0.217  -0.213
 -- Virtual --
 -0.086   0.000   0.076   0.089   0.107   0.117   0.141   0.173
  0.175   0.184   0.221   0.238   0.281   0.345   0.355   0.413
  0.469   0.507   0.522   0.541   0.552   0.566   0.587   0.597
  0.608   0.620   0.625   0.628   0.650   0.671   0.703   0.804
  0.821   0.839   0.852   0.854   0.855   0.884   0.912   0.930
  0.949   0.989   1.027   1.085   1.140   1.187   1.238   1.273
  1.346   1.384   1.387   1.465   1.477   1.501   1.511   1.544
  1.551   1.718   1.736   1.827   1.858   1.895   1.984   2.003
  2.009   2.076   2.091   2.178   2.198   2.211   2.248   2.292
  2.305   2.332   2.338   2.529   2.586   2.593   2.652   2.671
  2.717   2.746   2.869   3.042   3.097   3.206   3.968   4.094
  4.122   4.171   4.277   4.471   4.483
 --------------------------------------------------------------
 
          Ground-State Mulliken Net Atomic Charges

     Atom                 Charge (a.u.)    Spin (a.u.)
  --------------------------------------------------------
      1 C                     0.045948      -0.142983
      2 C                     0.029380       0.001778
      3 C                    -0.192820      -0.004869
      4 C                    -0.186086      -0.008474
      5 C                     0.035685       0.000791
      6 N                    -0.403113       0.042113
      7 H                     0.163418       0.034828
      8 H                     0.147006       0.000211
      9 H                     0.129516       0.001773
     10 H                     0.129540       0.001029
     11 H                     0.145440       0.001084
     12 C                    -0.213779       1.079643
     13 H                     0.169865      -0.006925
  --------------------------------------------------------
  Sum of atomic charges =    -0.000000
  Sum of spin   charges =     1.000000

 -----------------------------------------------------------------
                    Cartesian Multipole Moments
 -----------------------------------------------------------------
    Charge (ESU x 10^10)
                 0.0000
    Dipole Moment (Debye)
         X       0.4149      Y       0.1127      Z      -0.1272
       Tot       0.4483
    Quadrupole Moments (Debye-Ang)
        XX     -40.1365     XY      -1.2164     YY     -34.6728
        XZ      -1.2880     YZ      -0.3018     ZZ     -44.4771
    Octopole Moments (Debye-Ang^2)
       XXX     -18.0563    XXY      -4.5335    XYY       1.4009
       YYY       4.4623    XXZ       4.3575    XYZ       1.0342
       YYZ      -0.7226    XZZ      -3.1192    YZZ      -0.3337
       ZZZ       2.0608
    Hexadecapole Moments (Debye-Ang^3)
      XXXX    -575.1045   XXXY     -90.9082   XXYY    -131.1665
      XYYY     -63.2122   YYYY    -260.7030   XXXZ      73.1376
      XXYZ      10.5173   XYYZ      19.7399   YYYZ      22.5726
      XXZZ    -118.0710   XYZZ     -28.1279   YYZZ     -69.3402
      XZZZ      89.0826   YZZZ      33.7773   ZZZZ    -101.9794
 -----------------------------------------------------------------
 Calculating analytic gradient of the SCF energy
 Gradient of SCF Energy
            1           2           3           4           5           6
    1  -0.0000703  -0.0000017   0.0000429   0.0000247  -0.0000480   0.0000285
    2  -0.0000177  -0.0000648   0.0000334   0.0000948  -0.0000023  -0.0000136
    3  -0.0000500  -0.0000899   0.0001135  -0.0000708   0.0000278   0.0000320
            7           8           9          10          11          12
    1   0.0000032   0.0000016  -0.0000047  -0.0000139   0.0000091   0.0000195
    2  -0.0000042   0.0000001   0.0000252  -0.0000325   0.0000017  -0.0000006
    3  -0.0000028   0.0000255  -0.0000267   0.0000576  -0.0000364   0.0000696
           13
    1   0.0000091
    2  -0.0000195
    3  -0.0000494
 Max gradient component =       1.135E-04
 RMS gradient           =       4.289E-05
 Gradient time:  CPU 7.52 s  wall 2.85 s
 Geometry Optimization Parameters
   NAtoms,    NIC,     NZ,  NCons,   NDum,   NFix, NCnnct, MaxDiis
       13      84       0       0       0       0       0       0

 Cartesian Hessian Update
 Hessian Updated using BFGS Update


** GEOMETRY OPTIMIZATION IN DELOCALIZED INTERNAL COORDINATES **
   Searching for a Minimum

   Optimization Cycle:   2

                       Coordinates (Angstroms)
     ATOM                X               Y               Z
      1  C         1.7127976984    0.1668762872   -0.5037628183
      2  C        -0.1458216155   -1.3328588926    0.1259869284
      3  C        -1.4595071657   -1.1905668327    0.4953649679
      4  C        -1.7523553533    0.2083098306    0.4917537322
      5  C        -0.6076116705    0.8699028836    0.1209077921
      6  N         0.3815465753   -0.0713693382   -0.1048603672
      7  H         2.2839494543   -0.7549891433   -0.6079382730
      8  H         0.4713714123   -2.2115594460    0.0039880046
      9  H        -2.1390950243   -1.9952119605    0.7413822588
     10  H        -2.6985730214    0.6723816396    0.7359858135
     11  H        -0.4037974264    1.9227222901   -0.0047666169
     12  C         2.2841551963    1.3291217047   -0.7426541358
     13  H         2.0729409403    2.3872409773   -0.7513872863
   Point Group: c1    Number of degrees of freedom:    33


   Energy is   -286.870786988

 Hessian Updated using BFGS Update

 30 Hessian modes will be used to form the next step
  Hessian Eigenvalues:
     0.014078    0.016039    0.017341    0.020108    0.020958    0.021675
     0.022592    0.023716    0.027350    0.032695    0.145284    0.159999
     0.160670    0.219309    0.224776    0.235682    0.249329    0.349062
     0.357760    0.358736    0.359532    0.360603    0.368957    0.386014
     0.433187    0.442549    0.455952    0.496043    0.505361    0.628018

 Minimum Search - Taking Simple RFO Step
 Searching for Lamda that Minimizes Along All modes
 Value Taken    Lamda =   0.00000000
 Step Taken.  Stepsize is  0.004859

                             Maximum     Tolerance    Cnvgd?
         Gradient           0.000077      0.000300     YES
         Displacement       0.002931      0.001200      NO
         Energy change     -0.000002      0.000001      NO


 New Cartesian Coordinates Obtained by Inverse Iteration

 Displacement from previous Coordinates is:  0.005888
 ----------------------------------------------------------------
             Standard Nuclear Orientation (Angstroms)
    I     Atom           X                Y                Z
 ----------------------------------------------------------------
    1      C       1.7129564614     0.1668558846    -0.5035963917
    2      C      -0.1456953885    -1.3328549554     0.1265314287
    3      C      -1.4597846519    -1.1907208554     0.4946138501
    4      C      -1.7523410790     0.2082354119     0.4916174965
    5      C      -0.6072744821     0.8698111231     0.1216488075
    6      N       0.3817814852    -0.0714452832    -0.1043298441
    7      H       2.2839793979    -0.7549782642    -0.6079733316
    8      H       0.4714861713    -2.2115338365     0.0045454748
    9      H      -2.1392854434    -1.9953493493     0.7407638569
   10      H      -2.6984662687     0.6729001337     0.7350640688
   11      H      -0.4032597937     1.9227371105    -0.0030320463
   12      C       2.2837670629     1.3291686770    -0.7435910204
   13      H       2.0721365285     2.3871742033    -0.7522623491
 ----------------------------------------------------------------
 Nuclear Repulsion Energy =   262.6372744644 hartrees
 There are       25 alpha and       24 beta electrons
 Applying Cartesian multipole field
    Component          Value
    ---------          -----
     (2,0,0)        1.00000E-11
     (0,2,0)        2.00000E-11
     (0,0,2)       -3.00000E-10
 Nucleus-field energy     =    -0.0000000031 hartrees
 Requested basis set is 6-31G(d)
 There are 40 shells and 117 basis functions
 A cutoff of  1.0D-14 yielded    785 shell pairs
 There are      7007 function pairs
 Smallest overlap matrix eigenvalue = 9.98E-04
 Guess MOs from SCF MO coefficient file
 Reading MOs from coefficient file
 Mixing HOMO and LUMO in initial guess
 Adding  50% of the LUMO to the HOMO
 Reading MOs from coefficient file
 An unrestricted hybrid HF-DFT SCF calculation will be
 performed using Pulay DIIS extrapolation
 Exchange:     0.2000 Hartree-Fock + 0.0800 Slater + 0.7200 B88
 Correlation:  0.1900 VWN1RPA + 0.8100 LYP
 Using SG-1 standard quadrature grid
 SCF converges when DIIS error is below 1.0E-08
 Geometry optimization detected.  Setting ReadMinima to 0
 Setting SaveMinima to 0
 using 4 threads for integral computing
 -------------------------------------------------------
 OpenMP Integral computing Module                
 Release: version 1.0, May 2013, Q-Chem Inc. Pittsburgh 
 -------------------------------------------------------
 -------------------------------------------------------
 OpenMP BLAS3 based DFT computing Module                
 Release: version 1.0, May 2013, Q-Chem Inc. Pittsburgh 
 -------------------------------------------------------
 ---------------------------------------
  Cycle       Energy         DIIS Error
 ---------------------------------------
    1    -286.8303750974      2.18E-03
    2    -286.8303879483      4.69E-03
    3    -286.8684018196      8.42E-04
    4    -286.8700315836      4.43E-04
    5    -286.8705705403      7.42E-05
    6    -286.8706783022      4.99E-05
    7    -286.8707259465      1.32E-05
    8    -286.8707525756      5.87E-06
    9    -286.8707666809      1.84E-06
   10    -286.8707762154      8.39E-07
   11    -286.8707828661      4.29E-07
   12    -286.8707862648      2.42E-07
   13    -286.8707871443      9.09E-08
   14    -286.8707872210      2.23E-08
   15    -286.8707872230      1.20E-08
   16    -286.8707872231      3.47E-09 Convergence criterion met
 ---------------------------------------
 <S^2> = 0.7624
 SCF time:  CPU 38.38 s  wall 13.21 s
 SCF   energy in the final basis set = -286.87078722
 Total energy in the final basis set = -286.87078722
 
 --------------------------------------------------------------
 
                    Orbital Energies (a.u.)
 --------------------------------------------------------------
 
 Alpha MOs
 -- Occupied --
-14.394 -10.241 -10.214 -10.206 -10.204 -10.173 -10.172  -0.989
 -0.817  -0.737  -0.722  -0.618  -0.574  -0.547  -0.533  -0.459
 -0.436  -0.425  -0.415  -0.386  -0.376  -0.304  -0.255  -0.226
 -0.213
 -- Virtual --
 -0.008   0.074   0.089   0.100   0.114   0.139   0.172   0.174
  0.180   0.217   0.234   0.276   0.339   0.353   0.405   0.462
  0.506   0.513   0.539   0.546   0.560   0.574   0.587   0.597
  0.607   0.617   0.620   0.647   0.672   0.703   0.801   0.819
  0.836   0.850   0.852   0.854   0.876   0.901   0.929   0.949
  0.985   1.018   1.078   1.139   1.186   1.233   1.272   1.345
  1.385   1.385   1.459   1.475   1.493   1.508   1.541   1.549
  1.670   1.692   1.805   1.844   1.887   1.982   2.001   2.001
  2.071   2.084   2.175   2.194   2.209   2.248   2.287   2.300
  2.330   2.335   2.529   2.577   2.592   2.630   2.670   2.717
  2.742   2.866   3.042   3.095   3.200   3.967   4.062   4.121
  4.170   4.274   4.471   4.481
 
 Beta MOs
 -- Occupied --
-14.393 -10.243 -10.206 -10.204 -10.199 -10.173 -10.172  -0.987
 -0.812  -0.726  -0.718  -0.605  -0.571  -0.545  -0.524  -0.452
 -0.432  -0.425  -0.413  -0.385  -0.375  -0.301  -0.217  -0.213
 -- Virtual --
 -0.086   0.000   0.076   0.089   0.107   0.117   0.141   0.173
  0.175   0.184   0.221   0.238   0.281   0.345   0.355   0.413
  0.469   0.507   0.522   0.541   0.552   0.566   0.587   0.597
  0.608   0.620   0.625   0.628   0.650   0.671   0.703   0.804
  0.821   0.839   0.852   0.854   0.855   0.884   0.912   0.930
  0.949   0.989   1.027   1.085   1.140   1.187   1.238   1.273
  1.346   1.384   1.387   1.465   1.477   1.501   1.511   1.544
  1.551   1.718   1.736   1.827   1.858   1.895   1.984   2.003
  2.009   2.076   2.091   2.178   2.198   2.211   2.248   2.292
  2.305   2.332   2.338   2.529   2.586   2.593   2.652   2.671
  2.717   2.746   2.869   3.042   3.097   3.206   3.968   4.094
  4.122   4.171   4.277   4.471   4.483
 --------------------------------------------------------------
 
          Ground-State Mulliken Net Atomic Charges

     Atom                 Charge (a.u.)    Spin (a.u.)
  --------------------------------------------------------
      1 C                     0.045978      -0.142990
      2 C                     0.029357       0.001779
      3 C                    -0.192831      -0.004870
      4 C                    -0.186083      -0.008475
      5 C                     0.035681       0.000793
      6 N                    -0.403086       0.042122
      7 H                     0.163424       0.034808
      8 H                     0.146989       0.000211
      9 H                     0.129529       0.001773
     10 H                     0.129527       0.001029
     11 H                     0.145424       0.001084
     12 C                    -0.213781       1.079659
     13 H                     0.169872      -0.006924
  --------------------------------------------------------
  Sum of atomic charges =    -0.000000
  Sum of spin   charges =     1.000000

 -----------------------------------------------------------------
                    Cartesian Multipole Moments
 -----------------------------------------------------------------
    Charge (ESU x 10^10)
                 0.0000
    Dipole Moment (Debye)
         X       0.4156      Y       0.1130      Z      -0.1264
       Tot       0.4488
    Quadrupole Moments (Debye-Ang)
        XX     -40.1359     XY      -1.2171     YY     -34.6726
        XZ      -1.2854     YZ      -0.3006     ZZ     -44.4787
    Octopole Moments (Debye-Ang^2)
       XXX     -18.0543    XXY      -4.5348    XYY       1.3954
       YYY       4.4667    XXZ       4.3532    XYZ       1.0339
       YYZ      -0.7184    XZZ      -3.1169    YZZ      -0.3319
       ZZZ       2.0594
    Hexadecapole Moments (Debye-Ang^3)
      XXXX    -575.0506   XXXY     -90.9201   XXYY    -131.1666
      XYYY     -63.2203   YYYY    -260.7194   XXXZ      73.1721
      XXYZ      10.5234   XYYZ      19.7396   YYYZ      22.5815
      XXZZ    -118.0797   XYZZ     -28.1287   YYZZ     -69.3425
      XZZZ      89.0994   YZZZ      33.7855   ZZZZ    -102.0007
 -----------------------------------------------------------------
 Calculating analytic gradient of the SCF energy
 Gradient of SCF Energy
            1           2           3           4           5           6
    1  -0.0000058   0.0000285  -0.0000280  -0.0000011  -0.0000035  -0.0000038
    2  -0.0000530  -0.0000127  -0.0000396   0.0000395  -0.0000324  -0.0000377
    3  -0.0000116   0.0000407  -0.0000039  -0.0000130   0.0000591  -0.0000816
            7           8           9          10          11          12
    1  -0.0000417  -0.0000048   0.0000172   0.0000055   0.0000133   0.0000141
    2   0.0000245   0.0000221   0.0000439   0.0000149   0.0000229   0.0000511
    3  -0.0000161   0.0000307  -0.0000061   0.0000238  -0.0000123   0.0000291
           13
    1   0.0000100
    2  -0.0000435
    3  -0.0000389
 Max gradient component =       8.160E-05
 RMS gradient           =       3.101E-05
 Gradient time:  CPU 6.97 s  wall 1.90 s
 Geometry Optimization Parameters
   NAtoms,    NIC,     NZ,  NCons,   NDum,   NFix, NCnnct, MaxDiis
       13      84       0       0       0       0       0       0

 Cartesian Hessian Update
 Hessian Updated using BFGS Update


** GEOMETRY OPTIMIZATION IN DELOCALIZED INTERNAL COORDINATES **
   Searching for a Minimum

   Optimization Cycle:   3

                       Coordinates (Angstroms)
     ATOM                X               Y               Z
      1  C         1.7129564614    0.1668558846   -0.5035963917
      2  C        -0.1456953885   -1.3328549554    0.1265314287
      3  C        -1.4597846519   -1.1907208554    0.4946138501
      4  C        -1.7523410790    0.2082354119    0.4916174965
      5  C        -0.6072744821    0.8698111231    0.1216488075
      6  N         0.3817814852   -0.0714452832   -0.1043298441
      7  H         2.2839793979   -0.7549782642   -0.6079733316
      8  H         0.4714861713   -2.2115338365    0.0045454748
      9  H        -2.1392854434   -1.9953493493    0.7407638569
     10  H        -2.6984662687    0.6729001337    0.7350640688
     11  H        -0.4032597937    1.9227371105   -0.0030320463
     12  C         2.2837670629    1.3291686770   -0.7435910204
     13  H         2.0721365285    2.3871742033   -0.7522623491
   Point Group: c1    Number of degrees of freedom:    33


   Energy is   -286.870787223

 Hessian Updated using BFGS Update

 32 Hessian modes will be used to form the next step
  Hessian Eigenvalues:
     0.010279    0.015126    0.018263    0.020697    0.021449    0.021699
     0.022887    0.023885    0.031616    0.039733    0.145145    0.159999
     0.160000    0.160156    0.161106    0.218469    0.223362    0.235487
     0.250624    0.350520    0.357853    0.358947    0.359517    0.360613
     0.370821    0.387983    0.433407    0.439795    0.456153    0.492963
     0.503621    0.629273

 Minimum Search - Taking Simple RFO Step
 Searching for Lamda that Minimizes Along All modes
 Value Taken    Lamda =   0.00000000
 Step Taken.  Stepsize is  0.003455

                             Maximum     Tolerance    Cnvgd?
         Gradient           0.000059      0.000300     YES
         Displacement       0.001874      0.001200      NO
         Energy change     -0.000000      0.000001     YES


                       Distance Matrix (Angstroms)
             C (  1)   C (  2)   C (  3)   C (  4)   C (  5)   N (  6)
   C (  2)  2.469976
   C (  3)  3.592454  1.372049
   C (  4)  3.605614  2.256005  1.429222
   C (  5)  2.503707  2.250515  2.260900  1.373221
   N (  6)  1.410045  1.386609  2.236711  2.233350  1.383930
   H (  7)  1.089376  2.603221  3.927001  4.292874  3.395827  2.083082
   H (  8)  2.730603  1.080680  2.238757  3.322338  3.266822  2.144733
   H (  9)  4.589481  2.188740  1.081544  2.251130  3.307492  3.281976
   H ( 10)  4.609882  3.303030  2.250607  1.081819  2.188181  3.278194
   H ( 11)  2.795005  3.268334  3.325284  2.237010  1.079732  2.145534
   C ( 12)  1.316964  3.707529  4.679442  4.367196  3.052502  2.447023
   H ( 13)  2.262887  4.419239  5.179817  4.574018  3.200837  3.053183
             H (  7)   H (  8)   H (  9)   H ( 10)   H ( 11)   C ( 12)
   H (  8)  2.404551
   H (  9)  4.787785  2.721191
   H ( 10)  5.354190  4.347668  2.726219
   H ( 11)  3.841532  4.225806  4.349531  2.715668
   C ( 12)  2.088555  4.047301  5.728798  5.238297  2.849713
   H ( 13)  3.152589  4.927774  6.258731  5.282947  2.627667  1.078999

 
 Final energy is   -286.870787223119     


 ******************************
 **  OPTIMIZATION CONVERGED  **
 ******************************

                       Coordinates (Angstroms)
     ATOM                X               Y               Z
      1  C         1.7129564614    0.1668558846   -0.5035963917
      2  C        -0.1456953885   -1.3328549554    0.1265314287
      3  C        -1.4597846519   -1.1907208554    0.4946138501
      4  C        -1.7523410790    0.2082354119    0.4916174965
      5  C        -0.6072744821    0.8698111231    0.1216488075
      6  N         0.3817814852   -0.0714452832   -0.1043298441
      7  H         2.2839793979   -0.7549782642   -0.6079733316
      8  H         0.4714861713   -2.2115338365    0.0045454748
      9  H        -2.1392854434   -1.9953493493    0.7407638569
     10  H        -2.6984662687    0.6729001337    0.7350640688
     11  H        -0.4032597937    1.9227371105   -0.0030320463
     12  C         2.2837670629    1.3291686770   -0.7435910204
     13  H         2.0721365285    2.3871742033   -0.7522623491

Z-matrix Print:
$molecule
0 2
N 
C  1 1.383930
H  2 1.079732 1 120.620914
C  2 1.373221 1 108.195342 3 179.945766 0
H  4 1.081819 2 125.659057 1 179.980000 0
C  1 1.386609 2 108.642947 3 -179.998102 0
H  6 1.080680 1 120.239715 2 -179.953049 0
C  6 1.372049 1 108.346619 2 0.064156 0
H  8 1.081544 6 125.853620 1 -179.970905 0
C  1 1.410045 2 127.300062 3 -0.044016 0
H  10 1.089376 1 112.270188 2 179.881421 0
C  10 1.316964 1 127.585384 2 -0.094303 0
H  12 1.078999 10 141.430464 1 -0.084786 0
$end

 
 --------------------------------------------------------------
 
                    Orbital Energies (a.u.)
 --------------------------------------------------------------
 
 Alpha MOs
 -- Occupied --
-14.394 -10.241 -10.214 -10.206 -10.204 -10.173 -10.172  -0.989
 -0.817  -0.737  -0.722  -0.618  -0.574  -0.547  -0.533  -0.459
 -0.436  -0.425  -0.415  -0.386  -0.376  -0.304  -0.255  -0.226
 -0.213
 -- Virtual --
 -0.008   0.074   0.089   0.100   0.114   0.139   0.172   0.174
  0.180   0.217   0.234   0.276   0.339   0.353   0.405   0.462
  0.506   0.513   0.539   0.546   0.560   0.574   0.587   0.597
  0.607   0.617   0.620   0.647   0.672   0.703   0.801   0.819
  0.836   0.850   0.852   0.854   0.876   0.901   0.929   0.949
  0.985   1.018   1.078   1.139   1.186   1.233   1.272   1.345
  1.385   1.385   1.459   1.475   1.493   1.508   1.541   1.549
  1.670   1.692   1.805   1.844   1.887   1.982   2.001   2.001
  2.071   2.084   2.175   2.194   2.209   2.248   2.287   2.300
  2.330   2.335   2.529   2.577   2.592   2.630   2.670   2.717
  2.742   2.866   3.042   3.095   3.200   3.967   4.062   4.121
  4.170   4.274   4.471   4.481
 
 Beta MOs
 -- Occupied --
-14.393 -10.243 -10.206 -10.204 -10.199 -10.173 -10.172  -0.987
 -0.812  -0.726  -0.718  -0.605  -0.571  -0.545  -0.524  -0.452
 -0.432  -0.425  -0.413  -0.385  -0.375  -0.301  -0.217  -0.213
 -- Virtual --
 -0.086   0.000   0.076   0.089   0.107   0.117   0.141   0.173
  0.175   0.184   0.221   0.238   0.281   0.345   0.355   0.413
  0.469   0.507   0.522   0.541   0.552   0.566   0.587   0.597
  0.608   0.620   0.625   0.628   0.650   0.671   0.703   0.804
  0.821   0.839   0.852   0.854   0.855   0.884   0.912   0.930
  0.949   0.989   1.027   1.085   1.140   1.187   1.238   1.273
  1.346   1.384   1.387   1.465   1.477   1.501   1.511   1.544
  1.551   1.718   1.736   1.827   1.858   1.895   1.984   2.003
  2.009   2.076   2.091   2.178   2.198   2.211   2.248   2.292
  2.305   2.332   2.338   2.529   2.586   2.593   2.652   2.671
  2.717   2.746   2.869   3.042   3.097   3.206   3.968   4.094
  4.122   4.171   4.277   4.471   4.483
 --------------------------------------------------------------
 
          Ground-State Mulliken Net Atomic Charges

     Atom                 Charge (a.u.)    Spin (a.u.)
  --------------------------------------------------------
      1 C                     0.045978      -0.142990
      2 C                     0.029357       0.001779
      3 C                    -0.192831      -0.004870
      4 C                    -0.186083      -0.008475
      5 C                     0.035681       0.000793
      6 N                    -0.403086       0.042122
      7 H                     0.163424       0.034808
      8 H                     0.146989       0.000211
      9 H                     0.129529       0.001773
     10 H                     0.129527       0.001029
     11 H                     0.145424       0.001084
     12 C                    -0.213781       1.079659
     13 H                     0.169872      -0.006924
  --------------------------------------------------------
  Sum of atomic charges =    -0.000000
  Sum of spin   charges =     1.000000

 -----------------------------------------------------------------
                    Cartesian Multipole Moments
 -----------------------------------------------------------------
    Charge (ESU x 10^10)
                 0.0000
    Dipole Moment (Debye)
         X       0.4156      Y       0.1130      Z      -0.1264
       Tot       0.4488
    Quadrupole Moments (Debye-Ang)
        XX     -40.1359     XY      -1.2171     YY     -34.6726
        XZ      -1.2854     YZ      -0.3006     ZZ     -44.4787
    Octopole Moments (Debye-Ang^2)
       XXX     -18.0543    XXY      -4.5348    XYY       1.3954
       YYY       4.4667    XXZ       4.3532    XYZ       1.0339
       YYZ      -0.7184    XZZ      -3.1169    YZZ      -0.3319
       ZZZ       2.0594
    Hexadecapole Moments (Debye-Ang^3)
      XXXX    -575.0506   XXXY     -90.9201   XXYY    -131.1666
      XYYY     -63.2203   YYYY    -260.7194   XXXZ      73.1721
      XXYZ      10.5234   XYYZ      19.7396   YYYZ      22.5815
      XXZZ    -118.0797   XYZZ     -28.1287   YYZZ     -69.3425
      XZZZ      89.0994   YZZZ      33.7855   ZZZZ    -102.0007
 -----------------------------------------------------------------
Archival summary:
1\1\c8-72\OPT\ProcedureUnspecified\6-31G*\166(2)\hpark21\WedMar223:52:152022WedMar223:52:152022\0\\#,OPT,ProcedureUnspecified,6-31G*,\\0,2\N\C,1,1.38393\H,2,1.07973,1,120.621\C,2,1.37322,1,108.195,3,179.946,0\H,4,1.08182,2,125.659,1,179.98,0\C,1,1.38661,2,108.643,3,-179.998,0\H,6,1.08068,1,120.24,2,-179.953,0\C,6,1.37205,1,108.347,2,0.0641564,0\H,8,1.08154,6,125.854,1,-179.971,0\C,1,1.41005,2,127.3,3,-0.0440158,0\H,10,1.08938,1,112.27,2,179.881,0\C,10,1.31696,1,127.585,2,-0.0943029,0\H,12,1.079,10,141.43,1,-0.0847862,0\\\@

 Total job time:  48.04s(wall), 149.72s(cpu) 
 Wed Mar  2 23:52:15 2022

        *************************************************************
        *                                                           *
        *  Thank you very much for using Q-Chem.  Have a nice day.  *
        *                                                           *
        *************************************************************


