
Running Job 1 of 1 qcopt_rct.in
qchem qcopt_rct.in_18122.0 ./qcopt_rct.d/ 1
/home/leeping/opt/qchem/5.0.2-openmp/exe/qcprog.exe_s qcopt_rct.in_18122.0 ./qcopt_rct.d/
Check license passed

                  Welcome to Q-Chem
     A Quantum Leap Into The Future Of Chemistry


 Q-Chem 5.0, Q-Chem, Inc., Pleasanton, CA (2017)

 Yihan Shao,  Zhengting Gan,  E. Epifanovsky,  A. T. B. Gilbert,  M. Wormit,  
 J. Kussmann,  A. W. Lange,  A. Behn,  Jia Deng,  Xintian Feng,  D. Ghosh,  
 M. Goldey,  P. R. Horn,  L. D. Jacobson,  I. Kaliman,  T. Kus,  A. Landau,  
 Jie Liu,  E. I. Proynov,  R. M. Richard,  R. P. Steele,  E. J. Sundstrom,  
 H. L. Woodcock III,  P. M. Zimmerman,  D. Zuev,  B. Albrecht,  E. Alguire,  
 S. A. Baeppler,  D. Barton,  Z. Benda,  Y. A. Bernard,  E. J. Berquist,  
 K. B. Bravaya,  H. Burton,  D. Casanova,  Chun-Min Chang,  Yunqing Chen,  
 A. Chien,  K. D. Closser,  M. P. Coons,  S. Dasgupta,  A. L. Dempwolff,  
 M. Diedenhofen,  Hainam Do,  R. G. Edgar,  Po-Tung Fang,  S. Fatehi,  
 Qingguo Feng,  J. Fosso-Tande,  Qinghui Ge,  A. Ghysels,  G. Gidofalvi,  
 J. Gomes,  J. Gonthier,  A. Gunina,  M. W. D. Hanson-Heine,  
 P. H. P. Harbach,  A. W. Hauser,  J. E. Herr,  E. G. Hohenstein,  
 Z. C. Holden,  Kerwin Hui,  T.-C. Jagau,  Hyunjun Ji,  B. Kaduk,  
 K. Khistyaev,  Jaehoon Kim,  P. Klunzinger,  K. Koh,  D. Kosenkov,  
 L. Koulias,  T. Kowalczyk,  C. M. Krauter,  A. Kunitsa,  Ka Un Lao,  
 A. Laurent,  K. V. Lawler,  Joonho Lee,  D. Lefrancois,  S. Lehtola,  
 D. S. Levine,  Yi-Pei Li,  You-Sheng Lin,  Fenglai Liu,  E. Livshits,  
 A. Luenser,  P. Manohar,  E. Mansoor,  S. F. Manzer,  Shan-Ping Mao,  
 Yuezhi Mao,  N. Mardirossian,  A. V. Marenich,  T. Markovich,  
 L. A. Martinez-Martinez,  S. A. Maurer,  N. J. Mayhall,  S. C. McKenzie,  
 J.-M. Mewes,  A. F. Morrison,  J. W. Mullinax,  K. Nanda,  
 T. S. Nguyen-Beck,  R. Olivares-Amaya,  J. A. Parkhill,  T. M. Perrine,  
 F. Plasser,  S. Prager,  A. Prociuk,  E. Ramos,  D. R. Rehn,  F. Rob,  
 M. Schneider,  N. Sergueev,  S. M. Sharada,  S. Sharma,  D. W. Small,  
 T. Stauch,  T. Stein,  Yu-Chuan Su,  A. J. W. Thom,  A. Tkatchenko,  
 T. Tsuchimochi,  L. Vogt,  O. Vydrov,  M. A. Watson,  J. Wenzel,  
 M. de Wergifosse,  T. A. Wesolowski,  A. White,  J. Witte,  A. Yamada,  
 Jun Yang,  K. Yao,  S. Yeganeh,  S. R. Yost,  Zhi-Qiang You,  A. Zech,  
 Igor Ying Zhang,  Xing Zhang,  Yan Zhao,  Ying Zhu,  B. R. Brooks,  
 G. K. L. Chan,  C. J. Cramer,  M. S. Gordon,  W. J. Hehre,  A. Klamt,  
 M. W. Schmidt,  C. D. Sherrill,  D. G. Truhlar,  A. Aspuru-Guzik,  R. Baer,  
 A. T. Bell,  N. A. Besley,  Jeng-Da Chai,  R. A. DiStasio Jr.,  A. Dreuw,  
 B. D. Dunietz,  T. R. Furlani,  Chao-Ping Hsu,  Yousung Jung,  Jing Kong,  
 D. S. Lambrecht,  WanZhen Liang,  C. Ochsenfeld,  V. A. Rassolov,  
 L. V. Slipchenko,  J. E. Subotnik,  T. Van Voorhis,  J. M. Herbert,  
 A. I. Krylov,  P. M. W. Gill,  M. Head-Gordon

 Contributors to earlier versions of Q-Chem not listed above: 
 R. D. Adamson,  B. Austin,  J. Baker,  G. J. O. Beran,  K. Brandhorst,  
 S. T. Brown,  E. F. C. Byrd,  A. K. Chakraborty,  C.-L. Cheng,  
 Siu Hung Chien,  D. M. Chipman,  D. L. Crittenden,  H. Dachsel,  
 R. J. Doerksen,  A. D. Dutoi,  L. Fusti-Molnar,  W. A. Goddard III,  
 A. Golubeva-Zadorozhnaya,  S. R. Gwaltney,  G. Hawkins,  A. Heyden,  
 S. Hirata,  G. Kedziora,  F. J. Keil,  C. Kelley,  Jihan Kim,  R. A. King,  
 R. Z. Khaliullin,  P. P. Korambath,  W. Kurlancheek,  A. M. Lee,  M. S. Lee,  
 S. V. Levchenko,  Ching Yeh Lin,  D. Liotard,  R. C. Lochan,  I. Lotan,  
 P. E. Maslen,  N. Nair,  D. P. O'Neill,  D. Neuhauser,  E. Neuscamman,  
 C. M. Oana,  R. Olson,  B. Peters,  R. Peverati,  P. A. Pieniazek,  
 Y. M. Rhee,  J. Ritchie,  M. A. Rohrdanz,  E. Rosta,  N. J. Russ,  
 H. F. Schaefer III,  N. E. Schultz,  N. Shenvi,  A. C. Simmonett,  A. Sodt,  
 D. Stuck,  K. S. Thanthiriwatte,  V. Vanovschi,  Tao Wang,  A. Warshel,  
 C. F. Williams,  Q. Wu,  X. Xu,  W. Zhang

 Please cite Q-Chem as follows:
 Y. Shao et al., Mol. Phys. 113, 184-215 (2015)
 DOI: 10.1080/00268976.2014.952696

 Q-Chem 5.0.2 for Intel X86 EM64T Linux

 Parts of Q-Chem use Armadillo 5.200.1 (Boston Tea Smuggler).
 http://arma.sourceforge.net/

 Q-Chem begins on Wed Mar  2 23:50:32 2022  

Host: 
0

     Scratch files written to ./qcopt_rct.d//
 Dec517 15110_ 26548  26544 5633   
Processing $rem in /home/leeping/opt/qchem/5.0.2-openmp/config/preferences.
 MEM_STATIC 2000
 MEM_TOTAL  8000
 SYMMETRY   OFF
 SYM_IGNORE TRUE 

Checking the input file for inconsistencies... 	...done.

--------------------------------------------------------------
User input:
--------------------------------------------------------------
$molecule
0 2
C        1.3917926526    0.8452961317   -0.4535025930
C        0.3320571785   -1.4191549484   -0.0108989053
C       -0.9372591919   -1.0635990874    0.3355769777
C       -1.4735453263    0.2709161228    0.4088277573
C       -0.8285738633    1.4661756562    0.1474827301
N        0.4314529297    1.7764552369   -0.2354434273
H        2.3396145720    1.2992120474   -0.7509214815
H        0.5705480365   -2.4807056323   -0.0106180559
H       -1.6290252401   -1.8659895641    0.5846124860
H       -2.5160373095    0.3540411315    0.7062609095
H       -1.4481548325    2.3572705780    0.2719537962
C        1.4089889628   -0.5338951732   -0.3753636075
H        2.3581414318   -1.0060224992   -0.6179665861
$end

$rem
method                b3lyp
basis                 6-31g(d)
unrestricted          true
symmetry              off
sym_ignore            true
incdft                false
incfock               0
scf_convergence       8
thresh                14
jobtype               opt
scf_guess             core
scf_guess_mix         5
scf_algorithm         diis
max_scf_cycles        100
geom_opt_max_cycles   300
$end

--------------------------------------------------------------
 ----------------------------------------------------------------
             Standard Nuclear Orientation (Angstroms)
    I     Atom           X                Y                Z
 ----------------------------------------------------------------
    1      C       1.3917926526     0.8452961317    -0.4535025930
    2      C       0.3320571785    -1.4191549484    -0.0108989053
    3      C      -0.9372591919    -1.0635990874     0.3355769777
    4      C      -1.4735453263     0.2709161228     0.4088277573
    5      C      -0.8285738633     1.4661756562     0.1474827301
    6      N       0.4314529297     1.7764552369    -0.2354434273
    7      H       2.3396145720     1.2992120474    -0.7509214815
    8      H       0.5705480365    -2.4807056323    -0.0106180559
    9      H      -1.6290252401    -1.8659895641     0.5846124860
   10      H      -2.5160373095     0.3540411315     0.7062609095
   11      H      -1.4481548325     2.3572705780     0.2719537962
   12      C       1.4089889628    -0.5338951732    -0.3753636075
   13      H       2.3581414318    -1.0060224992    -0.6179665861
 ----------------------------------------------------------------
 Nuclear Repulsion Energy =   260.7101040574 hartrees
 There are       25 alpha and       24 beta electrons
 Requested basis set is 6-31G(d)
 There are 40 shells and 117 basis functions

 Total QAlloc Memory Limit   8000 MB
 Mega-Array Size      1956 MB
 MEM_STATIC part      2000 MB
 A cutoff of  1.0D-14 yielded    791 shell pairs
 There are      7063 function pairs
 
 -------------------------------------------------------
 OpenMP Integral Computing Module                       
 Release: version 1.0, May 2013, Q-Chem Inc. Pittsburgh 
 -------------------------------------------------------
 Integral Job Info:
 Integral job number is                      11
 Integral operator is                         1
 short-range coefficients                     0
 long-range coefficients              100000000
 Omega coefficients                           0
 if combine SR and LR in K                    0
 Integral screening is                        0
 Integral computing path is                   2
 max size of driver memory is            800000
 size of driver memory is                593474
 size of scratch memory is              2361544
 max col of scratch BK array               1296
 max len of scratch array in speh3          155
 max len of scratch index in speh4           18
 max int batch size is                      520
 min int batch size is                       52
 fixed nKL is                                52
 max L of basis functions is                  2
 order of int derivative is                   0
 number of shells is                         40
 number of basis is                         117
 number of cartesian basis is               117
 number of contracted shell pairs           791
 number of primitive shell pairs           3395
 maxK2 (contraction) of shell pair           36
 max number of K2 of shell pair               1
 max number of CS2 of shell pair             94
 max number of PS2 of shell pair            402
 mem total for path MDJ                  535308
 -------------------------------------------------------
 Smallest overlap matrix eigenvalue = 1.33E-03

 Scale SEOQF with 1.000000e-01/1.000000e-01/1.000000e+00

 Standard Electronic Orientation quadrupole field applied
 Nucleus-field energy     =     0.0000000015 hartrees
 Guess MOs from core Hamiltonian diagonalization
 Mixing HOMO and LUMO in initial guess
 Adding  50% of the LUMO to the HOMO
 An unrestricted hybrid HF-DFT SCF calculation will be
 performed using Pulay DIIS extrapolation
 Exchange:     0.2000 Hartree-Fock + 0.0800 Slater + 0.7200 B88
 Correlation:  0.1900 VWN1RPA + 0.8100 LYP
 Using SG-1 standard quadrature grid
 SCF converges when DIIS error is below 1.0E-08
 using 4 threads for integral computing
 -------------------------------------------------------
 OpenMP Integral computing Module                
 Release: version 1.0, May 2013, Q-Chem Inc. Pittsburgh 
 -------------------------------------------------------
 -------------------------------------------------------
 OpenMP BLAS3 based DFT computing Module                
 Release: version 1.0, May 2013, Q-Chem Inc. Pittsburgh 
 -------------------------------------------------------
 ---------------------------------------
  Cycle       Energy         DIIS Error
 ---------------------------------------
    1    -239.5099075494      1.26E-01
    2    -227.9306788673      1.03E-01
    3    -250.2689454531      1.03E-01
    4    -281.9115627824      4.85E-02
    5    -282.4459763086      4.74E-02
    6    -285.5262941309      2.31E-02
    7    -286.6129903904      1.26E-02
    8    -286.8603579715      4.96E-03
    9    -286.9209759387      9.00E-04
   10    -286.9229438506      7.36E-04
   11    -286.9239601565      1.82E-04
   12    -286.9241638000      7.89E-05
   13    -286.9242812617      2.43E-05
   14    -286.9242988863      1.34E-05
   15    -286.9243059765      5.09E-06
   16    -286.9243075144      3.07E-06
   17    -286.9243082380      7.19E-07
   18    -286.9243082744      2.71E-07
   19    -286.9243082793      2.04E-07
   20    -286.9243082804      1.22E-07
   21    -286.9243082812      7.09E-08
   22    -286.9243082816      1.87E-08
   23    -286.9243082816      3.55E-09 Convergence criterion met
 ---------------------------------------
 <S^2> = 0.7683
 SCF time:  CPU 55.41 s  wall 16.76 s
 SCF   energy in the final basis set = -286.92430828
 Total energy in the final basis set = -286.92430828
 
 --------------------------------------------------------------
 
                    Orbital Energies (a.u.)
 --------------------------------------------------------------
 
 Alpha MOs
 -- Occupied --
-14.322 -10.232 -10.232 -10.212 -10.211 -10.201 -10.200  -0.922
 -0.818  -0.784  -0.693  -0.667  -0.551  -0.537  -0.518  -0.449
 -0.439  -0.414  -0.394  -0.387  -0.349  -0.322  -0.299  -0.251
 -0.162
 -- Virtual --
 -0.072   0.077   0.097   0.101   0.117   0.142   0.181   0.184
  0.193   0.213   0.266   0.320   0.357   0.390   0.412   0.483
  0.497   0.522   0.547   0.576   0.584   0.587   0.591   0.610
  0.619   0.624   0.646   0.658   0.713   0.718   0.833   0.840
  0.847   0.853   0.868   0.872   0.885   0.922   0.965   0.975
  1.024   1.027   1.043   1.127   1.177   1.185   1.300   1.303
  1.326   1.401   1.429   1.480   1.482   1.546   1.574   1.586
  1.682   1.732   1.769   1.829   1.850   1.919   1.924   2.030
  2.046   2.047   2.100   2.141   2.141   2.191   2.246   2.391
  2.410   2.415   2.446   2.545   2.577   2.600   2.614   2.739
  2.748   2.807   3.051   3.249   3.251   4.018   4.046   4.102
  4.196   4.239   4.531   4.595
 
 Beta MOs
 -- Occupied --
-14.314 -10.234 -10.233 -10.210 -10.210 -10.196 -10.196  -0.911
 -0.809  -0.777  -0.681  -0.665  -0.546  -0.534  -0.514  -0.447
 -0.438  -0.411  -0.383  -0.373  -0.347  -0.295  -0.276  -0.242
 -- Virtual --
 -0.078  -0.070   0.078   0.118   0.124   0.125   0.142   0.182
  0.187   0.196   0.219   0.268   0.324   0.360   0.393   0.414
  0.486   0.505   0.525   0.551   0.587   0.588   0.592   0.596
  0.614   0.624   0.629   0.649   0.676   0.715   0.729   0.834
  0.843   0.846   0.869   0.875   0.880   0.887   0.925   0.967
  0.979   1.026   1.030   1.045   1.133   1.180   1.189   1.311
  1.315   1.333   1.411   1.429   1.490   1.492   1.560   1.582
  1.597   1.685   1.737   1.781   1.831   1.854   1.922   1.933
  2.036   2.058   2.061   2.110   2.141   2.146   2.203   2.258
  2.399   2.422   2.426   2.448   2.558   2.579   2.611   2.624
  2.742   2.761   2.810   3.054   3.251   3.254   4.030   4.053
  4.109   4.200   4.239   4.536   4.601
 --------------------------------------------------------------
 
          Ground-State Mulliken Net Atomic Charges

     Atom                 Charge (a.u.)    Spin (a.u.)
  --------------------------------------------------------
      1 C                     0.035053      -0.109383
      2 C                    -0.111798       0.100291
      3 C                    -0.110639       0.087245
      4 C                    -0.132074       0.351808
      5 C                     0.036065      -0.115599
      6 N                    -0.423574       0.387344
      7 H                     0.142623       0.003242
      8 H                     0.141901      -0.006947
      9 H                     0.141929      -0.006324
     10 H                     0.134386      -0.018555
     11 H                     0.142608       0.003550
     12 C                    -0.130943       0.341406
     13 H                     0.134461      -0.018078
  --------------------------------------------------------
  Sum of atomic charges =    -0.000000
  Sum of spin   charges =     1.000000

 -----------------------------------------------------------------
                    Cartesian Multipole Moments
 -----------------------------------------------------------------
    Charge (ESU x 10^10)
                -0.0000
    Dipole Moment (Debye)
         X      -0.5256      Y      -2.1633      Z       0.2916
       Tot       2.2452
    Quadrupole Moments (Debye-Ang)
        XX     -35.4139     XY      -1.9777     YY     -41.8212
        XZ      -2.1640     YZ       0.4767     ZZ     -42.7693
    Octopole Moments (Debye-Ang^2)
       XXX      -3.1957    XXY      -5.4929    XYY      -7.2101
       YYY     -37.0094    XXZ       0.5086    XYZ       0.2679
       YYZ       3.7002    XZZ      -1.3509    YZZ      -6.0785
       ZZZ       2.3980
    Hexadecapole Moments (Debye-Ang^3)
      XXXX    -351.1592   XXXY       3.9681   XXYY    -121.4084
      XYYY     -15.4234   YYYY    -429.6702   XXXZ      35.1013
      XXYZ       2.3051   XYYZ      12.7833   YYYZ      15.9291
      XXZZ     -76.3161   XYZZ       1.8579   YYZZ     -85.2337
      XZZZ      51.7134   YZZZ      11.0127   ZZZZ     -75.2317
 -----------------------------------------------------------------
 Calculating analytic gradient of the SCF energy
 Gradient of SCF Energy
            1           2           3           4           5           6
    1   0.0004295  -0.0000568   0.0001128  -0.0002140   0.0000432  -0.0003441
    2  -0.0003740  -0.0000279   0.0002695  -0.0001696  -0.0001333   0.0005595
    3  -0.0000725  -0.0003730   0.0001357   0.0001198  -0.0000885   0.0000306
            7           8           9          10          11          12
    1   0.0000372   0.0000829  -0.0000753   0.0000300   0.0000036  -0.0001569
    2  -0.0000358   0.0000903  -0.0000183  -0.0000905   0.0000436  -0.0001783
    3   0.0000696   0.0001903  -0.0000664   0.0000193   0.0000427  -0.0000302
           13
    1   0.0001079
    2   0.0000648
    3   0.0000227
 Max gradient component =       5.595E-04
 RMS gradient           =       1.813E-04
 Gradient time:  CPU 7.22 s  wall 2.42 s
 Geometry Optimization Parameters
   NAtoms,    NIC,     NZ,  NCons,   NDum,   NFix, NCnnct, MaxDiis
       13      82       0       0       0       0       0       0


** GEOMETRY OPTIMIZATION IN DELOCALIZED INTERNAL COORDINATES **
   Searching for a Minimum

   Optimization Cycle:   1

                       Coordinates (Angstroms)
     ATOM                X               Y               Z
      1  C         1.3917926526    0.8452961317   -0.4535025930
      2  C         0.3320571785   -1.4191549484   -0.0108989053
      3  C        -0.9372591919   -1.0635990874    0.3355769777
      4  C        -1.4735453263    0.2709161228    0.4088277573
      5  C        -0.8285738633    1.4661756562    0.1474827301
      6  N         0.4314529297    1.7764552369   -0.2354434273
      7  H         2.3396145720    1.2992120474   -0.7509214815
      8  H         0.5705480365   -2.4807056323   -0.0106180559
      9  H        -1.6290252401   -1.8659895641    0.5846124860
     10  H        -2.5160373095    0.3540411315    0.7062609095
     11  H        -1.4481548325    2.3572705780    0.2719537962
     12  C         1.4089889628   -0.5338951732   -0.3753636075
     13  H         2.3581414318   -1.0060224992   -0.6179665861
   Point Group: c1    Number of degrees of freedom:    33


   Energy is   -286.924308282


 Attempting to Generate Delocalized Internal Coordinates

 33 Hessian modes will be used to form the next step
  Hessian Eigenvalues:
     0.018569    0.019900    0.020892    0.021858    0.021996    0.022698
     0.023089    0.023759    0.023995    0.025338    0.159998    0.160000
     0.160000    0.160000    0.160000    0.160000    0.220000    0.220000
     0.220000    0.233940    0.345323    0.345616    0.350102    0.350435
     0.351034    0.351295    0.382836    0.390015    0.466913    0.484520
     0.506814    0.532647    0.538234

 Minimum Search - Taking Simple RFO Step
 Searching for Lamda that Minimizes Along All modes
 Value Taken    Lamda =  -0.00000471
 Step Taken.  Stepsize is  0.012185

                             Maximum     Tolerance    Cnvgd?
         Gradient           0.000376      0.000300      NO
         Displacement       0.006974      0.001200      NO
         Energy change     *********      0.000001      NO


 New Cartesian Coordinates Obtained by Inverse Iteration

 Displacement from previous Coordinates is:  0.009730
 ----------------------------------------------------------------
             Standard Nuclear Orientation (Angstroms)
    I     Atom           X                Y                Z
 ----------------------------------------------------------------
    1      C       1.3917524133     0.8455055226    -0.4526580565
    2      C       0.3326936859    -1.4191997302    -0.0086930466
    3      C      -0.9371227324    -1.0639113276     0.3360830888
    4      C      -1.4731955064     0.2709826836     0.4086688521
    5      C      -0.8281770756     1.4662727296     0.1483522497
    6      N       0.4318843330     1.7761849964    -0.2342744060
    7      H       2.3385546546     1.2996962440    -0.7528973835
    8      H       0.5699864342    -2.4811202293    -0.0124626894
    9      H      -1.6288244228    -1.8663653042     0.5847875787
   10      H      -2.5161579118     0.3546928972     0.7044545633
   11      H      -1.4482700199     2.3571565844     0.2712653148
   12      C       1.4093512529    -0.5336354037    -0.3737953559
   13      H       2.3575248953    -1.0062596631    -0.6188307094
 ----------------------------------------------------------------
 Nuclear Repulsion Energy =   260.7247898738 hartrees
 There are       25 alpha and       24 beta electrons
 Applying Cartesian multipole field
    Component          Value
    ---------          -----
     (2,0,0)        1.00000E-11
     (0,2,0)        2.00000E-11
     (0,0,2)       -3.00000E-10
 Nucleus-field energy     =     0.0000000015 hartrees
 Requested basis set is 6-31G(d)
 There are 40 shells and 117 basis functions
 A cutoff of  1.0D-14 yielded    791 shell pairs
 There are      7063 function pairs
 Smallest overlap matrix eigenvalue = 1.33E-03
 Guess MOs from SCF MO coefficient file
 Reading MOs from coefficient file
 Mixing HOMO and LUMO in initial guess
 Adding  50% of the LUMO to the HOMO
 Reading MOs from coefficient file
 An unrestricted hybrid HF-DFT SCF calculation will be
 performed using Pulay DIIS extrapolation
 Exchange:     0.2000 Hartree-Fock + 0.0800 Slater + 0.7200 B88
 Correlation:  0.1900 VWN1RPA + 0.8100 LYP
 Using SG-1 standard quadrature grid
 SCF converges when DIIS error is below 1.0E-08
 Geometry optimization detected.  Setting ReadMinima to 0
 Setting SaveMinima to 0
 using 4 threads for integral computing
 -------------------------------------------------------
 OpenMP Integral computing Module                
 Release: version 1.0, May 2013, Q-Chem Inc. Pittsburgh 
 -------------------------------------------------------
 -------------------------------------------------------
 OpenMP BLAS3 based DFT computing Module                
 Release: version 1.0, May 2013, Q-Chem Inc. Pittsburgh 
 -------------------------------------------------------
 ---------------------------------------
  Cycle       Energy         DIIS Error
 ---------------------------------------
    1    -286.9146922845      1.13E-03
    2    -286.9158767627      2.08E-03
    3    -286.9226703500      3.75E-04
    4    -286.9231283345      3.02E-04
    5    -286.9235620289      2.02E-04
    6    -286.9240277473      8.04E-05
    7    -286.9241328945      4.05E-05
    8    -286.9242554825      2.13E-05
    9    -286.9242843603      1.31E-05
   10    -286.9243079036      3.40E-06
   11    -286.9243102348      2.11E-06
   12    -286.9243106751      1.12E-06
   13    -286.9243107313      4.34E-07
   14    -286.9243107503      1.90E-07
   15    -286.9243107541      7.25E-08
   16    -286.9243107545      3.71E-08
   17    -286.9243107546      1.70E-08
   18    -286.9243107546      3.14E-09 Convergence criterion met
 ---------------------------------------
 <S^2> = 0.7684
 SCF time:  CPU 43.06 s  wall 12.70 s
 SCF   energy in the final basis set = -286.92431075
 Total energy in the final basis set = -286.92431075
 
 --------------------------------------------------------------
 
                    Orbital Energies (a.u.)
 --------------------------------------------------------------
 
 Alpha MOs
 -- Occupied --
-14.322 -10.232 -10.232 -10.212 -10.211 -10.201 -10.200  -0.922
 -0.818  -0.784  -0.693  -0.667  -0.551  -0.537  -0.518  -0.449
 -0.439  -0.414  -0.394  -0.386  -0.349  -0.322  -0.299  -0.251
 -0.162
 -- Virtual --
 -0.072   0.077   0.097   0.101   0.117   0.142   0.181   0.184
  0.193   0.213   0.266   0.320   0.357   0.390   0.412   0.483
  0.497   0.521   0.547   0.576   0.584   0.587   0.591   0.610
  0.619   0.624   0.646   0.658   0.713   0.718   0.833   0.840
  0.847   0.854   0.868   0.872   0.885   0.922   0.965   0.975
  1.024   1.027   1.043   1.127   1.177   1.185   1.300   1.303
  1.326   1.401   1.429   1.480   1.482   1.546   1.574   1.586
  1.682   1.732   1.769   1.829   1.850   1.919   1.925   2.030
  2.046   2.048   2.100   2.141   2.142   2.191   2.247   2.391
  2.410   2.415   2.446   2.545   2.577   2.600   2.614   2.739
  2.748   2.807   3.052   3.249   3.251   4.018   4.046   4.102
  4.196   4.239   4.532   4.595
 
 Beta MOs
 -- Occupied --
-14.314 -10.234 -10.233 -10.210 -10.210 -10.196 -10.196  -0.911
 -0.809  -0.777  -0.681  -0.665  -0.546  -0.534  -0.514  -0.447
 -0.438  -0.411  -0.383  -0.373  -0.348  -0.295  -0.276  -0.242
 -- Virtual --
 -0.078  -0.070   0.078   0.118   0.124   0.125   0.142   0.182
  0.187   0.196   0.219   0.268   0.324   0.360   0.393   0.415
  0.486   0.505   0.525   0.551   0.587   0.588   0.592   0.596
  0.614   0.624   0.629   0.649   0.676   0.715   0.729   0.834
  0.843   0.846   0.869   0.875   0.880   0.887   0.925   0.967
  0.979   1.026   1.030   1.045   1.133   1.180   1.189   1.311
  1.315   1.333   1.411   1.429   1.489   1.492   1.560   1.582
  1.597   1.685   1.737   1.781   1.831   1.854   1.922   1.933
  2.036   2.058   2.061   2.110   2.141   2.147   2.203   2.259
  2.399   2.422   2.426   2.448   2.558   2.579   2.611   2.624
  2.742   2.761   2.810   3.054   3.252   3.254   4.030   4.053
  4.109   4.200   4.239   4.537   4.601
 --------------------------------------------------------------
 
          Ground-State Mulliken Net Atomic Charges

     Atom                 Charge (a.u.)    Spin (a.u.)
  --------------------------------------------------------
      1 C                     0.035171      -0.110025
      2 C                    -0.111710       0.099111
      3 C                    -0.110729       0.088368
      4 C                    -0.132016       0.351133
      5 C                     0.035929      -0.115110
      6 N                    -0.423417       0.387073
      7 H                     0.142595       0.003276
      8 H                     0.141917      -0.006893
      9 H                     0.141950      -0.006379
     10 H                     0.134331      -0.018527
     11 H                     0.142607       0.003526
     12 C                    -0.131062       0.342578
     13 H                     0.134434      -0.018129
  --------------------------------------------------------
  Sum of atomic charges =    -0.000000
  Sum of spin   charges =     1.000000

 -----------------------------------------------------------------
                    Cartesian Multipole Moments
 -----------------------------------------------------------------
    Charge (ESU x 10^10)
                -0.0000
    Dipole Moment (Debye)
         X      -0.5274      Y      -2.1630      Z       0.2854
       Tot       2.2446
    Quadrupole Moments (Debye-Ang)
        XX     -35.4225     XY      -1.9771     YY     -41.8140
        XZ      -2.1664     YZ       0.4785     ZZ     -42.7661
    Octopole Moments (Debye-Ang^2)
       XXX      -3.2552    XXY      -5.4892    XYY      -7.2255
       YYY     -37.0092    XXZ       0.4559    XYZ       0.2719
       YYZ       3.6401    XZZ      -1.3480    YZZ      -6.0752
       ZZZ       2.2882
    Hexadecapole Moments (Debye-Ang^3)
      XXXX    -351.2065   XXXY       3.9420   XXYY    -121.4101
      XYYY     -15.4220   YYYY    -429.6292   XXXZ      35.0496
      XXYZ       2.3057   XYYZ      12.7485   YYYZ      15.9468
      XXZZ     -76.2942   XYZZ       1.8622   YYZZ     -85.2163
      XZZZ      51.6488   YZZZ      11.0228   ZZZZ     -75.1631
 -----------------------------------------------------------------
 Calculating analytic gradient of the SCF energy
 Gradient of SCF Energy
            1           2           3           4           5           6
    1   0.0002201   0.0000059   0.0000370  -0.0000879   0.0001797  -0.0002740
    2  -0.0002996  -0.0000514   0.0001062  -0.0001095   0.0000208   0.0002061
    3   0.0000918   0.0000214  -0.0000042   0.0000136   0.0000213  -0.0000287
            7           8           9          10          11          12
    1  -0.0000373   0.0000024  -0.0000013   0.0000124  -0.0000119  -0.0000516
    2   0.0000324  -0.0000017  -0.0000204  -0.0000116   0.0000055   0.0000986
    3   0.0000104  -0.0000087  -0.0000215   0.0000036  -0.0000328  -0.0000476
           13
    1   0.0000067
    2   0.0000246
    3  -0.0000186
 Max gradient component =       2.996E-04
 RMS gradient           =       9.535E-05
 Gradient time:  CPU 7.13 s  wall 1.92 s
 Geometry Optimization Parameters
   NAtoms,    NIC,     NZ,  NCons,   NDum,   NFix, NCnnct, MaxDiis
       13      82       0       0       0       0       0       0

 Cartesian Hessian Update
 Hessian Updated using BFGS Update


** GEOMETRY OPTIMIZATION IN DELOCALIZED INTERNAL COORDINATES **
   Searching for a Minimum

   Optimization Cycle:   2

                       Coordinates (Angstroms)
     ATOM                X               Y               Z
      1  C         1.3917524133    0.8455055226   -0.4526580565
      2  C         0.3326936859   -1.4191997302   -0.0086930466
      3  C        -0.9371227324   -1.0639113276    0.3360830888
      4  C        -1.4731955064    0.2709826836    0.4086688521
      5  C        -0.8281770756    1.4662727296    0.1483522497
      6  N         0.4318843330    1.7761849964   -0.2342744060
      7  H         2.3385546546    1.2996962440   -0.7528973835
      8  H         0.5699864342   -2.4811202293   -0.0124626894
      9  H        -1.6288244228   -1.8663653042    0.5847875787
     10  H        -2.5161579118    0.3546928972    0.7044545633
     11  H        -1.4482700199    2.3571565844    0.2712653148
     12  C         1.4093512529   -0.5336354037   -0.3737953559
     13  H         2.3575248953   -1.0062596631   -0.6188307094
   Point Group: c1    Number of degrees of freedom:    33


   Energy is   -286.924310755

 Hessian Updated using BFGS Update

 29 Hessian modes will be used to form the next step
  Hessian Eigenvalues:
     0.018334    0.018820    0.019936    0.021008    0.021902    0.022269
     0.023546    0.023785    0.024913    0.030062    0.157063    0.159998
     0.163625    0.213923    0.221099    0.233768    0.345064    0.345685
     0.349718    0.350512    0.350938    0.351318    0.381439    0.385508
     0.462169    0.482153    0.491588    0.512823    0.547647

 Minimum Search - Taking Simple RFO Step
 Searching for Lamda that Minimizes Along All modes
 Value Taken    Lamda =   0.00000000
 Step Taken.  Stepsize is  0.003909

                             Maximum     Tolerance    Cnvgd?
         Gradient           0.000157      0.000300     YES
         Displacement       0.002235      0.001200      NO
         Energy change     -0.000002      0.000001      NO


 New Cartesian Coordinates Obtained by Inverse Iteration

 Displacement from previous Coordinates is:  0.003137
 ----------------------------------------------------------------
             Standard Nuclear Orientation (Angstroms)
    I     Atom           X                Y                Z
 ----------------------------------------------------------------
    1      C       1.3915629877     0.8456298448    -0.4532011840
    2      C       0.3327596462    -1.4191299512    -0.0084647962
    3      C      -0.9372459130    -1.0640392653     0.3358374337
    4      C      -1.4732362344     0.2709984383     0.4082704565
    5      C      -0.8282364513     1.4662632049     0.1483439022
    6      N       0.4320413586     1.7760278673    -0.2340189819
    7      H       2.3384515023     1.2997111233    -0.7534589563
    8      H       0.5701190180    -2.4810445442    -0.0122387312
    9      H      -1.6288423538    -1.8664394923     0.5848956409
   10      H      -2.5162658085     0.3548122936     0.7038817878
   11      H      -1.4480843328     2.3571561805     0.2722610443
   12      C       1.4094190941    -0.5335789134    -0.3736495680
   13      H       2.3575574872    -1.0063667865    -0.6184580478
 ----------------------------------------------------------------
 Nuclear Repulsion Energy =   260.7271076342 hartrees
 There are       25 alpha and       24 beta electrons
 Applying Cartesian multipole field
    Component          Value
    ---------          -----
     (2,0,0)        1.00000E-11
     (0,2,0)        2.00000E-11
     (0,0,2)       -3.00000E-10
 Nucleus-field energy     =     0.0000000015 hartrees
 Requested basis set is 6-31G(d)
 There are 40 shells and 117 basis functions
 A cutoff of  1.0D-14 yielded    791 shell pairs
 There are      7063 function pairs
 Smallest overlap matrix eigenvalue = 1.33E-03
 Guess MOs from SCF MO coefficient file
 Reading MOs from coefficient file
 Mixing HOMO and LUMO in initial guess
 Adding  50% of the LUMO to the HOMO
 Reading MOs from coefficient file
 An unrestricted hybrid HF-DFT SCF calculation will be
 performed using Pulay DIIS extrapolation
 Exchange:     0.2000 Hartree-Fock + 0.0800 Slater + 0.7200 B88
 Correlation:  0.1900 VWN1RPA + 0.8100 LYP
 Using SG-1 standard quadrature grid
 SCF converges when DIIS error is below 1.0E-08
 Geometry optimization detected.  Setting ReadMinima to 0
 Setting SaveMinima to 0
 using 4 threads for integral computing
 -------------------------------------------------------
 OpenMP Integral computing Module                
 Release: version 1.0, May 2013, Q-Chem Inc. Pittsburgh 
 -------------------------------------------------------
 -------------------------------------------------------
 OpenMP BLAS3 based DFT computing Module                
 Release: version 1.0, May 2013, Q-Chem Inc. Pittsburgh 
 -------------------------------------------------------
 ---------------------------------------
  Cycle       Energy         DIIS Error
 ---------------------------------------
    1    -286.9144332980      1.13E-03
    2    -286.9158880322      2.08E-03
    3    -286.9226715163      3.75E-04
    4    -286.9231272672      3.02E-04
    5    -286.9235601798      2.03E-04
    6    -286.9240299976      7.98E-05
    7    -286.9241336476      4.02E-05
    8    -286.9242560013      2.12E-05
    9    -286.9242848480      1.31E-05
   10    -286.9243082675      3.45E-06
   11    -286.9243106129      2.09E-06
   12    -286.9243110508      1.13E-06
   13    -286.9243111064      4.44E-07
   14    -286.9243111260      1.92E-07
   15    -286.9243111300      7.11E-08
   16    -286.9243111304      3.74E-08
   17    -286.9243111304      1.74E-08
   18    -286.9243111304      2.94E-09 Convergence criterion met
 ---------------------------------------
 <S^2> = 0.7684
 SCF time:  CPU 42.68 s  wall 13.19 s
 SCF   energy in the final basis set = -286.92431113
 Total energy in the final basis set = -286.92431113
 
 --------------------------------------------------------------
 
                    Orbital Energies (a.u.)
 --------------------------------------------------------------
 
 Alpha MOs
 -- Occupied --
-14.322 -10.232 -10.232 -10.212 -10.211 -10.201 -10.200  -0.922
 -0.818  -0.784  -0.693  -0.667  -0.551  -0.537  -0.518  -0.449
 -0.439  -0.414  -0.394  -0.386  -0.349  -0.322  -0.299  -0.251
 -0.162
 -- Virtual --
 -0.072   0.077   0.097   0.101   0.117   0.142   0.181   0.184
  0.193   0.213   0.266   0.320   0.356   0.390   0.412   0.483
  0.497   0.521   0.547   0.576   0.584   0.587   0.591   0.610
  0.619   0.624   0.646   0.658   0.713   0.718   0.833   0.840
  0.847   0.854   0.868   0.872   0.885   0.922   0.965   0.975
  1.024   1.027   1.043   1.127   1.177   1.185   1.300   1.303
  1.326   1.401   1.429   1.480   1.482   1.546   1.574   1.586
  1.682   1.732   1.769   1.829   1.850   1.919   1.925   2.030
  2.046   2.048   2.100   2.141   2.142   2.191   2.247   2.391
  2.410   2.415   2.446   2.545   2.577   2.601   2.614   2.739
  2.748   2.807   3.052   3.249   3.250   4.018   4.046   4.102
  4.196   4.239   4.532   4.595
 
 Beta MOs
 -- Occupied --
-14.314 -10.234 -10.233 -10.210 -10.210 -10.196 -10.196  -0.911
 -0.809  -0.777  -0.681  -0.665  -0.546  -0.535  -0.514  -0.447
 -0.438  -0.411  -0.383  -0.373  -0.348  -0.295  -0.276  -0.242
 -- Virtual --
 -0.078  -0.070   0.078   0.118   0.124   0.125   0.142   0.182
  0.187   0.196   0.219   0.268   0.324   0.360   0.393   0.415
  0.486   0.505   0.525   0.551   0.587   0.588   0.592   0.596
  0.614   0.624   0.629   0.649   0.676   0.716   0.729   0.834
  0.843   0.846   0.869   0.875   0.880   0.887   0.925   0.967
  0.979   1.026   1.030   1.045   1.133   1.180   1.189   1.311
  1.315   1.333   1.411   1.429   1.489   1.492   1.560   1.582
  1.597   1.685   1.737   1.781   1.831   1.854   1.922   1.933
  2.036   2.058   2.061   2.110   2.142   2.147   2.203   2.259
  2.399   2.422   2.426   2.448   2.558   2.579   2.611   2.624
  2.742   2.761   2.810   3.054   3.252   3.254   4.030   4.053
  4.109   4.200   4.239   4.537   4.601
 --------------------------------------------------------------
 
          Ground-State Mulliken Net Atomic Charges

     Atom                 Charge (a.u.)    Spin (a.u.)
  --------------------------------------------------------
      1 C                     0.035324      -0.110562
      2 C                    -0.111622       0.098062
      3 C                    -0.110822       0.089400
      4 C                    -0.131931       0.350372
      5 C                     0.035826      -0.114637
      6 N                    -0.423390       0.386986
      7 H                     0.142585       0.003301
      8 H                     0.141919      -0.006843
      9 H                     0.141956      -0.006429
     10 H                     0.134314      -0.018492
     11 H                     0.142619       0.003502
     12 C                    -0.131192       0.343511
     13 H                     0.134415      -0.018172
  --------------------------------------------------------
  Sum of atomic charges =     0.000000
  Sum of spin   charges =     1.000000

 -----------------------------------------------------------------
                    Cartesian Multipole Moments
 -----------------------------------------------------------------
    Charge (ESU x 10^10)
                -0.0000
    Dipole Moment (Debye)
         X      -0.5274      Y      -2.1627      Z       0.2850
       Tot       2.2442
    Quadrupole Moments (Debye-Ang)
        XX     -35.4237     XY      -1.9774     YY     -41.8128
        XZ      -2.1672     YZ       0.4768     ZZ     -42.7651
    Octopole Moments (Debye-Ang^2)
       XXX      -3.2552    XXY      -5.4900    XYY      -7.2251
       YYY     -37.0054    XXZ       0.4595    XYZ       0.2679
       YYZ       3.6433    XZZ      -1.3467    YZZ      -6.0720
       ZZZ       2.2951
    Hexadecapole Moments (Debye-Ang^3)
      XXXX    -351.2228   XXXY       3.9369   XXYY    -121.4144
      XYYY     -15.4299   YYYY    -429.6039   XXXZ      35.0474
      XXYZ       2.3062   XYYZ      12.7386   YYYZ      15.9481
      XXZZ     -76.2967   XYZZ       1.8634   YYZZ     -85.2075
      XZZZ      51.6423   YZZZ      11.0242   ZZZZ     -75.1543
 -----------------------------------------------------------------
 Calculating analytic gradient of the SCF energy
 Gradient of SCF Energy
            1           2           3           4           5           6
    1   0.0001087   0.0000043  -0.0000087  -0.0000316   0.0001568  -0.0002086
    2  -0.0002062  -0.0000603   0.0000515  -0.0001048   0.0000874   0.0000645
    3  -0.0000158   0.0000553  -0.0000279   0.0000276  -0.0000693   0.0000456
            7           8           9          10          11          12
    1  -0.0000133  -0.0000046   0.0000106   0.0000021  -0.0000169   0.0000045
    2   0.0000264  -0.0000039  -0.0000118   0.0000025  -0.0000076   0.0001567
    3   0.0000342  -0.0000268  -0.0000025   0.0000007   0.0000055  -0.0000215
           13
    1  -0.0000035
    2   0.0000055
    3  -0.0000051
 Max gradient component =       2.086E-04
 RMS gradient           =       7.032E-05
 Gradient time:  CPU 7.15 s  wall 1.92 s
 Geometry Optimization Parameters
   NAtoms,    NIC,     NZ,  NCons,   NDum,   NFix, NCnnct, MaxDiis
       13      82       0       0       0       0       0       0

 Cartesian Hessian Update
 Hessian Updated using BFGS Update


** GEOMETRY OPTIMIZATION IN DELOCALIZED INTERNAL COORDINATES **
   Searching for a Minimum

   Optimization Cycle:   3

                       Coordinates (Angstroms)
     ATOM                X               Y               Z
      1  C         1.3915629877    0.8456298448   -0.4532011840
      2  C         0.3327596462   -1.4191299512   -0.0084647962
      3  C        -0.9372459130   -1.0640392653    0.3358374337
      4  C        -1.4732362344    0.2709984383    0.4082704565
      5  C        -0.8282364513    1.4662632049    0.1483439022
      6  N         0.4320413586    1.7760278673   -0.2340189819
      7  H         2.3384515023    1.2997111233   -0.7534589563
      8  H         0.5701190180   -2.4810445442   -0.0122387312
      9  H        -1.6288423538   -1.8664394923    0.5848956409
     10  H        -2.5162658085    0.3548122936    0.7038817878
     11  H        -1.4480843328    2.3571561805    0.2722610443
     12  C         1.4094190941   -0.5335789134   -0.3736495680
     13  H         2.3575574872   -1.0063667865   -0.6184580478
   Point Group: c1    Number of degrees of freedom:    33


   Energy is   -286.924311130

 Hessian Updated using BFGS Update

 32 Hessian modes will be used to form the next step
  Hessian Eigenvalues:
     0.013633    0.019174    0.019940    0.020985    0.022104    0.022251
     0.023550    0.023861    0.026081    0.034141    0.152088    0.159998
     0.160000    0.160608    0.163471    0.200456    0.220119    0.221801
     0.232063    0.338473    0.345450    0.348574    0.350513    0.350785
     0.351193    0.360662    0.388265    0.409762    0.481501    0.487113
     0.511306    0.547910

 Minimum Search - Taking Simple RFO Step
 Searching for Lamda that Minimizes Along All modes
 Value Taken    Lamda =   0.00000000
 Step Taken.  Stepsize is  0.003871

                             Maximum     Tolerance    Cnvgd?
         Gradient           0.000122      0.000300     YES
         Displacement       0.002633      0.001200      NO
         Energy change     -0.000000      0.000001     YES


                       Distance Matrix (Angstroms)
             C (  1)   C (  2)   C (  3)   C (  4)   C (  5)   N (  6)
   C (  2)  2.539290
   C (  3)  3.113321  1.362919
   C (  4)  3.046212  2.508351  1.440437
   C (  5)  2.382132  3.114160  2.539580  1.382839
   N (  6)  1.354387  3.204647  3.204008  2.511520  1.352943
   H (  7)  1.092219  3.459756  4.183787  4.115438  3.296802  2.032510
   H (  8)  3.454849  1.088125  2.097906  3.453385  4.190754  4.265081
   H (  9)  4.189966  2.097628  1.088201  2.150361  3.455207  4.264438
   H ( 10)  4.104981  3.430926  2.154507  1.087346  2.096041  3.404707
   H ( 11)  3.297666  4.184561  3.459708  2.090738  1.092363  2.031970
   C ( 12)  1.381616  1.441095  2.508306  3.093290  3.046137  2.511782
   H ( 13)  2.095315  2.154593  3.430705  4.166631  4.105017  3.405455
             H (  7)   H (  8)   H (  9)   H ( 10)   H ( 11)   C ( 12)
   H (  8)  4.239165
   H (  9)  5.249297  2.360030
   H ( 10)  5.156060  4.252139  2.394919
   H ( 11)  4.063022  5.249978  4.239006  2.310128
   C ( 12)  2.090050  2.151201  3.453456  4.166691  4.115687
   H ( 13)  2.310105  2.395227  4.251961  5.230253  5.156508  1.087394

 
 Final energy is   -286.924311130445     


 ******************************
 **  OPTIMIZATION CONVERGED  **
 ******************************

                       Coordinates (Angstroms)
     ATOM                X               Y               Z
      1  C         1.3915629877    0.8456298448   -0.4532011840
      2  C         0.3327596462   -1.4191299512   -0.0084647962
      3  C        -0.9372459130   -1.0640392653    0.3358374337
      4  C        -1.4732362344    0.2709984383    0.4082704565
      5  C        -0.8282364513    1.4662632049    0.1483439022
      6  N         0.4320413586    1.7760278673   -0.2340189819
      7  H         2.3384515023    1.2997111233   -0.7534589563
      8  H         0.5701190180   -2.4810445442   -0.0122387312
      9  H        -1.6288423538   -1.8664394923    0.5848956409
     10  H        -2.5162658085    0.3548122936    0.7038817878
     11  H        -1.4480843328    2.3571561805    0.2722610443
     12  C         1.4094190941   -0.5335789134   -0.3736495680
     13  H         2.3575574872   -1.0063667865   -0.6184580478

Z-matrix Print:
$molecule
0 2
N 
C  1 1.352943
H  2 1.092363 1 111.956587
C  1 1.354387 2 123.256336 3 179.988914 0
H  4 1.092219 1 111.905800 2 -179.963312 0
C  4 1.381616 1 133.282224 2 0.020212 0
H  6 1.087394 4 115.616040 1 179.954951 0
C  2 1.382839 1 133.275441 3 -179.972981 0
H  8 1.087346 2 115.588020 1 179.986638 0
C  8 1.440437 2 128.177297 1 -0.033895 0
H  10 1.088201 8 115.811667 2 -179.994528 0
C  10 1.362919 8 126.935230 2 0.024285 0
H  12 1.088125 10 117.284079 8 -179.963592 0
$end

 
 --------------------------------------------------------------
 
                    Orbital Energies (a.u.)
 --------------------------------------------------------------
 
 Alpha MOs
 -- Occupied --
-14.322 -10.232 -10.232 -10.212 -10.211 -10.201 -10.200  -0.922
 -0.818  -0.784  -0.693  -0.667  -0.551  -0.537  -0.518  -0.449
 -0.439  -0.414  -0.394  -0.386  -0.349  -0.322  -0.299  -0.251
 -0.162
 -- Virtual --
 -0.072   0.077   0.097   0.101   0.117   0.142   0.181   0.184
  0.193   0.213   0.266   0.320   0.356   0.390   0.412   0.483
  0.497   0.521   0.547   0.576   0.584   0.587   0.591   0.610
  0.619   0.624   0.646   0.658   0.713   0.718   0.833   0.840
  0.847   0.854   0.868   0.872   0.885   0.922   0.965   0.975
  1.024   1.027   1.043   1.127   1.177   1.185   1.300   1.303
  1.326   1.401   1.429   1.480   1.482   1.546   1.574   1.586
  1.682   1.732   1.769   1.829   1.850   1.919   1.925   2.030
  2.046   2.048   2.100   2.141   2.142   2.191   2.247   2.391
  2.410   2.415   2.446   2.545   2.577   2.601   2.614   2.739
  2.748   2.807   3.052   3.249   3.250   4.018   4.046   4.102
  4.196   4.239   4.532   4.595
 
 Beta MOs
 -- Occupied --
-14.314 -10.234 -10.233 -10.210 -10.210 -10.196 -10.196  -0.911
 -0.809  -0.777  -0.681  -0.665  -0.546  -0.535  -0.514  -0.447
 -0.438  -0.411  -0.383  -0.373  -0.348  -0.295  -0.276  -0.242
 -- Virtual --
 -0.078  -0.070   0.078   0.118   0.124   0.125   0.142   0.182
  0.187   0.196   0.219   0.268   0.324   0.360   0.393   0.415
  0.486   0.505   0.525   0.551   0.587   0.588   0.592   0.596
  0.614   0.624   0.629   0.649   0.676   0.716   0.729   0.834
  0.843   0.846   0.869   0.875   0.880   0.887   0.925   0.967
  0.979   1.026   1.030   1.045   1.133   1.180   1.189   1.311
  1.315   1.333   1.411   1.429   1.489   1.492   1.560   1.582
  1.597   1.685   1.737   1.781   1.831   1.854   1.922   1.933
  2.036   2.058   2.061   2.110   2.142   2.147   2.203   2.259
  2.399   2.422   2.426   2.448   2.558   2.579   2.611   2.624
  2.742   2.761   2.810   3.054   3.252   3.254   4.030   4.053
  4.109   4.200   4.239   4.537   4.601
 --------------------------------------------------------------
 
          Ground-State Mulliken Net Atomic Charges

     Atom                 Charge (a.u.)    Spin (a.u.)
  --------------------------------------------------------
      1 C                     0.035324      -0.110562
      2 C                    -0.111622       0.098062
      3 C                    -0.110822       0.089400
      4 C                    -0.131931       0.350372
      5 C                     0.035826      -0.114637
      6 N                    -0.423390       0.386986
      7 H                     0.142585       0.003301
      8 H                     0.141919      -0.006843
      9 H                     0.141956      -0.006429
     10 H                     0.134314      -0.018492
     11 H                     0.142619       0.003502
     12 C                    -0.131192       0.343511
     13 H                     0.134415      -0.018172
  --------------------------------------------------------
  Sum of atomic charges =     0.000000
  Sum of spin   charges =     1.000000

 -----------------------------------------------------------------
                    Cartesian Multipole Moments
 -----------------------------------------------------------------
    Charge (ESU x 10^10)
                -0.0000
    Dipole Moment (Debye)
         X      -0.5274      Y      -2.1627      Z       0.2850
       Tot       2.2442
    Quadrupole Moments (Debye-Ang)
        XX     -35.4237     XY      -1.9774     YY     -41.8128
        XZ      -2.1672     YZ       0.4768     ZZ     -42.7651
    Octopole Moments (Debye-Ang^2)
       XXX      -3.2552    XXY      -5.4900    XYY      -7.2251
       YYY     -37.0054    XXZ       0.4595    XYZ       0.2679
       YYZ       3.6433    XZZ      -1.3467    YZZ      -6.0720
       ZZZ       2.2951
    Hexadecapole Moments (Debye-Ang^3)
      XXXX    -351.2228   XXXY       3.9369   XXYY    -121.4144
      XYYY     -15.4299   YYYY    -429.6039   XXXZ      35.0474
      XXYZ       2.3062   XYYZ      12.7386   YYYZ      15.9481
      XXZZ     -76.2967   XYZZ       1.8634   YYZZ     -85.2075
      XZZZ      51.6423   YZZZ      11.0242   ZZZZ     -75.1543
 -----------------------------------------------------------------
Archival summary:
1\1\c8-72\OPT\ProcedureUnspecified\6-31G*\166(2)\hpark21\WedMar223:51:252022WedMar223:51:252022\0\\#,OPT,ProcedureUnspecified,6-31G*,\\0,2\N\C,1,1.35294\H,2,1.09236,1,111.957\C,1,1.35439,2,123.256,3,179.989,0\H,4,1.09222,1,111.906,2,-179.963,0\C,4,1.38162,1,133.282,2,0.0202118,0\H,6,1.08739,4,115.616,1,179.955,0\C,2,1.38284,1,133.275,3,-179.973,0\H,8,1.08735,2,115.588,1,179.987,0\C,8,1.44044,2,128.177,1,-0.0338951,0\H,10,1.0882,8,115.812,2,-179.995,0\C,10,1.36292,8,126.935,2,0.0242853,0\H,12,1.08813,10,117.284,8,-179.964,0\\\@

 Total job time:  53.09s(wall), 166.95s(cpu) 
 Wed Mar  2 23:51:25 2022

        *************************************************************
        *                                                           *
        *  Thank you very much for using Q-Chem.  Have a nice day.  *
        *                                                           *
        *************************************************************


