
Running Job 1 of 1 qcts2.in
qchem qcts2.in_22883.0 ./qcts2.d/ 1
/home/leeping/opt/qchem/5.0.2-openmp/exe/qcprog.exe_s qcts2.in_22883.0 ./qcts2.d/
Check license passed

                  Welcome to Q-Chem
     A Quantum Leap Into The Future Of Chemistry


 Q-Chem 5.0, Q-Chem, Inc., Pleasanton, CA (2017)

 Yihan Shao,  Zhengting Gan,  E. Epifanovsky,  A. T. B. Gilbert,  M. Wormit,  
 J. Kussmann,  A. W. Lange,  A. Behn,  Jia Deng,  Xintian Feng,  D. Ghosh,  
 M. Goldey,  P. R. Horn,  L. D. Jacobson,  I. Kaliman,  T. Kus,  A. Landau,  
 Jie Liu,  E. I. Proynov,  R. M. Richard,  R. P. Steele,  E. J. Sundstrom,  
 H. L. Woodcock III,  P. M. Zimmerman,  D. Zuev,  B. Albrecht,  E. Alguire,  
 S. A. Baeppler,  D. Barton,  Z. Benda,  Y. A. Bernard,  E. J. Berquist,  
 K. B. Bravaya,  H. Burton,  D. Casanova,  Chun-Min Chang,  Yunqing Chen,  
 A. Chien,  K. D. Closser,  M. P. Coons,  S. Dasgupta,  A. L. Dempwolff,  
 M. Diedenhofen,  Hainam Do,  R. G. Edgar,  Po-Tung Fang,  S. Fatehi,  
 Qingguo Feng,  J. Fosso-Tande,  Qinghui Ge,  A. Ghysels,  G. Gidofalvi,  
 J. Gomes,  J. Gonthier,  A. Gunina,  M. W. D. Hanson-Heine,  
 P. H. P. Harbach,  A. W. Hauser,  J. E. Herr,  E. G. Hohenstein,  
 Z. C. Holden,  Kerwin Hui,  T.-C. Jagau,  Hyunjun Ji,  B. Kaduk,  
 K. Khistyaev,  Jaehoon Kim,  P. Klunzinger,  K. Koh,  D. Kosenkov,  
 L. Koulias,  T. Kowalczyk,  C. M. Krauter,  A. Kunitsa,  Ka Un Lao,  
 A. Laurent,  K. V. Lawler,  Joonho Lee,  D. Lefrancois,  S. Lehtola,  
 D. S. Levine,  Yi-Pei Li,  You-Sheng Lin,  Fenglai Liu,  E. Livshits,  
 A. Luenser,  P. Manohar,  E. Mansoor,  S. F. Manzer,  Shan-Ping Mao,  
 Yuezhi Mao,  N. Mardirossian,  A. V. Marenich,  T. Markovich,  
 L. A. Martinez-Martinez,  S. A. Maurer,  N. J. Mayhall,  S. C. McKenzie,  
 J.-M. Mewes,  A. F. Morrison,  J. W. Mullinax,  K. Nanda,  
 T. S. Nguyen-Beck,  R. Olivares-Amaya,  J. A. Parkhill,  T. M. Perrine,  
 F. Plasser,  S. Prager,  A. Prociuk,  E. Ramos,  D. R. Rehn,  F. Rob,  
 M. Schneider,  N. Sergueev,  S. M. Sharada,  S. Sharma,  D. W. Small,  
 T. Stauch,  T. Stein,  Yu-Chuan Su,  A. J. W. Thom,  A. Tkatchenko,  
 T. Tsuchimochi,  L. Vogt,  O. Vydrov,  M. A. Watson,  J. Wenzel,  
 M. de Wergifosse,  T. A. Wesolowski,  A. White,  J. Witte,  A. Yamada,  
 Jun Yang,  K. Yao,  S. Yeganeh,  S. R. Yost,  Zhi-Qiang You,  A. Zech,  
 Igor Ying Zhang,  Xing Zhang,  Yan Zhao,  Ying Zhu,  B. R. Brooks,  
 G. K. L. Chan,  C. J. Cramer,  M. S. Gordon,  W. J. Hehre,  A. Klamt,  
 M. W. Schmidt,  C. D. Sherrill,  D. G. Truhlar,  A. Aspuru-Guzik,  R. Baer,  
 A. T. Bell,  N. A. Besley,  Jeng-Da Chai,  R. A. DiStasio Jr.,  A. Dreuw,  
 B. D. Dunietz,  T. R. Furlani,  Chao-Ping Hsu,  Yousung Jung,  Jing Kong,  
 D. S. Lambrecht,  WanZhen Liang,  C. Ochsenfeld,  V. A. Rassolov,  
 L. V. Slipchenko,  J. E. Subotnik,  T. Van Voorhis,  J. M. Herbert,  
 A. I. Krylov,  P. M. W. Gill,  M. Head-Gordon

 Contributors to earlier versions of Q-Chem not listed above: 
 R. D. Adamson,  B. Austin,  J. Baker,  G. J. O. Beran,  K. Brandhorst,  
 S. T. Brown,  E. F. C. Byrd,  A. K. Chakraborty,  C.-L. Cheng,  
 Siu Hung Chien,  D. M. Chipman,  D. L. Crittenden,  H. Dachsel,  
 R. J. Doerksen,  A. D. Dutoi,  L. Fusti-Molnar,  W. A. Goddard III,  
 A. Golubeva-Zadorozhnaya,  S. R. Gwaltney,  G. Hawkins,  A. Heyden,  
 S. Hirata,  G. Kedziora,  F. J. Keil,  C. Kelley,  Jihan Kim,  R. A. King,  
 R. Z. Khaliullin,  P. P. Korambath,  W. Kurlancheek,  A. M. Lee,  M. S. Lee,  
 S. V. Levchenko,  Ching Yeh Lin,  D. Liotard,  R. C. Lochan,  I. Lotan,  
 P. E. Maslen,  N. Nair,  D. P. O'Neill,  D. Neuhauser,  E. Neuscamman,  
 C. M. Oana,  R. Olson,  B. Peters,  R. Peverati,  P. A. Pieniazek,  
 Y. M. Rhee,  J. Ritchie,  M. A. Rohrdanz,  E. Rosta,  N. J. Russ,  
 H. F. Schaefer III,  N. E. Schultz,  N. Shenvi,  A. C. Simmonett,  A. Sodt,  
 D. Stuck,  K. S. Thanthiriwatte,  V. Vanovschi,  Tao Wang,  A. Warshel,  
 C. F. Williams,  Q. Wu,  X. Xu,  W. Zhang

 Please cite Q-Chem as follows:
 Y. Shao et al., Mol. Phys. 113, 184-215 (2015)
 DOI: 10.1080/00268976.2014.952696

 Q-Chem 5.0.2 for Intel X86 EM64T Linux

 Parts of Q-Chem use Armadillo 5.200.1 (Boston Tea Smuggler).
 http://arma.sourceforge.net/

 Q-Chem begins on Thu Mar  3 01:32:03 2022  

Host: 
0

     Scratch files written to ./qcts2.d//
 Dec517 15110_ 26548  26544 5633   
Processing $rem in /home/leeping/opt/qchem/5.0.2-openmp/config/preferences.
 MEM_STATIC 2000
 MEM_TOTAL  8000
 SYMMETRY   OFF
 SYM_IGNORE TRUE 

Checking the input file for inconsistencies... 	...done.

--------------------------------------------------------------
User input:
--------------------------------------------------------------
$molecule
0 2
C        1.9394910574    0.8996732171   -0.3810573407
C       -1.3595542270   -2.5679001621    0.6502124810
C       -1.4578858236   -1.3091062295    1.0138803516
C       -1.4634304089   -0.1518426926    0.0798301665
C       -0.3543302260    0.5275255446   -0.3329725164
N        0.8923996886    0.1912787148    0.0909921763
H        2.9110659922    0.5815779396    0.0203403107
H       -1.3467403036   -3.5304766142    1.1468095275
H       -1.5759127434   -1.0672327662    2.0804889363
H       -2.4326951989    0.1919576656   -0.2799444214
H       -0.4860124421    1.3716719870   -1.0198392490
C        1.9614523853    1.9292395937   -1.2711397112
H        2.7443933111    2.5407509211   -1.7020784389
$end

$rem
method                b3lyp
basis                 6-31+g(d,p)
unrestricted          true
symmetry              off
sym_ignore            true
incdft                false
incfock               0
scf_convergence       6
thresh                14
jobtype               sp
scf_guess             read
scf_algorithm         diis
max_scf_cycles        100
stability_analysis    true
max_cis_cycles        100
cis_n_roots           4
$end

--------------------------------------------------------------
 ----------------------------------------------------------------
             Standard Nuclear Orientation (Angstroms)
    I     Atom           X                Y                Z
 ----------------------------------------------------------------
    1      C       1.9394910574     0.8996732171    -0.3810573407
    2      C      -1.3595542270    -2.5679001621     0.6502124810
    3      C      -1.4578858236    -1.3091062295     1.0138803516
    4      C      -1.4634304089    -0.1518426926     0.0798301665
    5      C      -0.3543302260     0.5275255446    -0.3329725164
    6      N       0.8923996886     0.1912787148     0.0909921763
    7      H       2.9110659922     0.5815779396     0.0203403107
    8      H      -1.3467403036    -3.5304766142     1.1468095275
    9      H      -1.5759127434    -1.0672327662     2.0804889363
   10      H      -2.4326951989     0.1919576656    -0.2799444214
   11      H      -0.4860124421     1.3716719870    -1.0198392490
   12      C       1.9614523853     1.9292395937    -1.2711397112
   13      H       2.7443933111     2.5407509211    -1.7020784389
 ----------------------------------------------------------------
 Nuclear Repulsion Energy =   236.3833349902 hartrees
 There are       25 alpha and       24 beta electrons
 Requested basis set is 6-31+G(d,p)
 There are 53 shells and 163 basis functions

 Total QAlloc Memory Limit   8000 MB
 Mega-Array Size      1956 MB
 MEM_STATIC part      2000 MB

                       Distance Matrix (Angstroms)
             C (  1)   C (  2)   C (  3)   C (  4)   C (  5)   N (  6)
   C (  2)  4.896048
   C (  3)  4.285642  1.313958
   C (  4)  3.591375  2.484645  1.487192
   C (  5)  2.324311  3.399822  2.530823  1.364570
   N (  6)  1.349464  3.605148  2.937128  2.380713  1.359097
   H (  7)  1.098300  5.343608  4.863080  4.435951  3.284899  2.057265
   H (  8)  5.723628  1.083202  2.228118  3.545029  4.431931  4.469895
   H (  9)  4.720804  2.084347  1.100040  2.203004  3.140114  3.410940
   H ( 10)  4.430248  3.103810  2.208490  1.089546  2.105948  3.345721
   H ( 11)  2.552233  4.367193  3.502446  2.117951  1.096225  2.127744
   C ( 12)  1.361152  5.911425  5.234508  4.229166  2.864927  2.453321
   H ( 13)  2.255238  6.962325  6.313239  5.303870  3.940763  3.487836
             H (  7)   H (  8)   H (  9)   H ( 10)   H ( 11)   C ( 12)
   H (  8)  6.025516
   H (  9)  5.205359  2.644210
   H ( 10)  5.366354  4.131760  2.809143
   H ( 11)  3.639555  5.428285  4.092453  2.393479
   C ( 12)  2.094249  6.826355  5.720596  4.827955  2.522720
   H ( 13)  2.613975  7.855784  6.781623  5.860166  3.502530  1.082890

 
 A cutoff of  1.0D-14 yielded   1298 shell pairs
 There are     12754 function pairs
 Smallest overlap matrix eigenvalue = 1.68E-05

 Scale SEOQF with 1.000000e-01/1.000000e-01/1.000000e-01

 Standard Electronic Orientation quadrupole field applied
 Nucleus-field energy     =     0.0000000082 hartrees
 Guess MOs from SCF MO coefficient file
 Reading MOs from coefficient file
 Reading MOs from coefficient file
 An unrestricted hybrid HF-DFT SCF calculation will be
 performed using Pulay DIIS extrapolation
 Exchange:     0.2000 Hartree-Fock + 0.0800 Slater + 0.7200 B88
 Correlation:  0.1900 VWN1RPA + 0.8100 LYP
 Using SG-1 standard quadrature grid
 SCF converges when DIIS error is below 1.0E-06
Using Q-Chem read-in guess as SCF_GUESS READ specified.

 -------------------------------------------------------
 OpenMP BLAS3 based DFT computing Module                
 -------------------------------------------------------
 ---------------------------------------
  Cycle       Energy         DIIS Error
 ---------------------------------------
    1    -286.7262343080      2.65E-09
    2    -286.7262343080      6.15E-09 Convergence criterion met
 ---------------------------------------
 <S^2> = 1.7264
 SCF time:  CPU 5.78 s  wall 6.58 s
 SCF   energy in the final basis set = -286.72623431
 Total energy in the final basis set = -286.72623431
 
 Direct TDDFT/TDA calculation will be performed
 Exchange:     0.2000 Hartree-Fock + 0.0800 Slater + 0.7200 B88
 Correlation:  0.1900 VWN1RPA + 0.8100 LYP
 Using SG-1 standard quadrature grid
 CIS energy converged when residual is below 10e- 6
 ---------------------------------------------------
 Iter    Rts Conv    Rts Left    Ttl Dev     Max Dev
 ---------------------------------------------------
   1         0           4      0.003646    0.002405
   2         0           4      0.001121    0.000571
   3         0           4      0.001009    0.000589
   4         0           4      0.000761    0.000491
   5         0           4      0.000269    0.000173
   6         1           3      0.000157    0.000085
   7         1           3      0.000065    0.000036
   8         2           2      0.000016    0.000008
   9         2           2      0.000005    0.000002
  10         4           0      0.000002    0.000001    Roots Converged
 ---------------------------------------------------
 
 ---------------------------------------------------
         TDDFT/TDA Excitation Energies              
 ---------------------------------------------------

 Excited state   1: excitation energy (eV) =    0.1479
 Total energy for state  1:                  -286.72079739 au
    <S**2>     :  0.8815
    Trans. Mom.: -0.0051 X   0.0396 Y   0.0446 Z
    Strength   :     0.0000129827
    S(  1) --> V(  1) amplitude =  0.6945 alpha
    D( 24) --> S(  1) amplitude = -0.6891 beta

 Excited state   2: excitation energy (eV) =    1.7133
 Total energy for state  2:                  -286.66327301 au
    <S**2>     :  1.0201
    Trans. Mom.:  0.5839 X   0.5707 Y  -0.4029 Z
    Strength   :     0.0347897357
    D( 22) --> V(  1) amplitude =  0.2283 alpha
    D( 23) --> V(  1) amplitude = -0.2678 alpha
    D( 24) --> V(  1) amplitude =  0.1554 alpha
    S(  1) --> V(  1) amplitude =  0.5859 alpha
    D( 21) --> S(  1) amplitude =  0.1932 beta
    D( 22) --> S(  1) amplitude = -0.2033 beta
    D( 23) --> S(  1) amplitude = -0.1547 beta
    D( 24) --> S(  1) amplitude =  0.5822 beta

 Excited state   3: excitation energy (eV) =    2.1479
 Total energy for state  3:                  -286.64729981 au
    <S**2>     :  1.3872
    Trans. Mom.: -0.2275 X  -0.3706 Y   0.2571 Z
    Strength   :     0.0134296361
    D( 21) --> V(  1) amplitude =  0.2462 alpha
    D( 23) --> V(  1) amplitude = -0.3986 alpha
    D( 24) --> V(  1) amplitude =  0.7506 alpha
    D( 21) --> S(  1) amplitude = -0.2418 beta
    D( 22) --> S(  1) amplitude = -0.1609 beta
    D( 23) --> S(  1) amplitude = -0.1869 beta
    D( 24) --> S(  1) amplitude = -0.1994 beta

 Excited state   4: excitation energy (eV) =    2.2790
 Total energy for state  4:                  -286.64248112 au
    <S**2>     :  1.8222
    Trans. Mom.: -0.0460 X  -0.0952 Y   0.0498 Z
    Strength   :     0.0007627776
    D( 21) --> V(  1) amplitude = -0.3170 alpha
    D( 22) --> V(  1) amplitude =  0.3833 alpha
    D( 23) --> V(  1) amplitude = -0.3398 alpha
    D( 24) --> V(  1) amplitude = -0.4020 alpha
    S(  1) --> V(  1) amplitude = -0.1677 alpha
    D( 21) --> S(  1) amplitude = -0.5971 beta
    D( 23) --> S(  1) amplitude = -0.1619 beta
    D( 24) --> V(  2) amplitude =  0.1521 beta
 
 ---------------------------------------------------

 Stability analysis will be performed
 ---------------------------------------------------
 Iter    Rts Conv    Rts Left    Ttl Dev     Max Dev
 ---------------------------------------------------
   1         0           8      0.004503    0.000841
   2         0           8      0.001622    0.000494
   3         0           8      0.001095    0.000321
   4         1           7      0.000498    0.000138
   5         2           6      0.000187    0.000058
   6         3           5      0.000069    0.000030
   7         5           3      0.000028    0.000015
   8         5           3      0.000014    0.000008
   9         6           2      0.000007    0.000003
  10         8           0      0.000003    0.000001    Roots Converged
 UKS-> UKS unstable,  1 negative eigenvalue(s):  -0.0284074
 UKS->CUKS   stable,    smallest eigenvalue:      0.0317479
 Changing MO Coefs to correct UHF internal instability and writing to disk
 Xmax=  0.683360223071713     
 ScaleFactor=  0.292671409964422     
 CtSC
            1           2           3           4           5           6
    1   1.0000000  -0.0000000   0.0000000  -0.0000000   0.0000000  -0.0000000
    2  -0.0000000   1.0000000  -0.0000000   0.0000000  -0.0000000  -0.0000000
    3   0.0000000  -0.0000000   1.0000000  -0.0000000   0.0000000  -0.0000000
    4  -0.0000000   0.0000000  -0.0000000   1.0000000  -0.0000000   0.0000000
    5   0.0000000  -0.0000000   0.0000000  -0.0000000   1.0000000  -0.0000000
    6  -0.0000000  -0.0000000  -0.0000000   0.0000000  -0.0000000   1.0000000
    7  -0.0000000   0.0000000   0.0000000   0.0000000   0.0000000   0.0000000
    8  -0.0000000   0.0000000  -0.0000000   0.0000000  -0.0000000   0.0000000
    9  -0.0000000  -0.0000000  -0.0000000   0.0000000  -0.0000000  -0.0000000
   10   0.0000000  -0.0000000   0.0000000  -0.0000000   0.0000000   0.0000000
   11  -0.0000000  -0.0000000  -0.0000000   0.0000000  -0.0000000  -0.0000000
   12  -0.0000000   0.0000000  -0.0000000   0.0000000   0.0000000   0.0000000
   13  -0.0000000   0.0000000   0.0000000   0.0000000   0.0000000   0.0000000
   14  -0.0000000  -0.0000000   0.0000000  -0.0000000  -0.0000000  -0.0000000
   15   0.0000000   0.0000000   0.0000000   0.0000000   0.0000000   0.0000000
   16  -0.0000000  -0.0000000  -0.0000000  -0.0000000  -0.0000000  -0.0000000
   17   0.0000000  -0.0000000   0.0000000  -0.0000000   0.0000000   0.0000000
   18  -0.0000000   0.0000000   0.0000000   0.0000000   0.0000000   0.0000000
   19   0.0000000   0.0000000   0.0000000   0.0000000  -0.0000000  -0.0000000
   20   0.0000000   0.0000000   0.0000000   0.0000000   0.0000000  -0.0000000
   21  -0.0000000  -0.0000000  -0.0000000   0.0000000  -0.0000000  -0.0000000
   22   0.0000000   0.0000000  -0.0000000   0.0000000  -0.0000000   0.0000000
   23   0.0000000   0.0000000   0.0000000   0.0000000   0.0000000  -0.0000000
   24   0.0000000   0.0000000   0.0000000   0.0000000   0.0000000   0.0000000
   25   0.0000000   0.0000000   0.0000000   0.0000000   0.0000000   0.0000000
            7           8           9          10          11          12
    1  -0.0000000  -0.0000000  -0.0000000   0.0000000  -0.0000000  -0.0000000
    2   0.0000000   0.0000000  -0.0000000  -0.0000000  -0.0000000   0.0000000
    3   0.0000000  -0.0000000  -0.0000000   0.0000000  -0.0000000  -0.0000000
    4   0.0000000   0.0000000   0.0000000  -0.0000000   0.0000000   0.0000000
    5   0.0000000  -0.0000000  -0.0000000   0.0000000  -0.0000000   0.0000000
    6   0.0000000   0.0000000  -0.0000000   0.0000000  -0.0000000   0.0000000
    7   1.0000000   0.0000000  -0.0000000   0.0000000   0.0000000   0.0000000
    8   0.0000000   1.0000000  -0.0000000   0.0000000  -0.0000000  -0.0000000
    9  -0.0000000  -0.0000000   1.0000000   0.0000000  -0.0000000   0.0000000
   10   0.0000000   0.0000000   0.0000000   1.0000000   0.0000000   0.0000000
   11   0.0000000  -0.0000000  -0.0000000   0.0000000   1.0000000   0.0000000
   12   0.0000000  -0.0000000  -0.0000000   0.0000000   0.0000000   1.0000000
   13  -0.0000000   0.0000000   0.0000000  -0.0000000   0.0000000  -0.0000000
   14   0.0000000  -0.0000000  -0.0000000   0.0000000  -0.0000000   0.0000000
   15   0.0000000   0.0000000   0.0000000  -0.0000000   0.0000000   0.0000000
   16  -0.0000000  -0.0000000  -0.0000000  -0.0000000   0.0000000  -0.0000000
   17  -0.0000000   0.0000000   0.0000000  -0.0000000  -0.0000000  -0.0000000
   18   0.0000000   0.0000000   0.0000000  -0.0000000   0.0000000  -0.0000000
   19  -0.0000000  -0.0000000  -0.0000000  -0.0000000   0.0000000  -0.0000000
   20  -0.0000000   0.0000000  -0.0000000  -0.0000000   0.0000000  -0.0000000
   21   0.0000000  -0.0000000  -0.0000000   0.0000000  -0.0000000   0.0000000
   22  -0.0000000  -0.0000000  -0.0000000   0.0000000   0.0000000  -0.0000000
   23  -0.0000000   0.0000000   0.0000000  -0.0000000   0.0000000  -0.0000000
   24   0.0000000   0.0000000   0.0000000  -0.0000000   0.0000000   0.0000000
   25  -0.0000000   0.0000000   0.0000000  -0.0000000   0.0000000  -0.0000000
           13          14          15          16          17          18
    1  -0.0000000  -0.0000000   0.0000000  -0.0000000   0.0000000  -0.0000000
    2   0.0000000  -0.0000000   0.0000000  -0.0000000  -0.0000000   0.0000000
    3   0.0000000   0.0000000   0.0000000  -0.0000000   0.0000000   0.0000000
    4   0.0000000  -0.0000000   0.0000000  -0.0000000  -0.0000000   0.0000000
    5   0.0000000  -0.0000000   0.0000000  -0.0000000   0.0000000   0.0000000
    6   0.0000000  -0.0000000   0.0000000  -0.0000000   0.0000000   0.0000000
    7  -0.0000000   0.0000000   0.0000000  -0.0000000  -0.0000000   0.0000000
    8   0.0000000  -0.0000000   0.0000000  -0.0000000   0.0000000   0.0000000
    9   0.0000000  -0.0000000   0.0000000  -0.0000000   0.0000000   0.0000000
   10  -0.0000000   0.0000000  -0.0000000  -0.0000000  -0.0000000  -0.0000000
   11   0.0000000  -0.0000000   0.0000000   0.0000000   0.0000000   0.0000000
   12  -0.0000000   0.0000000   0.0000000  -0.0000000  -0.0000000  -0.0000000
   13   1.0000000   0.0000000   0.0000000  -0.0000000  -0.0000000  -0.0000000
   14   0.0000000   1.0000000  -0.0000000  -0.0000000  -0.0000000   0.0000000
   15   0.0000000  -0.0000000   1.0000000   0.0000000   0.0000000  -0.0000000
   16  -0.0000000  -0.0000000   0.0000000   1.0000000   0.0000000   0.0000000
   17  -0.0000000  -0.0000000   0.0000000   0.0000000   1.0000000   0.0000000
   18  -0.0000000   0.0000000  -0.0000000   0.0000000   0.0000000   1.0000000
   19  -0.0000000   0.0000000   0.0000000  -0.0000000  -0.0000000  -0.0000000
   20  -0.0000000   0.0000000   0.0000000   0.0000000   0.0000000  -0.0000000
   21   0.0000000   0.0000000   0.0000000  -0.0000000  -0.0000000  -0.0000000
   22   0.0000000   0.0000000   0.0000000  -0.0000000  -0.0000000  -0.0000000
   23  -0.0000000   0.0000000   0.0000000  -0.0000000  -0.0000000  -0.0000000
   24  -0.0000000  -0.0000000  -0.0000000   0.0000000   0.0000000  -0.0000000
   25  -0.0000000  -0.0000000   0.0000000   0.0000000   0.0000000   0.0000000
           19          20          21          22          23          24
    1   0.0000000   0.0000000  -0.0000000   0.0000000   0.0000000   0.0000000
    2   0.0000000   0.0000000  -0.0000000   0.0000000   0.0000000   0.0000000
    3  -0.0000000   0.0000000  -0.0000000  -0.0000000   0.0000000   0.0000000
    4   0.0000000   0.0000000   0.0000000   0.0000000   0.0000000   0.0000000
    5  -0.0000000   0.0000000  -0.0000000  -0.0000000   0.0000000   0.0000000
    6  -0.0000000  -0.0000000  -0.0000000   0.0000000  -0.0000000   0.0000000
    7  -0.0000000  -0.0000000   0.0000000  -0.0000000  -0.0000000   0.0000000
    8  -0.0000000   0.0000000  -0.0000000  -0.0000000   0.0000000   0.0000000
    9  -0.0000000  -0.0000000  -0.0000000  -0.0000000   0.0000000   0.0000000
   10  -0.0000000  -0.0000000   0.0000000   0.0000000  -0.0000000  -0.0000000
   11   0.0000000   0.0000000  -0.0000000   0.0000000   0.0000000   0.0000000
   12  -0.0000000  -0.0000000   0.0000000  -0.0000000  -0.0000000   0.0000000
   13  -0.0000000  -0.0000000   0.0000000   0.0000000  -0.0000000  -0.0000000
   14   0.0000000   0.0000000   0.0000000   0.0000000   0.0000000  -0.0000000
   15   0.0000000  -0.0000000   0.0000000   0.0000000   0.0000000  -0.0000000
   16  -0.0000000   0.0000000  -0.0000000  -0.0000000  -0.0000000   0.0000000
   17  -0.0000000   0.0000000  -0.0000000  -0.0000000  -0.0000000   0.0000000
   18  -0.0000000  -0.0000000  -0.0000000  -0.0000000  -0.0000000  -0.0000000
   19   1.0000000  -0.0000000   0.0000000  -0.0000000  -0.0000000   0.0000000
   20  -0.0000000   1.0000000   0.0000000  -0.0000000   0.0000000  -0.0000000
   21   0.0000000   0.0000000   1.0000000   0.0000000   0.0000000   0.0000000
   22  -0.0000000  -0.0000000   0.0000000   1.0000000  -0.0000000   0.0000000
   23  -0.0000000   0.0000000   0.0000000  -0.0000000   1.0000000   0.0000000
   24   0.0000000  -0.0000000   0.0000000   0.0000000   0.0000000   1.0000000
   25  -0.0000000   0.0000000  -0.0000000  -0.0000000  -0.0000000   0.0000000
           25
    1   0.0000000
    2   0.0000000
    3   0.0000000
    4   0.0000000
    5   0.0000000
    6   0.0000000
    7  -0.0000000
    8   0.0000000
    9   0.0000000
   10  -0.0000000
   11   0.0000000
   12  -0.0000000
   13  -0.0000000
   14  -0.0000000
   15   0.0000000
   16   0.0000000
   17   0.0000000
   18   0.0000000
   19  -0.0000000
   20   0.0000000
   21  -0.0000000
   22  -0.0000000
   23  -0.0000000
   24   0.0000000
   25   1.0000000
 Max Idempotency Error (CtSC-I): 0.231E-13
 Xmax=  0.683360223071713     
 ScaleFactor=  0.292671409964422     
 CtSC
            1           2           3           4           5           6
    1   1.0000000  -0.0000000   0.0000000  -0.0000000   0.0000000  -0.0000000
    2  -0.0000000   1.0000000  -0.0000000   0.0000000  -0.0000000  -0.0000000
    3   0.0000000  -0.0000000   1.0000000  -0.0000000   0.0000000  -0.0000000
    4  -0.0000000   0.0000000  -0.0000000   1.0000000  -0.0000000   0.0000000
    5   0.0000000  -0.0000000   0.0000000  -0.0000000   1.0000000  -0.0000000
    6  -0.0000000  -0.0000000  -0.0000000   0.0000000  -0.0000000   1.0000000
    7  -0.0000000   0.0000000   0.0000000   0.0000000   0.0000000   0.0000000
    8  -0.0000000   0.0000000  -0.0000000   0.0000000  -0.0000000   0.0000000
    9  -0.0000000  -0.0000000  -0.0000000   0.0000000  -0.0000000  -0.0000000
   10   0.0000000  -0.0000000   0.0000000  -0.0000000   0.0000000   0.0000000
   11  -0.0000000  -0.0000000  -0.0000000   0.0000000  -0.0000000  -0.0000000
   12  -0.0000000   0.0000000  -0.0000000   0.0000000   0.0000000   0.0000000
   13  -0.0000000   0.0000000   0.0000000   0.0000000   0.0000000   0.0000000
   14  -0.0000000  -0.0000000   0.0000000  -0.0000000  -0.0000000  -0.0000000
   15   0.0000000   0.0000000   0.0000000   0.0000000   0.0000000   0.0000000
   16  -0.0000000  -0.0000000  -0.0000000  -0.0000000  -0.0000000  -0.0000000
   17   0.0000000  -0.0000000   0.0000000  -0.0000000   0.0000000   0.0000000
   18  -0.0000000   0.0000000   0.0000000   0.0000000   0.0000000   0.0000000
   19   0.0000000   0.0000000   0.0000000   0.0000000  -0.0000000  -0.0000000
   20   0.0000000   0.0000000   0.0000000   0.0000000   0.0000000  -0.0000000
   21  -0.0000000  -0.0000000  -0.0000000   0.0000000  -0.0000000  -0.0000000
   22   0.0000000   0.0000000  -0.0000000   0.0000000  -0.0000000   0.0000000
   23   0.0000000   0.0000000   0.0000000   0.0000000   0.0000000  -0.0000000
   24   0.0000000   0.0000000   0.0000000   0.0000000   0.0000000   0.0000000
            7           8           9          10          11          12
    1  -0.0000000  -0.0000000  -0.0000000   0.0000000  -0.0000000  -0.0000000
    2   0.0000000   0.0000000  -0.0000000  -0.0000000  -0.0000000   0.0000000
    3   0.0000000  -0.0000000  -0.0000000   0.0000000  -0.0000000  -0.0000000
    4   0.0000000   0.0000000   0.0000000  -0.0000000   0.0000000   0.0000000
    5   0.0000000  -0.0000000  -0.0000000   0.0000000  -0.0000000   0.0000000
    6   0.0000000   0.0000000  -0.0000000   0.0000000  -0.0000000   0.0000000
    7   1.0000000   0.0000000  -0.0000000   0.0000000   0.0000000   0.0000000
    8   0.0000000   1.0000000  -0.0000000   0.0000000  -0.0000000  -0.0000000
    9  -0.0000000  -0.0000000   1.0000000   0.0000000  -0.0000000   0.0000000
   10   0.0000000   0.0000000   0.0000000   1.0000000   0.0000000   0.0000000
   11   0.0000000  -0.0000000  -0.0000000   0.0000000   1.0000000   0.0000000
   12   0.0000000  -0.0000000  -0.0000000   0.0000000   0.0000000   1.0000000
   13  -0.0000000   0.0000000   0.0000000  -0.0000000   0.0000000  -0.0000000
   14   0.0000000  -0.0000000  -0.0000000   0.0000000  -0.0000000   0.0000000
   15   0.0000000   0.0000000   0.0000000  -0.0000000   0.0000000   0.0000000
   16  -0.0000000  -0.0000000  -0.0000000  -0.0000000   0.0000000  -0.0000000
   17  -0.0000000   0.0000000   0.0000000  -0.0000000  -0.0000000  -0.0000000
   18   0.0000000   0.0000000   0.0000000  -0.0000000   0.0000000  -0.0000000
   19  -0.0000000  -0.0000000  -0.0000000  -0.0000000   0.0000000  -0.0000000
   20  -0.0000000   0.0000000  -0.0000000  -0.0000000   0.0000000  -0.0000000
   21   0.0000000  -0.0000000  -0.0000000   0.0000000  -0.0000000   0.0000000
   22  -0.0000000  -0.0000000  -0.0000000   0.0000000   0.0000000  -0.0000000
   23  -0.0000000   0.0000000   0.0000000  -0.0000000   0.0000000  -0.0000000
   24   0.0000000   0.0000000   0.0000000  -0.0000000   0.0000000   0.0000000
           13          14          15          16          17          18
    1  -0.0000000  -0.0000000   0.0000000  -0.0000000   0.0000000  -0.0000000
    2   0.0000000  -0.0000000   0.0000000  -0.0000000  -0.0000000   0.0000000
    3   0.0000000   0.0000000   0.0000000  -0.0000000   0.0000000   0.0000000
    4   0.0000000  -0.0000000   0.0000000  -0.0000000  -0.0000000   0.0000000
    5   0.0000000  -0.0000000   0.0000000  -0.0000000   0.0000000   0.0000000
    6   0.0000000  -0.0000000   0.0000000  -0.0000000   0.0000000   0.0000000
    7  -0.0000000   0.0000000   0.0000000  -0.0000000  -0.0000000   0.0000000
    8   0.0000000  -0.0000000   0.0000000  -0.0000000   0.0000000   0.0000000
    9   0.0000000  -0.0000000   0.0000000  -0.0000000   0.0000000   0.0000000
   10  -0.0000000   0.0000000  -0.0000000  -0.0000000  -0.0000000  -0.0000000
   11   0.0000000  -0.0000000   0.0000000   0.0000000   0.0000000   0.0000000
   12  -0.0000000   0.0000000   0.0000000  -0.0000000  -0.0000000  -0.0000000
   13   1.0000000   0.0000000   0.0000000  -0.0000000  -0.0000000  -0.0000000
   14   0.0000000   1.0000000  -0.0000000  -0.0000000  -0.0000000   0.0000000
   15   0.0000000  -0.0000000   1.0000000   0.0000000   0.0000000  -0.0000000
   16  -0.0000000  -0.0000000   0.0000000   1.0000000   0.0000000   0.0000000
   17  -0.0000000  -0.0000000   0.0000000   0.0000000   1.0000000   0.0000000
   18  -0.0000000   0.0000000  -0.0000000   0.0000000   0.0000000   1.0000000
   19  -0.0000000   0.0000000   0.0000000  -0.0000000  -0.0000000  -0.0000000
   20  -0.0000000   0.0000000   0.0000000   0.0000000   0.0000000  -0.0000000
   21   0.0000000   0.0000000   0.0000000  -0.0000000  -0.0000000  -0.0000000
   22   0.0000000   0.0000000   0.0000000  -0.0000000  -0.0000000  -0.0000000
   23  -0.0000000   0.0000000   0.0000000  -0.0000000  -0.0000000  -0.0000000
   24  -0.0000000  -0.0000000  -0.0000000   0.0000000   0.0000000  -0.0000000
           19          20          21          22          23          24
    1   0.0000000   0.0000000  -0.0000000   0.0000000   0.0000000   0.0000000
    2   0.0000000   0.0000000  -0.0000000   0.0000000   0.0000000   0.0000000
    3  -0.0000000   0.0000000  -0.0000000  -0.0000000   0.0000000   0.0000000
    4   0.0000000   0.0000000   0.0000000   0.0000000   0.0000000   0.0000000
    5  -0.0000000   0.0000000  -0.0000000  -0.0000000   0.0000000   0.0000000
    6  -0.0000000  -0.0000000  -0.0000000   0.0000000  -0.0000000   0.0000000
    7  -0.0000000  -0.0000000   0.0000000  -0.0000000  -0.0000000   0.0000000
    8  -0.0000000   0.0000000  -0.0000000  -0.0000000   0.0000000   0.0000000
    9  -0.0000000  -0.0000000  -0.0000000  -0.0000000   0.0000000   0.0000000
   10  -0.0000000  -0.0000000   0.0000000   0.0000000  -0.0000000  -0.0000000
   11   0.0000000   0.0000000  -0.0000000   0.0000000   0.0000000   0.0000000
   12  -0.0000000  -0.0000000   0.0000000  -0.0000000  -0.0000000   0.0000000
   13  -0.0000000  -0.0000000   0.0000000   0.0000000  -0.0000000  -0.0000000
   14   0.0000000   0.0000000   0.0000000   0.0000000   0.0000000  -0.0000000
   15   0.0000000  -0.0000000   0.0000000   0.0000000   0.0000000  -0.0000000
   16  -0.0000000   0.0000000  -0.0000000  -0.0000000  -0.0000000   0.0000000
   17  -0.0000000   0.0000000  -0.0000000  -0.0000000  -0.0000000   0.0000000
   18  -0.0000000  -0.0000000  -0.0000000  -0.0000000  -0.0000000  -0.0000000
   19   1.0000000  -0.0000000   0.0000000  -0.0000000  -0.0000000   0.0000000
   20  -0.0000000   1.0000000   0.0000000  -0.0000000   0.0000000  -0.0000000
   21   0.0000000   0.0000000   1.0000000   0.0000000   0.0000000   0.0000000
   22  -0.0000000  -0.0000000   0.0000000   1.0000000  -0.0000000   0.0000000
   23  -0.0000000   0.0000000   0.0000000  -0.0000000   1.0000000   0.0000000
   24   0.0000000  -0.0000000   0.0000000   0.0000000   0.0000000   1.0000000
 Max Idempotency Error (CtSC-I): 0.231E-13
 ---------------------------------------------------
  SETman timing summary (seconds)
  CPU time               170.54s
  System time              0.00s
  Wall time              174.53s
 
 --------------------------------------------------------------
 
                    Orbital Energies (a.u.)
 --------------------------------------------------------------
 
 Alpha MOs
 -- Occupied --
-14.360 -10.248 -10.232 -10.229 -10.226 -10.222 -10.214  -0.941
 -0.817  -0.764  -0.717  -0.628  -0.577  -0.519  -0.503  -0.485
 -0.478  -0.427  -0.412  -0.388  -0.291  -0.286  -0.277  -0.246
 -0.222
 -- Virtual --
 -0.138  -0.022  -0.009   0.011   0.017   0.025   0.037   0.041
  0.058   0.061   0.066   0.071   0.080   0.088   0.096   0.100
  0.105   0.124   0.127   0.131   0.141   0.148   0.159   0.176
  0.179   0.194   0.206   0.212   0.221   0.224   0.237   0.241
  0.253   0.259   0.287   0.296   0.299   0.323   0.346   0.373
  0.388   0.425   0.428   0.478   0.609   0.616   0.660   0.663
  0.666   0.697   0.705   0.717   0.727   0.736   0.754   0.761
  0.788   0.816   0.873   0.888   0.913   0.928   0.963   0.968
  0.976   1.004   1.021   1.038   1.064   1.085   1.117   1.150
  1.169   1.207   1.209   1.291   1.307   1.317   1.364   1.371
  1.397   1.495   1.501   1.611   1.623   1.641   1.725   1.739
  1.791   1.812   1.840   1.882   1.898   1.945   1.978   2.013
  2.038   2.048   2.061   2.105   2.165   2.250   2.282   2.336
  2.364   2.391   2.405   2.421   2.425   2.460   2.485   2.491
  2.597   2.605   2.640   2.657   2.687   2.695   2.714   2.725
  2.856   2.944   2.971   3.047   3.204   3.275   3.285   3.330
  3.527   3.586   3.664   4.174   4.304   4.324   4.374   4.480
  4.540   4.642
 
 Beta MOs
 -- Occupied --
-14.360 -10.248 -10.232 -10.229 -10.225 -10.216 -10.207  -0.941
 -0.812  -0.757  -0.711  -0.621  -0.567  -0.513  -0.503  -0.480
 -0.466  -0.427  -0.404  -0.388  -0.288  -0.283  -0.271  -0.221
 -- Virtual --
 -0.136  -0.088  -0.021  -0.002   0.011   0.019   0.026   0.038
  0.042   0.058   0.063   0.066   0.075   0.081   0.087   0.096
  0.107   0.109   0.124   0.128   0.132   0.142   0.148   0.159
  0.178   0.180   0.194   0.207   0.213   0.223   0.233   0.238
  0.242   0.253   0.259   0.288   0.296   0.300   0.327   0.347
  0.373   0.391   0.426   0.443   0.480   0.610   0.625   0.659
  0.668   0.686   0.705   0.711   0.718   0.736   0.742   0.754
  0.774   0.793   0.817   0.876   0.893   0.914   0.930   0.964
  0.973   0.983   1.007   1.023   1.040   1.077   1.090   1.123
  1.152   1.171   1.208   1.212   1.293   1.306   1.319   1.370
  1.373   1.400   1.495   1.503   1.623   1.658   1.676   1.732
  1.744   1.792   1.831   1.842   1.885   1.902   1.962   1.982
  2.018   2.040   2.051   2.066   2.110   2.169   2.257   2.286
  2.339   2.369   2.394   2.408   2.423   2.433   2.462   2.483
  2.496   2.605   2.611   2.640   2.664   2.685   2.702   2.720
  2.741   2.856   2.950   2.978   3.051   3.204   3.282   3.291
  3.330   3.527   3.604   3.664   4.174   4.313   4.325   4.388
  4.482   4.551   4.642
 --------------------------------------------------------------
 
          Ground-State Mulliken Net Atomic Charges

     Atom                 Charge (a.u.)    Spin (a.u.)
  --------------------------------------------------------
      1 C                    -0.031245      -0.007874
      2 C                    -0.306685       1.116011
      3 C                    -0.104794      -0.232037
      4 C                     0.120995       0.025876
      5 C                    -0.331250      -0.004518
      6 N                    -0.101387       0.002614
      7 H                     0.140446      -0.000234
      8 H                     0.151683       0.009065
      9 H                     0.156512       0.081526
     10 H                     0.148578      -0.002871
     11 H                     0.132495       0.001760
     12 C                    -0.131905       0.010419
     13 H                     0.156558       0.000262
  --------------------------------------------------------
  Sum of atomic charges =     0.000000
  Sum of spin   charges =     1.000000

 -----------------------------------------------------------------
                    Cartesian Multipole Moments
 -----------------------------------------------------------------
    Charge (ESU x 10^10)
                 0.0000
    Dipole Moment (Debye)
         X       0.0245      Y       0.7276      Z       0.2400
       Tot       0.7666
    Quadrupole Moments (Debye-Ang)
        XX     -36.2073     XY       2.8844     YY     -40.5020
        XZ      -2.9165     YZ      -3.2080     ZZ     -41.9965
    Octopole Moments (Debye-Ang^2)
       XXX      16.2116    XXY      17.1353    XYY       2.4513
       YYY      -6.3966    XXZ      -4.6316    XYZ      -0.2181
       YYZ       7.1782    XZZ      -2.8346    YZZ      -0.1784
       ZZZ       9.3375
    Hexadecapole Moments (Debye-Ang^3)
      XXXX    -589.1445   XXXY    -197.8617   XXYY    -188.7465
      XYYY    -183.3405   YYYY    -528.1956   XXXZ      96.8259
      XXYZ      21.9067   XYYZ      12.8802   YYYZ      88.2953
      XXZZ    -131.5610   XYZZ     -60.2029   YYZZ    -122.3897
      XZZZ      98.4247   YZZZ     120.5984   ZZZZ    -203.4600
 -----------------------------------------------------------------
Archival summary:
1\1\c8-72\SP\ProcedureUnspecified\6-31+G**\166(2)\hpark21\ThuMar301:35:052022ThuMar301:35:052022\0\\#,ProcedureUnspecified,6-31+G**,\\0,2\N\C,1,1.34946\H,2,1.0983,1,113.986\C,1,1.3591,2,118.215,3,178.946,0\H,4,1.09623,1,119.746,2,-1.55448,0\C,2,1.36115,1,129.667,3,179.713,0\H,6,1.08289,2,134.349,1,-179.611,0\C,4,1.36457,1,121.873,2,178.946,0\H,8,1.08955,4,117.779,1,178.326,0\C,8,1.48719,4,125.056,1,-0.0334128,0\H,10,1.10004,8,115.943,4,91.5398,0\C,10,1.31396,8,124.885,4,-90.3327,0\H,12,1.0832,10,136.496,8,-179.192,0\\\@

 Total job time:  181.98s(wall), 176.54s(cpu) 
 Thu Mar  3 01:35:05 2022

        *************************************************************
        *                                                           *
        *  Thank you very much for using Q-Chem.  Have a nice day.  *
        *                                                           *
        *************************************************************


