
Running Job 1 of 1 qcts2.in
qchem qcts2.in_23544.0 ./qcts2.d/ 1
/home/leeping/opt/qchem/5.0.2-openmp/exe/qcprog.exe_s qcts2.in_23544.0 ./qcts2.d/
Check license passed

                  Welcome to Q-Chem
     A Quantum Leap Into The Future Of Chemistry


 Q-Chem 5.0, Q-Chem, Inc., Pleasanton, CA (2017)

 Yihan Shao,  Zhengting Gan,  E. Epifanovsky,  A. T. B. Gilbert,  M. Wormit,  
 J. Kussmann,  A. W. Lange,  A. Behn,  Jia Deng,  Xintian Feng,  D. Ghosh,  
 M. Goldey,  P. R. Horn,  L. D. Jacobson,  I. Kaliman,  T. Kus,  A. Landau,  
 Jie Liu,  E. I. Proynov,  R. M. Richard,  R. P. Steele,  E. J. Sundstrom,  
 H. L. Woodcock III,  P. M. Zimmerman,  D. Zuev,  B. Albrecht,  E. Alguire,  
 S. A. Baeppler,  D. Barton,  Z. Benda,  Y. A. Bernard,  E. J. Berquist,  
 K. B. Bravaya,  H. Burton,  D. Casanova,  Chun-Min Chang,  Yunqing Chen,  
 A. Chien,  K. D. Closser,  M. P. Coons,  S. Dasgupta,  A. L. Dempwolff,  
 M. Diedenhofen,  Hainam Do,  R. G. Edgar,  Po-Tung Fang,  S. Fatehi,  
 Qingguo Feng,  J. Fosso-Tande,  Qinghui Ge,  A. Ghysels,  G. Gidofalvi,  
 J. Gomes,  J. Gonthier,  A. Gunina,  M. W. D. Hanson-Heine,  
 P. H. P. Harbach,  A. W. Hauser,  J. E. Herr,  E. G. Hohenstein,  
 Z. C. Holden,  Kerwin Hui,  T.-C. Jagau,  Hyunjun Ji,  B. Kaduk,  
 K. Khistyaev,  Jaehoon Kim,  P. Klunzinger,  K. Koh,  D. Kosenkov,  
 L. Koulias,  T. Kowalczyk,  C. M. Krauter,  A. Kunitsa,  Ka Un Lao,  
 A. Laurent,  K. V. Lawler,  Joonho Lee,  D. Lefrancois,  S. Lehtola,  
 D. S. Levine,  Yi-Pei Li,  You-Sheng Lin,  Fenglai Liu,  E. Livshits,  
 A. Luenser,  P. Manohar,  E. Mansoor,  S. F. Manzer,  Shan-Ping Mao,  
 Yuezhi Mao,  N. Mardirossian,  A. V. Marenich,  T. Markovich,  
 L. A. Martinez-Martinez,  S. A. Maurer,  N. J. Mayhall,  S. C. McKenzie,  
 J.-M. Mewes,  A. F. Morrison,  J. W. Mullinax,  K. Nanda,  
 T. S. Nguyen-Beck,  R. Olivares-Amaya,  J. A. Parkhill,  T. M. Perrine,  
 F. Plasser,  S. Prager,  A. Prociuk,  E. Ramos,  D. R. Rehn,  F. Rob,  
 M. Schneider,  N. Sergueev,  S. M. Sharada,  S. Sharma,  D. W. Small,  
 T. Stauch,  T. Stein,  Yu-Chuan Su,  A. J. W. Thom,  A. Tkatchenko,  
 T. Tsuchimochi,  L. Vogt,  O. Vydrov,  M. A. Watson,  J. Wenzel,  
 M. de Wergifosse,  T. A. Wesolowski,  A. White,  J. Witte,  A. Yamada,  
 Jun Yang,  K. Yao,  S. Yeganeh,  S. R. Yost,  Zhi-Qiang You,  A. Zech,  
 Igor Ying Zhang,  Xing Zhang,  Yan Zhao,  Ying Zhu,  B. R. Brooks,  
 G. K. L. Chan,  C. J. Cramer,  M. S. Gordon,  W. J. Hehre,  A. Klamt,  
 M. W. Schmidt,  C. D. Sherrill,  D. G. Truhlar,  A. Aspuru-Guzik,  R. Baer,  
 A. T. Bell,  N. A. Besley,  Jeng-Da Chai,  R. A. DiStasio Jr.,  A. Dreuw,  
 B. D. Dunietz,  T. R. Furlani,  Chao-Ping Hsu,  Yousung Jung,  Jing Kong,  
 D. S. Lambrecht,  WanZhen Liang,  C. Ochsenfeld,  V. A. Rassolov,  
 L. V. Slipchenko,  J. E. Subotnik,  T. Van Voorhis,  J. M. Herbert,  
 A. I. Krylov,  P. M. W. Gill,  M. Head-Gordon

 Contributors to earlier versions of Q-Chem not listed above: 
 R. D. Adamson,  B. Austin,  J. Baker,  G. J. O. Beran,  K. Brandhorst,  
 S. T. Brown,  E. F. C. Byrd,  A. K. Chakraborty,  C.-L. Cheng,  
 Siu Hung Chien,  D. M. Chipman,  D. L. Crittenden,  H. Dachsel,  
 R. J. Doerksen,  A. D. Dutoi,  L. Fusti-Molnar,  W. A. Goddard III,  
 A. Golubeva-Zadorozhnaya,  S. R. Gwaltney,  G. Hawkins,  A. Heyden,  
 S. Hirata,  G. Kedziora,  F. J. Keil,  C. Kelley,  Jihan Kim,  R. A. King,  
 R. Z. Khaliullin,  P. P. Korambath,  W. Kurlancheek,  A. M. Lee,  M. S. Lee,  
 S. V. Levchenko,  Ching Yeh Lin,  D. Liotard,  R. C. Lochan,  I. Lotan,  
 P. E. Maslen,  N. Nair,  D. P. O'Neill,  D. Neuhauser,  E. Neuscamman,  
 C. M. Oana,  R. Olson,  B. Peters,  R. Peverati,  P. A. Pieniazek,  
 Y. M. Rhee,  J. Ritchie,  M. A. Rohrdanz,  E. Rosta,  N. J. Russ,  
 H. F. Schaefer III,  N. E. Schultz,  N. Shenvi,  A. C. Simmonett,  A. Sodt,  
 D. Stuck,  K. S. Thanthiriwatte,  V. Vanovschi,  Tao Wang,  A. Warshel,  
 C. F. Williams,  Q. Wu,  X. Xu,  W. Zhang

 Please cite Q-Chem as follows:
 Y. Shao et al., Mol. Phys. 113, 184-215 (2015)
 DOI: 10.1080/00268976.2014.952696

 Q-Chem 5.0.2 for Intel X86 EM64T Linux

 Parts of Q-Chem use Armadillo 5.200.1 (Boston Tea Smuggler).
 http://arma.sourceforge.net/

 Q-Chem begins on Thu Mar  3 01:44:26 2022  

Host: 
0

     Scratch files written to ./qcts2.d//
 Dec517 15110_ 26548  26544 5633   
Processing $rem in /home/leeping/opt/qchem/5.0.2-openmp/config/preferences.
 MEM_STATIC 2000
 MEM_TOTAL  8000
 SYMMETRY   OFF
 SYM_IGNORE TRUE 

Checking the input file for inconsistencies... 	...done.

--------------------------------------------------------------
User input:
--------------------------------------------------------------
$molecule
0 2
C        1.9394910574    0.8996732171   -0.3810573407
C       -1.3595542270   -2.5679001621    0.6502124810
C       -1.4578858236   -1.3091062295    1.0138803516
C       -1.4634304089   -0.1518426926    0.0798301665
C       -0.3543302260    0.5275255446   -0.3329725164
N        0.8923996886    0.1912787148    0.0909921763
H        2.9110659922    0.5815779396    0.0203403107
H       -1.3467403036   -3.5304766142    1.1468095275
H       -1.5759127434   -1.0672327662    2.0804889363
H       -2.4326951989    0.1919576656   -0.2799444214
H       -0.4860124421    1.3716719870   -1.0198392490
C        1.9614523853    1.9292395937   -1.2711397112
H        2.7443933111    2.5407509211   -1.7020784389
$end

$rem
method                b3lyp
basis                 6-31+g(d,p)
unrestricted          true
symmetry              off
sym_ignore            true
incdft                false
incfock               0
scf_convergence       8
thresh                14
jobtype               ts
scf_guess             read
scf_algorithm         diis
max_scf_cycles        100
geom_opt_max_cycles   500
geom_opt_dmax         100
geom_opt_tol_gradient 10
geom_opt_hessian      read
$end

--------------------------------------------------------------
 ----------------------------------------------------------------
             Standard Nuclear Orientation (Angstroms)
    I     Atom           X                Y                Z
 ----------------------------------------------------------------
    1      C       1.9394910574     0.8996732171    -0.3810573407
    2      C      -1.3595542270    -2.5679001621     0.6502124810
    3      C      -1.4578858236    -1.3091062295     1.0138803516
    4      C      -1.4634304089    -0.1518426926     0.0798301665
    5      C      -0.3543302260     0.5275255446    -0.3329725164
    6      N       0.8923996886     0.1912787148     0.0909921763
    7      H       2.9110659922     0.5815779396     0.0203403107
    8      H      -1.3467403036    -3.5304766142     1.1468095275
    9      H      -1.5759127434    -1.0672327662     2.0804889363
   10      H      -2.4326951989     0.1919576656    -0.2799444214
   11      H      -0.4860124421     1.3716719870    -1.0198392490
   12      C       1.9614523853     1.9292395937    -1.2711397112
   13      H       2.7443933111     2.5407509211    -1.7020784389
 ----------------------------------------------------------------
 Nuclear Repulsion Energy =   236.3833349902 hartrees
 There are       25 alpha and       24 beta electrons
 Requested basis set is 6-31+G(d,p)
 There are 53 shells and 163 basis functions

 Total QAlloc Memory Limit   8000 MB
 Mega-Array Size      1956 MB
 MEM_STATIC part      2000 MB
 A cutoff of  1.0D-14 yielded   1298 shell pairs
 There are     12754 function pairs
 
 -------------------------------------------------------
 OpenMP Integral Computing Module                       
 Release: version 1.0, May 2013, Q-Chem Inc. Pittsburgh 
 -------------------------------------------------------
 Integral Job Info:
 Integral job number is                      11
 Integral operator is                         1
 short-range coefficients                     0
 long-range coefficients              100000000
 Omega coefficients                           0
 if combine SR and LR in K                    0
 Integral screening is                        0
 Integral computing path is                   2
 max size of driver memory is            800000
 size of driver memory is                593474
 size of scratch memory is              2361544
 max col of scratch BK array               1296
 max len of scratch array in speh3          155
 max len of scratch index in speh4           18
 max int batch size is                      520
 min int batch size is                       52
 fixed nKL is                                52
 max L of basis functions is                  2
 order of int derivative is                   0
 number of shells is                         53
 number of basis is                         163
 number of cartesian basis is               163
 number of contracted shell pairs          1298
 number of primitive shell pairs           4218
 maxK2 (contraction) of shell pair           36
 max number of K2 of shell pair               1
 max number of CS2 of shell pair            125
 max number of PS2 of shell pair            672
 mem total for path MDJ                  526622
 -------------------------------------------------------
 Smallest overlap matrix eigenvalue = 1.68E-05

 Scale SEOQF with 1.000000e-01/1.000000e-01/1.000000e-01

 Standard Electronic Orientation quadrupole field applied
 Nucleus-field energy     =     0.0000000082 hartrees
 Guess MOs from SCF MO coefficient file
 Reading MOs from coefficient file
 Reading MOs from coefficient file
 An unrestricted hybrid HF-DFT SCF calculation will be
 performed using Pulay DIIS extrapolation
 Exchange:     0.2000 Hartree-Fock + 0.0800 Slater + 0.7200 B88
 Correlation:  0.1900 VWN1RPA + 0.8100 LYP
 Using SG-1 standard quadrature grid
 SCF converges when DIIS error is below 1.0E-08
Using Q-Chem read-in guess as SCF_GUESS READ specified.

 using 4 threads for integral computing
 -------------------------------------------------------
 OpenMP Integral computing Module                
 Release: version 1.0, May 2013, Q-Chem Inc. Pittsburgh 
 -------------------------------------------------------
 -------------------------------------------------------
 OpenMP BLAS3 based DFT computing Module                
 Release: version 1.0, May 2013, Q-Chem Inc. Pittsburgh 
 -------------------------------------------------------
 ---------------------------------------
  Cycle       Energy         DIIS Error
 ---------------------------------------
    1    -286.7262343080      2.65E-09
    2    -286.7262343080      6.15E-09 Convergence criterion met
 ---------------------------------------
 <S^2> = 1.7264
 SCF time:  CPU 8.71 s  wall 2.87 s
 SCF   energy in the final basis set = -286.72623431
 Total energy in the final basis set = -286.72623431
 
 --------------------------------------------------------------
 
                    Orbital Energies (a.u.)
 --------------------------------------------------------------
 
 Alpha MOs
 -- Occupied --
-14.360 -10.248 -10.232 -10.229 -10.226 -10.222 -10.214  -0.941
 -0.817  -0.764  -0.717  -0.628  -0.577  -0.519  -0.503  -0.485
 -0.478  -0.427  -0.412  -0.388  -0.291  -0.286  -0.277  -0.246
 -0.222
 -- Virtual --
 -0.138  -0.022  -0.009   0.011   0.017   0.025   0.037   0.041
  0.058   0.061   0.066   0.071   0.080   0.088   0.096   0.100
  0.105   0.124   0.127   0.131   0.141   0.148   0.159   0.176
  0.179   0.194   0.206   0.212   0.221   0.224   0.237   0.241
  0.253   0.259   0.287   0.296   0.299   0.323   0.346   0.373
  0.388   0.425   0.428   0.478   0.609   0.616   0.660   0.663
  0.666   0.697   0.705   0.717   0.727   0.736   0.754   0.761
  0.788   0.816   0.873   0.888   0.913   0.928   0.963   0.968
  0.976   1.004   1.021   1.038   1.064   1.085   1.117   1.150
  1.169   1.207   1.209   1.291   1.307   1.317   1.364   1.371
  1.397   1.495   1.501   1.611   1.623   1.641   1.725   1.739
  1.791   1.812   1.840   1.882   1.898   1.945   1.978   2.013
  2.038   2.048   2.061   2.105   2.165   2.250   2.282   2.336
  2.364   2.391   2.405   2.421   2.425   2.460   2.485   2.491
  2.597   2.605   2.640   2.657   2.687   2.695   2.714   2.725
  2.856   2.944   2.971   3.047   3.204   3.275   3.285   3.330
  3.527   3.586   3.664   4.174   4.304   4.324   4.374   4.480
  4.540   4.642
 
 Beta MOs
 -- Occupied --
-14.360 -10.248 -10.232 -10.229 -10.225 -10.216 -10.207  -0.941
 -0.812  -0.757  -0.711  -0.621  -0.567  -0.513  -0.503  -0.480
 -0.466  -0.427  -0.404  -0.388  -0.288  -0.283  -0.271  -0.221
 -- Virtual --
 -0.136  -0.088  -0.021  -0.002   0.011   0.019   0.026   0.038
  0.042   0.058   0.063   0.066   0.075   0.081   0.087   0.096
  0.107   0.109   0.124   0.128   0.132   0.142   0.148   0.159
  0.178   0.180   0.194   0.207   0.213   0.223   0.233   0.238
  0.242   0.253   0.259   0.288   0.296   0.300   0.327   0.347
  0.373   0.391   0.426   0.443   0.480   0.610   0.625   0.659
  0.668   0.686   0.705   0.711   0.718   0.736   0.742   0.754
  0.774   0.793   0.817   0.876   0.893   0.914   0.930   0.964
  0.973   0.983   1.007   1.023   1.040   1.077   1.090   1.123
  1.152   1.171   1.208   1.212   1.293   1.306   1.319   1.370
  1.373   1.400   1.495   1.503   1.623   1.658   1.676   1.732
  1.744   1.792   1.831   1.842   1.885   1.902   1.962   1.982
  2.018   2.040   2.051   2.066   2.110   2.169   2.257   2.286
  2.339   2.369   2.394   2.408   2.423   2.433   2.462   2.483
  2.496   2.605   2.611   2.640   2.664   2.685   2.702   2.720
  2.741   2.856   2.950   2.978   3.051   3.204   3.282   3.291
  3.330   3.527   3.604   3.664   4.174   4.313   4.325   4.388
  4.482   4.551   4.642
 --------------------------------------------------------------
 
          Ground-State Mulliken Net Atomic Charges

     Atom                 Charge (a.u.)    Spin (a.u.)
  --------------------------------------------------------
      1 C                    -0.031245      -0.007874
      2 C                    -0.306685       1.116011
      3 C                    -0.104794      -0.232037
      4 C                     0.120995       0.025876
      5 C                    -0.331250      -0.004518
      6 N                    -0.101387       0.002614
      7 H                     0.140446      -0.000234
      8 H                     0.151683       0.009065
      9 H                     0.156512       0.081526
     10 H                     0.148578      -0.002871
     11 H                     0.132495       0.001760
     12 C                    -0.131905       0.010419
     13 H                     0.156558       0.000262
  --------------------------------------------------------
  Sum of atomic charges =     0.000000
  Sum of spin   charges =     1.000000

 -----------------------------------------------------------------
                    Cartesian Multipole Moments
 -----------------------------------------------------------------
    Charge (ESU x 10^10)
                 0.0000
    Dipole Moment (Debye)
         X       0.0245      Y       0.7276      Z       0.2400
       Tot       0.7666
    Quadrupole Moments (Debye-Ang)
        XX     -36.2073     XY       2.8844     YY     -40.5020
        XZ      -2.9165     YZ      -3.2080     ZZ     -41.9965
    Octopole Moments (Debye-Ang^2)
       XXX      16.2116    XXY      17.1353    XYY       2.4513
       YYY      -6.3966    XXZ      -4.6316    XYZ      -0.2181
       YYZ       7.1782    XZZ      -2.8346    YZZ      -0.1784
       ZZZ       9.3375
    Hexadecapole Moments (Debye-Ang^3)
      XXXX    -589.1445   XXXY    -197.8617   XXYY    -188.7465
      XYYY    -183.3405   YYYY    -528.1956   XXXZ      96.8259
      XXYZ      21.9067   XYYZ      12.8802   YYYZ      88.2953
      XXZZ    -131.5610   XYZZ     -60.2029   YYZZ    -122.3897
      XZZZ      98.4247   YZZZ     120.5984   ZZZZ    -203.4600
 -----------------------------------------------------------------
 Calculating analytic gradient of the SCF energy
 Gradient of SCF Energy
            1           2           3           4           5           6
    1   0.0076507   0.0002523   0.0005139  -0.0052328   0.0131866  -0.0228106
    2   0.0255172   0.0013572  -0.0016547  -0.0016732  -0.0004153  -0.0107695
    3  -0.0208427  -0.0013409   0.0007450   0.0005983   0.0021449   0.0060163
            7           8           9          10          11          12
    1   0.0004199  -0.0001511  -0.0000064  -0.0003720  -0.0013972   0.0116686
    2   0.0029174  -0.0001217   0.0002664   0.0001324   0.0004898  -0.0181393
    3  -0.0023178   0.0009046  -0.0001219  -0.0000677  -0.0005059   0.0170760
           13
    1  -0.0037218
    2   0.0020934
    3  -0.0022881
 Max gradient component =       2.552E-02
 RMS gradient           =       8.520E-03
 Gradient time:  CPU 13.99 s  wall 3.64 s
 Geometry Optimization Parameters
   NAtoms,    NIC,     NZ,  NCons,   NDum,   NFix, NCnnct, MaxDiis
       13      69       0       0       0       0       0       0

 Cartesian Hessian read from HESS file


** GEOMETRY OPTIMIZATION IN DELOCALIZED INTERNAL COORDINATES **
   Searching for a Transition State

   Optimization Cycle:   1

                       Coordinates (Angstroms)
     ATOM                X               Y               Z
      1  C         1.9394910574    0.8996732171   -0.3810573407
      2  C        -1.3595542270   -2.5679001621    0.6502124810
      3  C        -1.4578858236   -1.3091062295    1.0138803516
      4  C        -1.4634304089   -0.1518426926    0.0798301665
      5  C        -0.3543302260    0.5275255446   -0.3329725164
      6  N         0.8923996886    0.1912787148    0.0909921763
      7  H         2.9110659922    0.5815779396    0.0203403107
      8  H        -1.3467403036   -3.5304766142    1.1468095275
      9  H        -1.5759127434   -1.0672327662    2.0804889363
     10  H        -2.4326951989    0.1919576656   -0.2799444214
     11  H        -0.4860124421    1.3716719870   -1.0198392490
     12  C         1.9614523853    1.9292395937   -1.2711397112
     13  H         2.7443933111    2.5407509211   -1.7020784389
   Point Group: c1    Number of degrees of freedom:    33


   Energy is   -286.726234308


 Attempting to Generate Delocalized Internal Coordinates

 Transforming Cartesian Hessian to Internal Coordinates
 Hessian Transformation does not Include Derivative of B-matrix

 33 Hessian modes will be used to form the next step
  Hessian Eigenvalues:
    -0.026161   -0.006909    0.014527    0.014789    0.021107    0.021841
     0.024955    0.027559    0.028953    0.039981    0.053037    0.071340
     0.096073    0.105442    0.111225    0.116306    0.125436    0.146007
     0.167950    0.192062    0.246772    0.306508    0.324405    0.328485
     0.331628    0.345990    0.355051    0.369910    0.370097    0.475763
     0.563276    0.585617    0.654780
**WARNING** Hessian does not have the Desired Local Structure

 Transition State Search - Taking P-RFO Step
 Searching for Lamda that Maximizes Along the Lowest mode
 Value Taken    Lamda =   0.00000085
 Searching for Lamda that Minimizes Along All other modes
 Value Taken    Lamda =  -0.00906802
 Calculated Step too Large.  Step scaled by  0.231525
 Step Taken.  Stepsize is  0.100000

                             Maximum     Tolerance    Cnvgd?
         Gradient           0.017583      0.000010      NO
         Displacement       0.051718      0.001200      NO
         Energy change     *********      0.000001      NO


 New Cartesian Coordinates Obtained by Inverse Iteration

 Displacement from previous Coordinates is:  0.126756
 ----------------------------------------------------------------
             Standard Nuclear Orientation (Angstroms)
    I     Atom           X                Y                Z
 ----------------------------------------------------------------
    1      C       1.9322965819     0.9015376495    -0.3833813078
    2      C      -1.3505216489    -2.5656144933     0.6498425924
    3      C      -1.4538576837    -1.3076353605     1.0152129643
    4      C      -1.4629682073    -0.1500279556     0.0817910678
    5      C      -0.3604315747     0.5326399674    -0.3352537447
    6      N       0.8917756112     0.1999317871     0.0868730243
    7      H       2.9039089184     0.5844970605     0.0175715090
    8      H      -1.3350381618    -3.5305519768     1.1410625295
    9      H      -1.5756790918    -1.0670720092     2.0816137563
   10      H      -2.4344409571     0.1903325057    -0.2753625051
   11      H      -0.4913392007     1.3759118026    -1.0220758373
   12      C       1.9345582529     1.9376008698    -1.2867092971
   13      H       2.7739782226     2.5055672718    -1.6756624794
 ----------------------------------------------------------------
 Nuclear Repulsion Energy =   236.4866350361 hartrees
 There are       25 alpha and       24 beta electrons
 Applying Cartesian multipole field
    Component          Value
    ---------          -----
     (2,0,0)        1.00000E-11
     (0,2,0)        2.00000E-11
     (0,0,2)       -3.00000E-11
 Nucleus-field energy     =     0.0000000081 hartrees
 Requested basis set is 6-31+G(d,p)
 There are 53 shells and 163 basis functions
 A cutoff of  1.0D-14 yielded   1300 shell pairs
 There are     12802 function pairs
 Smallest overlap matrix eigenvalue = 1.64E-05
 Guess MOs from SCF MO coefficient file
 Reading MOs from coefficient file
 Reading MOs from coefficient file
 An unrestricted hybrid HF-DFT SCF calculation will be
 performed using Pulay DIIS extrapolation
 Exchange:     0.2000 Hartree-Fock + 0.0800 Slater + 0.7200 B88
 Correlation:  0.1900 VWN1RPA + 0.8100 LYP
 Using SG-1 standard quadrature grid
 SCF converges when DIIS error is below 1.0E-08
 Geometry optimization detected.  Setting ReadMinima to 0
 Setting SaveMinima to 0
Using Q-Chem read-in guess as SCF_GUESS READ specified.

 using 4 threads for integral computing
 -------------------------------------------------------
 OpenMP Integral computing Module                
 Release: version 1.0, May 2013, Q-Chem Inc. Pittsburgh 
 -------------------------------------------------------
 -------------------------------------------------------
 OpenMP BLAS3 based DFT computing Module                
 Release: version 1.0, May 2013, Q-Chem Inc. Pittsburgh 
 -------------------------------------------------------
 ---------------------------------------
  Cycle       Energy         DIIS Error
 ---------------------------------------
    1    -286.7237438528      6.52E-04
    2    -286.7278737585      1.89E-04
    3    -286.7266630323      5.29E-04
    4    -286.7280930094      4.83E-05
    5    -286.7281010215      2.80E-05
    6    -286.7281052801      1.29E-05
    7    -286.7281063694      7.07E-06
    8    -286.7281066708      2.08E-06
    9    -286.7281067826      1.26E-06
   10    -286.7281068614      1.16E-06
   11    -286.7281067117      1.04E-06
   12    -286.7281064737      5.03E-07
   13    -286.7281064656      2.71E-07
   14    -286.7281064717      1.63E-07
   15    -286.7281064739      8.87E-08
   16    -286.7281064740      4.36E-08
   17    -286.7281064740      1.24E-08
   18    -286.7281064740      2.52E-09 Convergence criterion met
 ---------------------------------------
 <S^2> = 1.6899
 SCF time:  CPU 77.88 s  wall 21.43 s
 SCF   energy in the final basis set = -286.72810647
 Total energy in the final basis set = -286.72810647
 
 --------------------------------------------------------------
 
                    Orbital Energies (a.u.)
 --------------------------------------------------------------
 
 Alpha MOs
 -- Occupied --
-14.362 -10.247 -10.233 -10.228 -10.227 -10.223 -10.215  -0.944
 -0.819  -0.763  -0.716  -0.629  -0.578  -0.519  -0.503  -0.482
 -0.477  -0.429  -0.412  -0.390  -0.291  -0.286  -0.277  -0.247
 -0.225
 -- Virtual --
 -0.138  -0.023  -0.010   0.011   0.017   0.025   0.037   0.041
  0.058   0.061   0.066   0.070   0.081   0.087   0.096   0.099
  0.104   0.123   0.127   0.131   0.140   0.147   0.158   0.175
  0.179   0.196   0.205   0.215   0.221   0.223   0.236   0.241
  0.252   0.259   0.287   0.295   0.300   0.321   0.345   0.370
  0.384   0.423   0.428   0.473   0.609   0.615   0.659   0.663
  0.664   0.696   0.705   0.717   0.727   0.737   0.756   0.759
  0.787   0.816   0.867   0.886   0.914   0.928   0.962   0.967
  0.976   1.003   1.023   1.036   1.063   1.083   1.118   1.151
  1.167   1.205   1.210   1.292   1.308   1.316   1.364   1.371
  1.397   1.493   1.500   1.609   1.611   1.640   1.723   1.744
  1.787   1.810   1.837   1.874   1.910   1.953   1.982   2.013
  2.045   2.055   2.059   2.109   2.162   2.245   2.283   2.344
  2.354   2.394   2.398   2.419   2.425   2.455   2.484   2.494
  2.596   2.605   2.636   2.639   2.675   2.690   2.711   2.724
  2.869   2.942   2.976   3.047   3.215   3.275   3.283   3.303
  3.520   3.586   3.660   4.170   4.302   4.308   4.372   4.472
  4.540   4.638
 
 Beta MOs
 -- Occupied --
-14.362 -10.247 -10.233 -10.227 -10.227 -10.217 -10.208  -0.944
 -0.814  -0.756  -0.711  -0.622  -0.568  -0.513  -0.502  -0.476
 -0.468  -0.428  -0.405  -0.390  -0.288  -0.284  -0.272  -0.225
 -- Virtual --
 -0.137  -0.088  -0.022  -0.003   0.012   0.019   0.026   0.038
  0.042   0.058   0.062   0.066   0.075   0.082   0.087   0.095
  0.106   0.109   0.124   0.129   0.132   0.141   0.147   0.159
  0.177   0.180   0.196   0.206   0.215   0.223   0.232   0.237
  0.242   0.252   0.260   0.288   0.296   0.300   0.325   0.346
  0.371   0.387   0.426   0.441   0.476   0.610   0.624   0.658
  0.667   0.685   0.705   0.710   0.718   0.736   0.741   0.756
  0.773   0.793   0.816   0.869   0.892   0.915   0.930   0.962
  0.974   0.983   1.005   1.024   1.038   1.077   1.088   1.123
  1.152   1.170   1.205   1.212   1.294   1.307   1.318   1.370
  1.372   1.400   1.493   1.501   1.609   1.657   1.675   1.730
  1.750   1.788   1.829   1.840   1.878   1.917   1.971   1.983
  2.018   2.050   2.055   2.063   2.114   2.166   2.252   2.288
  2.346   2.358   2.398   2.402   2.421   2.434   2.457   2.481
  2.499   2.605   2.608   2.636   2.646   2.676   2.695   2.719
  2.739   2.870   2.950   2.981   3.051   3.215   3.281   3.290
  3.303   3.520   3.604   3.661   4.171   4.306   4.314   4.387
  4.474   4.550   4.638
 --------------------------------------------------------------
 
          Ground-State Mulliken Net Atomic Charges

     Atom                 Charge (a.u.)    Spin (a.u.)
  --------------------------------------------------------
      1 C                    -0.013922      -0.007838
      2 C                    -0.305139       1.116228
      3 C                    -0.106454      -0.233482
      4 C                     0.133365       0.027921
      5 C                    -0.337082      -0.005264
      6 N                    -0.093691       0.003449
      7 H                     0.138830      -0.000249
      8 H                     0.152375       0.008643
      9 H                     0.157059       0.081498
     10 H                     0.149452      -0.002899
     11 H                     0.137190       0.001859
     12 C                    -0.159887       0.009798
     13 H                     0.147903       0.000335
  --------------------------------------------------------
  Sum of atomic charges =     0.000000
  Sum of spin   charges =     1.000000

 -----------------------------------------------------------------
                    Cartesian Multipole Moments
 -----------------------------------------------------------------
    Charge (ESU x 10^10)
                -0.0000
    Dipole Moment (Debye)
         X      -0.0830      Y       0.5025      Z       0.4054
       Tot       0.6510
    Quadrupole Moments (Debye-Ang)
        XX     -36.1901     XY       2.6000     YY     -40.9925
        XZ      -2.7012     YZ      -2.6692     ZZ     -42.2792
    Octopole Moments (Debye-Ang^2)
       XXX      15.9540    XXY      16.3881    XYY       1.4155
       YYY      -9.1777    XXZ      -4.1605    XYZ       0.6892
       YYZ       8.9956    XZZ      -3.3021    YZZ      -1.5421
       ZZZ      10.5270
    Hexadecapole Moments (Debye-Ang^3)
      XXXX    -583.8602   XXXY    -197.4179   XXYY    -189.8189
      XYYY    -185.4568   YYYY    -533.2850   XXXZ      97.1099
      XXYZ      23.9204   XYYZ      16.0310   YYYZ      93.8165
      XXZZ    -131.6623   XYZZ     -61.9087   YYZZ    -126.2345
      XZZZ      99.5277   YZZZ     123.7565   ZZZZ    -206.1942
 -----------------------------------------------------------------
 Calculating analytic gradient of the SCF energy
 Gradient of SCF Energy
            1           2           3           4           5           6
    1   0.0056523   0.0001578   0.0003660  -0.0040713   0.0103386  -0.0174074
    2   0.0198889   0.0010504  -0.0012721  -0.0012730  -0.0003434  -0.0081252
    3  -0.0162630  -0.0010682   0.0005949   0.0004131   0.0017613   0.0044738
            7           8           9          10          11          12
    1   0.0003346  -0.0001257   0.0000453  -0.0002825  -0.0010944   0.0090846
    2   0.0022646  -0.0000849   0.0002120   0.0000860   0.0003984  -0.0143291
    3  -0.0017943   0.0007052  -0.0000931  -0.0000868  -0.0004053   0.0134602
           13
    1  -0.0029978
    2   0.0015274
    3  -0.0016978
 Max gradient component =       1.989E-02
 RMS gradient           =       6.617E-03
 Gradient time:  CPU 14.55 s  wall 4.55 s
 Geometry Optimization Parameters
   NAtoms,    NIC,     NZ,  NCons,   NDum,   NFix, NCnnct, MaxDiis
       13      69       0       0       0       0       0       0

 Cartesian Hessian Update
 Hessian Updated using Powell/Murtagh-Sargent Update
  Mixing factors:     0.978545 Powell
                      0.021455 Murtagh-Sargent


** GEOMETRY OPTIMIZATION IN DELOCALIZED INTERNAL COORDINATES **
   Searching for a Transition State

   Optimization Cycle:   2

                       Coordinates (Angstroms)
     ATOM                X               Y               Z
      1  C         1.9322965819    0.9015376495   -0.3833813078
      2  C        -1.3505216489   -2.5656144933    0.6498425924
      3  C        -1.4538576837   -1.3076353605    1.0152129643
      4  C        -1.4629682073   -0.1500279556    0.0817910678
      5  C        -0.3604315747    0.5326399674   -0.3352537447
      6  N         0.8917756112    0.1999317871    0.0868730243
      7  H         2.9039089184    0.5844970605    0.0175715090
      8  H        -1.3350381618   -3.5305519768    1.1410625295
      9  H        -1.5756790918   -1.0670720092    2.0816137563
     10  H        -2.4344409571    0.1903325057   -0.2753625051
     11  H        -0.4913392007    1.3759118026   -1.0220758373
     12  C         1.9345582529    1.9376008698   -1.2867092971
     13  H         2.7739782226    2.5055672718   -1.6756624794
   Point Group: c1    Number of degrees of freedom:    33


   Energy is   -286.728106474

 Hessian Updated using Powell/Murtagh-Sargent Update
  Mixing factors:     0.658753 Powell
                      0.341247 Murtagh-Sargent

 33 Hessian modes will be used to form the next step
  Hessian Eigenvalues:
    -0.026107   -0.006957    0.014528    0.014789    0.021123    0.021835
     0.027541    0.028906    0.033372    0.039992    0.053038    0.071351
     0.096212    0.105464    0.111221    0.116303    0.125425    0.146941
     0.168310    0.192375    0.246691    0.306445    0.324386    0.328551
     0.331601    0.345932    0.355047    0.370055    0.371040    0.475728
     0.564432    0.587436    0.654780
**WARNING** Hessian does not have the Desired Local Structure

 Transition State Search - Taking P-RFO Step
 Searching for Lamda that Maximizes Along the Lowest mode
 Value Taken    Lamda =   0.00000819
 Searching for Lamda that Minimizes Along All other modes
 Value Taken    Lamda =  -0.00696594
 Calculated Step too Large.  Step scaled by  0.006604
 Step Taken.  Stepsize is  0.100000

                             Maximum     Tolerance    Cnvgd?
         Gradient           0.013655      0.000010      NO
         Displacement       0.056836      0.001200      NO
         Energy change     -0.001872      0.000001      NO


 New Cartesian Coordinates Obtained by Inverse Iteration

 Displacement from previous Coordinates is:  0.165224
 ----------------------------------------------------------------
             Standard Nuclear Orientation (Angstroms)
    I     Atom           X                Y                Z
 ----------------------------------------------------------------
    1      C       1.9311433717     0.8964993762    -0.3844484206
    2      C      -1.3151724420    -2.5588121918     0.6460839815
    3      C      -1.4627839450    -1.3059172648     1.0140794766
    4      C      -1.4670970331    -0.1427105063     0.0883987144
    5      C      -0.3630073787     0.5378399306    -0.3281435286
    6      N       0.8893288839     0.1999438160     0.0896374047
    7      H       2.9021366346     0.5780981954     0.0169315917
    8      H      -1.2953708309    -3.5259865039     1.1327521389
    9      H      -1.6311927215    -1.0756974580     2.0764959584
   10      H      -2.4379660871     0.2038703496    -0.2646617106
   11      H      -0.4928969883     1.3845571088    -1.0108542958
   12      C       1.9360677657     1.9270983120    -1.2946914388
   13      H       2.7790518318     2.4883339550    -1.6860575995
 ----------------------------------------------------------------
 Nuclear Repulsion Energy =   236.5767729612 hartrees
 There are       25 alpha and       24 beta electrons
 Applying Cartesian multipole field
    Component          Value
    ---------          -----
     (2,0,0)        1.00000E-11
     (0,2,0)        2.00000E-11
     (0,0,2)       -3.00000E-11
 Nucleus-field energy     =     0.0000000081 hartrees
 Requested basis set is 6-31+G(d,p)
 There are 53 shells and 163 basis functions
 A cutoff of  1.0D-14 yielded   1301 shell pairs
 There are     12820 function pairs
 Smallest overlap matrix eigenvalue = 1.62E-05
 Guess MOs from SCF MO coefficient file
 Reading MOs from coefficient file
 Reading MOs from coefficient file
 An unrestricted hybrid HF-DFT SCF calculation will be
 performed using Pulay DIIS extrapolation
 Exchange:     0.2000 Hartree-Fock + 0.0800 Slater + 0.7200 B88
 Correlation:  0.1900 VWN1RPA + 0.8100 LYP
 Using SG-1 standard quadrature grid
 SCF converges when DIIS error is below 1.0E-08
 Geometry optimization detected.  Setting ReadMinima to 0
 Setting SaveMinima to 0
Using Q-Chem read-in guess as SCF_GUESS READ specified.

 using 4 threads for integral computing
 -------------------------------------------------------
 OpenMP Integral computing Module                
 Release: version 1.0, May 2013, Q-Chem Inc. Pittsburgh 
 -------------------------------------------------------
 -------------------------------------------------------
 OpenMP BLAS3 based DFT computing Module                
 Release: version 1.0, May 2013, Q-Chem Inc. Pittsburgh 
 -------------------------------------------------------
 ---------------------------------------
  Cycle       Energy         DIIS Error
 ---------------------------------------
    1    -286.7266367638      6.44E-04
    2    -286.7281401340      4.94E-05
    3    -286.7281629635      5.93E-05
    4    -286.7281775898      2.87E-05
    5    -286.7281813453      2.25E-05
    6    -286.7281843200      6.64E-06
    7    -286.7281850491      4.04E-06
    8    -286.7281853460      1.76E-06
    9    -286.7281855643      1.44E-06
   10    -286.7281857501      1.46E-06
   11    -286.7281853130      1.17E-06
   12    -286.7281850422      3.53E-07
   13    -286.7281850273      1.21E-07
   14    -286.7281850271      6.16E-08
   15    -286.7281850271      3.02E-08
   16    -286.7281850271      1.60E-08
   17    -286.7281850272      6.40E-09 Convergence criterion met
 ---------------------------------------
 <S^2> = 1.6886
 SCF time:  CPU 74.09 s  wall 25.46 s
 SCF   energy in the final basis set = -286.72818503
 Total energy in the final basis set = -286.72818503
 
 --------------------------------------------------------------
 
                    Orbital Energies (a.u.)
 --------------------------------------------------------------
 
 Alpha MOs
 -- Occupied --
-14.362 -10.246 -10.233 -10.228 -10.227 -10.223 -10.215  -0.944
 -0.819  -0.763  -0.716  -0.630  -0.578  -0.519  -0.503  -0.482
 -0.477  -0.428  -0.412  -0.390  -0.292  -0.285  -0.277  -0.247
 -0.225
 -- Virtual --
 -0.138  -0.022  -0.011   0.011   0.017   0.025   0.037   0.041
  0.058   0.060   0.066   0.070   0.081   0.087   0.097   0.100
  0.105   0.122   0.128   0.131   0.141   0.147   0.159   0.176
  0.179   0.196   0.205   0.215   0.221   0.223   0.236   0.241
  0.253   0.260   0.287   0.295   0.300   0.320   0.343   0.371
  0.384   0.424   0.427   0.473   0.608   0.615   0.660   0.663
  0.664   0.697   0.704   0.718   0.728   0.737   0.755   0.760
  0.787   0.816   0.864   0.885   0.914   0.929   0.962   0.966
  0.975   1.003   1.023   1.036   1.062   1.083   1.118   1.152
  1.167   1.204   1.211   1.292   1.306   1.319   1.363   1.373
  1.396   1.493   1.500   1.609   1.611   1.640   1.718   1.746
  1.790   1.809   1.838   1.874   1.912   1.953   1.983   2.011
  2.045   2.056   2.060   2.108   2.163   2.246   2.284   2.344
  2.353   2.394   2.399   2.419   2.426   2.453   2.486   2.494
  2.596   2.605   2.636   2.639   2.675   2.689   2.713   2.723
  2.870   2.943   2.973   3.050   3.215   3.276   3.283   3.302
  3.519   3.585   3.661   4.170   4.302   4.308   4.372   4.472
  4.539   4.638
 
 Beta MOs
 -- Occupied --
-14.362 -10.246 -10.233 -10.227 -10.227 -10.217 -10.208  -0.944
 -0.814  -0.756  -0.711  -0.623  -0.568  -0.513  -0.501  -0.476
 -0.468  -0.428  -0.405  -0.390  -0.287  -0.285  -0.272  -0.224
 -- Virtual --
 -0.137  -0.088  -0.021  -0.003   0.012   0.018   0.026   0.038
  0.042   0.057   0.062   0.066   0.075   0.082   0.086   0.096
  0.107   0.109   0.124   0.129   0.132   0.142   0.147   0.160
  0.177   0.180   0.196   0.206   0.215   0.223   0.232   0.237
  0.241   0.253   0.260   0.288   0.296   0.301   0.325   0.344
  0.371   0.387   0.427   0.441   0.476   0.610   0.623   0.659
  0.668   0.685   0.704   0.710   0.719   0.735   0.744   0.757
  0.773   0.793   0.817   0.867   0.891   0.915   0.931   0.962
  0.974   0.981   1.005   1.025   1.038   1.075   1.088   1.124
  1.153   1.170   1.204   1.214   1.293   1.305   1.320   1.369
  1.375   1.399   1.494   1.501   1.609   1.655   1.675   1.727
  1.750   1.791   1.828   1.840   1.877   1.918   1.972   1.984
  2.016   2.049   2.055   2.065   2.113   2.167   2.253   2.288
  2.346   2.357   2.398   2.402   2.421   2.434   2.455   2.483
  2.499   2.604   2.609   2.636   2.645   2.676   2.693   2.721
  2.739   2.870   2.951   2.978   3.053   3.216   3.281   3.290
  3.303   3.520   3.602   3.662   4.171   4.305   4.314   4.387
  4.474   4.550   4.638
 --------------------------------------------------------------
 
          Ground-State Mulliken Net Atomic Charges

     Atom                 Charge (a.u.)    Spin (a.u.)
  --------------------------------------------------------
      1 C                    -0.013230      -0.008990
      2 C                    -0.303083       1.114763
      3 C                    -0.109382      -0.230475
      4 C                     0.134826       0.023827
      5 C                    -0.335759      -0.003485
      6 N                    -0.093385       0.004885
      7 H                     0.138690      -0.000761
      8 H                     0.152245       0.008780
      9 H                     0.156539       0.081187
     10 H                     0.148943      -0.002796
     11 H                     0.137235       0.001860
     12 C                    -0.161194       0.010780
     13 H                     0.147555       0.000425
  --------------------------------------------------------
  Sum of atomic charges =    -0.000000
  Sum of spin   charges =     1.000000

 -----------------------------------------------------------------
                    Cartesian Multipole Moments
 -----------------------------------------------------------------
    Charge (ESU x 10^10)
                -0.0000
    Dipole Moment (Debye)
         X      -0.1231      Y       0.4761      Z       0.4151
       Tot       0.6435
    Quadrupole Moments (Debye-Ang)
        XX     -36.0729     XY       2.5630     YY     -40.9721
        XZ      -2.7760     YZ      -2.6445     ZZ     -42.3420
    Octopole Moments (Debye-Ang^2)
       XXX      15.2744    XXY      16.2074    XYY       1.2579
       YYY      -9.4813    XXZ      -3.9273    XYZ       0.7408
       YYZ       9.0361    XZZ      -3.5351    YZZ      -1.6172
       ZZZ      10.4807
    Hexadecapole Moments (Debye-Ang^3)
      XXXX    -581.2483   XXXY    -194.7575   XXYY    -189.6372
      XYYY    -184.1336   YYYY    -530.2660   XXXZ      96.5424
      XXYZ      23.6914   XYYZ      16.7160   YYYZ      94.0038
      XXZZ    -130.7474   XYZZ     -60.8858   YYZZ    -126.0011
      XZZZ      99.5604   YZZZ     123.5884   ZZZZ    -206.8696
 -----------------------------------------------------------------
 Calculating analytic gradient of the SCF energy
 Gradient of SCF Energy
            1           2           3           4           5           6
    1   0.0055720  -0.0001909   0.0003616  -0.0040343   0.0101836  -0.0172483
    2   0.0197292   0.0010564  -0.0013192  -0.0012091  -0.0001363  -0.0080995
    3  -0.0161226  -0.0010927   0.0006678   0.0003525   0.0019996   0.0044359
            7           8           9          10          11          12
    1   0.0003326  -0.0001123   0.0004068  -0.0002598  -0.0010848   0.0090336
    2   0.0022368  -0.0000835   0.0002344  -0.0001274   0.0003967  -0.0142109
    3  -0.0017974   0.0006931  -0.0000309  -0.0003654  -0.0004016   0.0133602
           13
    1  -0.0029597
    2   0.0015325
    3  -0.0016985
 Max gradient component =       1.973E-02
 RMS gradient           =       6.563E-03
 Gradient time:  CPU 14.11 s  wall 3.65 s
 Geometry Optimization Parameters
   NAtoms,    NIC,     NZ,  NCons,   NDum,   NFix, NCnnct, MaxDiis
       13      69       0       0       0       0       0       0

 Cartesian Hessian Update
 Hessian Updated using Powell/Murtagh-Sargent Update
  Mixing factors:     0.999864 Powell
                      0.000136 Murtagh-Sargent


** GEOMETRY OPTIMIZATION IN DELOCALIZED INTERNAL COORDINATES **
   Searching for a Transition State

   Optimization Cycle:   3

                       Coordinates (Angstroms)
     ATOM                X               Y               Z
      1  C         1.9311433717    0.8964993762   -0.3844484206
      2  C        -1.3151724420   -2.5588121918    0.6460839815
      3  C        -1.4627839450   -1.3059172648    1.0140794766
      4  C        -1.4670970331   -0.1427105063    0.0883987144
      5  C        -0.3630073787    0.5378399306   -0.3281435286
      6  N         0.8893288839    0.1999438160    0.0896374047
      7  H         2.9021366346    0.5780981954    0.0169315917
      8  H        -1.2953708309   -3.5259865039    1.1327521389
      9  H        -1.6311927215   -1.0756974580    2.0764959584
     10  H        -2.4379660871    0.2038703496   -0.2646617106
     11  H        -0.4928969883    1.3845571088   -1.0108542958
     12  C         1.9360677657    1.9270983120   -1.2946914388
     13  H         2.7790518318    2.4883339550   -1.6860575995
   Point Group: c1    Number of degrees of freedom:    33


   Energy is   -286.728185027

 Hessian Updated using Powell/Murtagh-Sargent Update
  Mixing factors:     0.977020 Powell
                      0.022980 Murtagh-Sargent

 33 Hessian modes will be used to form the next step
  Hessian Eigenvalues:
    -0.026109   -0.006325    0.014535    0.014790    0.021127    0.021848
     0.027582    0.028908    0.033392    0.039992    0.053046    0.071351
     0.096241    0.105469    0.111222    0.116306    0.125425    0.146972
     0.168338    0.192379    0.246717    0.306474    0.324389    0.328558
     0.331604    0.345933    0.355048    0.370055    0.371041    0.475728
     0.564441    0.587442    0.654785
**WARNING** Hessian does not have the Desired Local Structure

 Transition State Search - Taking P-RFO Step
 Searching for Lamda that Maximizes Along the Lowest mode
 Value Taken    Lamda =   0.00002239
 Searching for Lamda that Minimizes Along All other modes
 Value Taken    Lamda =  -0.00654636
 Calculated Step too Large.  Step scaled by  0.035697
 Step Taken.  Stepsize is  0.100000

                             Maximum     Tolerance    Cnvgd?
         Gradient           0.013584      0.000010      NO
         Displacement       0.056309      0.001200      NO
         Energy change     -0.000079      0.000001      NO


 New Cartesian Coordinates Obtained by Inverse Iteration

 Displacement from previous Coordinates is:  0.183451
 ----------------------------------------------------------------
             Standard Nuclear Orientation (Angstroms)
    I     Atom           X                Y                Z
 ----------------------------------------------------------------
    1      C       1.9295117200     0.8940814676    -0.3822837810
    2      C      -1.2792144965    -2.5506786306     0.6397483989
    3      C      -1.4709291733    -1.3050142869     1.0124723557
    4      C      -1.4706896126    -0.1344483910     0.0970466334
    5      C      -0.3657990069     0.5457896055    -0.3173409836
    6      N       0.8868347593     0.2056676570     0.0989095304
    7      H       2.8995468523     0.5792048068     0.0240524066
    8      H      -1.2559045040    -3.5220158370     1.1178252787
    9      H      -1.6861492108    -1.0890141008     2.0694461318
   10      H      -2.4409798367     0.2171333158    -0.2528777272
   11      H      -0.4946366946     1.3956660497    -0.9961477759
   12      C       1.9354168366     1.9105132127    -1.3106665516
   13      H       2.7852334281     2.4602322500    -1.7046616439
 ----------------------------------------------------------------
 Nuclear Repulsion Energy =   236.6833724825 hartrees
 There are       25 alpha and       24 beta electrons
 Applying Cartesian multipole field
    Component          Value
    ---------          -----
     (2,0,0)        1.00000E-11
     (0,2,0)        2.00000E-11
     (0,0,2)       -3.00000E-11
 Nucleus-field energy     =     0.0000000080 hartrees
 Requested basis set is 6-31+G(d,p)
 There are 53 shells and 163 basis functions
 A cutoff of  1.0D-14 yielded   1300 shell pairs
 There are     12811 function pairs
 Smallest overlap matrix eigenvalue = 1.62E-05
 Guess MOs from SCF MO coefficient file
 Reading MOs from coefficient file
 Reading MOs from coefficient file
 An unrestricted hybrid HF-DFT SCF calculation will be
 performed using Pulay DIIS extrapolation
 Exchange:     0.2000 Hartree-Fock + 0.0800 Slater + 0.7200 B88
 Correlation:  0.1900 VWN1RPA + 0.8100 LYP
 Using SG-1 standard quadrature grid
 SCF converges when DIIS error is below 1.0E-08
 Geometry optimization detected.  Setting ReadMinima to 0
 Setting SaveMinima to 0
Using Q-Chem read-in guess as SCF_GUESS READ specified.

 using 4 threads for integral computing
 -------------------------------------------------------
 OpenMP Integral computing Module                
 Release: version 1.0, May 2013, Q-Chem Inc. Pittsburgh 
 -------------------------------------------------------
 -------------------------------------------------------
 OpenMP BLAS3 based DFT computing Module                
 Release: version 1.0, May 2013, Q-Chem Inc. Pittsburgh 
 -------------------------------------------------------
 ---------------------------------------
  Cycle       Energy         DIIS Error
 ---------------------------------------
    1    -286.7267483166      6.91E-04
    2    -286.7283885930      5.67E-05
    3    -286.7283896393      9.52E-05
    4    -286.7284323030      4.13E-05
    5    -286.7284415089      2.03E-05
    6    -286.7284455563      7.40E-06
    7    -286.7284480410      5.59E-06
    8    -286.7284498680      4.88E-06
    9    -286.7284493271      4.80E-06
   10    -286.7284445116      3.24E-06
   11    -286.7284417410      1.60E-06
   12    -286.7284416183      5.27E-07
   13    -286.7284416120      2.28E-07
   14    -286.7284416130      1.25E-07
   15    -286.7284416133      8.80E-08
   16    -286.7284416136      3.64E-08
   17    -286.7284416136      1.10E-08
   18    -286.7284416136      4.66E-09 Convergence criterion met
 ---------------------------------------
 <S^2> = 1.6837
 SCF time:  CPU 78.19 s  wall 22.79 s
 SCF   energy in the final basis set = -286.72844161
 Total energy in the final basis set = -286.72844161
 
 --------------------------------------------------------------
 
                    Orbital Energies (a.u.)
 --------------------------------------------------------------
 
 Alpha MOs
 -- Occupied --
-14.362 -10.246 -10.233 -10.228 -10.226 -10.224 -10.216  -0.944
 -0.819  -0.763  -0.716  -0.630  -0.578  -0.519  -0.502  -0.482
 -0.476  -0.428  -0.413  -0.390  -0.294  -0.283  -0.277  -0.247
 -0.225
 -- Virtual --
 -0.138  -0.022  -0.011   0.011   0.017   0.025   0.037   0.042
  0.058   0.060   0.066   0.070   0.082   0.087   0.098   0.100
  0.105   0.122   0.128   0.132   0.141   0.146   0.159   0.176
  0.179   0.196   0.205   0.215   0.220   0.223   0.235   0.241
  0.253   0.260   0.287   0.295   0.301   0.319   0.342   0.371
  0.385   0.423   0.427   0.472   0.607   0.615   0.660   0.663
  0.663   0.698   0.704   0.719   0.730   0.737   0.755   0.760
  0.787   0.817   0.862   0.884   0.914   0.930   0.962   0.966
  0.974   1.003   1.024   1.035   1.060   1.084   1.119   1.152
  1.166   1.203   1.212   1.291   1.305   1.321   1.361   1.376
  1.394   1.494   1.500   1.608   1.610   1.639   1.714   1.747
  1.793   1.809   1.838   1.873   1.913   1.953   1.983   2.008
  2.044   2.057   2.062   2.107   2.164   2.246   2.284   2.345
  2.352   2.393   2.400   2.419   2.426   2.450   2.488   2.494
  2.595   2.605   2.633   2.638   2.674   2.686   2.715   2.723
  2.871   2.943   2.972   3.052   3.217   3.276   3.283   3.300
  3.518   3.584   3.661   4.170   4.301   4.307   4.372   4.471
  4.538   4.638
 
 Beta MOs
 -- Occupied --
-14.362 -10.246 -10.233 -10.227 -10.226 -10.217 -10.208  -0.944
 -0.814  -0.756  -0.711  -0.623  -0.568  -0.513  -0.501  -0.475
 -0.468  -0.428  -0.405  -0.390  -0.288  -0.285  -0.272  -0.224
 -- Virtual --
 -0.136  -0.088  -0.022  -0.003   0.012   0.018   0.026   0.038
  0.042   0.057   0.062   0.066   0.074   0.082   0.086   0.097
  0.107   0.109   0.123   0.129   0.133   0.142   0.147   0.160
  0.177   0.180   0.196   0.206   0.216   0.222   0.232   0.237
  0.241   0.254   0.260   0.287   0.296   0.301   0.324   0.343
  0.371   0.388   0.427   0.440   0.475   0.609   0.622   0.659
  0.669   0.684   0.704   0.711   0.719   0.735   0.746   0.757
  0.772   0.793   0.817   0.864   0.889   0.914   0.932   0.963
  0.973   0.980   1.006   1.025   1.037   1.073   1.088   1.125
  1.153   1.169   1.203   1.214   1.293   1.304   1.323   1.366
  1.379   1.397   1.495   1.501   1.608   1.651   1.676   1.723
  1.752   1.794   1.827   1.841   1.876   1.920   1.973   1.984
  2.014   2.047   2.057   2.067   2.112   2.167   2.253   2.289
  2.346   2.355   2.397   2.403   2.420   2.434   2.452   2.485
  2.499   2.603   2.609   2.636   2.643   2.675   2.692   2.723
  2.738   2.872   2.952   2.976   3.055   3.217   3.281   3.290
  3.301   3.519   3.601   3.662   4.170   4.303   4.314   4.387
  4.474   4.549   4.638
 --------------------------------------------------------------
 
          Ground-State Mulliken Net Atomic Charges

     Atom                 Charge (a.u.)    Spin (a.u.)
  --------------------------------------------------------
      1 C                    -0.011617      -0.010830
      2 C                    -0.301051       1.113792
      3 C                    -0.112676      -0.228046
      4 C                     0.135062       0.017706
      5 C                    -0.332106      -0.000660
      6 N                    -0.092659       0.007689
      7 H                     0.138424      -0.001673
      8 H                     0.152270       0.008827
      9 H                     0.156124       0.080783
     10 H                     0.148489      -0.002623
     11 H                     0.137606       0.001850
     12 C                    -0.164433       0.012507
     13 H                     0.146568       0.000676
  --------------------------------------------------------
  Sum of atomic charges =    -0.000000
  Sum of spin   charges =     1.000000

 -----------------------------------------------------------------
                    Cartesian Multipole Moments
 -----------------------------------------------------------------
    Charge (ESU x 10^10)
                -0.0000
    Dipole Moment (Debye)
         X      -0.1734      Y       0.4271      Z       0.4337
       Tot       0.6330
    Quadrupole Moments (Debye-Ang)
        XX     -35.9534     XY       2.5186     YY     -40.9325
        XZ      -2.8356     YZ      -2.5780     ZZ     -42.4659
    Octopole Moments (Debye-Ang^2)
       XXX      14.5044    XXY      15.8949    XYY       0.9599
       YYY     -10.0529    XXZ      -3.6675    XYZ       0.8651
       YYZ       9.1446    XZZ      -3.7794    YZZ      -1.7976
       ZZZ      10.4398
    Hexadecapole Moments (Debye-Ang^3)
      XXXX    -578.2705   XXXY    -191.9219   XXYY    -189.4126
      XYYY    -182.7893   YYYY    -526.2464   XXXZ      95.9593
      XXYZ      23.4991   XYYZ      17.6190   YYYZ      94.4872
      XXZZ    -129.8067   XYZZ     -59.9012   YYZZ    -126.0502
      XZZZ      99.6700   YZZZ     123.5528   ZZZZ    -208.4046
 -----------------------------------------------------------------
 Calculating analytic gradient of the SCF energy
 Gradient of SCF Energy
            1           2           3           4           5           6
    1   0.0053487  -0.0005074   0.0003727  -0.0038544   0.0097397  -0.0165846
    2   0.0189362   0.0010455  -0.0013656  -0.0010693   0.0000168  -0.0077506
    3  -0.0156300  -0.0011089   0.0007376   0.0002482   0.0021604   0.0043145
            7           8           9          10          11          12
    1   0.0003288  -0.0001229   0.0007210  -0.0002351  -0.0010470   0.0086839
    2   0.0021264  -0.0000898   0.0002427  -0.0003052   0.0003983  -0.0136894
    3  -0.0017766   0.0006390   0.0000600  -0.0006054  -0.0003823   0.0129949
           13
    1  -0.0028434
    2   0.0015039
    3  -0.0016514
 Max gradient component =       1.894E-02
 RMS gradient           =       6.327E-03
 Gradient time:  CPU 14.22 s  wall 3.65 s
 Geometry Optimization Parameters
   NAtoms,    NIC,     NZ,  NCons,   NDum,   NFix, NCnnct, MaxDiis
       13      69       0       0       0       0       0       0

 Cartesian Hessian Update
 Hessian Updated using Powell/Murtagh-Sargent Update
  Mixing factors:     0.999908 Powell
                      0.000092 Murtagh-Sargent


** GEOMETRY OPTIMIZATION IN DELOCALIZED INTERNAL COORDINATES **
   Searching for a Transition State

   Optimization Cycle:   4

                       Coordinates (Angstroms)
     ATOM                X               Y               Z
      1  C         1.9295117200    0.8940814676   -0.3822837810
      2  C        -1.2792144965   -2.5506786306    0.6397483989
      3  C        -1.4709291733   -1.3050142869    1.0124723557
      4  C        -1.4706896126   -0.1344483910    0.0970466334
      5  C        -0.3657990069    0.5457896055   -0.3173409836
      6  N         0.8868347593    0.2056676570    0.0989095304
      7  H         2.8995468523    0.5792048068    0.0240524066
      8  H        -1.2559045040   -3.5220158370    1.1178252787
      9  H        -1.6861492108   -1.0890141008    2.0694461318
     10  H        -2.4409798367    0.2171333158   -0.2528777272
     11  H        -0.4946366946    1.3956660497   -0.9961477759
     12  C         1.9354168366    1.9105132127   -1.3106665516
     13  H         2.7852334281    2.4602322500   -1.7046616439
   Point Group: c1    Number of degrees of freedom:    33


   Energy is   -286.728441614

 Hessian Updated using Powell/Murtagh-Sargent Update
  Mixing factors:     0.967734 Powell
                      0.032266 Murtagh-Sargent

 33 Hessian modes will be used to form the next step
  Hessian Eigenvalues:
    -0.026448   -0.004310    0.014539    0.014794    0.021144    0.021851
     0.027581    0.028915    0.033508    0.039997    0.053060    0.071371
     0.096241    0.105508    0.111222    0.116308    0.125424    0.147019
     0.168339    0.192388    0.246712    0.306533    0.324402    0.328558
     0.331605    0.345942    0.355048    0.370055    0.371042    0.475727
     0.564442    0.587465    0.654790
**WARNING** Hessian does not have the Desired Local Structure

 Transition State Search - Taking P-RFO Step
 Searching for Lamda that Maximizes Along the Lowest mode
 Value Taken    Lamda =   0.00009412
 Searching for Lamda that Minimizes Along All other modes
 Value Taken    Lamda =  -0.00505562
 Calculated Step too Large.  Step scaled by  0.118411
 Step Taken.  Stepsize is  0.100000

                             Maximum     Tolerance    Cnvgd?
         Gradient           0.013153      0.000010      NO
         Displacement       0.051525      0.001200      NO
         Energy change     -0.000257      0.000001      NO


 New Cartesian Coordinates Obtained by Inverse Iteration

 Displacement from previous Coordinates is:  0.252281
 ----------------------------------------------------------------
             Standard Nuclear Orientation (Angstroms)
    I     Atom           X                Y                Z
 ----------------------------------------------------------------
    1      C       1.9244538510     0.8978010260    -0.3727921312
    2      C      -1.2423444484    -2.5404155140     0.6255908901
    3      C      -1.4760004824    -1.3051877477     1.0097856013
    4      C      -1.4751101208    -0.1238596447     0.1093350570
    5      C      -0.3721800720     0.5612088764    -0.2999089678
    6      N       0.8814797811     0.2248235915     0.1204423542
    7      H       2.8917703899     0.5967960868     0.0499213522
    8      H      -1.2127222109    -3.5194690192     1.0869732179
    9      H      -1.7321523080    -1.1095876004     2.0615286070
   10      H      -2.4457612864     0.2286216812    -0.2387672470
   11      H      -0.5002970374     1.4136864105    -0.9750359502
   12      C       1.9313012420     1.8797264828    -1.3445883044
   13      H       2.7998037634     2.4029724897    -1.7369622069
 ----------------------------------------------------------------
 Nuclear Repulsion Energy =   236.8222346109 hartrees
 There are       25 alpha and       24 beta electrons
 Applying Cartesian multipole field
    Component          Value
    ---------          -----
     (2,0,0)        1.00000E-11
     (0,2,0)        2.00000E-11
     (0,0,2)       -3.00000E-11
 Nucleus-field energy     =     0.0000000079 hartrees
 Requested basis set is 6-31+G(d,p)
 There are 53 shells and 163 basis functions
 A cutoff of  1.0D-14 yielded   1300 shell pairs
 There are     12811 function pairs
 Smallest overlap matrix eigenvalue = 1.65E-05
 Guess MOs from SCF MO coefficient file
 Reading MOs from coefficient file
 Reading MOs from coefficient file
 An unrestricted hybrid HF-DFT SCF calculation will be
 performed using Pulay DIIS extrapolation
 Exchange:     0.2000 Hartree-Fock + 0.0800 Slater + 0.7200 B88
 Correlation:  0.1900 VWN1RPA + 0.8100 LYP
 Using SG-1 standard quadrature grid
 SCF converges when DIIS error is below 1.0E-08
 Geometry optimization detected.  Setting ReadMinima to 0
 Setting SaveMinima to 0
Using Q-Chem read-in guess as SCF_GUESS READ specified.

 using 4 threads for integral computing
 -------------------------------------------------------
 OpenMP Integral computing Module                
 Release: version 1.0, May 2013, Q-Chem Inc. Pittsburgh 
 -------------------------------------------------------
 -------------------------------------------------------
 OpenMP BLAS3 based DFT computing Module                
 Release: version 1.0, May 2013, Q-Chem Inc. Pittsburgh 
 -------------------------------------------------------
 ---------------------------------------
  Cycle       Energy         DIIS Error
 ---------------------------------------
    1    -286.7259148938      9.04E-04
    2    -286.7288959676      9.99E-05
    3    -286.7286834670      2.50E-04
    4    -286.7290056846      4.28E-05
    5    -286.7290206638      2.48E-05
    6    -286.7290333809      1.24E-05
    7    -286.7290444431      1.10E-05
    8    -286.7290460092      1.10E-05
    9    -286.7290206029      8.53E-06
   10    -286.7290024712      4.63E-06
   11    -286.7289984107      2.54E-06
   12    -286.7289979865      1.27E-06
   13    -286.7289979465      6.03E-07
   14    -286.7289979459      2.94E-07
   15    -286.7289979475      1.72E-07
   16    -286.7289979488      7.32E-08
   17    -286.7289979490      2.48E-08
   18    -286.7289979490      9.51E-09 Convergence criterion met
 ---------------------------------------
 <S^2> = 1.6691
 SCF time:  CPU 77.64 s  wall 21.25 s
 SCF   energy in the final basis set = -286.72899795
 Total energy in the final basis set = -286.72899795
 
 --------------------------------------------------------------
 
                    Orbital Energies (a.u.)
 --------------------------------------------------------------
 
 Alpha MOs
 -- Occupied --
-14.363 -10.246 -10.233 -10.228 -10.226 -10.224 -10.216  -0.945
 -0.819  -0.763  -0.715  -0.631  -0.578  -0.519  -0.502  -0.482
 -0.474  -0.429  -0.413  -0.390  -0.296  -0.283  -0.277  -0.247
 -0.226
 -- Virtual --
 -0.138  -0.022  -0.012   0.012   0.017   0.025   0.037   0.042
  0.058   0.059   0.066   0.070   0.082   0.086   0.099   0.101
  0.105   0.121   0.129   0.133   0.142   0.145   0.159   0.176
  0.179   0.197   0.204   0.216   0.220   0.223   0.235   0.241
  0.253   0.260   0.285   0.296   0.301   0.318   0.340   0.370
  0.384   0.421   0.428   0.471   0.606   0.616   0.660   0.661
  0.663   0.696   0.705   0.719   0.731   0.736   0.755   0.761
  0.786   0.818   0.859   0.883   0.913   0.931   0.961   0.965
  0.972   1.003   1.024   1.034   1.058   1.082   1.118   1.152
  1.165   1.201   1.212   1.290   1.305   1.323   1.357   1.380
  1.393   1.496   1.501   1.604   1.610   1.639   1.709   1.749
  1.793   1.808   1.837   1.871   1.916   1.954   1.985   2.005
  2.045   2.061   2.063   2.107   2.163   2.245   2.285   2.347
  2.347   2.393   2.400   2.419   2.427   2.446   2.490   2.496
  2.592   2.606   2.626   2.635   2.672   2.684   2.716   2.722
  2.875   2.942   2.972   3.053   3.221   3.277   3.280   3.295
  3.516   3.584   3.660   4.168   4.298   4.305   4.372   4.469
  4.538   4.637
 
 Beta MOs
 -- Occupied --
-14.362 -10.246 -10.233 -10.228 -10.226 -10.218 -10.209  -0.944
 -0.815  -0.755  -0.710  -0.624  -0.568  -0.513  -0.500  -0.474
 -0.468  -0.428  -0.406  -0.390  -0.289  -0.283  -0.272  -0.225
 -- Virtual --
 -0.136  -0.089  -0.022  -0.003   0.012   0.018   0.026   0.038
  0.043   0.056   0.063   0.067   0.074   0.083   0.085   0.097
  0.107   0.110   0.122   0.129   0.134   0.142   0.147   0.160
  0.177   0.180   0.197   0.205   0.216   0.222   0.232   0.236
  0.241   0.254   0.261   0.286   0.296   0.301   0.323   0.341
  0.371   0.387   0.427   0.439   0.473   0.609   0.622   0.659
  0.670   0.682   0.703   0.710   0.720   0.734   0.747   0.759
  0.772   0.792   0.818   0.862   0.887   0.914   0.933   0.962
  0.973   0.978   1.006   1.025   1.036   1.071   1.086   1.124
  1.153   1.168   1.202   1.214   1.292   1.304   1.325   1.362
  1.383   1.395   1.497   1.502   1.604   1.648   1.678   1.720
  1.754   1.794   1.825   1.841   1.874   1.923   1.973   1.986
  2.011   2.047   2.061   2.068   2.112   2.166   2.252   2.290
  2.348   2.351   2.397   2.404   2.420   2.434   2.449   2.487
  2.502   2.599   2.610   2.632   2.637   2.673   2.689   2.723
  2.737   2.875   2.952   2.976   3.057   3.221   3.279   3.289
  3.298   3.516   3.600   3.662   4.169   4.299   4.313   4.387
  4.471   4.548   4.637
 --------------------------------------------------------------
 
          Ground-State Mulliken Net Atomic Charges

     Atom                 Charge (a.u.)    Spin (a.u.)
  --------------------------------------------------------
      1 C                    -0.006488      -0.014277
      2 C                    -0.299783       1.113345
      3 C                    -0.115746      -0.226344
      4 C                     0.131003       0.007526
      5 C                    -0.322432       0.003952
      6 N                    -0.090376       0.014045
      7 H                     0.137848      -0.003748
      8 H                     0.152576       0.008689
      9 H                     0.155937       0.080176
     10 H                     0.148267      -0.002316
     11 H                     0.138802       0.001863
     12 C                    -0.173508       0.015930
     13 H                     0.143899       0.001161
  --------------------------------------------------------
  Sum of atomic charges =     0.000000
  Sum of spin   charges =     1.000000

 -----------------------------------------------------------------
                    Cartesian Multipole Moments
 -----------------------------------------------------------------
    Charge (ESU x 10^10)
                 0.0000
    Dipole Moment (Debye)
         X      -0.2378      Y       0.3312      Z       0.4857
       Tot       0.6341
    Quadrupole Moments (Debye-Ang)
        XX     -35.8458     XY       2.4149     YY     -40.8836
        XZ      -2.8258     YZ      -2.3891     ZZ     -42.7430
    Octopole Moments (Debye-Ang^2)
       XXX      13.7419    XXY      15.3595    XYY       0.4444
       YYY     -11.2252    XXZ      -3.3592    XYZ       1.1699
       YYZ       9.4928    XZZ      -4.0491    YZZ      -2.3011
       ZZZ      10.6530
    Hexadecapole Moments (Debye-Ang^3)
      XXXX    -574.2174   XXXY    -188.7233   XXYY    -189.3435
      XYYY    -181.7315   YYYY    -520.3395   XXXZ      95.4213
      XXYZ      23.5686   XYYZ      19.2805   YYYZ      95.7270
      XXZZ    -128.9486   XYZZ     -59.2195   YYZZ    -127.0079
      XZZZ     100.0154   YZZZ     123.8549   ZZZZ    -212.0147
 -----------------------------------------------------------------
 Calculating analytic gradient of the SCF energy
 Gradient of SCF Energy
            1           2           3           4           5           6
    1   0.0045811  -0.0007775   0.0003074  -0.0033155   0.0085479  -0.0145162
    2   0.0166073   0.0009164  -0.0012696  -0.0008894   0.0001921  -0.0067619
    3  -0.0139825  -0.0010805   0.0007373   0.0001698   0.0021658   0.0037944
            7           8           9          10          11          12
    1   0.0002874  -0.0001126   0.0009699  -0.0001865  -0.0009218   0.0075883
    2   0.0018207  -0.0000916   0.0002310  -0.0004227   0.0003891  -0.0120472
    3  -0.0016399   0.0004973   0.0001589  -0.0007425  -0.0003282   0.0116968
           13
    1  -0.0024521
    2   0.0013258
    3  -0.0014468
 Max gradient component =       1.661E-02
 RMS gradient           =       5.584E-03
 Gradient time:  CPU 14.00 s  wall 3.65 s
 Geometry Optimization Parameters
   NAtoms,    NIC,     NZ,  NCons,   NDum,   NFix, NCnnct, MaxDiis
       13      69       0       0       0       0       0       0

 Cartesian Hessian Update
 Hessian Updated using Powell/Murtagh-Sargent Update
  Mixing factors:     0.998875 Powell
                      0.001125 Murtagh-Sargent


** GEOMETRY OPTIMIZATION IN DELOCALIZED INTERNAL COORDINATES **
   Searching for a Transition State

   Optimization Cycle:   5

                       Coordinates (Angstroms)
     ATOM                X               Y               Z
      1  C         1.9244538510    0.8978010260   -0.3727921312
      2  C        -1.2423444484   -2.5404155140    0.6255908901
      3  C        -1.4760004824   -1.3051877477    1.0097856013
      4  C        -1.4751101208   -0.1238596447    0.1093350570
      5  C        -0.3721800720    0.5612088764   -0.2999089678
      6  N         0.8814797811    0.2248235915    0.1204423542
      7  H         2.8917703899    0.5967960868    0.0499213522
      8  H        -1.2127222109   -3.5194690192    1.0869732179
      9  H        -1.7321523080   -1.1095876004    2.0615286070
     10  H        -2.4457612864    0.2286216812   -0.2387672470
     11  H        -0.5002970374    1.4136864105   -0.9750359502
     12  C         1.9313012420    1.8797264828   -1.3445883044
     13  H         2.7998037634    2.4029724897   -1.7369622069
   Point Group: c1    Number of degrees of freedom:    33


   Energy is   -286.728997949

 Hessian Updated using Powell/Murtagh-Sargent Update
  Mixing factors:     0.884965 Powell
                      0.115035 Murtagh-Sargent

 33 Hessian modes will be used to form the next step
  Hessian Eigenvalues:
    -0.026351    0.001280    0.014547    0.014811    0.021188    0.021852
     0.027567    0.028920    0.035497    0.040049    0.053121    0.071470
     0.096254    0.105604    0.111220    0.116318    0.125413    0.147099
     0.168356    0.192413    0.246698    0.306564    0.324412    0.328558
     0.331593    0.345950    0.355048    0.370056    0.371053    0.475722
     0.564474    0.587615    0.654790

 Transition State Search - Taking P-RFO Step
 Searching for Lamda that Maximizes Along the Lowest mode
 Value Taken    Lamda =   0.00036824
 Searching for Lamda that Minimizes Along All other modes
 Value Taken    Lamda =  -0.00374259
 Calculated Step too Large.  Step scaled by  0.263030
 Step Taken.  Stepsize is  0.100000

                             Maximum     Tolerance    Cnvgd?
         Gradient           0.011654      0.000010      NO
         Displacement       0.040686      0.001200      NO
         Energy change     -0.000556      0.000001      NO


 New Cartesian Coordinates Obtained by Inverse Iteration

 Displacement from previous Coordinates is:  0.172555
 ----------------------------------------------------------------
             Standard Nuclear Orientation (Angstroms)
    I     Atom           X                Y                Z
 ----------------------------------------------------------------
    1      C       1.9196265949     0.8983313308    -0.3792834318
    2      C      -1.2623137861    -2.5450915373     0.6321322880
    3      C      -1.4655345033    -1.3034442324     1.0126618148
    4      C      -1.4729896440    -0.1289178062     0.1026638192
    5      C      -0.3765877586     0.5583380471    -0.3142148274
    6      N       0.8814544296     0.2243320263     0.1040787305
    7      H       2.8870906369     0.5890182871     0.0363719124
    8      H      -1.2318301561    -3.5216570194     1.0981859621
    9      H      -1.6869039132    -1.0953480890     2.0698323489
   10      H      -2.4465869959     0.2164468503    -0.2442035987
   11      H      -0.5049892763     1.4074599248    -0.9925092687
   12      C       1.9138356206     1.9054068422    -1.3398123784
   13      H       2.8179698126     2.4022424946    -1.6903810987
 ----------------------------------------------------------------
 Nuclear Repulsion Energy =   236.8073579577 hartrees
 There are       25 alpha and       24 beta electrons
 Applying Cartesian multipole field
    Component          Value
    ---------          -----
     (2,0,0)        1.00000E-11
     (0,2,0)        2.00000E-11
     (0,0,2)       -3.00000E-11
 Nucleus-field energy     =     0.0000000079 hartrees
 Requested basis set is 6-31+G(d,p)
 There are 53 shells and 163 basis functions
 A cutoff of  1.0D-14 yielded   1300 shell pairs
 There are     12811 function pairs
 Smallest overlap matrix eigenvalue = 1.62E-05
 Guess MOs from SCF MO coefficient file
 Reading MOs from coefficient file
 Reading MOs from coefficient file
 An unrestricted hybrid HF-DFT SCF calculation will be
 performed using Pulay DIIS extrapolation
 Exchange:     0.2000 Hartree-Fock + 0.0800 Slater + 0.7200 B88
 Correlation:  0.1900 VWN1RPA + 0.8100 LYP
 Using SG-1 standard quadrature grid
 SCF converges when DIIS error is below 1.0E-08
 Geometry optimization detected.  Setting ReadMinima to 0
 Setting SaveMinima to 0
Using Q-Chem read-in guess as SCF_GUESS READ specified.

 using 4 threads for integral computing
 -------------------------------------------------------
 OpenMP Integral computing Module                
 Release: version 1.0, May 2013, Q-Chem Inc. Pittsburgh 
 -------------------------------------------------------
 -------------------------------------------------------
 OpenMP BLAS3 based DFT computing Module                
 Release: version 1.0, May 2013, Q-Chem Inc. Pittsburgh 
 -------------------------------------------------------
 ---------------------------------------
  Cycle       Energy         DIIS Error
 ---------------------------------------
    1    -286.7251169595      7.14E-04
    2    -286.7296217295      1.14E-04
    3    -286.7294721841      2.34E-04
    4    -286.7297039950      6.85E-05
    5    -286.7297259785      1.85E-05
    6    -286.7297291510      1.46E-05
    7    -286.7297316082      5.72E-06
    8    -286.7297332371      3.69E-06
    9    -286.7297339737      3.58E-06
   10    -286.7297324943      3.30E-06
   11    -286.7297289066      2.31E-06
   12    -286.7297273902      1.16E-06
   13    -286.7297271885      6.87E-07
   14    -286.7297271446      3.05E-07
   15    -286.7297271363      1.63E-07
   16    -286.7297271350      1.06E-07
   17    -286.7297271349      4.00E-08
   18    -286.7297271349      2.42E-08
   19    -286.7297271349      3.86E-09 Convergence criterion met
 ---------------------------------------
 <S^2> = 1.6338
 SCF time:  CPU 82.31 s  wall 23.63 s
 SCF   energy in the final basis set = -286.72972713
 Total energy in the final basis set = -286.72972713
 
 --------------------------------------------------------------
 
                    Orbital Energies (a.u.)
 --------------------------------------------------------------
 
 Alpha MOs
 -- Occupied --
-14.364 -10.245 -10.234 -10.230 -10.225 -10.225 -10.217  -0.947
 -0.821  -0.763  -0.715  -0.632  -0.578  -0.519  -0.502  -0.482
 -0.471  -0.430  -0.413  -0.391  -0.295  -0.283  -0.277  -0.248
 -0.228
 -- Virtual --
 -0.138  -0.023  -0.012   0.011   0.017   0.025   0.037   0.042
  0.057   0.059   0.066   0.070   0.082   0.086   0.098   0.100
  0.104   0.121   0.129   0.132   0.141   0.145   0.159   0.175
  0.179   0.197   0.203   0.216   0.220   0.222   0.235   0.242
  0.252   0.261   0.286   0.295   0.301   0.318   0.341   0.366
  0.382   0.422   0.427   0.468   0.607   0.617   0.658   0.660
  0.664   0.696   0.704   0.719   0.730   0.736   0.756   0.759
  0.786   0.817   0.857   0.881   0.914   0.930   0.961   0.965
  0.973   1.001   1.024   1.034   1.059   1.080   1.117   1.154
  1.164   1.201   1.213   1.292   1.307   1.320   1.360   1.376
  1.394   1.494   1.501   1.594   1.610   1.639   1.711   1.752
  1.788   1.807   1.834   1.868   1.919   1.955   1.987   2.010
  2.049   2.060   2.070   2.111   2.163   2.240   2.283   2.339
  2.353   2.394   2.396   2.417   2.428   2.445   2.489   2.499
  2.589   2.604   2.614   2.633   2.666   2.684   2.713   2.722
  2.883   2.941   2.977   3.050   3.228   3.271   3.277   3.291
  3.510   3.584   3.656   4.166   4.291   4.303   4.371   4.466
  4.538   4.635
 
 Beta MOs
 -- Occupied --
-14.364 -10.245 -10.234 -10.229 -10.225 -10.219 -10.210  -0.946
 -0.816  -0.755  -0.710  -0.625  -0.569  -0.513  -0.500  -0.471
 -0.467  -0.429  -0.406  -0.391  -0.288  -0.285  -0.273  -0.228
 -- Virtual --
 -0.136  -0.089  -0.023  -0.004   0.012   0.018   0.026   0.038
  0.043   0.056   0.062   0.067   0.074   0.083   0.085   0.097
  0.107   0.110   0.122   0.129   0.134   0.141   0.146   0.159
  0.176   0.180   0.197   0.205   0.216   0.222   0.232   0.236
  0.242   0.253   0.261   0.286   0.295   0.301   0.322   0.342
  0.367   0.384   0.427   0.438   0.471   0.611   0.622   0.657
  0.669   0.682   0.703   0.709   0.720   0.734   0.745   0.759
  0.772   0.792   0.817   0.858   0.887   0.914   0.932   0.962
  0.973   0.979   1.004   1.025   1.035   1.072   1.085   1.123
  1.155   1.167   1.202   1.215   1.294   1.306   1.322   1.365
  1.379   1.397   1.496   1.502   1.594   1.651   1.676   1.721
  1.756   1.789   1.824   1.838   1.871   1.927   1.972   1.990
  2.015   2.051   2.065   2.069   2.117   2.165   2.247   2.288
  2.341   2.354   2.399   2.400   2.419   2.436   2.448   2.486
  2.504   2.593   2.611   2.617   2.636   2.669   2.689   2.722
  2.736   2.883   2.950   2.981   3.054   3.228   3.271   3.286
  3.295   3.510   3.601   3.658   4.166   4.292   4.312   4.386
  4.468   4.549   4.635
 --------------------------------------------------------------
 
          Ground-State Mulliken Net Atomic Charges

     Atom                 Charge (a.u.)    Spin (a.u.)
  --------------------------------------------------------
      1 C                     0.006673      -0.012193
      2 C                    -0.300242       1.114349
      3 C                    -0.114570      -0.229276
      4 C                     0.141434       0.015455
      5 C                    -0.332886       0.000799
      6 N                    -0.084784       0.011320
      7 H                     0.136928      -0.002528
      8 H                     0.152983       0.008317
      9 H                     0.156569       0.080524
     10 H                     0.149201      -0.002563
     11 H                     0.141919       0.002031
     12 C                    -0.191661       0.012943
     13 H                     0.138437       0.000820
  --------------------------------------------------------
  Sum of atomic charges =    -0.000000
  Sum of spin   charges =     1.000000

 -----------------------------------------------------------------
                    Cartesian Multipole Moments
 -----------------------------------------------------------------
    Charge (ESU x 10^10)
                 0.0000
    Dipole Moment (Debye)
         X      -0.2683      Y       0.2112      Z       0.5999
       Tot       0.6903
    Quadrupole Moments (Debye-Ang)
        XX     -35.9466     XY       2.2046     YY     -41.3073
        XZ      -2.5935     YZ      -2.0262     ZZ     -42.8567
    Octopole Moments (Debye-Ang^2)
       XXX      14.1543    XXY      15.0062    XYY      -0.0421
       YYY     -12.7822    XXZ      -3.1184    XYZ       1.7886
       YYZ      10.8430    XZZ      -4.2848    YZZ      -3.2674
       ZZZ      11.7762
    Hexadecapole Moments (Debye-Ang^3)
      XXXX    -572.8548   XXXY    -190.9411   XXYY    -190.6549
      XYYY    -184.4760   YYYY    -527.9237   XXXZ      96.4034
      XXYZ      25.5709   XYYZ      21.1162   YYYZ      99.6829
      XXZZ    -130.0774   XYZZ     -61.5296   YYZZ    -130.0355
      XZZZ     101.0092   YZZZ     126.6565   ZZZZ    -212.6918
 -----------------------------------------------------------------
 Calculating analytic gradient of the SCF energy
 Gradient of SCF Energy
            1           2           3           4           5           6
    1   0.0032499  -0.0006184   0.0002001  -0.0024402   0.0064176  -0.0101201
    2   0.0124923   0.0006567  -0.0008968  -0.0006747   0.0000955  -0.0044478
    3  -0.0102225  -0.0008083   0.0005458   0.0001479   0.0016837   0.0022570
            7           8           9          10          11          12
    1   0.0001532  -0.0000647   0.0007818  -0.0001336  -0.0006454   0.0046832
    2   0.0013730  -0.0000588   0.0001818  -0.0003481   0.0003041  -0.0092837
    3  -0.0011708   0.0003795   0.0000914  -0.0005769  -0.0002549   0.0085675
           13
    1  -0.0014635
    2   0.0006064
    3  -0.0006392
 Max gradient component =       1.249E-02
 RMS gradient           =       4.054E-03
[...]
   13      H       2.8257348864     2.4452861914    -1.6091191684
 ----------------------------------------------------------------
 Nuclear Repulsion Energy =   236.4921820184 hartrees
 There are       25 alpha and       24 beta electrons
 Applying Cartesian multipole field
    Component          Value
    ---------          -----
     (2,0,0)        1.00000E-11
     (0,2,0)        2.00000E-11
     (0,0,2)       -3.00000E-11
 Nucleus-field energy     =     0.0000000080 hartrees
 Requested basis set is 6-31+G(d,p)
 There are 53 shells and 163 basis functions
 A cutoff of  1.0D-14 yielded   1300 shell pairs
 There are     12791 function pairs
 Smallest overlap matrix eigenvalue = 1.56E-05
 Guess MOs from SCF MO coefficient file
 Reading MOs from coefficient file
 Reading MOs from coefficient file
 An unrestricted hybrid HF-DFT SCF calculation will be
 performed using Pulay DIIS extrapolation
 Exchange:     0.2000 Hartree-Fock + 0.0800 Slater + 0.7200 B88
 Correlation:  0.1900 VWN1RPA + 0.8100 LYP
 Using SG-1 standard quadrature grid
 SCF converges when DIIS error is below 1.0E-08
 Geometry optimization detected.  Setting ReadMinima to 0
 Setting SaveMinima to 0
Using Q-Chem read-in guess as SCF_GUESS READ specified.

 using 4 threads for integral computing
 -------------------------------------------------------
 OpenMP Integral computing Module                
 Release: version 1.0, May 2013, Q-Chem Inc. Pittsburgh 
 -------------------------------------------------------
 -------------------------------------------------------
 OpenMP BLAS3 based DFT computing Module                
 Release: version 1.0, May 2013, Q-Chem Inc. Pittsburgh 
 -------------------------------------------------------
 ---------------------------------------
  Cycle       Energy         DIIS Error
 ---------------------------------------
    1    -286.7302610338      1.11E-05
    2    -286.7302261388      9.09E-07
    3    -286.7302261465      9.29E-07
    4    -286.7302261500      5.74E-07
    5    -286.7302261517      2.83E-07
    6    -286.7302261524      9.38E-08
    7    -286.7302261525      4.68E-08
    8    -286.7302261526      1.87E-08
    9    -286.7302261526      1.70E-08
   10    -286.7302261526      1.04E-08
   11    -286.7302261526      9.92E-09 Convergence criterion met
 ---------------------------------------
 <S^2> = 1.5808
 SCF time:  CPU 48.26 s  wall 14.38 s
 SCF   energy in the final basis set = -286.73022615
 Total energy in the final basis set = -286.73022615
 
 --------------------------------------------------------------
 
                    Orbital Energies (a.u.)
 --------------------------------------------------------------
 
 Alpha MOs
 -- Occupied --
-14.366 -10.246 -10.234 -10.230 -10.227 -10.225 -10.217  -0.949
 -0.821  -0.762  -0.712  -0.633  -0.580  -0.519  -0.504  -0.482
 -0.465  -0.431  -0.413  -0.393  -0.293  -0.286  -0.277  -0.248
 -0.233
 -- Virtual --
 -0.137  -0.026  -0.012   0.011   0.017   0.025   0.036   0.042
  0.056   0.060   0.066   0.070   0.082   0.087   0.095   0.099
  0.104   0.122   0.128   0.131   0.139   0.147   0.158   0.173
  0.179   0.198   0.203   0.216   0.220   0.222   0.236   0.242
  0.250   0.260   0.284   0.294   0.301   0.317   0.344   0.359
  0.377   0.419   0.429   0.464   0.612   0.621   0.653   0.661
  0.665   0.694   0.703   0.716   0.726   0.736   0.755   0.757
  0.787   0.817   0.855   0.884   0.914   0.928   0.961   0.966
  0.977   1.000   1.024   1.032   1.062   1.078   1.113   1.153
  1.165   1.203   1.211   1.294   1.313   1.315   1.362   1.371
  1.398   1.493   1.503   1.581   1.612   1.638   1.720   1.753
  1.775   1.806   1.827   1.863   1.917   1.956   1.980   2.021
  2.050   2.061   2.073   2.117   2.162   2.230   2.278   2.328
  2.357   2.390   2.397   2.414   2.430   2.447   2.485   2.502
  2.581   2.586   2.606   2.631   2.660   2.686   2.711   2.721
  2.884   2.940   2.984   3.040   3.226   3.267   3.278   3.291
  3.501   3.587   3.650   4.162   4.281   4.303   4.371   4.463
  4.540   4.633
 
 Beta MOs
 -- Occupied --
-14.366 -10.247 -10.234 -10.229 -10.227 -10.219 -10.209  -0.949
 -0.817  -0.753  -0.708  -0.626  -0.569  -0.513  -0.501  -0.470
 -0.463  -0.430  -0.406  -0.393  -0.289  -0.284  -0.273  -0.233
 -- Virtual --
 -0.136  -0.089  -0.024  -0.004   0.011   0.018   0.026   0.038
  0.043   0.057   0.060   0.066   0.074   0.082   0.087   0.094
  0.106   0.108   0.123   0.130   0.132   0.140   0.147   0.159
  0.175   0.180   0.198   0.205   0.216   0.222   0.231   0.237
  0.242   0.251   0.261   0.284   0.295   0.301   0.322   0.345
  0.360   0.379   0.425   0.440   0.467   0.618   0.625   0.652
  0.667   0.684   0.704   0.709   0.717   0.735   0.740   0.757
  0.771   0.792   0.817   0.856   0.892   0.915   0.930   0.961
  0.974   0.983   1.002   1.025   1.033   1.075   1.083   1.119
  1.154   1.167   1.203   1.214   1.295   1.313   1.317   1.367
  1.374   1.400   1.494   1.504   1.581   1.658   1.673   1.726
  1.758   1.776   1.822   1.833   1.866   1.927   1.968   1.986
  2.027   2.054   2.062   2.073   2.123   2.164   2.237   2.283
  2.330   2.358   2.394   2.402   2.416   2.438   2.450   2.483
  2.507   2.576   2.596   2.612   2.636   2.664   2.688   2.720
  2.735   2.885   2.949   2.987   3.043   3.226   3.267   3.287
  3.295   3.501   3.605   3.651   4.162   4.282   4.312   4.386
  4.465   4.552   4.633
 --------------------------------------------------------------
 
          Ground-State Mulliken Net Atomic Charges

     Atom                 Charge (a.u.)    Spin (a.u.)
  --------------------------------------------------------
      1 C                     0.017994      -0.006688
      2 C                    -0.303271       1.118161
      3 C                    -0.110213      -0.238353
      4 C                     0.154709       0.037589
      5 C                    -0.354949      -0.009002
      6 N                    -0.076667       0.003194
      7 H                     0.136305       0.000696
      8 H                     0.153636       0.007288
      9 H                     0.157726       0.081634
     10 H                     0.150613      -0.003130
     11 H                     0.146168       0.002093
     12 C                    -0.204802       0.006301
     13 H                     0.132754       0.000217
  --------------------------------------------------------
  Sum of atomic charges =     0.000000
  Sum of spin   charges =     1.000000

 -----------------------------------------------------------------
                    Cartesian Multipole Moments
 -----------------------------------------------------------------
    Charge (ESU x 10^10)
                 0.0000
    Dipole Moment (Debye)
         X      -0.1943      Y       0.1143      Z       0.6869
       Tot       0.7229
    Quadrupole Moments (Debye-Ang)
        XX     -36.2482     XY       2.0215     YY     -41.9736
        XZ      -2.2446     YZ      -1.6690     ZZ     -42.7604
    Octopole Moments (Debye-Ang^2)
       XXX      15.6065    XXY      14.7844    XYY      -0.4183
       YYY     -14.5913    XXZ      -3.2262    XYZ       2.3690
       YYZ      12.4602    XZZ      -4.0054    YZZ      -4.1062
       ZZZ      12.7389
    Hexadecapole Moments (Debye-Ang^3)
      XXXX    -575.8197   XXXY    -198.1035   XXYY    -192.8818
      XYYY    -190.0460   YYYY    -545.1952   XXXZ      98.4024
      XXYZ      28.4208   XYYZ      22.1499   YYYZ     104.9257
      XXZZ    -132.5328   XYZZ     -65.5436   YYZZ    -133.9206
      XZZZ     101.4819   YZZZ     130.1264   ZZZZ    -210.9229
 -----------------------------------------------------------------
 Calculating analytic gradient of the SCF energy
 Gradient of SCF Energy
            1           2           3           4           5           6
    1  -0.0000121   0.0000043  -0.0000020   0.0000013  -0.0000006   0.0000082
    2   0.0000074  -0.0000019  -0.0000003  -0.0000045  -0.0000031   0.0000091
    3   0.0000054   0.0000024  -0.0000029  -0.0000090  -0.0000041  -0.0000007
            7           8           9          10          11          12
    1  -0.0000024   0.0000053  -0.0000094   0.0000010   0.0000018   0.0000032
    2   0.0000103   0.0000003   0.0000034  -0.0000095  -0.0000060  -0.0000096
    3   0.0000151   0.0000066  -0.0000052  -0.0000159  -0.0000094   0.0000119
           13
    1   0.0000014
    2   0.0000046
    3   0.0000057
 Max gradient component =       1.589E-05
 RMS gradient           =       6.908E-06
 Gradient time:  CPU 14.10 s  wall 3.66 s
 Geometry Optimization Parameters
   NAtoms,    NIC,     NZ,  NCons,   NDum,   NFix, NCnnct, MaxDiis
       13      69       0       0       0       0       0       0

 Cartesian Hessian Update
 Hessian Updated using Powell/Murtagh-Sargent Update
**WARNING** Small Scalar Product
 Hessian Update Skipped this cycle


** GEOMETRY OPTIMIZATION IN DELOCALIZED INTERNAL COORDINATES **
   Searching for a Transition State

   Optimization Cycle:  15

                       Coordinates (Angstroms)
     ATOM                X               Y               Z
      1  C         1.9177378580    0.8965913081   -0.3859780095
      2  C        -1.3400193400   -2.5606155081    0.6540690563
      3  C        -1.4392507762   -1.3015991260    1.0181271924
      4  C        -1.4622329765   -0.1466720160    0.0815561733
      5  C        -0.3793473497    0.5442700408   -0.3487866101
      6  N         0.8890879885    0.2162172196    0.0711519273
      7  H         2.8861104368    0.5680725678    0.0127857056
      8  H        -1.3151674258   -3.5302267284    1.1334037572
      9  H        -1.5507675317   -1.0591519888    2.0851404865
     10  H        -2.4406036122    0.1807097904   -0.2685510797
     11  H        -0.5055885116    1.3839095492   -1.0367804810
     12  C         1.8865474151    1.9703258187   -1.3114966776
     13  H         2.8257348864    2.4452861914   -1.6091191684
   Point Group: c1    Number of degrees of freedom:    33


   Energy is   -286.730226153

 Hessian Updated using Powell/Murtagh-Sargent Update
**WARNING** Small Scalar Product
 Hessian Update Skipped this cycle

 33 Hessian modes will be used to form the next step
  Hessian Eigenvalues:
    -0.006513    0.013661    0.014774    0.021500    0.024622    0.026110
     0.028901    0.039985    0.051884    0.059016    0.072093    0.096144
     0.098830    0.106340    0.111258    0.116371    0.125335    0.147784
     0.168441    0.192623    0.248367    0.306586    0.324368    0.328629
     0.331443    0.345513    0.355026    0.370070    0.371337    0.474429
     0.567846    0.602294    0.654913

 Transition State Search - Taking P-RFO Step
 Searching for Lamda that Maximizes Along the Lowest mode
 Value Taken    Lamda =   0.00000000
 Searching for Lamda that Minimizes Along All other modes
 Value Taken    Lamda =   0.00000000
 Step Taken.  Stepsize is  0.000147

                             Maximum     Tolerance    Cnvgd?
         Gradient           0.000007      0.000010     YES
         Displacement       0.000054      0.001200     YES
         Energy change      0.000000      0.000001     YES


                       Distance Matrix (Angstroms)
             C (  1)   C (  2)   C (  3)   C (  4)   C (  5)   N (  6)
   C (  2)  4.862814
   C (  3)  4.251226  1.314347
   C (  4)  3.568079  2.483914  1.487128
   C (  5)  2.324245  3.401312  2.529641  1.354709
   N (  6)  1.315294  3.608256  2.936271  2.379182  1.375825
   H (  7)  1.097580  5.297179  4.818209  4.407230  3.285501  2.028622
   H (  8)  5.688314  1.081908  2.235054  3.546330  4.435558  4.474703
   H (  9)  4.686351  2.084892  1.099879  2.203363  3.141208  3.411101
   H ( 10)  4.418305  3.094734  2.203517  1.089478  2.094610  3.347164
   H ( 11)  2.556078  4.372016  3.508038  2.123329  1.092825  2.129822
   C ( 12)  1.417908  5.899459  5.214746  4.199596  2.845123  2.446127
   H ( 13)  2.172323  6.894533  6.255532  5.288034  3.933809  3.397449
             H (  7)   H (  8)   H (  9)   H ( 10)   H ( 11)   C ( 12)
   H (  8)  5.975163
   H (  9)  5.160271  2.658481
   H ( 10)  5.348185  4.123486  2.805161
   H ( 11)  3.642911  5.432665  4.099676  2.404610
   C ( 12)  2.172364  6.817961  5.703509  4.797364  2.478239
   H ( 13)  2.481562  7.770152  6.714344  5.887253  3.542853  1.093727

 
 Final energy is   -286.730226152632     


 ******************************
 **  OPTIMIZATION CONVERGED  **
 ******************************

                       Coordinates (Angstroms)
     ATOM                X               Y               Z
      1  C         1.9177378580    0.8965913081   -0.3859780095
      2  C        -1.3400193400   -2.5606155081    0.6540690563
      3  C        -1.4392507762   -1.3015991260    1.0181271924
      4  C        -1.4622329765   -0.1466720160    0.0815561733
      5  C        -0.3793473497    0.5442700408   -0.3487866101
      6  N         0.8890879885    0.2162172196    0.0711519273
      7  H         2.8861104368    0.5680725678    0.0127857056
      8  H        -1.3151674258   -3.5302267284    1.1334037572
      9  H        -1.5507675317   -1.0591519888    2.0851404865
     10  H        -2.4406036122    0.1807097904   -0.2685510797
     11  H        -0.5055885116    1.3839095492   -1.0367804810
     12  C         1.8865474151    1.9703258187   -1.3114966776
     13  H         2.8257348864    2.4452861914   -1.6091191684

Z-matrix Print:
$molecule
0 2
N 
C  1 1.315294
H  2 1.097580 1 114.136159
C  1 1.375825 2 119.445959 3 179.461185 0
H  4 1.092825 1 118.806773 2 -1.548652 0
C  4 1.354709 1 121.223947 2 178.886170 0
H  6 1.089478 4 117.547651 1 178.432192 0
C  2 1.417908 1 126.968276 3 179.884038 0
H  8 1.093727 2 119.181703 1 -179.738000 0
C  6 1.487128 4 125.718555 1 -0.164238 0
H  10 1.099879 6 115.989689 4 91.646064 0
C  10 1.314347 6 124.795305 4 -90.607948 0
H  12 1.081908 10 137.518287 6 -179.149558 0
$end

 
 --------------------------------------------------------------
 
                    Orbital Energies (a.u.)
 --------------------------------------------------------------
 
 Alpha MOs
 -- Occupied --
-14.366 -10.246 -10.234 -10.230 -10.227 -10.225 -10.217  -0.949
 -0.821  -0.762  -0.712  -0.633  -0.580  -0.519  -0.504  -0.482
 -0.465  -0.431  -0.413  -0.393  -0.293  -0.286  -0.277  -0.248
 -0.233
 -- Virtual --
 -0.137  -0.026  -0.012   0.011   0.017   0.025   0.036   0.042
  0.056   0.060   0.066   0.070   0.082   0.087   0.095   0.099
  0.104   0.122   0.128   0.131   0.139   0.147   0.158   0.173
  0.179   0.198   0.203   0.216   0.220   0.222   0.236   0.242
  0.250   0.260   0.284   0.294   0.301   0.317   0.344   0.359
  0.377   0.419   0.429   0.464   0.612   0.621   0.653   0.661
  0.665   0.694   0.703   0.716   0.726   0.736   0.755   0.757
  0.787   0.817   0.855   0.884   0.914   0.928   0.961   0.966
  0.977   1.000   1.024   1.032   1.062   1.078   1.113   1.153
  1.165   1.203   1.211   1.294   1.313   1.315   1.362   1.371
  1.398   1.493   1.503   1.581   1.612   1.638   1.720   1.753
  1.775   1.806   1.827   1.863   1.917   1.956   1.980   2.021
  2.050   2.061   2.073   2.117   2.162   2.230   2.278   2.328
  2.357   2.390   2.397   2.414   2.430   2.447   2.485   2.502
  2.581   2.586   2.606   2.631   2.660   2.686   2.711   2.721
  2.884   2.940   2.984   3.040   3.226   3.267   3.278   3.291
  3.501   3.587   3.650   4.162   4.281   4.303   4.371   4.463
  4.540   4.633
 
 Beta MOs
 -- Occupied --
-14.366 -10.247 -10.234 -10.229 -10.227 -10.219 -10.209  -0.949
 -0.817  -0.753  -0.708  -0.626  -0.569  -0.513  -0.501  -0.470
 -0.463  -0.430  -0.406  -0.393  -0.289  -0.284  -0.273  -0.233
 -- Virtual --
 -0.136  -0.089  -0.024  -0.004   0.011   0.018   0.026   0.038
  0.043   0.057   0.060   0.066   0.074   0.082   0.087   0.094
  0.106   0.108   0.123   0.130   0.132   0.140   0.147   0.159
  0.175   0.180   0.198   0.205   0.216   0.222   0.231   0.237
  0.242   0.251   0.261   0.284   0.295   0.301   0.322   0.345
  0.360   0.379   0.425   0.440   0.467   0.618   0.625   0.652
  0.667   0.684   0.704   0.709   0.717   0.735   0.740   0.757
  0.771   0.792   0.817   0.856   0.892   0.915   0.930   0.961
  0.974   0.983   1.002   1.025   1.033   1.075   1.083   1.119
  1.154   1.167   1.203   1.214   1.295   1.313   1.317   1.367
  1.374   1.400   1.494   1.504   1.581   1.658   1.673   1.726
  1.758   1.776   1.822   1.833   1.866   1.927   1.968   1.986
  2.027   2.054   2.062   2.073   2.123   2.164   2.237   2.283
  2.330   2.358   2.394   2.402   2.416   2.438   2.450   2.483
  2.507   2.576   2.596   2.612   2.636   2.664   2.688   2.720
  2.735   2.885   2.949   2.987   3.043   3.226   3.267   3.287
  3.295   3.501   3.605   3.651   4.162   4.282   4.312   4.386
  4.465   4.552   4.633
 --------------------------------------------------------------
 
          Ground-State Mulliken Net Atomic Charges

     Atom                 Charge (a.u.)    Spin (a.u.)
  --------------------------------------------------------
      1 C                     0.017994      -0.006688
      2 C                    -0.303271       1.118161
      3 C                    -0.110213      -0.238353
      4 C                     0.154709       0.037589
      5 C                    -0.354949      -0.009002
      6 N                    -0.076667       0.003194
      7 H                     0.136305       0.000696
      8 H                     0.153636       0.007288
      9 H                     0.157726       0.081634
     10 H                     0.150613      -0.003130
     11 H                     0.146168       0.002093
     12 C                    -0.204802       0.006301
     13 H                     0.132754       0.000217
  --------------------------------------------------------
  Sum of atomic charges =     0.000000
  Sum of spin   charges =     1.000000

 -----------------------------------------------------------------
                    Cartesian Multipole Moments
 -----------------------------------------------------------------
    Charge (ESU x 10^10)
                 0.0000
    Dipole Moment (Debye)
         X      -0.1943      Y       0.1143      Z       0.6869
       Tot       0.7229
    Quadrupole Moments (Debye-Ang)
        XX     -36.2482     XY       2.0215     YY     -41.9736
        XZ      -2.2446     YZ      -1.6690     ZZ     -42.7604
    Octopole Moments (Debye-Ang^2)
       XXX      15.6065    XXY      14.7844    XYY      -0.4183
       YYY     -14.5913    XXZ      -3.2262    XYZ       2.3690
       YYZ      12.4602    XZZ      -4.0054    YZZ      -4.1062
       ZZZ      12.7389
    Hexadecapole Moments (Debye-Ang^3)
      XXXX    -575.8197   XXXY    -198.1035   XXYY    -192.8818
      XYYY    -190.0460   YYYY    -545.1952   XXXZ      98.4024
      XXYZ      28.4208   XYYZ      22.1499   YYYZ     104.9257
      XXZZ    -132.5328   XYZZ     -65.5436   YYZZ    -133.9206
      XZZZ     101.4819   YZZZ     130.1264   ZZZZ    -210.9229
 -----------------------------------------------------------------
Archival summary:
1\1\c8-72\TS\ProcedureUnspecified\6-31+G**\166(2)\hpark21\ThuMar301:51:032022ThuMar301:51:032022\0\\#,TS,ProcedureUnspecified,6-31+G**,\\0,2\N\C,1,1.31529\H,2,1.09758,1,114.136\C,1,1.37583,2,119.446,3,179.461,0\H,4,1.09283,1,118.807,2,-1.54865,0\C,4,1.35471,1,121.224,2,178.886,0\H,6,1.08948,4,117.548,1,178.432,0\C,2,1.41791,1,126.968,3,179.884,0\H,8,1.09373,2,119.182,1,-179.738,0\C,6,1.48713,4,125.719,1,-0.164238,0\H,10,1.09988,6,115.99,4,91.6461,0\C,10,1.31435,6,124.795,4,-90.6079,0\H,12,1.08191,10,137.518,6,-179.15,0\\\@

 Total job time:  396.30s(wall), 1351.64s(cpu) 
 Thu Mar  3 01:51:03 2022

        *************************************************************
        *                                                           *
        *  Thank you very much for using Q-Chem.  Have a nice day.  *
        *                                                           *
        *************************************************************


