
Running Job 1 of 1 qcts2.in
qchem qcts2.in_22387.0 ./qcts2.d/ 1
/home/leeping/opt/qchem/5.0.2-openmp/exe/qcprog.exe_s qcts2.in_22387.0 ./qcts2.d/
Check license passed

                  Welcome to Q-Chem
     A Quantum Leap Into The Future Of Chemistry


 Q-Chem 5.0, Q-Chem, Inc., Pleasanton, CA (2017)

 Yihan Shao,  Zhengting Gan,  E. Epifanovsky,  A. T. B. Gilbert,  M. Wormit,  
 J. Kussmann,  A. W. Lange,  A. Behn,  Jia Deng,  Xintian Feng,  D. Ghosh,  
 M. Goldey,  P. R. Horn,  L. D. Jacobson,  I. Kaliman,  T. Kus,  A. Landau,  
 Jie Liu,  E. I. Proynov,  R. M. Richard,  R. P. Steele,  E. J. Sundstrom,  
 H. L. Woodcock III,  P. M. Zimmerman,  D. Zuev,  B. Albrecht,  E. Alguire,  
 S. A. Baeppler,  D. Barton,  Z. Benda,  Y. A. Bernard,  E. J. Berquist,  
 K. B. Bravaya,  H. Burton,  D. Casanova,  Chun-Min Chang,  Yunqing Chen,  
 A. Chien,  K. D. Closser,  M. P. Coons,  S. Dasgupta,  A. L. Dempwolff,  
 M. Diedenhofen,  Hainam Do,  R. G. Edgar,  Po-Tung Fang,  S. Fatehi,  
 Qingguo Feng,  J. Fosso-Tande,  Qinghui Ge,  A. Ghysels,  G. Gidofalvi,  
 J. Gomes,  J. Gonthier,  A. Gunina,  M. W. D. Hanson-Heine,  
 P. H. P. Harbach,  A. W. Hauser,  J. E. Herr,  E. G. Hohenstein,  
 Z. C. Holden,  Kerwin Hui,  T.-C. Jagau,  Hyunjun Ji,  B. Kaduk,  
 K. Khistyaev,  Jaehoon Kim,  P. Klunzinger,  K. Koh,  D. Kosenkov,  
 L. Koulias,  T. Kowalczyk,  C. M. Krauter,  A. Kunitsa,  Ka Un Lao,  
 A. Laurent,  K. V. Lawler,  Joonho Lee,  D. Lefrancois,  S. Lehtola,  
 D. S. Levine,  Yi-Pei Li,  You-Sheng Lin,  Fenglai Liu,  E. Livshits,  
 A. Luenser,  P. Manohar,  E. Mansoor,  S. F. Manzer,  Shan-Ping Mao,  
 Yuezhi Mao,  N. Mardirossian,  A. V. Marenich,  T. Markovich,  
 L. A. Martinez-Martinez,  S. A. Maurer,  N. J. Mayhall,  S. C. McKenzie,  
 J.-M. Mewes,  A. F. Morrison,  J. W. Mullinax,  K. Nanda,  
 T. S. Nguyen-Beck,  R. Olivares-Amaya,  J. A. Parkhill,  T. M. Perrine,  
 F. Plasser,  S. Prager,  A. Prociuk,  E. Ramos,  D. R. Rehn,  F. Rob,  
 M. Schneider,  N. Sergueev,  S. M. Sharada,  S. Sharma,  D. W. Small,  
 T. Stauch,  T. Stein,  Yu-Chuan Su,  A. J. W. Thom,  A. Tkatchenko,  
 T. Tsuchimochi,  L. Vogt,  O. Vydrov,  M. A. Watson,  J. Wenzel,  
 M. de Wergifosse,  T. A. Wesolowski,  A. White,  J. Witte,  A. Yamada,  
 Jun Yang,  K. Yao,  S. Yeganeh,  S. R. Yost,  Zhi-Qiang You,  A. Zech,  
 Igor Ying Zhang,  Xing Zhang,  Yan Zhao,  Ying Zhu,  B. R. Brooks,  
 G. K. L. Chan,  C. J. Cramer,  M. S. Gordon,  W. J. Hehre,  A. Klamt,  
 M. W. Schmidt,  C. D. Sherrill,  D. G. Truhlar,  A. Aspuru-Guzik,  R. Baer,  
 A. T. Bell,  N. A. Besley,  Jeng-Da Chai,  R. A. DiStasio Jr.,  A. Dreuw,  
 B. D. Dunietz,  T. R. Furlani,  Chao-Ping Hsu,  Yousung Jung,  Jing Kong,  
 D. S. Lambrecht,  WanZhen Liang,  C. Ochsenfeld,  V. A. Rassolov,  
 L. V. Slipchenko,  J. E. Subotnik,  T. Van Voorhis,  J. M. Herbert,  
 A. I. Krylov,  P. M. W. Gill,  M. Head-Gordon

 Contributors to earlier versions of Q-Chem not listed above: 
 R. D. Adamson,  B. Austin,  J. Baker,  G. J. O. Beran,  K. Brandhorst,  
 S. T. Brown,  E. F. C. Byrd,  A. K. Chakraborty,  C.-L. Cheng,  
 Siu Hung Chien,  D. M. Chipman,  D. L. Crittenden,  H. Dachsel,  
 R. J. Doerksen,  A. D. Dutoi,  L. Fusti-Molnar,  W. A. Goddard III,  
 A. Golubeva-Zadorozhnaya,  S. R. Gwaltney,  G. Hawkins,  A. Heyden,  
 S. Hirata,  G. Kedziora,  F. J. Keil,  C. Kelley,  Jihan Kim,  R. A. King,  
 R. Z. Khaliullin,  P. P. Korambath,  W. Kurlancheek,  A. M. Lee,  M. S. Lee,  
 S. V. Levchenko,  Ching Yeh Lin,  D. Liotard,  R. C. Lochan,  I. Lotan,  
 P. E. Maslen,  N. Nair,  D. P. O'Neill,  D. Neuhauser,  E. Neuscamman,  
 C. M. Oana,  R. Olson,  B. Peters,  R. Peverati,  P. A. Pieniazek,  
 Y. M. Rhee,  J. Ritchie,  M. A. Rohrdanz,  E. Rosta,  N. J. Russ,  
 H. F. Schaefer III,  N. E. Schultz,  N. Shenvi,  A. C. Simmonett,  A. Sodt,  
 D. Stuck,  K. S. Thanthiriwatte,  V. Vanovschi,  Tao Wang,  A. Warshel,  
 C. F. Williams,  Q. Wu,  X. Xu,  W. Zhang

 Please cite Q-Chem as follows:
 Y. Shao et al., Mol. Phys. 113, 184-215 (2015)
 DOI: 10.1080/00268976.2014.952696

 Q-Chem 5.0.2 for Intel X86 EM64T Linux

 Parts of Q-Chem use Armadillo 5.200.1 (Boston Tea Smuggler).
 http://arma.sourceforge.net/

 Q-Chem begins on Thu Mar  3 01:23:36 2022  

Host: 
0

     Scratch files written to ./qcts2.d//
 Dec517 15110_ 26548  26544 5633   
Processing $rem in /home/leeping/opt/qchem/5.0.2-openmp/config/preferences.
 MEM_STATIC 2000
 MEM_TOTAL  8000
 SYMMETRY   OFF
 SYM_IGNORE TRUE 

Checking the input file for inconsistencies... 	...done.

--------------------------------------------------------------
User input:
--------------------------------------------------------------
$molecule
0 2
C        1.9394910574    0.8996732171   -0.3810573407
C       -1.3595542270   -2.5679001621    0.6502124810
C       -1.4578858236   -1.3091062295    1.0138803516
C       -1.4634304089   -0.1518426926    0.0798301665
C       -0.3543302260    0.5275255446   -0.3329725164
N        0.8923996886    0.1912787148    0.0909921763
H        2.9110659922    0.5815779396    0.0203403107
H       -1.3467403036   -3.5304766142    1.1468095275
H       -1.5759127434   -1.0672327662    2.0804889363
H       -2.4326951989    0.1919576656   -0.2799444214
H       -0.4860124421    1.3716719870   -1.0198392490
C        1.9614523853    1.9292395937   -1.2711397112
H        2.7443933111    2.5407509211   -1.7020784389
$end

$rem
method                b3lyp
basis                 6-31+g(d,p)
unrestricted          true
symmetry              off
sym_ignore            true
incdft                false
incfock               0
scf_convergence       8
thresh                14
jobtype               sp
scf_guess             core
scf_guess_mix         5
scf_algorithm         diis
max_scf_cycles        100
$end

--------------------------------------------------------------
 ----------------------------------------------------------------
             Standard Nuclear Orientation (Angstroms)
    I     Atom           X                Y                Z
 ----------------------------------------------------------------
    1      C       1.9394910574     0.8996732171    -0.3810573407
    2      C      -1.3595542270    -2.5679001621     0.6502124810
    3      C      -1.4578858236    -1.3091062295     1.0138803516
    4      C      -1.4634304089    -0.1518426926     0.0798301665
    5      C      -0.3543302260     0.5275255446    -0.3329725164
    6      N       0.8923996886     0.1912787148     0.0909921763
    7      H       2.9110659922     0.5815779396     0.0203403107
    8      H      -1.3467403036    -3.5304766142     1.1468095275
    9      H      -1.5759127434    -1.0672327662     2.0804889363
   10      H      -2.4326951989     0.1919576656    -0.2799444214
   11      H      -0.4860124421     1.3716719870    -1.0198392490
   12      C       1.9614523853     1.9292395937    -1.2711397112
   13      H       2.7443933111     2.5407509211    -1.7020784389
 ----------------------------------------------------------------
 Nuclear Repulsion Energy =   236.3833349902 hartrees
 There are       25 alpha and       24 beta electrons
 Requested basis set is 6-31+G(d,p)
 There are 53 shells and 163 basis functions

 Total QAlloc Memory Limit   8000 MB
 Mega-Array Size      1956 MB
 MEM_STATIC part      2000 MB

                       Distance Matrix (Angstroms)
             C (  1)   C (  2)   C (  3)   C (  4)   C (  5)   N (  6)
   C (  2)  4.896048
   C (  3)  4.285642  1.313958
   C (  4)  3.591375  2.484645  1.487192
   C (  5)  2.324311  3.399822  2.530823  1.364570
   N (  6)  1.349464  3.605148  2.937128  2.380713  1.359097
   H (  7)  1.098300  5.343608  4.863080  4.435951  3.284899  2.057265
   H (  8)  5.723628  1.083202  2.228118  3.545029  4.431931  4.469895
   H (  9)  4.720804  2.084347  1.100040  2.203004  3.140114  3.410940
   H ( 10)  4.430248  3.103810  2.208490  1.089546  2.105948  3.345721
   H ( 11)  2.552233  4.367193  3.502446  2.117951  1.096225  2.127744
   C ( 12)  1.361152  5.911425  5.234508  4.229166  2.864927  2.453321
   H ( 13)  2.255238  6.962325  6.313239  5.303870  3.940763  3.487836
             H (  7)   H (  8)   H (  9)   H ( 10)   H ( 11)   C ( 12)
   H (  8)  6.025516
   H (  9)  5.205359  2.644210
   H ( 10)  5.366354  4.131760  2.809143
   H ( 11)  3.639555  5.428285  4.092453  2.393479
   C ( 12)  2.094249  6.826355  5.720596  4.827955  2.522720
   H ( 13)  2.613975  7.855784  6.781623  5.860166  3.502530  1.082890

 
 A cutoff of  1.0D-14 yielded   1298 shell pairs
 There are     12754 function pairs
 
 -------------------------------------------------------
 OpenMP Integral Computing Module                       
 Release: version 1.0, May 2013, Q-Chem Inc. Pittsburgh 
 -------------------------------------------------------
 Integral Job Info:
 Integral job number is                      11
 Integral operator is                         1
 short-range coefficients                     0
 long-range coefficients              100000000
 Omega coefficients                           0
 if combine SR and LR in K                    0
 Integral screening is                        0
 Integral computing path is                   2
 max size of driver memory is            800000
 size of driver memory is                593474
 size of scratch memory is              2361544
 max col of scratch BK array               1296
 max len of scratch array in speh3          155
 max len of scratch index in speh4           18
 max int batch size is                      520
 min int batch size is                       52
 fixed nKL is                                52
 max L of basis functions is                  2
 order of int derivative is                   0
 number of shells is                         53
 number of basis is                         163
 number of cartesian basis is               163
 number of contracted shell pairs          1298
 number of primitive shell pairs           4218
 maxK2 (contraction) of shell pair           36
 max number of K2 of shell pair               1
 max number of CS2 of shell pair            125
 max number of PS2 of shell pair            672
 mem total for path MDJ                  526622
 -------------------------------------------------------
 Smallest overlap matrix eigenvalue = 1.68E-05

 Scale SEOQF with 1.000000e-01/1.000000e-01/1.000000e-01

 Standard Electronic Orientation quadrupole field applied
 Nucleus-field energy     =     0.0000000082 hartrees
 Guess MOs from core Hamiltonian diagonalization
 Mixing HOMO and LUMO in initial guess
 Adding  50% of the LUMO to the HOMO
 An unrestricted hybrid HF-DFT SCF calculation will be
 performed using Pulay DIIS extrapolation
 Exchange:     0.2000 Hartree-Fock + 0.0800 Slater + 0.7200 B88
 Correlation:  0.1900 VWN1RPA + 0.8100 LYP
 Using SG-1 standard quadrature grid
 SCF converges when DIIS error is below 1.0E-08
 using 4 threads for integral computing
 -------------------------------------------------------
 OpenMP Integral computing Module                
 Release: version 1.0, May 2013, Q-Chem Inc. Pittsburgh 
 -------------------------------------------------------
 -------------------------------------------------------
 OpenMP BLAS3 based DFT computing Module                
 Release: version 1.0, May 2013, Q-Chem Inc. Pittsburgh 
 -------------------------------------------------------
 ---------------------------------------
  Cycle       Energy         DIIS Error
 ---------------------------------------
    1    -223.8352753580      1.01E-01
    2    -205.9950677881      8.84E-02
    3    -265.9233592378      4.64E-02
    4    -249.9530533035      7.46E-02
    5    -283.6192002233      2.51E-02
    6    -269.5801015065      4.34E-02
    7    -286.1887339716      1.04E-02
    8    -283.9733259093      1.93E-02
    9    -286.5006348482      6.50E-03
   10    -286.5682805548      5.15E-03
   11    -286.6612058702      2.84E-03
   12    -286.6970095769      8.07E-04
   13    -286.7101815355      1.10E-03
   14    -286.7143989729      1.11E-03
   15    -286.7159765269      1.07E-03
   16    -286.7096850239      1.27E-03
   17    -286.7169482973      1.16E-03
   18    -286.7140602588      1.30E-03
   19    -286.7131242233      1.30E-03
   20    -286.7088652347      1.53E-03
   21    -286.7180932232      9.79E-04
   22    -286.7188962308      9.94E-04
   23    -286.7197075420      9.59E-04
   24    -286.7208410100      9.03E-04
   25    -286.7227560570      7.56E-04
   26    -286.7239237403      6.55E-04
   27    -286.7258257397      3.06E-04
   28    -286.7260672969      1.59E-04
   29    -286.7262238518      2.87E-05
   30    -286.7262322990      5.07E-06
   31    -286.7262334209      2.58E-06
   32    -286.7262341215      1.48E-06
   33    -286.7262342854      8.71E-07
   34    -286.7262342574      3.47E-07
   35    -286.7262342799      2.88E-07
   36    -286.7262342997      1.54E-07
   37    -286.7262343047      5.49E-08
   38    -286.7262343073      3.24E-08
   39    -286.7262343079      2.11E-08
   40    -286.7262343080      7.35E-09 Convergence criterion met
 ---------------------------------------
 <S^2> = 1.7264
 SCF time:  CPU 172.58 s  wall 49.72 s
 SCF   energy in the final basis set = -286.72623431
 Total energy in the final basis set = -286.72623431
 
 --------------------------------------------------------------
 
                    Orbital Energies (a.u.)
 --------------------------------------------------------------
 
 Alpha MOs
 -- Occupied --
-14.360 -10.248 -10.232 -10.229 -10.226 -10.222 -10.214  -0.941
 -0.817  -0.764  -0.717  -0.628  -0.577  -0.519  -0.503  -0.485
 -0.478  -0.427  -0.412  -0.388  -0.291  -0.286  -0.277  -0.246
 -0.222
 -- Virtual --
 -0.138  -0.022  -0.009   0.011   0.017   0.025   0.037   0.041
  0.058   0.061   0.066   0.071   0.080   0.088   0.096   0.100
  0.105   0.124   0.127   0.131   0.141   0.148   0.159   0.176
  0.179   0.194   0.206   0.212   0.221   0.224   0.237   0.241
  0.253   0.259   0.287   0.296   0.299   0.323   0.346   0.373
  0.388   0.425   0.428   0.478   0.609   0.616   0.660   0.663
  0.666   0.697   0.705   0.717   0.727   0.736   0.754   0.761
  0.788   0.816   0.873   0.888   0.913   0.928   0.963   0.968
  0.976   1.004   1.021   1.038   1.064   1.085   1.117   1.150
  1.169   1.207   1.209   1.291   1.307   1.317   1.364   1.371
  1.397   1.495   1.501   1.611   1.623   1.641   1.725   1.739
  1.791   1.812   1.840   1.882   1.898   1.945   1.978   2.013
  2.038   2.048   2.061   2.105   2.165   2.250   2.282   2.336
  2.364   2.391   2.405   2.421   2.425   2.460   2.485   2.491
  2.597   2.605   2.640   2.657   2.687   2.695   2.714   2.725
  2.856   2.944   2.971   3.047   3.204   3.275   3.285   3.330
  3.527   3.586   3.664   4.174   4.304   4.324   4.374   4.480
  4.540   4.642
 
 Beta MOs
 -- Occupied --
-14.360 -10.248 -10.232 -10.229 -10.225 -10.216 -10.207  -0.941
 -0.812  -0.757  -0.711  -0.621  -0.567  -0.513  -0.503  -0.480
 -0.466  -0.427  -0.404  -0.388  -0.288  -0.283  -0.271  -0.221
 -- Virtual --
 -0.136  -0.088  -0.021  -0.002   0.011   0.019   0.026   0.038
  0.042   0.058   0.063   0.066   0.075   0.081   0.087   0.096
  0.107   0.109   0.124   0.128   0.132   0.142   0.148   0.159
  0.178   0.180   0.194   0.207   0.213   0.223   0.233   0.238
  0.242   0.253   0.259   0.288   0.296   0.300   0.327   0.347
  0.373   0.391   0.426   0.443   0.480   0.610   0.625   0.659
  0.668   0.686   0.705   0.711   0.718   0.736   0.742   0.754
  0.774   0.793   0.817   0.876   0.893   0.914   0.930   0.964
  0.973   0.983   1.007   1.023   1.040   1.077   1.090   1.123
  1.152   1.171   1.208   1.212   1.293   1.306   1.319   1.370
  1.373   1.400   1.495   1.503   1.623   1.658   1.676   1.732
  1.744   1.792   1.831   1.842   1.885   1.902   1.962   1.982
  2.018   2.040   2.051   2.066   2.110   2.169   2.257   2.286
  2.339   2.369   2.394   2.408   2.423   2.433   2.462   2.483
  2.496   2.605   2.611   2.640   2.664   2.685   2.702   2.720
  2.741   2.856   2.950   2.978   3.051   3.204   3.282   3.291
  3.330   3.527   3.604   3.664   4.174   4.313   4.325   4.388
  4.482   4.551   4.642
 --------------------------------------------------------------
 
          Ground-State Mulliken Net Atomic Charges

     Atom                 Charge (a.u.)    Spin (a.u.)
  --------------------------------------------------------
      1 C                    -0.031245      -0.007873
      2 C                    -0.306684       1.116023
      3 C                    -0.104794      -0.232050
      4 C                     0.120995       0.025883
      5 C                    -0.331250      -0.004521
      6 N                    -0.101388       0.002613
      7 H                     0.140446      -0.000234
      8 H                     0.151683       0.009064
      9 H                     0.156512       0.081527
     10 H                     0.148578      -0.002872
     11 H                     0.132495       0.001761
     12 C                    -0.131905       0.010417
     13 H                     0.156558       0.000262
  --------------------------------------------------------
  Sum of atomic charges =     0.000000
  Sum of spin   charges =     1.000000

 -----------------------------------------------------------------
                    Cartesian Multipole Moments
 -----------------------------------------------------------------
    Charge (ESU x 10^10)
                 0.0000
    Dipole Moment (Debye)
         X       0.0245      Y       0.7276      Z       0.2400
       Tot       0.7666
    Quadrupole Moments (Debye-Ang)
        XX     -36.2073     XY       2.8844     YY     -40.5020
        XZ      -2.9165     YZ      -3.2080     ZZ     -41.9965
    Octopole Moments (Debye-Ang^2)
       XXX      16.2116    XXY      17.1353    XYY       2.4513
       YYY      -6.3966    XXZ      -4.6316    XYZ      -0.2181
       YYZ       7.1781    XZZ      -2.8346    YZZ      -0.1784
       ZZZ       9.3375
    Hexadecapole Moments (Debye-Ang^3)
      XXXX    -589.1445   XXXY    -197.8617   XXYY    -188.7465
      XYYY    -183.3405   YYYY    -528.1956   XXXZ      96.8259
      XXYZ      21.9067   XYYZ      12.8802   YYYZ      88.2954
      XXZZ    -131.5610   XYZZ     -60.2029   YYZZ    -122.3897
      XZZZ      98.4247   YZZZ     120.5984   ZZZZ    -203.4600
 -----------------------------------------------------------------
Archival summary:
1\1\c8-72\SP\ProcedureUnspecified\6-31+G**\166(2)\hpark21\ThuMar301:24:262022ThuMar301:24:262022\0\\#,ProcedureUnspecified,6-31+G**,\\0,2\N\C,1,1.34946\H,2,1.0983,1,113.986\C,1,1.3591,2,118.215,3,178.946,0\H,4,1.09623,1,119.746,2,-1.55448,0\C,2,1.36115,1,129.667,3,179.713,0\H,6,1.08289,2,134.349,1,-179.611,0\C,4,1.36457,1,121.873,2,178.946,0\H,8,1.08955,4,117.779,1,178.326,0\C,8,1.48719,4,125.056,1,-0.0334128,0\H,10,1.10004,8,115.943,4,91.5398,0\C,10,1.31396,8,124.885,4,-90.3327,0\H,12,1.0832,10,136.496,8,-179.192,0\\\@

 Total job time:  50.62s(wall), 174.30s(cpu) 
 Thu Mar  3 01:24:26 2022

        *************************************************************
        *                                                           *
        *  Thank you very much for using Q-Chem.  Have a nice day.  *
        *                                                           *
        *************************************************************


