13
image # 1 Energy = -286.92431
C 1.39156   0.84563   -0.45320  
C 0.33276   -1.41913  -0.00846  
C -0.93725  -1.06404  0.33584   
C -1.47324  0.27100   0.40827   
C -0.82824  1.46626   0.14834   
N 0.43204   1.77603   -0.23402  
H 2.33845   1.29971   -0.75346  
H 0.57012   -2.48104  -0.01224  
H -1.62884  -1.86644  0.58490   
H -2.51627  0.35481   0.70388   
H -1.44808  2.35716   0.27226   
C 1.40942   -0.53358  -0.37365  
H 2.35756   -1.00637  -0.61846  
13
image # 2 Energy = -286.91471
C 1.42919   0.84675   -0.46517  
C 0.29933   -1.41301  0.00252   
C -0.99682  -1.07246  0.35418   
C -1.51969  0.25484   0.42228   
C -0.83233  1.43160   0.15011   
N 0.41766   1.71336   -0.22344  
H 2.34679   1.34851   -0.75522  
H 0.51665   -2.48178  0.00552   
H -1.69456  -1.87786  0.60651   
H -2.55663  0.37081   0.71702   
H -1.41192  2.34665   0.26366   
C 1.48585   -0.52722  -0.42134  
H 2.48445   -0.95661  -0.65408  
13
image # 3 Energy = -286.88932
C 1.45835   0.81930   -0.47246  
C 0.26297   -1.40602  0.01481   
C -1.03031  -1.08127  0.36556   
C -1.57152  0.24247   0.43670   
C -0.84381  1.38862   0.15325   
N 0.41534   1.63420   -0.20641  
H 2.36076   1.39928   -0.75337  
H 0.46019   -2.47594  0.02755   
H -1.75792  -1.88647  0.62848   
H -2.60689  0.38878   0.73324   
H -1.38064  2.33580   0.25453   
C 1.57107   -0.52653  -0.49050  
H 2.61065   -0.89661  -0.68489  
13
image # 4 Energy = -286.85846
C 1.49093   0.80818   -0.48605  
C 0.25685   -1.39790  0.01425   
C -1.06540  -1.08360  0.37780   
C -1.62035  0.22945   0.44635   
C -0.86022  1.35310   0.15009   
N 0.42514   1.54164   -0.15260  
H 2.35684   1.43788   -0.73444  
H 0.40933   -2.45869  0.05548   
H -1.79441  -1.87848  0.64450   
H -2.66718  0.40713   0.75131   
H -1.35383  2.32001   0.23902   
C 1.64185   -0.55846  -0.58681  
H 2.71687   -0.83000  -0.70372  
13
image # 5 Energy = -286.82253
C 1.51190   0.77491   -0.50665  
C 0.24677   -1.37411  0.01434   
C -1.08824  -1.07639  0.38504   
C -1.66939  0.22715   0.44778   
C -0.87088  1.31681   0.13716   
N 0.44221   1.43954   -0.04449  
H 2.34563   1.46427   -0.69521  
H 0.37777   -2.44583  0.08526   
H -1.81296  -1.87214  0.65792   
H -2.70948  0.41953   0.76118   
H -1.33022  2.30163   0.21394   
C 1.67901   -0.55385  -0.70323  
H 2.80768   -0.78021  -0.72397  
13
image # 6 Energy = -286.78596
C 1.50292   0.76478   -0.51771  
C 0.23036   -1.36070  0.00882   
C -1.09541  -1.05793  0.38688   
C -1.70896  0.22775   0.43407   
C -0.86950  1.28264   0.12531   
N 0.46710   1.32136   0.08909   
H 2.33765   1.47785   -0.63046  
H 0.35917   -2.43228  0.11596   
H -1.82483  -1.87135  0.67620   
H -2.73704  0.43563   0.76165   
H -1.29380  2.28435   0.17648   
C 1.70812   -0.55880  -0.80974  
H 2.86007   -0.73566  -0.77487  
13
image # 7 Energy = -286.78258
C 1.49798   0.74731   -0.50866  
C 0.23294   -1.35704  -0.01990  
C -1.08924  -1.04726  0.38560   
C -1.73617  0.24722   0.39354   
C -0.87077  1.24925   0.13252   
N 0.49059   1.18838   0.24390   
H 2.33184   1.47595   -0.50680  
H 0.35669   -2.40462  0.15909   
H -1.80256  -1.85450  0.70032   
H -2.76686  0.46109   0.74626   
H -1.23259  2.26844   0.11535   
C 1.67717   -0.56447  -0.89732  
H 2.85702   -0.70032  -0.89519  
13
image # 8 Energy = -286.79222
C 1.47832   0.75275   -0.42356  
C 0.24120   -1.37821  -0.10596  
C -1.04665  -1.02247  0.36531   
C -1.75442  0.26735   0.30703   
C -0.83089  1.24461   0.16002   
N 0.51327   1.06072   0.46942   
H 2.35179   1.40876   -0.25171  
H 0.40910   -2.37710  0.24444   
H -1.71504  -1.81990  0.76163   
H -2.77607  0.50492   0.66562   
H -1.10658  2.26532   -0.01802  
C 1.50287   -0.55119  -0.93894  
H 2.68829   -0.70038  -1.19236  
13
image # 9 Energy = -286.80509
C 1.48254   0.75263   -0.29685  
C 0.21096   -1.40108  -0.16803  
C -1.04825  -1.02209  0.35062   
C -1.73282  0.27411   0.24819   
C -0.79788  1.23921   0.19514   
N 0.51432   1.04583   0.57092   
H 2.40652   1.29551   -0.01756  
H 0.48459   -2.36006  0.28685   
H -1.67095  -1.81430  0.81808   
H -2.76536  0.52741   0.56849   
H -1.00328  2.26933   -0.09767  
C 1.38650   -0.50833  -0.96031  
H 2.49422   -0.67755  -1.46658  
13
image # 10 Energy = -286.81906
C 1.50403   0.73022   -0.16472  
C 0.18509   -1.41450  -0.20866  
C -1.06008  -1.03126  0.34128   
C -1.71209  0.27226   0.22075   
C -0.78230  1.24610   0.21439   
N 0.52771   1.08878   0.59782   
H 2.47452   1.13485   0.19563   
H 0.55139   -2.33437  0.28964   
H -1.65088  -1.81692  0.86078   
H -2.75213  0.53647   0.47663   
H -0.93192  2.26560   -0.13645  
C 1.30363   -0.46424  -0.98731  
H 2.30896   -0.61468  -1.68240  
13
image # 11 Energy = -286.83322
C 1.54455   0.68708   -0.07313  
C 0.16687   -1.40519  -0.22408  
C -1.06611  -1.04589  0.33539   
C -1.69264  0.27631   0.21879   
C -0.76274  1.25563   0.21417   
N 0.53938   1.12954   0.60659   
H 2.53023   0.95145   0.36911   
H 0.60384   -2.29826  0.26250   
H -1.64427  -1.82092  0.88377   
H -2.74240  0.53334   0.39252   
H -0.90037  2.27324   -0.15182  
C 1.25882   -0.42082  -0.99958  
H 2.13454   -0.52946  -1.82286  
13
image # 12 Energy = -286.84604
C 1.56825   0.62786   0.00412   
C 0.16050   -1.37804  -0.23035  
C -1.07137  -1.05054  0.33071   
C -1.66123  0.28078   0.21707   
C -0.73503  1.27189   0.19836   
N 0.57467   1.15900   0.61982   
H 2.56203   0.75349   0.49999   
H 0.64040   -2.26241  0.22653   
H -1.63753  -1.81723  0.89690   
H -2.72948  0.52924   0.31267   
H -0.89138  2.28506   -0.15337  
C 1.22132   -0.37883  -1.00082  
H 1.96983   -0.43706  -1.90280  
13
image # 13 Energy = -286.84577
C 1.57489   0.54124   0.08308   
C 0.16481   -1.33494  -0.23179  
C -1.06993  -1.03900  0.31964   
C -1.62134  0.29429   0.21195   
C -0.69127  1.28687   0.17349   
N 0.62195   1.19839   0.64356   
H 2.55470   0.51870   0.58343   
H 0.65633   -2.22296  0.18366   
H -1.63524  -1.79972  0.90093   
H -2.69216  0.53280   0.23746   
H -0.89106  2.30319   -0.13815  
C 1.18359   -0.35440  -0.98805  
H 1.81233   -0.33840  -1.93192  
13
image # 14 Energy = -286.80828
C 1.56938   0.51476   0.08686   
C 0.15384   -1.30111  -0.21063  
C -1.10578  -1.04614  0.32498   
C -1.64818  0.29088   0.22954   
C -0.68817  1.25767   0.17833   
N 0.61011   1.11582   0.67683   
H 2.53865   0.45121   0.58722   
H 0.64647   -2.20028  0.18020   
H -1.67912  -1.81511  0.87256   
H -2.70783  0.54441   0.27067   
H -0.86636  2.28985   -0.11333  
C 1.23451   -0.29004  -1.05953  
H 1.91112   -0.22319  -1.96411  
13
image # 15 Energy = -286.77160
C 1.56825   0.48564   0.09220   
C 0.12428   -1.28175  -0.18400  
C -1.14555  -1.04307  0.32326   
C -1.66412  0.28353   0.24776   
C -0.68376  1.22837   0.18766   
N 0.59571   1.03700   0.69658   
H 2.52774   0.37402   0.59066   
H 0.63946   -2.17187  0.17036   
H -1.72983  -1.83362  0.83972   
H -2.72564  0.55937   0.30039   
H -0.83515  2.27436   -0.07769  
C 1.28976   -0.21412  -1.12399  
H 2.00806   -0.10494  -1.98970  
13
image # 16 Energy = -286.73150
C 1.56304   0.45702   0.08174   
C 0.08101   -1.27347  -0.16815  
C -1.19431  -1.04672  0.32230   
C -1.70352  0.29228   0.26389   
C -0.68317  1.19629   0.20460   
N 0.58401   0.95286   0.73715   
H 2.52678   0.31992   0.58458   
H 0.63144   -2.14313  0.17330   
H -1.78953  -1.84790  0.79804   
H -2.74973  0.58249   0.34440   
H -0.78888  2.24936   -0.03605  
C 1.35208   -0.14232  -1.20538  
H 2.13852   0.00263   -2.01142  
13
image # 17 Energy = -286.70706
C 1.58745   0.43664   0.09207   
C 0.03076   -1.27336  -0.12675  
C -1.23939  -1.05562  0.32177   
C -1.72161  0.29521   0.26753   
C -0.67705  1.17613   0.22675   
N 0.58505   0.87760   0.74679   
H 2.54098   0.28243   0.61159   
H 0.65861   -2.10381  0.17206   
H -1.83695  -1.86883  0.75001   
H -2.76548  0.58875   0.32868   
H -0.75920  2.24099   0.01364   
C 1.39925   -0.06144  -1.24860  
H 2.16388   0.06907   -2.05072  
13
image # 18 Energy = -286.67354
C 1.62060   0.45926   0.03868   
C 0.00006   -1.27065  -0.06275  
C -1.28441  -1.07960  0.32859   
C -1.76006  0.27501   0.28558   
C -0.70250  1.13945   0.25065   
N 0.54643   0.75016   0.74737   
H 2.55505   0.35670   0.61249   
H 0.67943   -2.07310  0.18346   
H -1.88642  -1.91678  0.70292   
H -2.81047  0.57776   0.34465   
H -0.73872  2.21082   0.05297   
C 1.48776   0.04218   -1.29654  
H 2.26548   0.13592   -2.09255  
13
image # 19 Energy = -286.73840
C 1.66228   0.52195   -0.02219  
C 0.01907   -1.21753  0.05101   
C -1.29879  -1.12504  0.33045   
C -1.80310  0.22961   0.29927   
C -0.75000  1.09939   0.26817   
N 0.46653   0.56666   0.70915   
H 2.56492   0.50820   0.61489   
H 0.72628   -2.03576  0.19606   
H -1.88627  -1.99149  0.63822   
H -2.85381  0.51423   0.34557   
H -0.76440  2.17685   0.08020   
C 1.57801   0.15721   -1.32148  
H 2.32920   0.19887   -2.12853  
13
image # 20 Energy = -286.80107
C 1.68771   0.55910   -0.04947  
C 0.04292   -1.15375  0.14990   
C -1.30081  -1.15985  0.31900   
C -1.82880  0.18778   0.30594   
C -0.79060  1.06880   0.29288   
N 0.40543   0.41968   0.64153   
H 2.55870   0.60424   0.61396   
H 0.75118   -1.99942  0.19704   
H -1.87252  -2.05093  0.57795   
H -2.88077  0.45946   0.35006   
H -0.79178  2.14440   0.10587   
C 1.64272   0.25562   -1.33632  
H 2.38512   0.27153   -2.13706  
13
image # 21 Energy = -286.78499
C 1.66860   0.49200   -0.01692  
C 0.03668   -1.13280  0.19222   
C -1.30629  -1.13792  0.29236   
C -1.80639  0.21291   0.28789   
C -0.76037  1.07425   0.31834   
N 0.42321   0.40211   0.63742   
H 2.55684   0.50035   0.62863   
H 0.76096   -1.95130  0.18816   
H -1.87949  -2.03934  0.50618   
H -2.85182  0.47737   0.29706   
H -0.77972  2.15569   0.17389   
C 1.63393   0.27518   -1.30992  
H 2.30717   0.29472   -2.13430  
13
image # 22 Energy = -286.82776
C 1.68601   0.46731   -0.01328  
C 0.02090   -1.12600  0.24428   
C -1.32276  -1.14803  0.31329   
C -1.81802  0.20112   0.29885   
C -0.75049  1.06135   0.32202   
N 0.41074   0.32802   0.55778   
H 2.52481   0.50447   0.65953   
H 0.75698   -1.91357  0.18468   
H -1.89336  -2.04170  0.47710   
H -2.86154  0.47335   0.30496   
H -0.74700  2.13655   0.19459   
C 1.68677   0.34402   -1.31786  
H 2.31181   0.35268   -2.17295  
13
image # 23 Energy = -286.81884
C 1.68550   0.44515   -0.02564  
C 0.01128   -1.14100  0.21592   
C -1.35534  -1.15393  0.34714   
C -1.83495  0.18644   0.33504   
C -0.75547  1.04401   0.29510   
N 0.40152   0.30015   0.50054   
H 2.51325   0.43926   0.69154   
H 0.73436   -1.93521  0.15562   
H -1.94279  -2.04566  0.52068   
H -2.87210  0.49067   0.35858   
H -0.69039  2.10620   0.17327   
C 1.72868   0.43801   -1.34332  
H 2.38201   0.48437   -2.18105  
13
image # 24 Energy = -286.84203
C 1.68622   0.43989   -0.02912  
C -0.00806  -1.15755  0.22285   
C -1.37867  -1.17046  0.36340   
C -1.84876  0.18285   0.35901   
C -0.75559  1.01914   0.29369   
N 0.38702   0.25462   0.42959   
H 2.49736   0.38787   0.69816   
H 0.72051   -1.94011  0.13592   
H -1.97283  -2.05780  0.53095   
H -2.87669  0.49598   0.39277   
H -0.65675  2.08133   0.17284   
C 1.76639   0.53924   -1.35196  
H 2.44690   0.60329   -2.18701  
13
image # 25 Energy = -286.83188
C 1.68051   0.43088   -0.06587  
C -0.04234  -1.18985  0.18473   
C -1.39993  -1.17825  0.37606   
C -1.84980  0.17556   0.38177   
C -0.75629  0.99836   0.28159   
N 0.37995   0.23876   0.40550   
H 2.49281   0.27987   0.65683   
H 0.68688   -1.98305  0.10794   
H -2.00273  -2.06172  0.57018   
H -2.88275  0.51803   0.45205   
H -0.63417  2.06745   0.15365   
C 1.79846   0.63878   -1.35456  
H 2.53763   0.76432   -2.12863  
13
image # 26 Energy = -286.84401
C 1.68188   0.42081   -0.09607  
C -0.05978  -1.20241  0.19030   
C -1.42708  -1.19624  0.38698   
C -1.87294  0.17265   0.40386   
C -0.74689  0.97451   0.28222   
N 0.35618   0.18819   0.34524   
H 2.48208   0.21045   0.62393   
H 0.66326   -1.99072  0.09046   
H -2.03143  -2.07058  0.57197   
H -2.88135  0.52734   0.49334   
H -0.60889  2.04208   0.15981   
C 1.84344   0.74011   -1.35545  
H 2.61074   0.90383   -2.08677  
13
image # 27 Energy = -286.85320
C 1.67129   0.41419   -0.12324  
C -0.08163  -1.21454  0.19396   
C -1.44879  -1.20036  0.39711   
C -1.87304  0.16653   0.42380   
C -0.75639  0.95528   0.28198   
N 0.35071   0.13975   0.27850   
H 2.46965   0.14068   0.58091   
H 0.63962   -2.00705  0.07569   
H -2.06170  -2.08322  0.57801   
H -2.88460  0.54207   0.53857   
H -0.58477  2.01602   0.16269   
C 1.87865   0.83065   -1.35039  
H 2.69044   1.03897   -2.03612  
13
image # 28 Energy = -286.85249
C 1.66669   0.40070   -0.16067  
C -0.10862  -1.25050  0.16463   
C -1.46467  -1.19895  0.40817   
C -1.86834  0.16551   0.43812   
C -0.74582  0.94918   0.26921   
N 0.34426   0.12626   0.25269   
H 2.45742   0.00139   0.47419   
H 0.58926   -2.06633  0.05100   
H -2.07517  -2.07528  0.61058   
H -2.87044  0.56408   0.60020   
H -0.59184  2.01087   0.14749   
C 1.88999   0.91229   -1.35240  
H 2.78652   1.21913   -1.89925  
13
image # 29 Energy = -286.85346
C 1.65555   0.37370   -0.21053  
C -0.12532  -1.26273  0.15358   
C -1.46800  -1.20400  0.41645   
C -1.86266  0.18325   0.44588   
C -0.74265  0.94251   0.25853   
N 0.35918   0.10163   0.22617   
H 2.45244   -0.12377  0.37047   
H 0.54259   -2.10935  0.03116   
H -2.07800  -2.06004  0.62750   
H -2.85063  0.57214   0.64220   
H -0.61325  2.01296   0.14191   
C 1.90233   0.97221   -1.35009  
H 2.83695   1.37626   -1.74214  
13
image # 30 Energy = -286.86078
C 1.66007   0.33187   -0.26311  
C -0.13094  -1.26714  0.16185   
C -1.46912  -1.19163  0.42271   
C -1.85077  0.18486   0.45332   
C -0.72563  0.93849   0.24881   
N 0.36014   0.07310   0.18700   
H 2.44117   -0.24127  0.25958   
H 0.49678   -2.14010  0.01524   
H -2.08085  -2.04822  0.63594   
H -2.83620  0.57497   0.67470   
H -0.64117  2.01541   0.14406   
C 1.91667   1.03189   -1.34648  
H 2.86808   1.52763   -1.57036  
13
image # 31 Energy = -286.85172
C 1.66557   0.28868   -0.33205  
C -0.13033  -1.26778  0.17124   
C -1.46211  -1.18173  0.42695   
C -1.83946  0.19043   0.46015   
C -0.71379  0.93706   0.23838   
N 0.37184   0.05517   0.15455   
H 2.43382   -0.35170  0.14616   
H 0.45029   -2.16771  0.00204   
H -2.08470  -2.03596  0.64244   
H -2.82203  0.57139   0.70063   
H -0.67582  2.01855   0.14929   
C 1.94405   1.08177   -1.34413  
H 2.87057   1.66459   -1.37830  
13
image # 32 Energy = -286.84295
C 1.67585   0.24615   -0.39115  
C -0.12973  -1.27089  0.17679   
C -1.45460  -1.18044  0.42904   
C -1.82678  0.19142   0.46459   
C -0.70639  0.93902   0.22857   
N 0.39399   0.05252   0.13431   
H 2.42292   -0.44888  0.02983   
H 0.40544   -2.19503  -0.00449  
H -2.08589  -2.01847  0.64997   
H -2.80733  0.56606   0.71951   
H -0.71076  2.02430   0.15296   
C 1.98694   1.11595   -1.35063  
H 2.84378   1.78948   -1.18745  
13
image # 33 Energy = -286.83220
C 1.67769   0.21702   -0.45062  
C -0.12340  -1.27634  0.17579   
C -1.44067  -1.17252  0.42888   
C -1.81501  0.19013   0.46745   
C -0.69882  0.93990   0.21814   
N 0.41093   0.05158   0.12041   
H 2.40929   -0.53367  -0.09919  
H 0.36849   -2.21938  -0.00309  
H -2.09658  -2.01310  0.66363   
H -2.78493  0.56119   0.72954   
H -0.73255  2.02569   0.15030   
C 2.06552   1.14407   -1.32961  
H 2.76819   1.90820   -1.01413  
13
image # 34 Energy = -286.82483
C 1.66915   0.17238   -0.51432  
C -0.11598  -1.31384  0.13843   
C -1.42679  -1.17294  0.43666   
C -1.79013  0.19201   0.46129   
C -0.68629  0.94996   0.17965   
N 0.44998   0.09690   0.14649   
H 2.39360   -0.60871  -0.26761  
H 0.32615   -2.29409  0.01815   
H -2.10412  -1.98975  0.69984   
H -2.75092  0.56694   0.73843   
H -0.74892  2.04045   0.11957   
C 2.17118   1.15110   -1.26561  
H 2.62158   2.04087   -0.83139  
13
image # 35 Energy = -286.81523
C 1.67274   0.15931   -0.56185  
C -0.11804  -1.32990  0.11509   
C -1.43212  -1.18501  0.45325   
C -1.76500  0.19597   0.46221   
C -0.67529  0.94754   0.14417   
N 0.45417   0.09200   0.13766   
H 2.37199   -0.66583  -0.38959  
H 0.32937   -2.32849  0.02746   
H -2.11176  -1.98087  0.71853   
H -2.73549  0.58091   0.74311   
H -0.71969  2.04032   0.09376   
C 2.24378   1.16812   -1.13830  
H 2.49047   2.15938   -0.75402  
13
image # 36 Energy = -286.83928
C 1.67223   0.14494   -0.57801  
C -0.13039  -1.35773  0.10489   
C -1.42045  -1.18951  0.46478   
C -1.75992  0.19415   0.47352   
C -0.66595  0.94867   0.11825   
N 0.44896   0.08605   0.09330   
H 2.34652   -0.70443  -0.49156  
H 0.35251   -2.34773  0.03177   
H -2.12016  -1.98326  0.73047   
H -2.72121  0.59451   0.74407   
H -0.67608  2.04486   0.07182   
C 2.31797   1.19429   -0.97892  
H 2.35664   2.25752   -0.74674  
13
image # 37 Energy = -286.83520
C 1.68098   0.14180   -0.56759  
C -0.12376  -1.37557  0.10536   
C -1.43543  -1.19463  0.48162   
C -1.74925  0.19812   0.48370   
C -0.66838  0.94626   0.11403   
N 0.42214   0.08007   0.01547   
H 2.33411   -0.72824  -0.56586  
H 0.39009   -2.35329  0.02872   
H -2.12360  -1.98614  0.73650   
H -2.71169  0.61077   0.74369   
H -0.61500  2.04028   0.05141   
C 2.35006   1.23801   -0.83077  
H 2.25129   2.29346   -0.77305  
13
image # 38 Energy = -286.85899
C 1.70882   0.15827   -0.52093  
C -0.14050  -1.35240  0.12504   
C -1.43607  -1.19711  0.48751   
C -1.75210  0.20089   0.49091   
C -0.64266  0.92609   0.12453   
N 0.38535   0.01247   -0.08519  
H 2.31271   -0.74704  -0.60352  
H 0.43276   -2.30939  0.01917   
H -2.12991  -1.99130  0.74001   
H -2.70479  0.63528   0.74096   
H -0.52756  1.99750   0.02809   
C 2.32912   1.27456   -0.76990  
H 2.16928   2.32906   -0.77298  
13
image # 39 Energy = -286.87079
C 1.71297   0.16711   -0.50345  
C -0.14550  -1.33288  0.12654   
C -1.45964  -1.19094  0.49450   
C -1.75242  0.20797   0.49146   
C -0.60742  0.86972   0.12158   
N 0.38180   -0.07139  -0.10430  
H 2.28415   -0.75463  -0.60777  
H 0.47183   -2.21146  0.00461   
H -2.13904  -1.99567  0.74060   
H -2.69863  0.67249   0.73482   
H -0.40356  1.92267   -0.00309  
C 2.28363   1.32951   -0.74341  
H 2.07183   2.38748   -0.75211  
