13   
From qcts2.out: Frame 3 / 3, Energy=    -286.7591527436
C        1.9168810355    0.6701132004   -0.6051985607
C       -0.6604991972   -2.1717805860    1.1234085511
C       -1.6450065451   -1.3172446455    0.8617131187
C       -1.5385880079   -0.0172144074    0.2272021716
C       -0.3837211465    0.5953500612   -0.2320839202
N        0.8194441127    0.0175576605   -0.1303560173
H        2.8540960524    0.1154519368   -0.4715289620
H       -0.5997572292   -3.1511430023    1.5817956771
H       -2.6627790626   -1.6094838594    1.1504154625
H       -2.4668433148    0.5336272599    0.1000757194
H       -0.4817600792    1.5864699698   -0.6901668611
C        2.0078396844    1.8790824406   -1.2061262040
H        2.8129347586    2.4763310903   -1.6136279025
