13   
From optimize.out: Frame 1 / 2, Energy=    -286.9243440152
C        0.0343610000   -0.1089160000   -0.0000000000
C       -0.1121440000    0.1014800000   -0.0000000000
C       -0.1104450000    0.0859030000    0.0000000000
C       -0.1321390000    0.3532040000    0.0000000000
C        0.0363060000   -0.1162430000    0.0000000000
N       -0.4231570000    0.3870240000   -0.0000000000
H        0.1426680000    0.0032200000   -0.0000000000
H        0.1418560000   -0.0070020000   -0.0000000000
H        0.1420360000   -0.0062610000    0.0000000000
H        0.1342360000   -0.0186230000    0.0000000000
H        0.1425220000    0.0035810000    0.0000000000
C       -0.1305410000    0.3406730000   -0.0000000000
H        0.1344400000   -0.0180390000   -0.0000000000
