13   
From optimize.out: Frame 1 / 2, Energy=    -286.8249819809
C       -0.0449790000   -0.0802910000    0.0000000000
C       -0.1249250000    0.0903260000   -0.0000000000
C       -0.1248470000    0.0896270000   -0.0000000000
C       -0.1249510000    0.0885550000    0.0000000000
C       -0.0446730000   -0.0802350000   -0.0000000000
N       -0.2858970000    0.8115620000   -0.0000000000
H        0.1493200000    0.0010430000    0.0000000000
H        0.1440410000   -0.0025730000   -0.0000000000
H        0.1440620000   -0.0025140000   -0.0000000000
H        0.1439990000   -0.0024410000    0.0000000000
H        0.1493000000    0.0010450000   -0.0000000000
C       -0.1243220000    0.0883100000    0.0000000000
H        0.1438760000   -0.0024120000    0.0000000000
