13   
From optimize.out: Frame 2 / 3, Energy=    -286.9243477216
C        1.6276639315    0.3392271855   -0.3027601267
C        1.1393237710   -0.9428352096   -0.4738965665
C       -0.2056741721   -1.4171572286   -0.2711846395
C       -1.2783094952   -0.6848475977    0.1421864018
C       -0.2471559984    1.6191039934    0.4195377458
N        1.0602970564    1.5047078549    0.0861278080
H        2.6912210000    0.4564990081   -0.5222194936
H        1.8652133641   -1.6818652093   -0.8043903605
H       -0.3710696079   -2.4737481844   -0.4722864989
H       -2.2282300129   -1.2058790824    0.2435343208
H       -0.5060666194    2.6396143676    0.7102013760
C       -1.2952218083    0.7195564842    0.4640634259
H       -2.2519914088    1.1276236189    0.7810866077
13   
From optimize.out: Frame 1 / 2, Energy=    -286.9514648084
C        1.9264257874    0.3340537195   -0.3726496423
C        1.3269448631   -0.9246867033   -0.5166790570
C       -0.0208685491   -1.0632001041   -0.2330907724
C       -0.7678824353    0.0698163235    0.1958391018
C       -0.0354307559    1.2928425107    0.2997580462
N        1.2557637047    1.4288456256    0.0303350617
H        2.9840219015    0.4725931536   -0.5873907368
H        1.9188910166   -1.7743289560   -0.8452131148
H       -0.5166556011   -2.0258176856   -0.3327016792
H       -2.6950549531   -0.9138855978    0.4223177669
H       -0.5597696956    2.1927052707    0.6226377799
C       -2.1380275933    0.0131479433    0.4982980790
H       -2.6783576899    0.8979144999    0.8185391671
