13   
Frame   0 IRC: Energy =  -286.9462121985 ; +0.0000 kcal/mol
C        1.5946923947    0.3591172785   -0.4408924186
C        1.1285548471   -0.9423504393   -0.5025592229
C       -0.1857827342   -1.4358543184   -0.1788955891
C       -1.2471211881   -0.7048592692    0.2712553316
C       -0.2622270414    1.6374449189    0.3460690644
N        1.0200060253    1.5314231133   -0.0780792536
H        2.6350290854    0.4889117980   -0.7429440390
H        1.8492755458   -1.6831144196   -0.8386175907
H       -0.3357919603   -2.5054768898   -0.3076333120
H       -2.1714435720   -1.2419295732    0.4715289136
H       -0.5251016418    2.6658525330    0.5987115002
C       -1.2792609747    0.7144466683    0.5182814471
H       -2.2208287853    1.1163885995    0.8837751691
13   
Frame   1 IRC: Energy =  -286.9462101115 ; +0.0013 kcal/mol
C        1.5946055614    0.3587202099   -0.4413344774
C        1.1284073492   -0.9427752690   -0.5028380666
C       -0.1859498162   -1.4358966824   -0.1787929070
C       -1.2472615554   -0.7042284213    0.2705266189
C       -0.2626376495    1.6375180095    0.3459186363
N        1.0197001017    1.5310006771   -0.0782307700
H        2.6352370386    0.4890949650   -0.7423883230
H        1.8494085241   -1.6832106320   -0.8386829679
H       -0.3349301201   -2.5058574511   -0.3071129110
H       -2.1713626147   -1.2416467224    0.4704370848
H       -0.5253770885    2.6658350395    0.5982287112
C       -1.2792533954    0.7148041508    0.5192505356
H       -2.2205863348    1.1166421262    0.8850188361
13   
Frame   2 IRC: Energy =  -286.9462044218 ; +0.0049 kcal/mol
C        1.5942099071    0.3583450416   -0.4421156339
C        1.1281994990   -0.9438157809   -0.5036490208
C       -0.1864457478   -1.4357840259   -0.1789339363
C       -1.2479982210   -0.7036187630    0.2695372148
C       -0.2631674359    1.6375844119    0.3456579007
N        1.0195265463    1.5305483653   -0.0793326585
H        2.6356867697    0.4895834720   -0.7406311646
H        1.8503073356   -1.6837557196   -0.8393478491
H       -0.3332493372   -2.5063065140   -0.3055857234
H       -2.1718575189   -1.2414175969    0.4688852096
H       -0.5259608474    2.6658065287    0.5981541280
C       -1.2792968731    0.7153780666    0.5201779079
H       -2.2199540763    1.1174525141    0.8871836256
13   
Frame   3 IRC: Energy =  -286.9461949207 ; +0.0108 kcal/mol
C        1.5935236719    0.3584026634   -0.4430978107
C        1.1280653350   -0.9448402120   -0.5047474340
C       -0.1869522213   -1.4354161218   -0.1791820689
C       -1.2492145631   -0.7035601705    0.2685362379
C       -0.2633956698    1.6374095076    0.3456953016
N        1.0195996066    1.5303263127   -0.0811962253
H        2.6358462611    0.4903023914   -0.7387904772
H        1.8515650019   -1.6845258572   -0.8403949056
H       -0.3313046738   -2.5065036065   -0.3024963618
H       -2.1730648317   -1.2414941370    0.4675976541
H       -0.5259214805    2.6655389009    0.6000687768
C       -1.2794760298    0.7158790319    0.5195718801
H       -2.2192704064    1.1184812970    0.8884354331
13   
Frame   4 IRC: Energy =  -286.9461828589 ; +0.0184 kcal/mol
C        1.5929206871    0.3589928173   -0.4441901085
C        1.1279066961   -0.9451526202   -0.5058487335
C       -0.1871345878   -1.4349264581   -0.1793567368
C       -1.2506734497   -0.7041299267    0.2675854523
C       -0.2630600489    1.6371391848    0.3458351000
N        1.0198946305    1.5304591154   -0.0833682310
H        2.6358544628    0.4909122265   -0.7375656536
H        1.8523536461   -1.6849607384   -0.8413524373
H       -0.3297040401   -2.5064683371   -0.2980868136
H       -2.1747035966   -1.2422045732    0.4665915289
H       -0.5247833077    2.6650000908    0.6039191395
C       -1.2799611212    0.7160479024    0.5173973226
H       -2.2189099706    1.1192913164    0.8884401710
13   
Frame   5 IRC: Energy =  -286.9461691626 ; +0.0270 kcal/mol
C        1.5924488473    0.3598935644   -0.4456396599
C        1.1277546536   -0.9445399032   -0.5066413156
C       -0.1867570882   -1.4345185574   -0.1787756725
C       -1.2519089172   -0.7049203455    0.2663154541
C       -0.2623042757    1.6364940064    0.3465273073
N        1.0201220178    1.5306891833   -0.0849470819
H        2.6352937753    0.4914930570   -0.7381788008
H        1.8521959658   -1.6846674352   -0.8419670248
H       -0.3284779110   -2.5064535190   -0.2919526401
H       -2.1764234160   -1.2430666138    0.4650897413
H       -0.5224801620    2.6636525374    0.6098749867
C       -1.2806785575    0.7160101267    0.5136745397
H       -2.2187849322    1.1199338988    0.8866201666
13   
Frame   6 IRC: Energy =  -286.9461525563 ; +0.0374 kcal/mol
C        1.5923856459    0.3609217086   -0.4474487478
C        1.1273512351   -0.9429569189   -0.5072518858
C       -0.1858633142   -1.4344558916   -0.1774912569
C       -1.2529539489   -0.7056327416    0.2645354596
C       -0.2612542245    1.6358837709    0.3470124212
N        1.0201953627    1.5311421362   -0.0859652942
H        2.6350372905    0.4917074159   -0.7397420315
H        1.8508272262   -1.6834341685   -0.8422010763
H       -0.3276327835   -2.5068479139   -0.2847016348
H       -2.1779938711   -1.2442170562    0.4622179281
H       -0.5195471410    2.6618058876    0.6161706099
C       -1.2817893881    0.7156324133    0.5098948948
H       -2.2187620891    1.1204513581    0.8849706138
13   
Frame   7 IRC: Energy =  -286.9461357565 ; +0.0480 kcal/mol
C        1.5925811186    0.3615589018   -0.4490981858
C        1.1270613516   -0.9412812658   -0.5076405504
C       -0.1848587131   -1.4347726035   -0.1757178405
C       -1.2532024815   -0.7058260670    0.2625653278
C       -0.2607018509    1.6349176806    0.3476983505
N        1.0197193609    1.5315151921   -0.0859948817
H        2.6347357532    0.4917962551   -0.7418012267
H        1.8490721769   -1.6819065106   -0.8423523999
H       -0.3270775227   -2.5076762857   -0.2781203403
H       -2.1789665632   -1.2444140557    0.4585657141
H       -0.5173867366    2.6595772750    0.6209439102
C       -1.2826850700    0.7153074521    0.5070327075
H       -2.2182908231    1.1212040318    0.8839194153
13   
Frame   8 IRC: Energy =  -286.9461144132 ; +0.0614 kcal/mol
C        1.5933362891    0.3619291362   -0.4499380096
C        1.1264414261   -0.9394319995   -0.5085239181
C       -0.1841180679   -1.4356705504   -0.1747058392
C       -1.2531667880   -0.7058530152    0.2606911445
C       -0.2607472787    1.6344628335    0.3467163607
N        1.0188551869    1.5325953085   -0.0864196981
H        2.6364601750    0.4908582632   -0.7407723605
H        1.8469329016   -1.6801426899   -0.8426426401
H       -0.3271546850   -2.5091826645   -0.2742569570
H       -2.1793756203   -1.2445108378    0.4541936549
H       -0.5169464375    2.6585019516    0.6204120219
C       -1.2834987332    0.7144664488    0.5075285688
H       -2.2170183681    1.1219778157    0.8877176719
13   
Frame   9 IRC: Energy =  -286.9460896424 ; +0.0769 kcal/mol
C        1.5942374008    0.3617434293   -0.4495562071
C        1.1264873089   -0.9384356299   -0.5095955801
C       -0.1839880641   -1.4366186847   -0.1745477909
C       -1.2523974949   -0.7058578228    0.2594321590
C       -0.2618216190    1.6336643121    0.3456731694
N        1.0175128172    1.5337929531   -0.0870009923
H        2.6383596288    0.4898293582   -0.7380663171
H        1.8457742741   -1.6792456482   -0.8435843538
H       -0.3275197262   -2.5106817782   -0.2731046152
H       -2.1795228595   -1.2432556596    0.4510115978
H       -0.5185246436    2.6580740156    0.6167446847
C       -1.2835553172    0.7139297630    0.5093707377
H       -2.2150417054    1.1230613919    0.8932235079
13   
Frame  10 IRC: Energy =  -286.9460563246 ; +0.0978 kcal/mol
C        1.5955744460    0.3616957407   -0.4465675882
C        1.1262545468   -0.9379317865   -0.5104783983
C       -0.1853513200   -1.4376178131   -0.1765411477
C       -1.2521919538   -0.7065332626    0.2588478745
C       -0.2636328826    1.6339689062    0.3422451899
N        1.0168523181    1.5363324092   -0.0895173748
H        2.6427357672    0.4873400443   -0.7306960229
H        1.8451416317   -1.6785700162   -0.8458135463
H       -0.3289521579   -2.5121166167   -0.2759899711
H       -2.1796170101   -1.2425604853    0.4493465147
H       -0.5221809767    2.6610089011    0.6070427617
C       -1.2825191927    0.7129713192    0.5137984257
H       -2.2121132160    1.1220126596    0.9043232828
13   
Frame  11 IRC: Energy =  -286.9460281014 ; +0.1155 kcal/mol
C        1.5946647777    0.3634150128   -0.4503367081
C        1.1248166876   -0.9361634626   -0.5080511130
C       -0.1852881269   -1.4364544910   -0.1701938005
C       -1.2547101050   -0.7033261161    0.2569261680
C       -0.2614705643    1.6326231635    0.3431276049
N        1.0169961655    1.5361564311   -0.0847341708
H        2.6388479071    0.4892609923   -0.7441299104
H        1.8445067847   -1.6783685162   -0.8441534168
H       -0.3269639984   -2.5113690452   -0.2653371812
H       -2.1775674933   -1.2436826091    0.4458087865
H       -0.5153668018    2.6538165106    0.6247442940
C       -1.2846757495    0.7116922883    0.5063119808
H       -2.2137894834    1.1223998415    0.8900174666
13   
Frame  12 IRC: Energy =  -286.9459576341 ; +0.1597 kcal/mol
C        1.5952776569    0.3645847610   -0.4471302366
C        1.1243368058   -0.9359762516   -0.5026747569
C       -0.1878112022   -1.4363264152   -0.1672130306
C       -1.2569923830   -0.7026397821    0.2534339527
C       -0.2616132660    1.6334369424    0.3418361933
N        1.0192668603    1.5384876817   -0.0839995574
H        2.6386738278    0.4880304031   -0.7507588983
H        1.8435818361   -1.6763871350   -0.8484953791
H       -0.3272143785   -2.5117543740   -0.2570093432
H       -2.1781780618   -1.2435751784    0.4410439996
H       -0.5139541587    2.6549652304    0.6306431560
C       -1.2828534805    0.7116984587    0.5008102885
H       -2.2125200563    1.1154556590    0.8895136119
13   
Frame  13 IRC: Energy =  -286.9458257602 ; +0.2425 kcal/mol
C        1.5944719362    0.3656341026   -0.4481196244
C        1.1239616412   -0.9364592353   -0.4940014327
C       -0.1874079984   -1.4360072906   -0.1599267145
C       -1.2596889075   -0.7010878793    0.2483723639
C       -0.2584516198    1.6351264665    0.3457797372
N        1.0238168085    1.5371174966   -0.0790044921
H        2.6326550015    0.4896124383   -0.7701288177
H        1.8416444588   -1.6731552089   -0.8508220679
H       -0.3252224574   -2.5114669581   -0.2407950658
H       -2.1799761000   -1.2446138432    0.4327203282
H       -0.5072569109    2.6542659098    0.6488584966
C       -1.2826564676    0.7135764203    0.4898158052
H       -2.2158893846    1.1074575813    0.8772514840
13   
Frame  14 IRC: Energy =  -286.9456478239 ; +0.3542 kcal/mol
C        1.5932590506    0.3650707837   -0.4503154049
C        1.1251078571   -0.9382683986   -0.4844111862
C       -0.1844818621   -1.4368843618   -0.1514501292
C       -1.2600777618   -0.7000362531    0.2417854848
C       -0.2550214082    1.6367212100    0.3539595715
N        1.0286503826    1.5333055778   -0.0722521313
H        2.6241529307    0.4923210970   -0.7925777863
H        1.8391191635   -1.6690643141   -0.8534991411
H       -0.3222473605   -2.5122824057   -0.2223680466
H       -2.1837289064   -1.2432246077    0.4202166308
H       -0.5017993244    2.6544672322    0.6655414116
C       -1.2824458631    0.7177898819    0.4794240107
H       -2.2204868981    1.1000845584    0.8659467161
13   
Frame  15 IRC: Energy =  -286.9454584127 ; +0.4730 kcal/mol
C        1.5916270551    0.3632456030   -0.4539881134
C        1.1272002470   -0.9406896796   -0.4768785903
C       -0.1792811527   -1.4389860526   -0.1429994505
C       -1.2585440200   -0.6990259858    0.2351398103
C       -0.2516910393    1.6380450518    0.3633718435
N        1.0321397542    1.5283082286   -0.0644724890
H        2.6155747642    0.4953657435   -0.8127723957
H        1.8368780746   -1.6659142827   -0.8552247747
H       -0.3185347887   -2.5143904624   -0.2065390985
H       -2.1876933962   -1.2397013072    0.4047224660
H       -0.4986549412    2.6550527250    0.6757180760
C       -1.2833886428    0.7220668265    0.4744188075
H       -2.2256319142    1.0966235918    0.8595039089
13   
Frame  16 IRC: Energy =  -286.9452488282 ; +0.6045 kcal/mol
C        1.5893388126    0.3604832755   -0.4582660191
C        1.1311920859   -0.9438506989   -0.4713204843
C       -0.1725207655   -1.4416536444   -0.1336822380
C       -1.2550914660   -0.6971534856    0.2279522511
C       -0.2493166395    1.6375446788    0.3737203311
N        1.0333045306    1.5229008789   -0.0550188684
H        2.6059190972    0.4989612476   -0.8319696889
H        1.8360970751   -1.6650722734   -0.8573340782
H       -0.3139186297   -2.5174254251   -0.1917662114
H       -2.1912619286   -1.2318755477    0.3867277468
H       -0.4983236191    2.6532527751    0.6818626633
C       -1.2851131028    0.7258677388    0.4729578957
H       -2.2303054504    1.0980204804    0.8561367003
13   
Frame  17 IRC: Energy =  -286.9449472066 ; +0.7938 kcal/mol
C        1.5858019184    0.3571406956   -0.4628670120
C        1.1386145971   -0.9484932561   -0.4661309544
C       -0.1637610711   -1.4452446641   -0.1207806240
C       -1.2510045831   -0.6939550975    0.2191366918
C       -0.2468915127    1.6360629468    0.3846235390
N        1.0326760815    1.5185453817   -0.0416358847
H        2.5923664483    0.5032647047   -0.8559087815
H        1.8385418007   -1.6690891077   -0.8607801840
H       -0.3070189796   -2.5217999245   -0.1748412053
H       -2.1952040613   -1.2192094516    0.3616937463
H       -0.4994057480    2.6505202637    0.6877553072
C       -1.2886847558    0.7275105241    0.4752129406
H       -2.2360301344    1.1047469849    0.8545224210
13   
Frame  18 IRC: Energy =  -286.9445927047 ; +1.0162 kcal/mol
C        1.5819609780    0.3548418443   -0.4672035601
C        1.1475786722   -0.9528776192   -0.4618410376
C       -0.1563491182   -1.4474118149   -0.1067363459
C       -1.2483673077   -0.6898451267    0.2121993733
C       -0.2450205668    1.6326891911    0.3942581185
N        1.0302120652    1.5166804711   -0.0273680130
H        2.5757640942    0.5086508060   -0.8839155169
H        1.8445980302   -1.6778889978   -0.8640571804
H       -0.2993582980   -2.5246226661   -0.1566617712
H       -2.1982637693   -1.2061477562    0.3406390832
H       -0.4983842664    2.6435319529    0.7041744556
C       -1.2929630382    0.7271133727    0.4731106273
H       -2.2414074753    1.1152863428    0.8434017674
13   
Frame  19 IRC: Energy =  -286.9442248374 ; +1.2471 kcal/mol
C        1.5791464170    0.3541725269   -0.4704800078
C        1.1555207106   -0.9560922546   -0.4580777668
C       -0.1518047664   -1.4481948805   -0.0945548343
C       -1.2491516438   -0.6868998725    0.2088844486
C       -0.2426151955    1.6313198152    0.3994445440
N        1.0284243752    1.5182104053   -0.0157065764
H        2.5603292577    0.5134625607   -0.9116490575
H        1.8522806202   -1.6889840966   -0.8655954997
H       -0.2924747265   -2.5255607434   -0.1410378066
H       -2.2008757699   -1.1991317344    0.3263699333
H       -0.4935000840    2.6379399513    0.7284943535
C       -1.2979614901    0.7245359528    0.4681287941
H       -2.2473177044    1.1252223699    0.8257794757
13   
Frame  20 IRC: Energy =  -286.9439595621 ; +1.4136 kcal/mol
C        1.5773768536    0.3540421411   -0.4747407757
C        1.1602142213   -0.9571890068   -0.4561342892
C       -0.1501106322   -1.4471548225   -0.0860286403
C       -1.2505543263   -0.6845514277    0.2097456527
C       -0.2410020314    1.6286645580    0.4046832642
N        1.0262345125    1.5186476210   -0.0078479743
H        2.5479490748    0.5191633134   -0.9359933246
H        1.8578452000   -1.6967221777   -0.8636842092
H       -0.2875471110   -2.5242725787   -0.1279790879
H       -2.2016360332   -1.1970385843    0.3235814691
H       -0.4858717097    2.6289227569    0.7599424963
C       -1.3014599843    0.7238191086    0.4561196373
H       -2.2514380342    1.1336690986    0.7983357816
13   
Frame  21 IRC: Energy =  -286.9437004600 ; +1.5761 kcal/mol
C        1.5787174038    0.3529019323   -0.4803827143
C        1.1626238706   -0.9575019134   -0.4547285305
C       -0.1500919541   -1.4469125167   -0.0794489509
C       -1.2535837550   -0.6844267686    0.2147378542
C       -0.2371168609    1.6325022781    0.4070317245
N        1.0259746387    1.5187386579   -0.0026844070
H        2.5408976603    0.5247991722   -0.9605786476
H        1.8617032228   -1.7027761397   -0.8573838565
H       -0.2827251311   -2.5245732996   -0.1186170970
H       -2.2033232418   -1.2040118677    0.3206104767
H       -0.4749756211    2.6271451597    0.7930429604
C       -1.3078681567    0.7229469725    0.4468113333
H       -2.2602320755    1.1411683330    0.7715898546
13   
Frame  22 IRC: Energy =  -286.9433508924 ; +1.7955 kcal/mol
C        1.5767691148    0.3518588571   -0.4967643262
C        1.1618079486   -0.9560522384   -0.4555390562
C       -0.1472934371   -1.4449756591   -0.0679704974
C       -1.2548103571   -0.6804995840    0.2223364995
C       -0.2318077206    1.6276707533    0.4217141901
N        1.0223973743    1.5106252146    0.0082844218
H        2.5266314645    0.5379085633   -0.9998110882
H        1.8632511806   -1.7055173018   -0.8423302989
H       -0.2750723981   -2.5230841953   -0.1004812546
H       -2.2008878808   -1.2101181854    0.3224674714
H       -0.4562702430    2.6104561009    0.8499978918
C       -1.3149203148    0.7260419395    0.4237382530
H       -2.2697947312    1.1556857353    0.7143577940
13   
Frame  23 IRC: Energy =  -286.9429102618 ; +2.0720 kcal/mol
C        1.5763297133    0.3500154874   -0.5140098062
C        1.1576732648   -0.9541472599   -0.4572273910
C       -0.1439902610   -1.4453401359   -0.0585766639
C       -1.2557942865   -0.6785992712    0.2295601577
C       -0.2245002801    1.6268871774    0.4347034811
N        1.0218035708    1.5013937605    0.0174549991
H        2.5198532317    0.5481512212   -1.0300233670
H        1.8612352740   -1.7041226028   -0.8253865490
H       -0.2681208270   -2.5252317985   -0.0895971871
H       -2.1987571406   -1.2200083384    0.3158033645
H       -0.4397717048    2.6060140064    0.8854227248
C       -1.3232168117    0.7281796192    0.4145453673
H       -2.2827437431    1.1668081344    0.6773308697
13   
Frame  24 IRC: Energy =  -286.9424290679 ; +2.3740 kcal/mol
C        1.5753487355    0.3475176763   -0.5292886633
C        1.1531206466   -0.9522032557   -0.4597160600
C       -0.1404447094   -1.4467276082   -0.0508366840
C       -1.2539287605   -0.6759037341    0.2338273231
C       -0.2195617503    1.6205706241    0.4501058656
N        1.0196202127    1.4914184964    0.0263035286
H        2.5154479861    0.5564616738   -1.0499252933
H        1.8577997474   -1.6998619718   -0.8125334645
H       -0.2626368242   -2.5286622925   -0.0814792975
H       -2.1953387268   -1.2219982218    0.3060653192
H       -0.4308573307    2.6019238725    0.9015405845
C       -1.3273261445    0.7313456454    0.4106191131
H       -2.2912430821    1.1761190957    0.6553177284
13   
Frame  25 IRC: Energy =  -286.9420615326 ; +2.6046 kcal/mol
C        1.5735306240    0.3459722616   -0.5374984068
C        1.1494066221   -0.9498393145   -0.4612121295
C       -0.1385821572   -1.4490490346   -0.0467630789
C       -1.2520924333   -0.6746861987    0.2340110104
C       -0.2157082811    1.6169988554    0.4572718483
N        1.0196624658    1.4868338608    0.0314554675
H        2.5151746225    0.5582219405   -1.0539518891
H        1.8546770221   -1.6962116694   -0.8058021365
H       -0.2598972605   -2.5321454799   -0.0813032408
H       -2.1936287931   -1.2230534040    0.2934754888
H       -0.4285863420    2.6071468885    0.8931773675
C       -1.3282982332    0.7308638099    0.4187592193
H       -2.2956578561    1.1789474845    0.6583804799
13   
Frame  26 IRC: Energy =  -286.9416772384 ; +2.8457 kcal/mol
C        1.5648335965    0.3503157227   -0.5523131070
C        1.1440542472   -0.9457032995   -0.4646473263
C       -0.1333213210   -1.4461394528   -0.0394215819
C       -1.2520220102   -0.6689964776    0.2310809434
C       -0.2103102606    1.6147953654    0.4651370733
N        1.0190549026    1.4759716951    0.0403117695
H        2.5069903291    0.5634277797   -1.0621769794
H        1.8518009731   -1.6944620541   -0.7954695216
H       -0.2562623793   -2.5283258494   -0.0761429210
H       -2.1851338767   -1.2234579077    0.2969136991
H       -0.4168758890    2.5875099339    0.9065329226
C       -1.3322867212    0.7284177528    0.4152770842
H       -2.3005215906    1.1866467916    0.6349179452
13   
Frame  27 IRC: Energy =  -286.9411903846 ; +3.1512 kcal/mol
C        1.5509618166    0.3571311605   -0.5662587352
C        1.1384615761   -0.9402223280   -0.4644950417
C       -0.1282058914   -1.4416420235   -0.0293479991
C       -1.2547310014   -0.6660080127    0.2250169045
C       -0.2026771061    1.6047271591    0.4699266263
N        1.0239398527    1.4772644735    0.0513406834
H        2.4906015383    0.5636899416   -1.0736766320
H        1.8493285206   -1.6942151563   -0.7824449586
H       -0.2530656229   -2.5209257929   -0.0710694313
H       -2.1814039448   -1.2305873312    0.2942971288
H       -0.4014982270    2.5807788268    0.9178799448
C       -1.3314229879    0.7229544662    0.4169294974
H       -2.3002885230    1.1870546168    0.6119020128
13   
Frame  28 IRC: Energy =  -286.9405651280 ; +3.5436 kcal/mol
C        1.5397565339    0.3649013190   -0.5776126637
C        1.1357846744   -0.9364831984   -0.4647976871
C       -0.1239989450   -1.4335668223   -0.0217174393
C       -1.2594858110   -0.6629518019    0.2210019083
C       -0.1972801202    1.6028974009    0.4699792287
N        1.0275197829    1.4773673584    0.0589495672
H        2.4746406347    0.5664045764   -1.0883247828
H        1.8491530613   -1.6972380668   -0.7716527365
H       -0.2510895907   -2.5094927991   -0.0630945648
H       -2.1765249662   -1.2391652444    0.3099567895
H       -0.3829812595    2.5575985487    0.9532569077
C       -1.3341625767    0.7195812298    0.4037977723
H       -2.3013314179    1.1901474998    0.5702577004
13   
Frame  29 IRC: Energy =  -286.9395820702 ; +4.1605 kcal/mol
C        1.5299694946    0.3721219832   -0.5883917647
C        1.1360247715   -0.9341288031   -0.4639095260
C       -0.1206344214   -1.4223513341   -0.0138543075
C       -1.2660995688   -0.6613120977    0.2185484256
C       -0.1935339118    1.6006188596    0.4694073575
N        1.0311235006    1.4826199047    0.0662813632
H        2.4540220601    0.5706633547   -1.1122022949
H        1.8505261105   -1.7022654353   -0.7604174094
H       -0.2497633355   -2.4940185192   -0.0495638347
H       -2.1737488662   -1.2507971545    0.3372758500
H       -0.3602737178    2.5261927861    1.0132230050
C       -1.3365001609    0.7192795544    0.3762203739
H       -2.3011119547    1.1933769010    0.5073827620
13   
Frame  30 IRC: Energy =  -286.9380764658 ; +5.1053 kcal/mol
C        1.5265539681    0.3755930938   -0.5973486647
C        1.1394857388   -0.9336499388   -0.4636462359
C       -0.1190717287   -1.4111333223   -0.0089291531
C       -1.2723643287   -0.6614635399    0.2194689609
C       -0.1924034742    1.6057679269    0.4680761928
N        1.0319588094    1.4865460347    0.0703707745
H        2.4374467504    0.5778175554   -1.1390095057
H        1.8528625746   -1.7078242166   -0.7517846093
H       -0.2493221541   -2.4791728364   -0.0335950308
H       -2.1717920986   -1.2626266572    0.3759637821
H       -0.3377533390    2.4878667136    1.0897018312
C       -1.3415245843    0.7230136842    0.3364775276
H       -2.3040761337    1.1992655026    0.4342541306
13   
Frame  31 IRC: Energy =  -286.9359120249 ; +6.4635 kcal/mol
C        1.5317212458    0.3750815399   -0.6054676902
C        1.1457493580   -0.9339678206   -0.4642455387
C       -0.1181451618   -1.3991679283   -0.0066438418
C       -1.2766311652   -0.6604055935    0.2239036482
C       -0.1934749365    1.6087321114    0.4696852317
N        1.0312552264    1.4846488537    0.0714920428
H        2.4276166084    0.5888334104   -1.1684317668
H        1.8555361510   -1.7125152640   -0.7468209745
H       -0.2497205186   -2.4652548732   -0.0143892744
H       -2.1694786194   -1.2685700638    0.4217350787
H       -0.3194636147    2.4429425464    1.1748358041
C       -1.3501610058    0.7315591647    0.2868521498
H       -2.3148035675    1.2080839169    0.3574951312
13   
Frame  32 IRC: Energy =  -286.9332743776 ; +8.1186 kcal/mol
C        1.5459216164    0.3726854918   -0.6127606725
C        1.1537465838   -0.9332923935   -0.4669059349
C       -0.1159821720   -1.3845529601   -0.0073725674
C       -1.2774168763   -0.6510070142    0.2317382921
C       -0.1942620010    1.5998700542    0.4736705990
N        1.0271618010    1.4703213084    0.0699377879
H        2.4283709067    0.6040779217   -1.1957343731
H        1.8583263137   -1.7162515588   -0.7471648750
H       -0.2512121950   -2.4502477110    0.0064667537
H       -2.1628701027   -1.2609995610    0.4724503854
H       -0.3132880806    2.3803059019    1.2573748418
C       -1.3636619646    0.7460274024    0.2325356120
H       -2.3348338292    1.2230631182    0.2857641511
13   
Frame  33 IRC: Energy =  -286.9303412885 ; +9.9592 kcal/mol
C        1.5606841535    0.3720973909   -0.6197401873
C        1.1614739076   -0.9326469052   -0.4712010411
C       -0.1119248553   -1.3690223087   -0.0078196926
C       -1.2743536215   -0.6335917003    0.2395063658
C       -0.1975217165    1.5754499958    0.4861292857
N        1.0209492507    1.4464982376    0.0692246091
H        2.4320917903    0.6220948315   -1.2203211442
H        1.8611271850   -1.7185715123   -0.7516083209
H       -0.2526323266   -2.4356378495    0.0293940399
H       -2.1520384698   -1.2382609674    0.5189450215
H       -0.3173224860    2.3064777727    1.3268211243
C       -1.3765772213    0.7631300253    0.1793933611
H       -2.3539555902    1.2419829897    0.2212765786
13   
Frame  34 IRC: Energy =  -286.9263625947 ; +12.4558 kcal/mol
C        1.5793870528    0.3725971856   -0.6245269095
C        1.1676823209   -0.9303877015   -0.4768141423
C       -0.1057351778   -1.3526834402   -0.0117493821
C       -1.2693328687   -0.6086890672    0.2491010485
C       -0.1971911551    1.5450284189    0.4937504426
N        1.0081345482    1.4137124893    0.0665440282
H        2.4444012712    0.6401566555   -1.2347333068
H        1.8641041921   -1.7212930140   -0.7598105945
H       -0.2553206560   -2.4204051340    0.0471709581
H       -2.1366217816   -1.2074073198    0.5641941181
H       -0.3355908038    2.2180936442    1.3807687689
C       -1.3916459350    0.7842784771    0.1338797249
H       -2.3722710070    1.2669988062    0.1722252459
13   
Frame  35 IRC: Energy =  -286.9210431073 ; +15.7939 kcal/mol
C        1.5933191383    0.3769500456   -0.6319485638
C        1.1754842692   -0.9279220785   -0.4825330870
C       -0.0990421659   -1.3352917698   -0.0092661138
C       -1.2633222287   -0.5779244425    0.2545411652
C       -0.2046703177    1.4927425128    0.5192572920
N        1.0037991676    1.3788065919    0.0689393907
H        2.4457970765    0.6599605918   -1.2554903777
H        1.8675880708   -1.7230559114   -0.7683046137
H       -0.2561881716   -2.4010867549    0.0721471908
H       -2.1203030810   -1.1650477348    0.5982052139
H       -0.3483118474    2.1370486893    1.4219555477
C       -1.4067434684    0.8005242402    0.0908335188
H       -2.3874064416    1.2842960204    0.1216634367
13   
Frame  36 IRC: Energy =  -286.9122961978 ; +21.2826 kcal/mol
C        1.6117080002    0.3919622810   -0.6303800907
C        1.1772057604   -0.9332578250   -0.4884576971
C       -0.0948212480   -1.3236712578   -0.0183434626
C       -1.2504713815   -0.5475921073    0.2642258536
C       -0.2063831356    1.4653296364    0.5091016378
N        0.9797890343    1.3354335154    0.0602793632
H        2.4643609237    0.6714312057   -1.2433750770
H        1.8693087616   -1.7249900577   -0.7794070260
H       -0.2613112022   -2.3900752020    0.0732873204
H       -2.1024985878   -1.1317117702    0.6324410938
H       -0.3999708793    2.0329506431    1.4449649354
C       -1.4081982943    0.8282365763    0.0697318062
H       -2.3787177516    1.3259543621    0.1059313430
13   
Frame  37 IRC: Energy =  -286.9032471874 ; +26.9610 kcal/mol
C        1.6189555469    0.3999990318   -0.6318956392
C        1.1774128380   -0.9418119414   -0.5007908441
C       -0.0915060822   -1.3226888392   -0.0249999425
C       -1.2502591808   -0.5391177986    0.2676343140
C       -0.1820226049    1.5048215952    0.5289166952
N        0.9510048033    1.2924466998    0.0582435946
H        2.4679408532    0.6933493115   -1.2411246790
H        1.8730261530   -1.7255360437   -0.7937143921
H       -0.2549526076   -2.3910824249    0.0874302698
H       -2.0810527454   -1.1130522996    0.6889222986
H       -0.3481013734    2.0136521576    1.4864980649
C       -1.4637373641    0.8087072176    0.0171066507
H       -2.4167082359    1.3203133338    0.0577736091
13   
Frame  38 IRC: Energy =  -286.8600320991 ; +54.0789 kcal/mol
C        1.7208615581    0.3673934654   -0.5916974129
C        1.2036526997   -0.9484610579   -0.5454399208
C       -0.0858290885   -1.2736265951   -0.0953897282
C       -1.2504407982   -0.4894481110    0.2934472362
C       -0.1785696729    1.5623684605    0.3467608536
N        0.9183108847    1.1635484145   -0.0018128365
H        2.6311936293    0.7055896210   -1.0823682267
H        1.8810981648   -1.7507174545   -0.8313292405
H       -0.2766516856   -2.3387463380   -0.0183495815
H       -2.0259728243   -1.1030039006    0.7604083451
H       -0.4118731705    1.9226561664    1.3518773088
C       -1.5945463503    0.8320821343    0.1381780201
H       -2.5312333463    1.3503651951    0.2757151832
13   