13   
Frame   0 IRC: Energy =  -286.9462121985 ; +0.0000 kcal/mol
C       -0.2350070000   -0.1135220000   -0.0000000000
C        0.1013480000    0.3690010000   -0.0000000000
C       -0.1646600000    0.0798320000   -0.0000000000
C       -0.1654920000    0.0772920000    0.0000000000
C       -0.2345580000   -0.1149790000    0.0000000000
N       -0.1765740000    0.3754910000   -0.0000000000
H        0.1269540000    0.0032530000   -0.0000000000
H        0.1273120000   -0.0186170000   -0.0000000000
H        0.1327530000   -0.0068060000   -0.0000000000
H        0.1326370000   -0.0067030000    0.0000000000
H        0.1271370000    0.0033260000    0.0000000000
C        0.1007650000    0.3711390000    0.0000000000
H        0.1273850000   -0.0187070000    0.0000000000
13   
Frame   1 IRC: Energy =  -286.9462101115 ; +0.0013 kcal/mol
C       -0.2347770000   -0.1137220000   -0.0000000000
C        0.1009250000    0.3693260000   -0.0000000000
C       -0.1640850000    0.0793960000   -0.0000000000
C       -0.1661830000    0.0777200000    0.0000000000
C       -0.2348230000   -0.1148070000    0.0000000000
N       -0.1766900000    0.3757040000   -0.0000000000
H        0.1269890000    0.0032630000   -0.0000000000
H        0.1272930000   -0.0186330000   -0.0000000000
H        0.1327880000   -0.0067790000   -0.0000000000
H        0.1326010000   -0.0067220000    0.0000000000
H        0.1271240000    0.0033160000    0.0000000000
C        0.1014330000    0.3706220000    0.0000000000
H        0.1274080000   -0.0186850000    0.0000000000
13   
Frame   2 IRC: Energy =  -286.9462044218 ; +0.0049 kcal/mol
C       -0.2343700000   -0.1155820000   -0.0000000000
C        0.1010110000    0.3723530000   -0.0000000000
C       -0.1644240000    0.0757620000   -0.0000000000
C       -0.1663840000    0.0813700000    0.0000000000
C       -0.2353200000   -0.1131020000    0.0000000000
N       -0.1766420000    0.3758110000   -0.0000000000
H        0.1269830000    0.0033510000   -0.0000000000
H        0.1273800000   -0.0187670000   -0.0000000000
H        0.1328080000   -0.0066130000   -0.0000000000
H        0.1326060000   -0.0068770000    0.0000000000
H        0.1271100000    0.0032360000    0.0000000000
C        0.1017910000    0.3676210000    0.0000000000
H        0.1274510000   -0.0185620000    0.0000000000
13   
Frame   3 IRC: Energy =  -286.9461949207 ; +0.0108 kcal/mol
C       -0.2340400000   -0.1186810000   -0.0000000000
C        0.1019860000    0.3774230000   -0.0000000000
C       -0.1660520000    0.0696250000   -0.0000000000
C       -0.1655170000    0.0875310000    0.0000000000
C       -0.2358760000   -0.1101080000    0.0000000000
N       -0.1763800000    0.3756370000   -0.0000000000
H        0.1269030000    0.0034980000   -0.0000000000
H        0.1275590000   -0.0189890000   -0.0000000000
H        0.1327730000   -0.0063460000   -0.0000000000
H        0.1326860000   -0.0071380000    0.0000000000
H        0.1271010000    0.0030980000    0.0000000000
C        0.1013770000    0.3628140000    0.0000000000
H        0.1274790000   -0.0183640000    0.0000000000
13   
Frame   4 IRC: Energy =  -286.9461828589 ; +0.0184 kcal/mol
C       -0.2339080000   -0.1213460000   -0.0000000000
C        0.1032420000    0.3818310000   -0.0000000000
C       -0.1681220000    0.0641330000   -0.0000000000
C       -0.1639680000    0.0931450000    0.0000000000
C       -0.2360400000   -0.1073660000    0.0000000000
N       -0.1760170000    0.3750670000   -0.0000000000
H        0.1268020000    0.0036240000   -0.0000000000
H        0.1277150000   -0.0191790000   -0.0000000000
H        0.1326920000   -0.0061150000   -0.0000000000
H        0.1328260000   -0.0073780000    0.0000000000
H        0.1271190000    0.0029730000    0.0000000000
C        0.1001710000    0.3588120000    0.0000000000
H        0.1274870000   -0.0182000000    0.0000000000
13   
Frame   5 IRC: Energy =  -286.9461691626 ; +0.0270 kcal/mol
C       -0.2341050000   -0.1227240000   -0.0000000000
C        0.1041750000    0.3840890000   -0.0000000000
C       -0.1695840000    0.0610960000   -0.0000000000
C       -0.1622850000    0.0962890000    0.0000000000
C       -0.2359540000   -0.1058320000    0.0000000000
N       -0.1758090000    0.3745600000   -0.0000000000
H        0.1267230000    0.0036900000   -0.0000000000
H        0.1277620000   -0.0192720000   -0.0000000000
H        0.1326010000   -0.0059960000   -0.0000000000
H        0.1329660000   -0.0075130000    0.0000000000
H        0.1271150000    0.0029040000    0.0000000000
C        0.0989450000    0.3568280000    0.0000000000
H        0.1274510000   -0.0181180000    0.0000000000
13   
Frame   6 IRC: Energy =  -286.9461525563 ; +0.0374 kcal/mol
C       -0.2343980000   -0.1217070000   -0.0000000000
C        0.1038180000    0.3823280000   -0.0000000000
C       -0.1693140000    0.0628730000   -0.0000000000
C       -0.1614900000    0.0947160000    0.0000000000
C       -0.2354620000   -0.1068370000    0.0000000000
N       -0.1757930000    0.3740870000   -0.0000000000
H        0.1267360000    0.0036440000   -0.0000000000
H        0.1276440000   -0.0191890000   -0.0000000000
H        0.1325550000   -0.0060860000   -0.0000000000
H        0.1330760000   -0.0074500000    0.0000000000
H        0.1271080000    0.0029520000    0.0000000000
C        0.0981050000    0.3588700000    0.0000000000
H        0.1274150000   -0.0182020000    0.0000000000
13   
Frame   7 IRC: Energy =  -286.9461357565 ; +0.0480 kcal/mol
C       -0.2346440000   -0.1194010000   -0.0000000000
C        0.1023590000    0.3783700000   -0.0000000000
C       -0.1672930000    0.0674400000   -0.0000000000
C       -0.1620960000    0.0901540000    0.0000000000
C       -0.2355480000   -0.1092840000    0.0000000000
N       -0.1760510000    0.3743150000   -0.0000000000
H        0.1268250000    0.0035370000   -0.0000000000
H        0.1274460000   -0.0190100000   -0.0000000000
H        0.1325810000   -0.0062900000   -0.0000000000
H        0.1330890000   -0.0072550000    0.0000000000
H        0.1270090000    0.0030650000    0.0000000000
C        0.0989390000    0.3627180000    0.0000000000
H        0.1273820000   -0.0183600000    0.0000000000
13   
Frame   8 IRC: Energy =  -286.9461144132 ; +0.0614 kcal/mol
C       -0.2343740000   -0.1150650000   -0.0000000000
C        0.0991490000    0.3711380000   -0.0000000000
C       -0.1631600000    0.0760800000   -0.0000000000
C       -0.1649320000    0.0815720000    0.0000000000
C       -0.2360010000   -0.1138530000    0.0000000000
N       -0.1762160000    0.3746440000   -0.0000000000
H        0.1270150000    0.0033360000   -0.0000000000
H        0.1271950000   -0.0186930000   -0.0000000000
H        0.1327150000   -0.0066660000   -0.0000000000
H        0.1330320000   -0.0068890000    0.0000000000
H        0.1268940000    0.0032790000    0.0000000000
C        0.1012140000    0.3697730000    0.0000000000
H        0.1274680000   -0.0186570000    0.0000000000
13   
Frame   9 IRC: Energy =  -286.9460896424 ; +0.0769 kcal/mol
C       -0.2340650000   -0.1120500000   -0.0000000000
C        0.0963250000    0.3659460000   -0.0000000000
C       -0.1594060000    0.0823680000   -0.0000000000
C       -0.1679370000    0.0748390000    0.0000000000
C       -0.2373640000   -0.1172940000    0.0000000000
N       -0.1763970000    0.3758860000   -0.0000000000
H        0.1271830000    0.0031950000   -0.0000000000
H        0.1270750000   -0.0184640000   -0.0000000000
H        0.1328730000   -0.0069300000   -0.0000000000
H        0.1329280000   -0.0065930000    0.0000000000
H        0.1266890000    0.0034410000    0.0000000000
C        0.1044990000    0.3745170000    0.0000000000
H        0.1275970000   -0.0188610000    0.0000000000
13   
Frame  10 IRC: Energy =  -286.9460563246 ; +0.0978 kcal/mol
C       -0.2331950000   -0.1112700000   -0.0000000000
C        0.0933840000    0.3644410000   -0.0000000000
C       -0.1561540000    0.0845120000   -0.0000000000
C       -0.1705220000    0.0720090000    0.0000000000
C       -0.2386690000   -0.1189590000    0.0000000000
N       -0.1759050000    0.3772690000   -0.0000000000
H        0.1273050000    0.0031560000   -0.0000000000
H        0.1270850000   -0.0183920000   -0.0000000000
H        0.1330450000   -0.0070180000   -0.0000000000
H        0.1328520000   -0.0064630000    0.0000000000
H        0.1266740000    0.0035400000    0.0000000000
C        0.1062600000    0.3761120000    0.0000000000
H        0.1278400000   -0.0189370000    0.0000000000
13   
Frame  11 IRC: Energy =  -286.9460281014 ; +0.1155 kcal/mol
C       -0.2335880000   -0.1041550000   -0.0000000000
C        0.0930670000    0.3543100000   -0.0000000000
C       -0.1561850000    0.0988470000   -0.0000000000
C       -0.1692980000    0.0593930000    0.0000000000
C       -0.2384180000   -0.1235050000    0.0000000000
N       -0.1761870000    0.3746460000   -0.0000000000
H        0.1273970000    0.0028060000   -0.0000000000
H        0.1270510000   -0.0179980000   -0.0000000000
H        0.1328060000   -0.0076600000   -0.0000000000
H        0.1327960000   -0.0059300000    0.0000000000
H        0.1265190000    0.0037500000    0.0000000000
C        0.1066120000    0.3847540000    0.0000000000
H        0.1274300000   -0.0192570000    0.0000000000
13   
Frame  12 IRC: Energy =  -286.9459576341 ; +0.1597 kcal/mol
C       -0.2331310000   -0.1082310000   -0.0000000000
C        0.0928580000    0.3608520000   -0.0000000000
C       -0.1561590000    0.0926350000   -0.0000000000
C       -0.1678060000    0.0644520000    0.0000000000
C       -0.2393640000   -0.1203380000    0.0000000000
N       -0.1754900000    0.3760880000   -0.0000000000
H        0.1273550000    0.0029790000   -0.0000000000
H        0.1271060000   -0.0182790000   -0.0000000000
H        0.1327390000   -0.0074050000   -0.0000000000
H        0.1327490000   -0.0061540000    0.0000000000
H        0.1268350000    0.0036390000    0.0000000000
C        0.1050920000    0.3787150000    0.0000000000
H        0.1272170000   -0.0189540000    0.0000000000
13   
Frame  13 IRC: Energy =  -286.9458257602 ; +0.2425 kcal/mol
C       -0.2331350000   -0.1126580000   -0.0000000000
C        0.0940600000    0.3683910000   -0.0000000000
C       -0.1576420000    0.0840410000   -0.0000000000
C       -0.1641860000    0.0731110000    0.0000000000
C       -0.2369790000   -0.1154880000    0.0000000000
N       -0.1753110000    0.3752730000   -0.0000000000
H        0.1272390000    0.0031830000   -0.0000000000
H        0.1268720000   -0.0185700000   -0.0000000000
H        0.1325710000   -0.0070480000   -0.0000000000
H        0.1327730000   -0.0065490000    0.0000000000
H        0.1274290000    0.0034220000    0.0000000000
C        0.0995000000    0.3714720000    0.0000000000
H        0.1268090000   -0.0185790000    0.0000000000
13   
Frame  14 IRC: Energy =  -286.9456478239 ; +0.3542 kcal/mol
C       -0.2328510000   -0.1189420000   -0.0000000000
C        0.0939080000    0.3783560000   -0.0000000000
C       -0.1571130000    0.0703650000   -0.0000000000
C       -0.1617040000    0.0867280000    0.0000000000
C       -0.2341110000   -0.1089160000    0.0000000000
N       -0.1757750000    0.3753980000   -0.0000000000
H        0.1271350000    0.0034910000   -0.0000000000
H        0.1264440000   -0.0189030000   -0.0000000000
H        0.1325920000   -0.0064420000   -0.0000000000
H        0.1327280000   -0.0071380000    0.0000000000
H        0.1280060000    0.0031030000    0.0000000000
C        0.0941910000    0.3609750000    0.0000000000
H        0.1265510000   -0.0180740000    0.0000000000
13   
Frame  15 IRC: Energy =  -286.9454584127 ; +0.4730 kcal/mol
C       -0.2319990000   -0.1211330000   -0.0000000000
C        0.0916580000    0.3814360000   -0.0000000000
C       -0.1540020000    0.0639990000   -0.0000000000
C       -0.1621310000    0.0937360000    0.0000000000
C       -0.2318040000   -0.1063380000    0.0000000000
N       -0.1765970000    0.3751410000   -0.0000000000
H        0.1271190000    0.0036220000   -0.0000000000
H        0.1260090000   -0.0189220000   -0.0000000000
H        0.1328100000   -0.0061360000   -0.0000000000
H        0.1325650000   -0.0074260000    0.0000000000
H        0.1283430000    0.0029550000    0.0000000000
C        0.0914280000    0.3569360000    0.0000000000
H        0.1266030000   -0.0178710000    0.0000000000
13   
Frame  16 IRC: Energy =  -286.9452488282 ; +0.6045 kcal/mol
C       -0.2309480000   -0.1191230000   -0.0000000000
C        0.0890250000    0.3775120000   -0.0000000000
C       -0.1505360000    0.0665990000   -0.0000000000
C       -0.1643740000    0.0916460000    0.0000000000
C       -0.2315850000   -0.1081690000    0.0000000000
N       -0.1778330000    0.3754160000   -0.0000000000
H        0.1271050000    0.0035620000   -0.0000000000
H        0.1258690000   -0.0186380000   -0.0000000000
H        0.1331270000   -0.0062070000   -0.0000000000
H        0.1322490000   -0.0072880000    0.0000000000
H        0.1281710000    0.0030100000    0.0000000000
C        0.0928660000    0.3596620000    0.0000000000
H        0.1268640000   -0.0179830000    0.0000000000
13   
Frame  17 IRC: Energy =  -286.9449472066 ; +0.7938 kcal/mol
C       -0.2306220000   -0.1079170000   -0.0000000000
C        0.0892210000    0.3590640000   -0.0000000000
C       -0.1525250000    0.0886390000   -0.0000000000
C       -0.1647480000    0.0702600000    0.0000000000
C       -0.2308090000   -0.1183020000    0.0000000000
N       -0.1786830000    0.3744960000   -0.0000000000
H        0.1270100000    0.0030830000   -0.0000000000
H        0.1265240000   -0.0177080000   -0.0000000000
H        0.1333790000   -0.0071250000   -0.0000000000
H        0.1319580000   -0.0062700000    0.0000000000
H        0.1275820000    0.0034590000    0.0000000000
C        0.0942570000    0.3770700000    0.0000000000
H        0.1274550000   -0.0187490000    0.0000000000
13   
Frame  18 IRC: Energy =  -286.9445927047 ; +1.0162 kcal/mol
C       -0.2309420000   -0.0892640000   -0.0000000000
C        0.0924820000    0.3303100000   -0.0000000000
C       -0.1611440000    0.1246240000   -0.0000000000
C       -0.1601860000    0.0364620000    0.0000000000
C       -0.2293240000   -0.1313120000    0.0000000000
N       -0.1789340000    0.3717320000   -0.0000000000
H        0.1269020000    0.0022370000   -0.0000000000
H        0.1279870000   -0.0163170000   -0.0000000000
H        0.1331930000   -0.0086820000   -0.0000000000
H        0.1319600000   -0.0046380000    0.0000000000
H        0.1267300000    0.0040700000    0.0000000000
C        0.0934640000    0.4005600000    0.0000000000
H        0.1278100000   -0.0197840000    0.0000000000
13   
Frame  19 IRC: Energy =  -286.9442248374 ; +1.2471 kcal/mol
C       -0.2318550000   -0.0638850000   -0.0000000000
C        0.0977910000    0.2936790000   -0.0000000000
C       -0.1740880000    0.1696390000   -0.0000000000
C       -0.1527810000   -0.0036060000    0.0000000000
C       -0.2249540000   -0.1445720000    0.0000000000
N       -0.1775040000    0.3646010000   -0.0000000000
H        0.1268430000    0.0010600000   -0.0000000000
H        0.1297610000   -0.0145680000   -0.0000000000
H        0.1325620000   -0.0106870000   -0.0000000000
H        0.1323760000   -0.0027260000    0.0000000000
H        0.1263070000    0.0047110000    0.0000000000
C        0.0875910000    0.4273120000    0.0000000000
H        0.1279510000   -0.0209590000    0.0000000000
13   
Frame  20 IRC: Energy =  -286.9439595621 ; +1.4136 kcal/mol
C       -0.2306590000   -0.0437440000   -0.0000000000
C        0.0980780000    0.2660200000   -0.0000000000
C       -0.1787690000    0.2019700000   -0.0000000000
C       -0.1488940000   -0.0298380000    0.0000000000
C       -0.2233420000   -0.1518120000    0.0000000000
N       -0.1762690000    0.3585910000   -0.0000000000
H        0.1269730000    0.0001060000   -0.0000000000
H        0.1308690000   -0.0132250000   -0.0000000000
H        0.1318340000   -0.0121460000   -0.0000000000
H        0.1328300000   -0.0013830000    0.0000000000
H        0.1261340000    0.0050780000    0.0000000000
C        0.0836100000    0.4419850000    0.0000000000
H        0.1276060000   -0.0216030000    0.0000000000
13   
Frame  21 IRC: Energy =  -286.9437004600 ; +1.5761 kcal/mol
C       -0.2294200000   -0.0129770000   -0.0000000000
C        0.0968350000    0.2256760000   -0.0000000000
C       -0.1837830000    0.2452230000   -0.0000000000
C       -0.1449190000   -0.0650490000    0.0000000000
C       -0.2150560000   -0.1618320000    0.0000000000
N       -0.1736090000    0.3461860000   -0.0000000000
H        0.1275610000   -0.0013500000   -0.0000000000
H        0.1314780000   -0.0113420000   -0.0000000000
H        0.1311490000   -0.0140920000   -0.0000000000
H        0.1336710000    0.0002890000    0.0000000000
H        0.1269770000    0.0055540000    0.0000000000
C        0.0716410000    0.4664020000    0.0000000000
H        0.1274760000   -0.0226900000    0.0000000000
13   
Frame  22 IRC: Energy =  -286.9433508924 ; +1.7955 kcal/mol
C       -0.2262650000    0.0290230000   -0.0000000000
C        0.0838570000    0.1774390000   -0.0000000000
C       -0.1743820000    0.2914220000   -0.0000000000
C       -0.1399550000   -0.0967630000    0.0000000000
C       -0.2084640000   -0.1675560000    0.0000000000
N       -0.1713740000    0.3283110000    0.0000000000
H        0.1285110000   -0.0033930000   -0.0000000000
H        0.1315090000   -0.0089540000   -0.0000000000
H        0.1302290000   -0.0161660000   -0.0000000000
H        0.1342970000    0.0021690000    0.0000000000
H        0.1276260000    0.0059080000    0.0000000000
C        0.0572640000    0.4820180000    0.0000000000
H        0.1271470000   -0.0234590000    0.0000000000
13   
Frame  23 IRC: Energy =  -286.9429102618 ; +2.0720 kcal/mol
C       -0.2251530000    0.0776520000   -0.0000000000
C        0.0706000000    0.1251050000   -0.0000000000
C       -0.1634330000    0.3357020000   -0.0000000000
C       -0.1413760000   -0.1291730000    0.0000000000
C       -0.2011190000   -0.1691520000    0.0000000000
N       -0.1673500000    0.3047180000    0.0000000000
H        0.1296400000   -0.0057560000   -0.0000000000
H        0.1309700000   -0.0064260000   -0.0000000000
H        0.1298240000   -0.0181620000   -0.0000000000
H        0.1347140000    0.0039830000    0.0000000000
H        0.1284550000    0.0060220000    0.0000000000
C        0.0464270000    0.4997960000    0.0000000000
H        0.1278010000   -0.0243110000    0.0000000000
13   
Frame  24 IRC: Energy =  -286.9424290679 ; +2.3740 kcal/mol
C       -0.2255740000    0.1096920000   -0.0000000000
C        0.0565500000    0.0930810000   -0.0000000000
C       -0.1472540000    0.3593870000   -0.0000000000
C       -0.1490980000   -0.1462630000    0.0000000000
C       -0.2003270000   -0.1669410000    0.0000000000
N       -0.1651910000    0.2907570000    0.0000000000
H        0.1307560000   -0.0073160000   -0.0000000000
H        0.1301540000   -0.0048490000   -0.0000000000
H        0.1299840000   -0.0192320000   -0.0000000000
H        0.1345750000    0.0051000000    0.0000000000
H        0.1282310000    0.0059350000    0.0000000000
C        0.0485230000    0.5052610000    0.0000000000
H        0.1286700000   -0.0246100000    0.0000000000
13   
Frame  25 IRC: Energy =  -286.9420615326 ; +2.6046 kcal/mol
C       -0.2240300000    0.1278380000   -0.0000000000
C        0.0474070000    0.0741860000   -0.0000000000
C       -0.1356920000    0.3746890000   -0.0000000000
C       -0.1606820000   -0.1577760000    0.0000000000
C       -0.2055400000   -0.1649160000    0.0000000000
N       -0.1632490000    0.2829220000    0.0000000000
H        0.1311730000   -0.0082020000   -0.0000000000
H        0.1296520000   -0.0039720000   -0.0000000000
H        0.1303080000   -0.0198880000   -0.0000000000
H        0.1343490000    0.0056940000    0.0000000000
H        0.1274650000    0.0058050000    0.0000000000
C        0.0591840000    0.5083980000    0.0000000000
H        0.1296560000   -0.0247780000    0.0000000000
13   
Frame  26 IRC: Energy =  -286.9416772384 ; +2.8457 kcal/mol
C       -0.2257930000    0.1716450000   -0.0000000000
C        0.0436470000    0.0353640000   -0.0000000000
C       -0.1288910000    0.4060630000   -0.0000000000
C       -0.1612730000   -0.1763550000    0.0000000000
C       -0.2082090000   -0.1549860000    0.0000000000
N       -0.1608830000    0.2553060000    0.0000000000
H        0.1304620000   -0.0102850000   -0.0000000000
H        0.1295270000   -0.0019120000   -0.0000000000
H        0.1292950000   -0.0213500000   -0.0000000000
H        0.1338790000    0.0069470000    0.0000000000
H        0.1276810000    0.0052510000    0.0000000000
C        0.0606520000    0.5091360000    0.0000000000
H        0.1299080000   -0.0248230000    0.0000000000
13   
Frame  27 IRC: Energy =  -286.9411903846 ; +3.1512 kcal/mol
C       -0.2276910000    0.2131720000   -0.0000000000
C        0.0404910000   -0.0000110000   -0.0000000000
C       -0.1252340000    0.4291820000   -0.0000000000
C       -0.1585120000   -0.1885640000    0.0000000000
C       -0.2189730000   -0.1449890000    0.0000000000
N       -0.1533770000    0.2329590000    0.0000000000
H        0.1290500000   -0.0121670000   -0.0000000000
H        0.1304980000    0.0001860000   -0.0000000000
H        0.1277470000   -0.0223960000   -0.0000000000
H        0.1338830000    0.0078340000    0.0000000000
H        0.1265370000    0.0048140000    0.0000000000
C        0.0645340000    0.5044780000    0.0000000000
H        0.1310470000   -0.0244970000    0.0000000000
13   
Frame  28 IRC: Energy =  -286.9405651280 ; +3.5436 kcal/mol
C       -0.2322780000    0.2566080000   -0.0000000000
C        0.0448590000   -0.0358480000   -0.0000000000
C       -0.1290170000    0.4486320000   -0.0000000000
C       -0.1459770000   -0.1978090000    0.0000000000
C       -0.2195340000   -0.1310330000    0.0000000000
N       -0.1475570000    0.2048300000    0.0000000000
H        0.1275270000   -0.0140580000   -0.0000000000
H        0.1315590000    0.0023700000   -0.0000000000
H        0.1256810000   -0.0233330000   -0.0000000000
H        0.1340260000    0.0087220000    0.0000000000
H        0.1269990000    0.0041230000    0.0000000000
C        0.0525270000    0.5009560000    0.0000000000
H        0.1311850000   -0.0241580000    0.0000000000
13   
Frame  29 IRC: Energy =  -286.9395820702 ; +4.1605 kcal/mol
C       -0.2400630000    0.2919700000   -0.0000000000
C        0.0547840000   -0.0629430000   -0.0000000000
C       -0.1370620000    0.4560310000   -0.0000000000
C       -0.1260960000   -0.2022110000    0.0000000000
C       -0.2160560000   -0.1214310000    0.0000000000
N       -0.1413350000    0.1828040000    0.0000000000
H        0.1263770000   -0.0154680000   -0.0000000000
H        0.1329000000    0.0042570000   -0.0000000000
H        0.1233010000   -0.0237430000   -0.0000000000
H        0.1347500000    0.0095990000    0.0000000000
H        0.1282830000    0.0038250000    0.0000000000
C        0.0288750000    0.5012660000    0.0000000000
H        0.1313420000   -0.0239560000    0.0000000000
13   
Frame  30 IRC: Energy =  -286.9380764658 ; +5.1053 kcal/mol
C       -0.2491140000    0.3123600000   -0.0000000000
C        0.0714590000   -0.0799660000   -0.0000000000
C       -0.1558330000    0.4541600000   -0.0000000000
C       -0.1003030000   -0.2068890000    0.0000000000
C       -0.2021230000   -0.1154390000    0.0000000000
N       -0.1366000000    0.1650610000    0.0000000000
H        0.1263440000   -0.0161820000   -0.0000000000
H        0.1337580000    0.0055010000   -0.0000000000
H        0.1214120000   -0.0237130000   -0.0000000000
H        0.1358400000    0.0106520000    0.0000000000
H        0.1313620000    0.0038780000    0.0000000000
C       -0.0074930000    0.5149860000    0.0000000000
H        0.1312910000   -0.0244090000    0.0000000000
13   
Frame  31 IRC: Energy =  -286.9359120249 ; +6.4635 kcal/mol
C       -0.2600810000    0.3136800000   -0.0000000000
C        0.0876800000   -0.0839770000   -0.0000000000
C       -0.1861840000    0.4412450000   -0.0000000000
C       -0.0731860000   -0.2111140000    0.0000000000
C       -0.1776020000   -0.1140960000    0.0000000000
N       -0.1328490000    0.1542460000    0.0000000000
H        0.1275650000   -0.0160720000   -0.0000000000
H        0.1339790000    0.0058980000   -0.0000000000
H        0.1204060000   -0.0231380000   -0.0000000000
H        0.1368990000    0.0118650000    0.0000000000
H        0.1352560000    0.0044620000    0.0000000000
C       -0.0435330000    0.5424840000    0.0000000000
H        0.1316500000   -0.0254830000    0.0000000000
13   
Frame  32 IRC: Energy =  -286.9332743776 ; +8.1186 kcal/mol
C       -0.2726980000    0.3055180000   -0.0000000000
C        0.0966640000   -0.0840000000   -0.0000000000
C       -0.2273210000    0.4235530000   -0.0000000000
C       -0.0467980000   -0.2142110000    0.0000000000
C       -0.1450680000   -0.1098220000    0.0000000000
N       -0.1297990000    0.1433080000    0.0000000000
H        0.1295970000   -0.0156290000   -0.0000000000
H        0.1334340000    0.0057460000   -0.0000000000
H        0.1203220000   -0.0222460000    0.0000000000
H        0.1371130000    0.0131370000    0.0000000000
H        0.1380520000    0.0049480000    0.0000000000
C       -0.0659480000    0.5763170000    0.0000000000
H        0.1324500000   -0.0266190000    0.0000000000
13   
Frame  33 IRC: Energy =  -286.9303412885 ; +9.9592 kcal/mol
C       -0.2856530000    0.2891560000   -0.0000000000
C        0.0983640000   -0.0775340000   -0.0000000000
C       -0.2687910000    0.3974510000   -0.0000000000
C       -0.0218970000   -0.2098320000    0.0000000000
C       -0.1155040000   -0.1055550000    0.0000000000
N       -0.1278000000    0.1373570000    0.0000000000
H        0.1315310000   -0.0148760000   -0.0000000000
H        0.1325660000    0.0050960000   -0.0000000000
H        0.1207120000   -0.0209570000    0.0000000000
H        0.1366080000    0.0143200000    0.0000000000
H        0.1402040000    0.0054100000    0.0000000000
C       -0.0733880000    0.6072150000    0.0000000000
H        0.1330490000   -0.0272510000    0.0000000000
13   
Frame  34 IRC: Energy =  -286.9263625947 ; +12.4558 kcal/mol
C       -0.2924590000    0.2783060000   -0.0000000000
C        0.0985510000   -0.0775980000   -0.0000000000
C       -0.3058050000    0.3736450000   -0.0000000000
C       -0.0013230000   -0.2043500000    0.0000000000
C       -0.0898000000   -0.0923300000    0.0000000000
N       -0.1245750000    0.1261930000    0.0000000000
H        0.1336320000   -0.0144610000   -0.0000000000
H        0.1311470000    0.0044830000   -0.0000000000
H        0.1214830000   -0.0197370000    0.0000000000
H        0.1351260000    0.0152700000    0.0000000000
H        0.1409970000    0.0047110000    0.0000000000
C       -0.0806770000    0.6332650000    0.0000000000
H        0.1337040000   -0.0273990000    0.0000000000
13   
Frame  35 IRC: Energy =  -286.9210431073 ; +15.7939 kcal/mol
C       -0.3007130000    0.2537120000   -0.0000000000
C        0.0977670000   -0.0635740000   -0.0000000000
C       -0.3277930000    0.3362740000   -0.0000000000
C        0.0133430000   -0.1830220000    0.0000000000
C       -0.0749530000   -0.0832130000    0.0000000000
N       -0.1236990000    0.1242870000    0.0000000000
H        0.1350160000   -0.0133980000   -0.0000000000
H        0.1299030000    0.0033530000   -0.0000000000
H        0.1218610000   -0.0180710000    0.0000000000
H        0.1334380000    0.0162670000    0.0000000000
H        0.1430640000    0.0046200000    0.0000000000
C       -0.0821940000    0.6496560000    0.0000000000
H        0.1349610000   -0.0268900000    0.0000000000
13   
Frame  36 IRC: Energy =  -286.9122961978 ; +21.2826 kcal/mol
C       -0.2887850000    0.2479820000   -0.0000000000
C        0.0860640000   -0.0515490000   -0.0000000000
C       -0.3390150000    0.2994570000   -0.0000000000
C        0.0238040000   -0.1649260000    0.0000000000
C       -0.0603360000   -0.0716840000    0.0000000000
N       -0.1154450000    0.1194960000    0.0000000000
H        0.1362700000   -0.0130210000   -0.0000000000
H        0.1274630000    0.0021730000   -0.0000000000
H        0.1225450000   -0.0163560000    0.0000000000
H        0.1314490000    0.0160300000    0.0000000000
H        0.1442120000    0.0036680000    0.0000000000
C       -0.1035520000    0.6554470000    0.0000000000
H        0.1353260000   -0.0267170000    0.0000000000
13   
Frame  37 IRC: Energy =  -286.9032471874 ; +26.9610 kcal/mol
C       -0.2722610000    0.2426290000   -0.0000000000
C        0.0811780000   -0.0770000000   -0.0000000000
C       -0.3320120000    0.2746430000   -0.0000000000
C        0.0093360000   -0.1765060000    0.0000000000
C       -0.0804810000   -0.0331700000    0.0000000000
N       -0.0630740000    0.0918920000    0.0000000000
H        0.1381070000   -0.0125820000   -0.0000000000
H        0.1258270000    0.0025140000   -0.0000000000
H        0.1225550000   -0.0151860000    0.0000000000
H        0.1285560000    0.0205430000    0.0000000000
H        0.1495830000   -0.0012890000    0.0000000000
C       -0.1395790000    0.7085280000    0.0000000000
H        0.1322650000   -0.0250140000    0.0000000000
13   
Frame  38 IRC: Energy =  -286.8600320991 ; +54.0789 kcal/mol
C       -0.2499630000    0.3419870000   -0.0000000000
C        0.0606370000   -0.1286390000   -0.0000000000
C       -0.3583390000    0.3902360000   -0.0000000000
C        0.0116630000   -0.2072910000    0.0000000000
C       -0.1184460000   -0.0163570000    0.0000000000
N        0.0039540000    0.0700490000   -0.0000000000
H        0.1416730000   -0.0157230000   -0.0000000000
H        0.1219080000    0.0038440000   -0.0000000000
H        0.1213730000   -0.0193490000   -0.0000000000
H        0.1224320000    0.0142790000    0.0000000000
H        0.1454450000   -0.0033100000    0.0000000000
C       -0.1435670000    0.5933140000    0.0000000000
H        0.1412300000   -0.0230400000    0.0000000000
13   