13   
Frame   0 IRC: Energy =  -286.9462121985 ; +0.0000 kcal/mol
C        1.5946923947    0.3591172785   -0.4408924186
C        1.1285548471   -0.9423504393   -0.5025592229
C       -0.1857827342   -1.4358543184   -0.1788955891
C       -1.2471211881   -0.7048592692    0.2712553316
C       -0.2622270414    1.6374449189    0.3460690644
N        1.0200060253    1.5314231133   -0.0780792536
H        2.6350290854    0.4889117980   -0.7429440390
H        1.8492755458   -1.6831144196   -0.8386175907
H       -0.3357919603   -2.5054768898   -0.3076333120
H       -2.1714435720   -1.2419295732    0.4715289136
H       -0.5251016418    2.6658525330    0.5987115002
C       -1.2792609747    0.7144466683    0.5182814471
H       -2.2208287853    1.1163885995    0.8837751691
13   
Frame   1 IRC: Energy =  -286.9458467784 ; +0.2293 kcal/mol
C        1.5946003530    0.3654668572   -0.4479619346
C        1.1240214354   -0.9363822568   -0.4953837978
C       -0.1874722615   -1.4360581531   -0.1610880165
C       -1.2592591321   -0.7013352235    0.2491790862
C       -0.2589555269    1.6348571880    0.3451512103
N        1.0230916321    1.5373358784   -0.0798006118
H        2.6336142895    0.4893602916   -0.7670416160
H        1.8419532404   -1.6736703173   -0.8504512374
H       -0.3255399323   -2.5115127668   -0.2433793174
H       -2.1796895265   -1.2444482995    0.4340469653
H       -0.5083243265    2.6543773684    0.6459553131
C       -1.2826878678    0.7132771085    0.4915681196
H       -2.2153523769    1.1087323248    0.8792058371
13   
Frame   2 IRC: Energy =  -286.9449786223 ; +0.7741 kcal/mol
C        1.5861703075    0.3574888456   -0.4623877905
C        1.1378414973   -0.9480097055   -0.4666714756
C       -0.1646734467   -1.4448706375   -0.1221244058
C       -1.2514302568   -0.6942882291    0.2200548861
C       -0.2471441044    1.6362172782    0.3834879034
N        1.0327415383    1.5189990333   -0.0430298041
H        2.5937780393    0.5028164734   -0.8534153791
H        1.8382871677   -1.6686707299   -0.8604212510
H       -0.3077376203   -2.5213442937   -0.1766040479
H       -2.1947934642   -1.2205287028    0.3643011901
H       -0.4992930377    2.6508048714    0.6871415524
C       -1.2883127464    0.7273394180    0.4749780639
H       -2.2354338737    1.1040463785    0.8546905580
13   
Frame   3 IRC: Energy =  -286.9439498017 ; +1.4197 kcal/mol
C        1.5774273523    0.3539991893   -0.4749533081
C        1.1603049931   -0.9572007940   -0.4560813341
C       -0.1501099286   -1.4471456948   -0.0857807828
C       -1.2506684451   -0.6845467318    0.2099337094
C       -0.2408556767    1.6288091252    0.4047717309
N        1.0262247230    1.5186510504   -0.0076534622
H        2.5476834474    0.5193756167   -0.9369194560
H        1.8579905321   -1.6969502310   -0.8634468743
H       -0.2873654666   -2.5242839068   -0.1276264209
H       -2.2016995905   -1.1973012686    0.3234695515
H       -0.4854612530    2.6288557947    0.7611893939
C       -1.3017013807    0.7237862552    0.4557689927
H       -2.2517693066    1.1339515954    0.7973282600
13   
Frame   4 IRC: Energy =  -286.9432250641 ; +1.8745 kcal/mol
C        1.5766436375    0.3513324570   -0.5016890154
C        1.1606272315   -0.9555082450   -0.4560211840
C       -0.1463501688   -1.4450797406   -0.0652879562
C       -1.2550913319   -0.6799569229    0.2243993166
C       -0.2297209783    1.6274469922    0.4254234647
N        1.0222278054    1.5079890431    0.0109032091
H        2.5246958449    0.5408334983   -1.0084386291
H        1.8626755101   -1.7051190259   -0.8374917730
H       -0.2730872793   -2.5236974736   -0.0973731561
H       -2.2002794180   -1.2129424576    0.3205644420
H       -0.4515588535    2.6091875984    0.8601139508
C       -1.3172894961    0.7266523840    0.4211130952
H       -2.2734925036    1.1588618927    0.7037842353
13   
Frame   5 IRC: Energy =  -286.9416811280 ; +2.8433 kcal/mol
C        1.5649216219    0.3502717611   -0.5521631628
C        1.1441084203   -0.9457451614   -0.4646125576
C       -0.1333745676   -1.4461689016   -0.0394958875
C       -1.2520227229   -0.6690540651    0.2311105995
C       -0.2103648956    1.6148176676    0.4650574669
N        1.0190610519    1.4760816345    0.0402221320
H        2.5070731649    0.5633750897   -1.0620937307
H        1.8518300825   -1.6944797625   -0.7955741013
H       -0.2562991691   -2.5283645091   -0.0761951502
H       -2.1852198565   -1.2234538135    0.2968788999
H       -0.4169944142    2.5877086858    0.9063977468
C       -1.3322463524    0.7284425101    0.4153123280
H       -2.3004723632    1.1865688644    0.6351554170
13   
Frame   6 IRC: Energy =  -286.9400822079 ; +3.8466 kcal/mol
C        1.5349487210    0.3684484185   -0.5829078198
C        1.1359026203   -0.9353266186   -0.4643613843
C       -0.1223461469   -1.4280572941   -0.0178547322
C       -1.2627347721   -0.6621463090    0.2197966525
C       -0.1954398222    1.6017780838    0.4696983010
N        1.0292900834    1.4799476342    0.0625512594
H        2.4645119077    0.5684966707   -1.1000544394
H        1.8498275619   -1.6997077256   -0.7661334626
H       -0.2504380773   -2.5018911700   -0.0564476906
H       -2.1751612270   -1.2448793368    0.3233770822
H       -0.3718263424    2.5421706930    0.9827148232
C       -1.3353108982    0.7194330339    0.3902505730
H       -2.3012236082    1.1917339200    0.5393708376
13   
Frame   7 IRC: Energy =  -286.9381726912 ; +5.0449 kcal/mol
C        1.5267722595    0.3753712499   -0.5967762158
C        1.1392645432   -0.9336805437   -0.4636630632
C       -0.1191716027   -1.4118502821   -0.0092439270
C       -1.2719639385   -0.6614538610    0.2194101281
C       -0.1924757221    1.6054388424    0.4681612695
N        1.0319054236    1.4862951099    0.0701094141
H        2.4385061031    0.5773603197   -1.1372962170
H        1.8527132477   -1.7074689466   -0.7523363444
H       -0.2493503507   -2.4801216461   -0.0346156209
H       -2.1719171586   -1.2618706160    0.3734911787
H       -0.3391926499    2.4903161900    1.0848139555
C       -1.3412034659    0.7227750304    0.3390175521
H       -2.3038866886    1.1988891533    0.4389278903
13   
Frame   8 IRC: Energy =  -286.9354708844 ; +6.7403 kcal/mol
C        1.5340962255    0.3746808063   -0.6066874249
C        1.1470868758   -0.9338548570   -0.4646904839
C       -0.1177834067   -1.3967236081   -0.0067657195
C       -1.2767625736   -0.6588337025    0.2252139746
C       -0.1936065712    1.6072499525    0.4703517753
N        1.0305706103    1.4822526043    0.0712320972
H        2.4277427630    0.5913830203   -1.1729980656
H        1.8560027994   -1.7131401508   -0.7468784911
H       -0.2499699981   -2.4627449594   -0.0109011511
H       -2.1683733600   -1.2673039144    0.4302170985
H       -0.3184307706    2.4324667100    1.1886402706
C       -1.3524190105    0.7339789446    0.2777678323
H       -2.3181535833    1.2105891543    0.3454982878
13   
Frame   9 IRC: Energy =  -286.9322968221 ; +8.7320 kcal/mol
C        1.5508417532    0.3724894864   -0.6150868423
C        1.1563219873   -0.9330772617   -0.4683374307
C       -0.1146299279   -1.3793768221   -0.0075215877
C       -1.2763959385   -0.6452027458    0.2343272770
C       -0.1953484163    1.5917312074    0.4778228963
N        1.0250912492    1.4623814287    0.0697000959
H        2.4296110225    0.6100826931   -1.2039287828
H        1.8592598030   -1.7170247652   -0.7486458103
H       -0.2516855040   -2.4453784587    0.0141080815
H       -2.1592600785   -1.2534211217    0.4879463649
H       -0.3146326887    2.3557000706    1.2805202679
C       -1.3679664300    0.7517274555    0.2148240802
H       -2.3412068313    1.2293688335    0.2642713902
13   
Frame  10 IRC: Energy =  -286.9283546356 ; +11.2058 kcal/mol
C        1.5700229394    0.3723469498   -0.6221303073
C        1.1645739106   -0.9315188331   -0.4740037911
C       -0.1088342076   -1.3608639375   -0.0097818766
C       -1.2718466446   -0.6211572453    0.2442972106
C       -0.1973566596    1.5602598058    0.4899347038
N        1.0145505763    1.4301275626    0.0678861337
H        2.4382381960    0.6311135138   -1.2275174670
H        1.8626136728   -1.7199304204   -0.7557039039
H       -0.2539746710   -2.4280318058    0.0382704623
H       -2.1443405643   -1.2228550346    0.5415389317
H       -0.3264442754    2.2623455532    1.3537584187
C       -1.3841013751    0.7736899316    0.1566673602
H       -2.3631008973    1.2544739598    0.1967841249
13   
Frame  11 IRC: Energy =  -286.9228232180 ; +14.6768 kcal/mol
C        1.5886569120    0.3754934067   -0.6294649850
C        1.1728734291   -0.9287471734   -0.4806193021
C       -0.1012819122   -1.3411117099   -0.0100971135
C       -1.2653336264   -0.5882195015    0.2527206872
C       -0.2021674944    1.5102394429    0.5107216924
N        1.0052499573    1.3904874843    0.0681378078
H        2.4453299849    0.6533334122   -1.2485442416
H        1.8664222273   -1.7224659763   -0.7654621793
H       -0.2558978666   -2.4075514479    0.0637891565
H       -2.1257639630   -1.1792229257    0.5868237574
H       -0.3440548836    2.1641695335    1.4081728242
C       -1.4016912372    0.7950877659    0.1052384802
H       -2.3823415271    1.2785076891    0.1385834159
13   
Frame  12 IRC: Energy =  -286.9137709436 ; +20.3572 kcal/mol
C        1.6086076027    0.3894311892   -0.6306445383
C        1.1769155137   -0.9323582079   -0.4874587964
C       -0.0955329029   -1.3256304985   -0.0168130042
C       -1.2526380591   -0.5527061974    0.2625929965
C       -0.2060943512    1.4699515002    0.5108139006
N        0.9838371890    1.3427462996    0.0617394605
H        2.4612310234    0.6694972381   -1.2454177400
H        1.8690186499   -1.7246639569   -0.7775351379
H       -0.2604474494   -2.3919317710    0.0730950924
H       -2.1055004596   -1.1373322780    0.6266688586
H       -0.3912610671    2.0505017741    1.4410855083
C       -1.4079530078    0.8235642231    0.0732895956
H       -2.3801826815    1.3189306855    0.1085838042
13   
Frame  13 IRC: Energy =  -286.9032703921 ; +26.9464 kcal/mol
C        1.6189369618    0.3999784228   -0.6318917528
C        1.1774123069   -0.9417900057   -0.5007592177
C       -0.0915145834   -1.3226913584   -0.0249828730
C       -1.2502597250   -0.5391395296    0.2676255736
C       -0.1820850735    1.5047203244    0.5288658827
N        0.9510786158    1.2925569326    0.0582488150
H        2.4679316730    0.6932931061   -1.2411304498
H        1.8730166203   -1.7255346436   -0.7936777031
H       -0.2549689132   -2.3910798420    0.0873940024
H       -2.0811077398   -1.1131001488    0.6887774616
H       -0.3482343843    2.0137016454    1.4863915599
C       -1.4635949431    0.8087572975    0.0172415994
H       -2.4166108155    1.3203277993    0.0578971018
13   
Frame  14 IRC: Energy =  -286.8881937177 ; +36.4072 kcal/mol
C        1.6544533121    0.3886412647   -0.6178930580
C        1.1865531864   -0.9441280832   -0.5163438269
C       -0.0895285679   -1.3055985812   -0.0495193997
C       -1.2503224451   -0.5218159448    0.2766259431
C       -0.1808198165    1.5248673715    0.4654648418
N        0.9396162597    1.2475464922    0.0373236404
H        2.5248080452    0.6976130799   -1.1858237287
H        1.8758379437   -1.7343076931   -0.8068170839
H       -0.2625112273   -2.3728517621    0.0505830978
H       -2.0618663002   -1.1095520575    0.7138236254
H       -0.3703155318    1.9819547701    1.4396045016
C       -1.5093031420    0.8168495960    0.0592804439
H       -2.4566017165    1.3307815476    0.1336910032
13   
Frame  15 IRC: Energy =  -286.8731070695 ; +45.8742 kcal/mol
C        1.6900293156    0.3772584647   -0.6038596146
C        1.1957136805   -0.9464493300   -0.5319310891
C       -0.0875466952   -1.2884706557   -0.0740928987
C       -1.2503858488   -0.5044759570    0.2856373900
C       -0.1796143771    1.5449573295    0.4018731380
N        0.9282026155    1.2025473228    0.0163575778
H        2.5818005747    0.7018862458   -1.1304008930
H        1.8786559318   -1.7430986756   -0.8199486545
H       -0.2700865063   -2.3545809183    0.0136547133
H       -2.0426375673   -1.1060441008    0.7387798358
H       -0.3925786511    1.9501875204    1.3926075831
C       -1.5549693486    0.8250099205    0.1015471897
H       -2.4965831237    1.3412728338    0.2097757221
13   
Frame  16 IRC: Energy =  -286.8591672812 ; +54.6216 kcal/mol
C        1.7157440455    0.3676296176   -0.5919777686
C        1.2027889473   -0.9496521512   -0.5454712291
C       -0.0850423676   -1.2759916532   -0.0942636537
C       -1.2480010315   -0.4888595858    0.2923543539
C       -0.1827446037    1.5609282221    0.3525291780
N        0.9124336632    1.1617628494    0.0000169280
H        2.6242814654    0.7081853293   -1.0839833705
H        1.8818151709   -1.7503302554   -0.8317799478
H       -0.2757745643   -2.3408630319   -0.0148272651
H       -2.0246799859   -1.0981568749    0.7620473118
H       -0.4115351991    1.9193510586    1.3589464913
C       -1.5876592984    0.8316128700    0.1307969341
H       -2.5216262418    1.3543836054    0.2656120377
13   
Frame  17 IRC: Energy =  -286.8526815490 ; +58.6914 kcal/mol
C        1.6773650792    0.3694006497   -0.5940803060
C        1.1963112058   -0.9585847976   -0.5457060264
C       -0.0791423265   -1.2937284895   -0.0858186187
C       -1.2297039149   -0.4844459207    0.2841582440
C       -0.2140546442    1.5501271040    0.3957889304
N        0.8683572336    1.1483719410    0.0137393114
H        2.5724434491    0.7276519353   -1.0960961985
H        1.8871923833   -1.7474264422   -0.8351600433
H       -0.2691965624   -2.3567372521    0.0115884708
H       -2.0149842992   -1.0618064352    0.7743387997
H       -0.4090005705    1.8945642862    1.4119620745
C       -1.5360096100    0.8280936056    0.0754422196
H       -2.4495774234    1.3845198155    0.1898431424
13   
Frame  18 IRC: Energy =  -286.8461958169 ; +62.7613 kcal/mol
C        1.6389861130    0.3711716817   -0.5961828433
C        1.1898334642   -0.9675174439   -0.5459408237
C       -0.0732422855   -1.3114653258   -0.0773735836
C       -1.2114067984   -0.4800322555    0.2759621342
C       -0.2453646846    1.5393259858    0.4390486827
N        0.8242808039    1.1349810327    0.0274616947
H        2.5206054328    0.7471185413   -1.1082090264
H        1.8925695958   -1.7445226289   -0.8385401389
H       -0.2626185604   -2.3726114723    0.0380042067
H       -2.0052886125   -1.0254559955    0.7866302876
H       -0.4064659419    1.8697775137    1.4649776578
C       -1.4843599215    0.8245743413    0.0200875052
H       -2.3775286049    1.4146560256    0.1140742472
13   
Frame  19 IRC: Energy =  -286.8397100847 ; +66.8311 kcal/mol
C        1.6006071467    0.3729427137   -0.5982853807
C        1.1833557226   -0.9764500902   -0.5461756211
C       -0.0673422444   -1.3292021622   -0.0689285485
C       -1.1931096819   -0.4756185904    0.2677660244
C       -0.2766747251    1.5285248676    0.4823084350
N        0.7802043743    1.1215901244    0.0411840780
H        2.4687674164    0.7665851473   -1.1203218544
H        1.8979468083   -1.7416188157   -0.8419202344
H       -0.2560405584   -2.3884856926    0.0644199425
H       -1.9955929257   -0.9891055559    0.7989217755
H       -0.4039313133    1.8449907412    1.5179932410
C       -1.4327102331    0.8210550770   -0.0352672093
H       -2.3054797865    1.4447922356    0.0383053519
13   
Frame  20 IRC: Energy =  -286.8332243525 ; +70.9010 kcal/mol
C        1.5622281805    0.3747137457   -0.6003879181
C        1.1768779810   -0.9853827365   -0.5464104184
C       -0.0614422033   -1.3469389985   -0.0604835135
C       -1.1748125654   -0.4712049253    0.2595699145
C       -0.3079847655    1.5177237495    0.5255681874
N        0.7361279446    1.1081992161    0.0549064613
H        2.4169294001    0.7860517532   -1.1324346824
H        1.9033240208   -1.7387150025   -0.8453003299
H       -0.2494625564   -2.4043599128    0.0908356784
H       -1.9858972390   -0.9527551162    0.8112132634
H       -0.4013966847    1.8202039687    1.5710088243
C       -1.3810605446    0.8175358127   -0.0906219238
H       -2.2334309680    1.4749284457   -0.0374635434
13   
Frame  21 IRC: Energy =  -286.8285596461 ; +73.8282 kcal/mol
C        1.5361423525    0.3784609179   -0.6047038477
C        1.1674247703   -0.9878754095   -0.5442433153
C       -0.0606775319   -1.3621765052   -0.0531739368
C       -1.1760013951   -0.4846910125    0.2542862411
C       -0.2964964532    1.5502902576    0.5595668202
N        0.7240657270    1.1171728703    0.0641263468
H        2.3838676858    0.7904157284   -1.1475353653
H        1.9021877595   -1.7325910701   -0.8451293904
H       -0.2392050169   -2.4198226986    0.1091141382
H       -1.9845309347   -0.9529862790    0.8233592332
H       -0.3500638333    1.8533088160    1.6068775458
C       -1.3798717349    0.7912543550   -0.1324152352
H       -2.2268413950    1.4592400297   -0.0901292346
13   
Frame  22 IRC: Energy =  -286.8253322572 ; +75.8534 kcal/mol
C        1.5197593753    0.3837678376   -0.6107667857
C        1.1556230516   -0.9852850762   -0.5401804162
C       -0.0639661564   -1.3754413161   -0.0467605662
C       -1.1925702869   -0.5123051948    0.2513013244
C       -0.2512278301    1.6170863984    0.5862557441
N        0.7372720060    1.1437986496    0.0697924558
H        2.3656259184    0.7828593485   -1.1649943323
H        1.8959104788   -1.7239255299   -0.8421556545
H       -0.2260432554   -2.4349607434    0.1209699277
H       -1.9897389284   -0.9820909341    0.8353903470
H       -0.2602150338    1.9321069384    1.6292124214
C       -1.4185111908    0.7470069263   -0.1635046670
H       -2.2719181483    1.4073826958   -0.1245597985
13   
Frame  23 IRC: Energy =  -286.8221048683 ; +77.8786 kcal/mol
C        1.5033763980    0.3890747573   -0.6168297237
C        1.1438213330   -0.9826947429   -0.5361175171
C       -0.0672547808   -1.3887061270   -0.0403471955
C       -1.2091391786   -0.5399193772    0.2483164078
C       -0.2059592070    1.6838825392    0.6129446681
N        0.7504782850    1.1704244288    0.0754585648
H        2.3473841510    0.7753029686   -1.1824532992
H        1.8896331980   -1.7152599897   -0.8391819187
H       -0.2128814939   -2.4500987882    0.1328257171
H       -1.9949469221   -1.0111955891    0.8474214608
H       -0.1703662343    2.0109050607    1.6515472969
C       -1.4571506467    0.7027594976   -0.1945940989
H       -2.3169949015    1.3555253618   -0.1589903624
13   
Frame  24 IRC: Energy =  -286.8188774793 ; +79.9038 kcal/mol
C        1.4869934208    0.3943816770   -0.6228926617
C        1.1320196143   -0.9801044095   -0.5320546181
C       -0.0705434053   -1.4019709378   -0.0339338248
C       -1.2257080704   -0.5675335595    0.2453314912
C       -0.1606905839    1.7506786799    0.6396335921
N        0.7636845641    1.1970502081    0.0811246738
H        2.3291423837    0.7677465887   -1.1999122662
H        1.8833559172   -1.7065944495   -0.8362081829
H       -0.1997197324   -2.4652368330    0.1446815065
H       -2.0001549158   -1.0403002441    0.8594525746
H       -0.0805174349    2.0897031831    1.6738821724
C       -1.4957901026    0.6585120688   -0.2256835307
H       -2.3620716548    1.3036680278   -0.1934209263
13   
Frame  25 IRC: Energy =  -286.8165708336 ; +81.3513 kcal/mol
C        1.4778906859    0.3987873990   -0.6252476554
C        1.1212521400   -0.9767439350   -0.5278460577
C       -0.0754173591   -1.4131180448   -0.0318882453
C       -1.2432795898   -0.5953201544    0.2447012651
C       -0.1151823688    1.8184601494    0.6484128336
N        0.7806627655    1.2245690801    0.0815629434
H        2.3234235258    0.7561290848   -1.2064273114
H        1.8763832607   -1.6990418460   -0.8327352151
H       -0.1901223392   -2.4787021920    0.1449104067
H       -2.0070587792   -1.0764253044    0.8662838436
H       -0.0043771552    2.1675377195    1.6790877325
C       -1.5352329343    0.6195439287   -0.2382239956
H       -2.4089418524    1.2543241150   -0.2025905442
13   
Frame  26 IRC: Energy =  -286.8164488226 ; +81.4278 kcal/mol
C        1.4860616817    0.4010548616   -0.6188048608
C        1.1129386030   -0.9715561571   -0.5232918890
C       -0.0840528020   -1.4192405047   -0.0402060639
C       -1.2632300300   -0.6235158301    0.2496579805
C       -0.0691056770    1.8885794947    0.6146980189
N        0.8065905553    1.2542069809    0.0695971905
H        2.3474176025    0.7348758078   -1.1869758646
H        1.8677606956   -1.6941298921   -0.8280777267
H       -0.1889820733   -2.4881987924    0.1175523475
H       -2.0179864091   -1.1292075834    0.8607775124
H        0.0392371086    2.2430859689    1.6436508019
C       -1.5765819244    0.5931018839   -0.2067535826
H       -2.4600673308    1.2109437620   -0.1518238640
13   
Frame  27 IRC: Energy =  -286.8163268116 ; +81.5044 kcal/mol
C        1.4942326775    0.4033223243   -0.6123620662
C        1.1046250660   -0.9663683791   -0.5187377203
C       -0.0926882449   -1.4253629646   -0.0485238824
C       -1.2831804702   -0.6517115058    0.2546146959
C       -0.0230289852    1.9586988400    0.5809832041
N        0.8325183450    1.2838448817    0.0576314375
H        2.3714116793    0.7136225308   -1.1675244178
H        1.8591381306   -1.6892179382   -0.8234202382
H       -0.1878418075   -2.4976953928    0.0901942883
H       -2.0289140391   -1.1819898624    0.8552711813
H        0.0828513723    2.3186342183    1.6082138713
C       -1.6179309146    0.5666598390   -0.1752831697
H       -2.5111928092    1.1675634089   -0.1010571838
13   
Frame  28 IRC: Energy =  -286.8162048006 ; +81.5809 kcal/mol
C        1.5024036733    0.4055897869   -0.6059192716
C        1.0963115290   -0.9611806012   -0.5141835515
C       -0.1013236879   -1.4314854246   -0.0568417010
C       -1.3031309103   -0.6799071815    0.2595714114
C        0.0230477066    2.0288181853    0.5472683894
N        0.8584461348    1.3134827825    0.0456656846
H        2.3954057560    0.6923692538   -1.1480729710
H        1.8505155655   -1.6843059843   -0.8187627498
H       -0.1867015417   -2.5071919932    0.0628362291
H       -2.0398416691   -1.2347721414    0.8497648502
H        0.1264656361    2.3941824677    1.5727769407
C       -1.6592799047    0.5402177942   -0.1438127567
H       -2.5623182876    1.1241830558   -0.0502905037
13   
Frame  29 IRC: Energy =  -286.8160827896 ; +81.6575 kcal/mol
C        1.5105746691    0.4078572496   -0.5994764770
C        1.0879979920   -0.9559928233   -0.5096293828
C       -0.1099591308   -1.4376078845   -0.0651595196
C       -1.3230813505   -0.7081028572    0.2645281268
C        0.0691243985    2.0989375306    0.5135535746
N        0.8843739245    1.3431206833    0.0336999316
H        2.4193998328    0.6711159768   -1.1286215242
H        1.8418930005   -1.6793940305   -0.8141052613
H       -0.1855612758   -2.5166885936    0.0354781699
H       -2.0507692991   -1.2875544204    0.8442585190
H        0.1700798998    2.4697307170    1.5373400102
C       -1.7006288949    0.5137757493   -0.1123423437
H       -2.6134437660    1.0808027027    0.0004761765
13   
Frame  30 IRC: Energy =  -286.8159607786 ; +81.7341 kcal/mol
C        1.5187456649    0.4101247122   -0.5930336824
C        1.0796844550   -0.9508050453   -0.5050752140
C       -0.1185945737   -1.4437303444   -0.0734773381
C       -1.3430317907   -0.7362985329    0.2694848422
C        0.1152010903    2.1690568760    0.4798387598
N        0.9103017143    1.3727585842    0.0217341787
H        2.4433939095    0.6498626998   -1.1091700774
H        1.8332704354   -1.6744820766   -0.8094477729
H       -0.1844210100   -2.5261851940    0.0081201106
H       -2.0616969291   -1.3403366993    0.8387521879
H        0.2136941636    2.5452789664    1.5019030796
C       -1.7419778850    0.4873337045   -0.0808719307
H       -2.6645692445    1.0374223496    0.0512428567
13   
Frame  31 IRC: Energy =  -286.8152935733 ; +82.1527 kcal/mol
C        1.5298843563    0.4100740887   -0.5803180669
C        1.0742102911   -0.9473355822   -0.5000503294
C       -0.1269790988   -1.4479959787   -0.0853141000
C       -1.3579939257   -0.7597818890    0.2748698028
C        0.1452196715    2.2205026144    0.4327796453
N        0.9291623190    1.3951844568    0.0065488460
H        2.4689883233    0.6303768736   -1.0785425996
H        1.8267836688   -1.6719297826   -0.8045194619
H       -0.1882301530   -2.5322896832   -0.0287819392
H       -2.0726647868   -1.3881598971    0.8221246331
H        0.2336240721    2.6152089259    1.4477844011
C       -1.7671377773    0.4702414477   -0.0309642645
H       -2.6948669606    1.0059044056    0.1243834332
13   
Frame  32 IRC: Energy =  -286.8142946971 ; +82.7796 kcal/mol
C        1.5428284569    0.4086132486   -0.5637863567
C        1.0704634708   -0.9449114624   -0.4947390829
C       -0.1352109770   -1.4511320061   -0.0992916244
C       -1.3699214061   -0.7803984873    0.2805152880
C        0.1654692396    2.2605881926    0.3776024747
N        0.9437235747    1.4132228645   -0.0105951303
H        2.4955563081    0.6119662829   -1.0411161405
H        1.8215962235   -1.6708129968   -0.7994263950
H       -0.1950502878   -2.5363305686   -0.0714901124
H       -2.0836571173   -1.4329662187    0.7987314391
H        0.2391455123    2.6817209772    1.3823006096
C       -1.7824489698    0.4588371705    0.0301597753
H       -2.7124940277    0.9816030036    0.2111352554
13   
Frame  33 IRC: Energy =  -286.8132958208 ; +83.4064 kcal/mol
C        1.5557725575    0.4071524084   -0.5472546466
C        1.0667166504   -0.9424873426   -0.4894278364
C       -0.1434428553   -1.4542680334   -0.1132691489
C       -1.3818488866   -0.8010150857    0.2861607732
C        0.1857188076    2.3006737708    0.3224253042
N        0.9582848304    1.4312612721   -0.0277391067
H        2.5221242930    0.5935556921   -1.0036896814
H        1.8164087781   -1.6696962110   -0.7943333281
H       -0.2018704227   -2.5403714540   -0.1141982855
H       -2.0946494478   -1.4777725403    0.7753382452
H        0.2446669524    2.7482330285    1.3168168181
C       -1.7977601622    0.4474328933    0.0912838152
H       -2.7301210948    0.9573016016    0.2978870776
13   
Frame  34 IRC: Energy =  -286.8122969445 ; +84.0332 kcal/mol
C        1.5687166580    0.4056915683   -0.5307229364
C        1.0629698301   -0.9400632228   -0.4841165899
C       -0.1516747335   -1.4574040607   -0.1272466733
C       -1.3937763670   -0.8216316840    0.2918062583
C        0.2059683757    2.3407593490    0.2672481337
N        0.9728460860    1.4492996798   -0.0448830830
H        2.5486922779    0.5751451014   -0.9662632222
H        1.8112213327   -1.6685794251   -0.7892402612
H       -0.2086905575   -2.5444123394   -0.1569064587
H       -2.1056417783   -1.5225788619    0.7519450513
H        0.2501883926    2.8147450798    1.2513330266
C       -1.8130713547    0.4360286160    0.1524078550
H       -2.7477481619    0.9330001997    0.3846388998
13   
Frame  35 IRC: Energy =  -286.8111546439 ; +84.7500 kcal/mol
C        1.5693658254    0.4046377221   -0.5150565882
C        1.0568175199   -0.9390963371   -0.4820710459
C       -0.1579768299   -1.4639329985   -0.1389087138
C       -1.4040724417   -0.8439622457    0.2940379502
C        0.2433337950    2.3984895159    0.2068400515
N        0.9676427700    1.4600268679   -0.0655248993
H        2.5655552659    0.5642699975   -0.9191649273
H        1.8070900125   -1.6656489227   -0.7868326389
H       -0.2114962487   -2.5493911492   -0.1879127069
H       -2.1189608579   -1.5618476276    0.7207646130
H        0.2618248819    2.8674874543    1.1937335195
C       -1.8261962037    0.4157738767    0.2107021433
H       -2.7529274886    0.9131938464    0.4693932428
13   
Frame  36 IRC: Energy =  -286.8102099046 ; +85.3428 kcal/mol
C        1.5791801824    0.4031196466   -0.5063624784
C        1.0566712287   -0.9378537033   -0.4782667449
C       -0.1616509137   -1.4600908964   -0.1484578928
C       -1.4120400104   -0.8517074508    0.2933163294
C        0.2661512938    2.4312902901    0.1451007898
N        0.9682588483    1.4670262945   -0.0921880396
H        2.5884110186    0.5519919623   -0.8818332262
H        1.8066573810   -1.6680593608   -0.7758807611
H       -0.2165259048   -2.5443891483   -0.2116166758
H       -2.1366386342   -1.5880867467    0.6684703249
H        0.2561525445    2.8976778566    1.1330419233
C       -1.8329428128    0.4095390711    0.2849789467
H       -2.7616842213    0.8895421851    0.5696975046
13   
Frame  37 IRC: Energy =  -286.8091634773 ; +85.9994 kcal/mol
C        1.6004383587    0.3991338027   -0.5106089401
C        1.0664796385   -0.9368412548   -0.4764089783
C       -0.1624281719   -1.4412260334   -0.1626653936
C       -1.4154110384   -0.8342106919    0.2785830885
C        0.2743625510    2.4313039060    0.1007131333
N        0.9800747010    1.4658516086   -0.1194809947
H        2.6165612842    0.5414015520   -0.8694710985
H        1.8139320416   -1.6803276050   -0.7461529582
H       -0.2261555156   -2.5248730324   -0.2178610539
H       -2.1446169752   -1.5836876236    0.6189143451
H        0.2440389952    2.8985514808    1.0874342395
C       -1.8538868311    0.4194883071    0.3402709097
H       -2.7933890378    0.8454355838    0.6767337011
13   
Frame  38 IRC: Energy =  -286.8069173043 ; +87.4089 kcal/mol
C        1.6128954759    0.3910822837   -0.5162111389
C        1.0784310729   -0.9434021796   -0.4839259581
C       -0.1638386070   -1.4277859336   -0.1857973181
C       -1.4114719632   -0.8019940684    0.2325447605
C        0.2798009389    2.4212692611    0.0861247889
N        0.9845590294    1.4536849623   -0.1222197708
H        2.6316043263    0.5400022539   -0.8656844966
H        1.8273309495   -1.6962777197   -0.7249967829
H       -0.2325244895   -2.5122543392   -0.1791802920
H       -2.1418144555   -1.5380701916    0.5907990571
H        0.2320072822    2.9076189861    1.0625613880
C       -1.8896269850    0.4361316066    0.3150094686
H       -2.8073525747    0.7699950783    0.7909762941
13   