
Running Job 1 of 1 irc_product.in
qchem irc_product.in_55702.0 ./irc_product.d/ 1
/home/leeping/opt/qchem/5.0.2-openmp/exe/qcprog.exe_s irc_product.in_55702.0 ./irc_product.d/
Check license passed

                  Welcome to Q-Chem
     A Quantum Leap Into The Future Of Chemistry


 Q-Chem 5.0, Q-Chem, Inc., Pleasanton, CA (2017)

 Yihan Shao,  Zhengting Gan,  E. Epifanovsky,  A. T. B. Gilbert,  M. Wormit,  
 J. Kussmann,  A. W. Lange,  A. Behn,  Jia Deng,  Xintian Feng,  D. Ghosh,  
 M. Goldey,  P. R. Horn,  L. D. Jacobson,  I. Kaliman,  T. Kus,  A. Landau,  
 Jie Liu,  E. I. Proynov,  R. M. Richard,  R. P. Steele,  E. J. Sundstrom,  
 H. L. Woodcock III,  P. M. Zimmerman,  D. Zuev,  B. Albrecht,  E. Alguire,  
 S. A. Baeppler,  D. Barton,  Z. Benda,  Y. A. Bernard,  E. J. Berquist,  
 K. B. Bravaya,  H. Burton,  D. Casanova,  Chun-Min Chang,  Yunqing Chen,  
 A. Chien,  K. D. Closser,  M. P. Coons,  S. Dasgupta,  A. L. Dempwolff,  
 M. Diedenhofen,  Hainam Do,  R. G. Edgar,  Po-Tung Fang,  S. Fatehi,  
 Qingguo Feng,  J. Fosso-Tande,  Qinghui Ge,  A. Ghysels,  G. Gidofalvi,  
 J. Gomes,  J. Gonthier,  A. Gunina,  M. W. D. Hanson-Heine,  
 P. H. P. Harbach,  A. W. Hauser,  J. E. Herr,  E. G. Hohenstein,  
 Z. C. Holden,  Kerwin Hui,  T.-C. Jagau,  Hyunjun Ji,  B. Kaduk,  
 K. Khistyaev,  Jaehoon Kim,  P. Klunzinger,  K. Koh,  D. Kosenkov,  
 L. Koulias,  T. Kowalczyk,  C. M. Krauter,  A. Kunitsa,  Ka Un Lao,  
 A. Laurent,  K. V. Lawler,  Joonho Lee,  D. Lefrancois,  S. Lehtola,  
 D. S. Levine,  Yi-Pei Li,  You-Sheng Lin,  Fenglai Liu,  E. Livshits,  
 A. Luenser,  P. Manohar,  E. Mansoor,  S. F. Manzer,  Shan-Ping Mao,  
 Yuezhi Mao,  N. Mardirossian,  A. V. Marenich,  T. Markovich,  
 L. A. Martinez-Martinez,  S. A. Maurer,  N. J. Mayhall,  S. C. McKenzie,  
 J.-M. Mewes,  A. F. Morrison,  J. W. Mullinax,  K. Nanda,  
 T. S. Nguyen-Beck,  R. Olivares-Amaya,  J. A. Parkhill,  T. M. Perrine,  
 F. Plasser,  S. Prager,  A. Prociuk,  E. Ramos,  D. R. Rehn,  F. Rob,  
 M. Schneider,  N. Sergueev,  S. M. Sharada,  S. Sharma,  D. W. Small,  
 T. Stauch,  T. Stein,  Yu-Chuan Su,  A. J. W. Thom,  A. Tkatchenko,  
 T. Tsuchimochi,  L. Vogt,  O. Vydrov,  M. A. Watson,  J. Wenzel,  
 M. de Wergifosse,  T. A. Wesolowski,  A. White,  J. Witte,  A. Yamada,  
 Jun Yang,  K. Yao,  S. Yeganeh,  S. R. Yost,  Zhi-Qiang You,  A. Zech,  
 Igor Ying Zhang,  Xing Zhang,  Yan Zhao,  Ying Zhu,  B. R. Brooks,  
 G. K. L. Chan,  C. J. Cramer,  M. S. Gordon,  W. J. Hehre,  A. Klamt,  
 M. W. Schmidt,  C. D. Sherrill,  D. G. Truhlar,  A. Aspuru-Guzik,  R. Baer,  
 A. T. Bell,  N. A. Besley,  Jeng-Da Chai,  R. A. DiStasio Jr.,  A. Dreuw,  
 B. D. Dunietz,  T. R. Furlani,  Chao-Ping Hsu,  Yousung Jung,  Jing Kong,  
 D. S. Lambrecht,  WanZhen Liang,  C. Ochsenfeld,  V. A. Rassolov,  
 L. V. Slipchenko,  J. E. Subotnik,  T. Van Voorhis,  J. M. Herbert,  
 A. I. Krylov,  P. M. W. Gill,  M. Head-Gordon

 Contributors to earlier versions of Q-Chem not listed above: 
 R. D. Adamson,  B. Austin,  J. Baker,  G. J. O. Beran,  K. Brandhorst,  
 S. T. Brown,  E. F. C. Byrd,  A. K. Chakraborty,  C.-L. Cheng,  
 Siu Hung Chien,  D. M. Chipman,  D. L. Crittenden,  H. Dachsel,  
 R. J. Doerksen,  A. D. Dutoi,  L. Fusti-Molnar,  W. A. Goddard III,  
 A. Golubeva-Zadorozhnaya,  S. R. Gwaltney,  G. Hawkins,  A. Heyden,  
 S. Hirata,  G. Kedziora,  F. J. Keil,  C. Kelley,  Jihan Kim,  R. A. King,  
 R. Z. Khaliullin,  P. P. Korambath,  W. Kurlancheek,  A. M. Lee,  M. S. Lee,  
 S. V. Levchenko,  Ching Yeh Lin,  D. Liotard,  R. C. Lochan,  I. Lotan,  
 P. E. Maslen,  N. Nair,  D. P. O'Neill,  D. Neuhauser,  E. Neuscamman,  
 C. M. Oana,  R. Olson,  B. Peters,  R. Peverati,  P. A. Pieniazek,  
 Y. M. Rhee,  J. Ritchie,  M. A. Rohrdanz,  E. Rosta,  N. J. Russ,  
 H. F. Schaefer III,  N. E. Schultz,  N. Shenvi,  A. C. Simmonett,  A. Sodt,  
 D. Stuck,  K. S. Thanthiriwatte,  V. Vanovschi,  Tao Wang,  A. Warshel,  
 C. F. Williams,  Q. Wu,  X. Xu,  W. Zhang

 Please cite Q-Chem as follows:
 Y. Shao et al., Mol. Phys. 113, 184-215 (2015)
 DOI: 10.1080/00268976.2014.952696

 Q-Chem 5.0.2 for Intel X86 EM64T Linux

 Parts of Q-Chem use Armadillo 5.200.1 (Boston Tea Smuggler).
 http://arma.sourceforge.net/

 Q-Chem begins on Thu Mar  3 00:32:15 2022  

Host: 
0

     Scratch files written to ./irc_product.d//
 Dec517 15110_ 26548  26544 5633   
Processing $rem in /home/leeping/opt/qchem/5.0.2-openmp/config/preferences.
 MEM_STATIC 2000
 MEM_TOTAL  8000
 SYMMETRY   OFF
 SYM_IGNORE TRUE 

Checking the input file for inconsistencies... 	...done.

--------------------------------------------------------------
User input:
--------------------------------------------------------------
$molecule
0 2
C        1.6912549636    0.3586346560   -0.5137566479
C        1.2708136005   -0.9576066303   -0.4562766604
C       -0.0252422287   -1.4843084131   -0.0989833721
C       -1.1167115937   -0.8365109363    0.2963764033
C        0.2439539694    2.4114136485   -0.3063920572
N        0.9583530533    1.4279919887   -0.2213667538
H        2.7236042081    0.5767735663   -0.7765070323
H        2.0261696513   -1.6930983011   -0.7119558158
H       -0.1138252033   -2.5702206241   -0.1549849856
H       -2.9768428065    0.0670633472   -0.0357502653
H       -0.0210001259    3.0308101979    0.5640322183
C       -2.2245550728   -0.2603297666    0.6816983404
H       -2.4359724154   -0.0706127330    1.7338666285
$end

$rem
method                b3lyp
basis                 6-31+g(d,p)
unrestricted          true
symmetry              off
sym_ignore            true
incdft                false
incfock               0
scf_convergence       6
thresh                14
jobtype               sp
scf_guess             read
scf_algorithm         diis
max_scf_cycles        100
stability_analysis    true
max_cis_cycles        100
cis_n_roots           4
$end

--------------------------------------------------------------
 ----------------------------------------------------------------
             Standard Nuclear Orientation (Angstroms)
    I     Atom           X                Y                Z
 ----------------------------------------------------------------
    1      C       1.6912549636     0.3586346560    -0.5137566479
    2      C       1.2708136005    -0.9576066303    -0.4562766604
    3      C      -0.0252422287    -1.4843084131    -0.0989833721
    4      C      -1.1167115937    -0.8365109363     0.2963764033
    5      C       0.2439539694     2.4114136485    -0.3063920572
    6      N       0.9583530533     1.4279919887    -0.2213667538
    7      H       2.7236042081     0.5767735663    -0.7765070323
    8      H       2.0261696513    -1.6930983011    -0.7119558158
    9      H      -0.1138252033    -2.5702206241    -0.1549849856
   10      H      -2.9768428065     0.0670633472    -0.0357502653
   11      H      -0.0210001259     3.0308101979     0.5640322183
   12      C      -2.2245550728    -0.2603297666     0.6816983404
   13      H      -2.4359724154    -0.0706127330     1.7338666285
 ----------------------------------------------------------------
 Nuclear Repulsion Energy =   242.4780813586 hartrees
 There are       25 alpha and       24 beta electrons
 Requested basis set is 6-31+G(d,p)
 There are 53 shells and 163 basis functions

 Total QAlloc Memory Limit   8000 MB
 Mega-Array Size      1956 MB
 MEM_STATIC part      2000 MB

                       Distance Matrix (Angstroms)
             C (  1)   C (  2)   C (  3)   C (  4)   C (  5)   N (  6)
   C (  2)  1.382956
   C (  3)  2.552418  1.443895
   C (  4)  3.157430  2.506278  1.329382
   C (  5)  2.520234  3.525224  3.910516  3.572640
   N (  6)  1.328970  2.417415  3.076350  3.114791  1.218488
   H (  7)  1.087367  2.137164  3.501893  4.230423  3.120189  2.036876
   H (  8)  2.088315  1.084842  2.151190  3.410011  4.493083  3.334983
   H (  9)  3.459079  2.146748  1.090958  2.053109  4.996760  4.140009
   H ( 10)  4.701557  4.389690  3.335071  2.094479  3.992838  4.168015
   H ( 11)  3.351711  4.314775  4.563541  4.028448  1.100678  2.035930
   C ( 12)  4.140748  3.741495  2.635254  1.306819  3.769360  3.714413
   H ( 13)  4.719117  4.395879  3.342079  2.096050  4.183912  4.194067
             H (  7)   H (  8)   H (  9)   H ( 10)   H ( 11)   C ( 12)
   H (  8)  2.375479
   H (  9)  4.282624  2.378894
   H ( 10)  5.770929  5.346546  3.894400
   H ( 11)  3.918188  5.304183  5.647756  4.228539
   C ( 12)  5.226030  4.697207  3.238953  1.089888  3.962462
   H ( 13)  5.774281  5.340901  3.899765  1.855543  4.101150  1.089838

 
 A cutoff of  1.0D-14 yielded   1330 shell pairs
 There are     13180 function pairs
 Smallest overlap matrix eigenvalue = 2.04E-06

 Scale SEOQF with 1.000000e-01/1.000000e-01/1.000000e-01

 Standard Electronic Orientation quadrupole field applied
 Nucleus-field energy     =     0.0000000088 hartrees
 Guess MOs from SCF MO coefficient file
 Reading MOs from coefficient file
 Reading MOs from coefficient file
 An unrestricted hybrid HF-DFT SCF calculation will be
 performed using Pulay DIIS extrapolation
 Exchange:     0.2000 Hartree-Fock + 0.0800 Slater + 0.7200 B88
 Correlation:  0.1900 VWN1RPA + 0.8100 LYP
 Using SG-1 standard quadrature grid
 SCF converges when DIIS error is below 1.0E-06
Using Q-Chem read-in guess as SCF_GUESS READ specified.

 -------------------------------------------------------
 OpenMP BLAS3 based DFT computing Module                
 -------------------------------------------------------
 ---------------------------------------
  Cycle       Energy         DIIS Error
 ---------------------------------------
    1    -286.8552247687      3.74E-09
    2    -286.8552247687      6.15E-09 Convergence criterion met
 ---------------------------------------
 <S^2> = 0.7835
 SCF time:  CPU 5.69 s  wall 7.48 s
 SCF   energy in the final basis set = -286.85522477
 Total energy in the final basis set = -286.85522477
 
 Direct TDDFT/TDA calculation will be performed
 Exchange:     0.2000 Hartree-Fock + 0.0800 Slater + 0.7200 B88
 Correlation:  0.1900 VWN1RPA + 0.8100 LYP
 Using SG-1 standard quadrature grid
 CIS energy converged when residual is below 10e- 6
 ---------------------------------------------------
 Iter    Rts Conv    Rts Left    Ttl Dev     Max Dev
 ---------------------------------------------------
   1         0           4      0.003503    0.001785
   2         0           4      0.001170    0.000412
   3         0           4      0.000557    0.000198
   4         0           4      0.000295    0.000140
   5         0           4      0.000209    0.000132
   6         0           4      0.000154    0.000129
   7         1           3      0.000128    0.000120
   8         2           2      0.000066    0.000063
   9         3           1      0.000023    0.000022
  10         3           1      0.000009    0.000008
  11         3           1      0.000005    0.000004
  12         3           1      0.000002    0.000001
  13         4           0      0.000002    0.000000    Roots Converged
 ---------------------------------------------------
 
 ---------------------------------------------------
         TDDFT/TDA Excitation Energies              
 ---------------------------------------------------

 Excited state   1: excitation energy (eV) =    2.2129
 Total energy for state  1:                  -286.77390401 au
    <S**2>     :  0.8063
    Trans. Mom.: -0.1317 X  -0.1305 Y   0.0259 Z
    Strength   :     0.0019007680
    S(  1) --> V(  1) amplitude =  0.9578 alpha

 Excited state   2: excitation energy (eV) =    2.5454
 Total energy for state  2:                  -286.76168329 au
    <S**2>     :  0.8526
    Trans. Mom.: -0.0004 X  -0.1942 Y   0.1127 Z
    Strength   :     0.0031441960
    S(  1) --> V(  2) amplitude =  0.6497 alpha
    D( 24) --> S(  1) amplitude =  0.7404 beta

 Excited state   3: excitation energy (eV) =    3.5227
 Total energy for state  3:                  -286.72576801 au
    <S**2>     :  0.9845
    Trans. Mom.: -0.0047 X  -0.1430 Y   0.0218 Z
    Strength   :     0.0018077831
    D( 24) --> V(  1) amplitude =  0.2015 alpha
    S(  1) --> V(  1) amplitude =  0.1734 alpha
    S(  1) --> V(  3) amplitude =  0.8963 alpha
    S(  1) --> V(  6) amplitude =  0.1521 alpha
    D( 23) --> S(  1) amplitude = -0.1893 beta

 Excited state   4: excitation energy (eV) =    3.8084
 Total energy for state  4:                  -286.71526956 au
    <S**2>     :  0.8814
    Trans. Mom.: -0.2979 X  -0.7594 Y   0.1951 Z
    Strength   :     0.0656399157
    S(  1) --> V(  2) amplitude = -0.3466 alpha
    S(  1) --> V(  3) amplitude = -0.2015 alpha
    D( 23) --> S(  1) amplitude = -0.8397 beta
    D( 24) --> S(  1) amplitude =  0.2830 beta
 
 ---------------------------------------------------

 Stability analysis will be performed
 ---------------------------------------------------
 Iter    Rts Conv    Rts Left    Ttl Dev     Max Dev
 ---------------------------------------------------
   1         0           8      0.003639    0.000577
   2         0           8      0.001694    0.000453
   3         0           8      0.000975    0.000381
   4         0           8      0.001381    0.000966
   5         4           4      0.000997    0.000617
   6         4           4      0.000766    0.000633
   7         4           4      0.000312    0.000261
   8         5           3      0.000117    0.000094
   9         5           3      0.000049    0.000033
  10         6           2      0.000019    0.000012
  11         6           2      0.000008    0.000005
  12         7           1      0.000003    0.000001
  13         8           0      0.000002    0.000001    Roots Converged
 UKS-> UKS   stable,    smallest eigenvalue:      0.0705230
 UKS->CUKS   stable,    smallest eigenvalue:      0.0824060
 ---------------------------------------------------
  SETman timing summary (seconds)
  CPU time               194.62s
  System time              0.00s
  Wall time              197.83s
 
 --------------------------------------------------------------
 
                    Orbital Energies (a.u.)
 --------------------------------------------------------------
 
 Alpha MOs
 -- Occupied --
-14.402 -10.251 -10.245 -10.216 -10.211 -10.210 -10.200  -0.977
 -0.825  -0.785  -0.731  -0.664  -0.564  -0.526  -0.518  -0.483
 -0.448  -0.435  -0.427  -0.407  -0.354  -0.329  -0.272  -0.251
 -0.174
 -- Virtual --
 -0.039  -0.025  -0.003   0.009   0.023   0.035   0.040   0.045
  0.049   0.064   0.075   0.080   0.083   0.089   0.098   0.111
  0.113   0.129   0.134   0.139   0.152   0.162   0.170   0.181
  0.198   0.201   0.219   0.225   0.228   0.230   0.235   0.250
  0.258   0.267   0.280   0.303   0.308   0.318   0.323   0.332
  0.396   0.435   0.473   0.532   0.605   0.676   0.678   0.692
  0.706   0.711   0.734   0.746   0.760   0.766   0.775   0.816
  0.842   0.858   0.884   0.902   0.921   0.941   0.953   0.963
  0.972   0.977   1.010   1.040   1.078   1.131   1.144   1.174
  1.239   1.244   1.277   1.313   1.319   1.359   1.373   1.412
  1.424   1.438   1.549   1.582   1.613   1.645   1.655   1.719
  1.756   1.794   1.826   1.856   1.920   1.930   1.960   1.997
  2.032   2.054   2.096   2.158   2.167   2.204   2.254   2.292
  2.362   2.386   2.391   2.395   2.448   2.481   2.491   2.532
  2.560   2.567   2.592   2.637   2.787   2.823   2.845   2.901
  2.943   3.043   3.169   3.258   3.296   3.346   3.362   3.403
  3.415   3.567   3.705   4.232   4.251   4.330   4.407   4.473
  4.618   4.788
 
 Beta MOs
 -- Occupied --
-14.398 -10.248 -10.245 -10.213 -10.212 -10.205 -10.200  -0.969
 -0.820  -0.781  -0.728  -0.657  -0.558  -0.521  -0.511  -0.479
 -0.443  -0.434  -0.411  -0.396  -0.349  -0.309  -0.271  -0.230
 -- Virtual --
 -0.088  -0.032  -0.010  -0.001   0.010   0.023   0.037   0.043
  0.046   0.050   0.064   0.075   0.082   0.083   0.097   0.101
  0.112   0.113   0.132   0.134   0.142   0.153   0.165   0.171
  0.181   0.198   0.203   0.222   0.225   0.230   0.231   0.236
  0.251   0.261   0.268   0.284   0.305   0.312   0.322   0.328
  0.334   0.403   0.440   0.477   0.533   0.606   0.680   0.684
  0.697   0.706   0.716   0.735   0.751   0.768   0.771   0.787
  0.819   0.845   0.863   0.888   0.906   0.932   0.942   0.952
  0.966   0.976   0.987   1.015   1.043   1.081   1.132   1.148
  1.181   1.240   1.253   1.283   1.316   1.323   1.368   1.380
  1.417   1.428   1.450   1.553   1.587   1.620   1.655   1.666
  1.736   1.772   1.809   1.836   1.858   1.925   1.935   1.968
  2.001   2.037   2.060   2.099   2.162   2.173   2.210   2.260
  2.296   2.370   2.388   2.394   2.400   2.457   2.482   2.492
  2.539   2.564   2.571   2.603   2.644   2.791   2.830   2.849
  2.905   2.955   3.045   3.172   3.262   3.298   3.349   3.365
  3.412   3.423   3.570   3.707   4.237   4.254   4.338   4.419
  4.476   4.622   4.793
 --------------------------------------------------------------
 
          Ground-State Mulliken Net Atomic Charges

     Atom                 Charge (a.u.)    Spin (a.u.)
  --------------------------------------------------------
      1 C                    -0.240203      -0.209017
      2 C                    -0.066499       0.454729
      3 C                    -0.321650      -0.189894
      4 C                     0.460454       0.270398
      5 C                    -0.142585       0.421063
      6 N                    -0.005096       0.168561
      7 H                     0.146428       0.006669
      8 H                     0.123742      -0.021228
      9 H                     0.151324       0.006160
     10 H                     0.154862       0.020984
     11 H                     0.141990       0.078725
     12 C                    -0.554545      -0.027393
     13 H                     0.151779       0.020242
  --------------------------------------------------------
  Sum of atomic charges =    -0.000000
  Sum of spin   charges =     1.000000

 -----------------------------------------------------------------
                    Cartesian Multipole Moments
 -----------------------------------------------------------------
    Charge (ESU x 10^10)
                 0.0000
    Dipole Moment (Debye)
         X       0.6923      Y      -0.0969      Z       0.8061
       Tot       1.0670
    Quadrupole Moments (Debye-Ang)
        XX     -37.5166     XY      -1.1004     YY     -40.3147
        XZ      -2.3899     YZ       3.8848     ZZ     -44.1771
    Octopole Moments (Debye-Ang^2)
       XXX      -5.2462    XXY       0.5062    XYY       2.0589
       YYY     -14.8202    XXZ      -0.9174    XYZ      -0.9926
       YYZ      10.8899    XZZ      -6.2131    YZZ      -3.9881
       ZZZ      14.8356
    Hexadecapole Moments (Debye-Ang^3)
      XXXX    -492.6285   XXXY     -51.5339   XXYY    -181.9890
      XYYY     -46.5796   YYYY    -492.9013   XXXZ      60.6538
      XXYZ       6.9641   XYYZ      21.9304   YYYZ      49.5208
      XXZZ    -103.4464   XYZZ     -14.3462   YYZZ    -117.4138
      XZZZ      70.4442   YZZZ      17.3224   ZZZZ    -112.7016
 -----------------------------------------------------------------
Archival summary:
1\1\c8-89\SP\ProcedureUnspecified\6-31+G**\166(2)\hpark21\ThuMar300:35:412022ThuMar300:35:412022\0\\#,ProcedureUnspecified,6-31+G**,\\0,2\N\C,1,1.21849\H,2,1.10068,1,122.693\C,1,1.32897,2,163.216,3,-176.015,0\H,4,1.08737,1,114.539,2,85.685,0\C,4,1.38296,1,126.088,2,-97.1059,0\H,6,1.08484,4,115.074,1,-178.627,0\C,6,1.4439,4,129.076,1,1.05271,0\H,8,1.09096,6,115.041,4,178.508,0\C,8,1.32938,6,129.258,4,-2.06839,0\C,10,1.30682,8,176.929,6,173.028,0\H,11,1.08984,10,121.727,8,97.7039,0\H,11,1.08989,10,121.567,8,-83.1759,0\\\@

 Total job time:  206.39s(wall), 200.51s(cpu) 
 Thu Mar  3 00:35:41 2022

        *************************************************************
        *                                                           *
        *  Thank you very much for using Q-Chem.  Have a nice day.  *
        *                                                           *
        *************************************************************


