
Running Job 1 of 1 qcts2.in
qchem qcts2.in_37223.0 ./qcts2.d/ 1
/home/leeping/opt/qchem/5.0.2-openmp/exe/qcprog.exe_s qcts2.in_37223.0 ./qcts2.d/
Check license passed

                  Welcome to Q-Chem
     A Quantum Leap Into The Future Of Chemistry


 Q-Chem 5.0, Q-Chem, Inc., Pleasanton, CA (2017)

 Yihan Shao,  Zhengting Gan,  E. Epifanovsky,  A. T. B. Gilbert,  M. Wormit,  
 J. Kussmann,  A. W. Lange,  A. Behn,  Jia Deng,  Xintian Feng,  D. Ghosh,  
 M. Goldey,  P. R. Horn,  L. D. Jacobson,  I. Kaliman,  T. Kus,  A. Landau,  
 Jie Liu,  E. I. Proynov,  R. M. Richard,  R. P. Steele,  E. J. Sundstrom,  
 H. L. Woodcock III,  P. M. Zimmerman,  D. Zuev,  B. Albrecht,  E. Alguire,  
 S. A. Baeppler,  D. Barton,  Z. Benda,  Y. A. Bernard,  E. J. Berquist,  
 K. B. Bravaya,  H. Burton,  D. Casanova,  Chun-Min Chang,  Yunqing Chen,  
 A. Chien,  K. D. Closser,  M. P. Coons,  S. Dasgupta,  A. L. Dempwolff,  
 M. Diedenhofen,  Hainam Do,  R. G. Edgar,  Po-Tung Fang,  S. Fatehi,  
 Qingguo Feng,  J. Fosso-Tande,  Qinghui Ge,  A. Ghysels,  G. Gidofalvi,  
 J. Gomes,  J. Gonthier,  A. Gunina,  M. W. D. Hanson-Heine,  
 P. H. P. Harbach,  A. W. Hauser,  J. E. Herr,  E. G. Hohenstein,  
 Z. C. Holden,  Kerwin Hui,  T.-C. Jagau,  Hyunjun Ji,  B. Kaduk,  
 K. Khistyaev,  Jaehoon Kim,  P. Klunzinger,  K. Koh,  D. Kosenkov,  
 L. Koulias,  T. Kowalczyk,  C. M. Krauter,  A. Kunitsa,  Ka Un Lao,  
 A. Laurent,  K. V. Lawler,  Joonho Lee,  D. Lefrancois,  S. Lehtola,  
 D. S. Levine,  Yi-Pei Li,  You-Sheng Lin,  Fenglai Liu,  E. Livshits,  
 A. Luenser,  P. Manohar,  E. Mansoor,  S. F. Manzer,  Shan-Ping Mao,  
 Yuezhi Mao,  N. Mardirossian,  A. V. Marenich,  T. Markovich,  
 L. A. Martinez-Martinez,  S. A. Maurer,  N. J. Mayhall,  S. C. McKenzie,  
 J.-M. Mewes,  A. F. Morrison,  J. W. Mullinax,  K. Nanda,  
 T. S. Nguyen-Beck,  R. Olivares-Amaya,  J. A. Parkhill,  T. M. Perrine,  
 F. Plasser,  S. Prager,  A. Prociuk,  E. Ramos,  D. R. Rehn,  F. Rob,  
 M. Schneider,  N. Sergueev,  S. M. Sharada,  S. Sharma,  D. W. Small,  
 T. Stauch,  T. Stein,  Yu-Chuan Su,  A. J. W. Thom,  A. Tkatchenko,  
 T. Tsuchimochi,  L. Vogt,  O. Vydrov,  M. A. Watson,  J. Wenzel,  
 M. de Wergifosse,  T. A. Wesolowski,  A. White,  J. Witte,  A. Yamada,  
 Jun Yang,  K. Yao,  S. Yeganeh,  S. R. Yost,  Zhi-Qiang You,  A. Zech,  
 Igor Ying Zhang,  Xing Zhang,  Yan Zhao,  Ying Zhu,  B. R. Brooks,  
 G. K. L. Chan,  C. J. Cramer,  M. S. Gordon,  W. J. Hehre,  A. Klamt,  
 M. W. Schmidt,  C. D. Sherrill,  D. G. Truhlar,  A. Aspuru-Guzik,  R. Baer,  
 A. T. Bell,  N. A. Besley,  Jeng-Da Chai,  R. A. DiStasio Jr.,  A. Dreuw,  
 B. D. Dunietz,  T. R. Furlani,  Chao-Ping Hsu,  Yousung Jung,  Jing Kong,  
 D. S. Lambrecht,  WanZhen Liang,  C. Ochsenfeld,  V. A. Rassolov,  
 L. V. Slipchenko,  J. E. Subotnik,  T. Van Voorhis,  J. M. Herbert,  
 A. I. Krylov,  P. M. W. Gill,  M. Head-Gordon

 Contributors to earlier versions of Q-Chem not listed above: 
 R. D. Adamson,  B. Austin,  J. Baker,  G. J. O. Beran,  K. Brandhorst,  
 S. T. Brown,  E. F. C. Byrd,  A. K. Chakraborty,  C.-L. Cheng,  
 Siu Hung Chien,  D. M. Chipman,  D. L. Crittenden,  H. Dachsel,  
 R. J. Doerksen,  A. D. Dutoi,  L. Fusti-Molnar,  W. A. Goddard III,  
 A. Golubeva-Zadorozhnaya,  S. R. Gwaltney,  G. Hawkins,  A. Heyden,  
 S. Hirata,  G. Kedziora,  F. J. Keil,  C. Kelley,  Jihan Kim,  R. A. King,  
 R. Z. Khaliullin,  P. P. Korambath,  W. Kurlancheek,  A. M. Lee,  M. S. Lee,  
 S. V. Levchenko,  Ching Yeh Lin,  D. Liotard,  R. C. Lochan,  I. Lotan,  
 P. E. Maslen,  N. Nair,  D. P. O'Neill,  D. Neuhauser,  E. Neuscamman,  
 C. M. Oana,  R. Olson,  B. Peters,  R. Peverati,  P. A. Pieniazek,  
 Y. M. Rhee,  J. Ritchie,  M. A. Rohrdanz,  E. Rosta,  N. J. Russ,  
 H. F. Schaefer III,  N. E. Schultz,  N. Shenvi,  A. C. Simmonett,  A. Sodt,  
 D. Stuck,  K. S. Thanthiriwatte,  V. Vanovschi,  Tao Wang,  A. Warshel,  
 C. F. Williams,  Q. Wu,  X. Xu,  W. Zhang

 Please cite Q-Chem as follows:
 Y. Shao et al., Mol. Phys. 113, 184-215 (2015)
 DOI: 10.1080/00268976.2014.952696

 Q-Chem 5.0.2 for Intel X86 EM64T Linux

 Parts of Q-Chem use Armadillo 5.200.1 (Boston Tea Smuggler).
 http://arma.sourceforge.net/

 Q-Chem begins on Wed Mar  2 19:35:09 2022  

Host: 
0

     Scratch files written to ./qcts2.d//
 Dec517 15110_ 26548  26544 5633   
Processing $rem in /home/leeping/opt/qchem/5.0.2-openmp/config/preferences.
 MEM_STATIC 2000
 MEM_TOTAL  8000
 SYMMETRY   OFF
 SYM_IGNORE TRUE 

Checking the input file for inconsistencies... 	...done.

--------------------------------------------------------------
User input:
--------------------------------------------------------------
$molecule
0 2
C        1.6785464666    0.3352611048   -0.3613352551
C        1.1694094979   -0.9570213969   -0.4617101894
C       -0.1580320710   -1.4169480602   -0.2342493720
C       -1.2327166987   -0.6371626153    0.0660957876
C        0.2671468820    2.3395170552    0.2395492853
N        1.0168896825    1.3847012150    0.0984742634
H        2.7211379649    0.5205224674   -0.6069269653
H        1.8968954922   -1.7196608419   -0.7227645928
H       -0.3175947196   -2.4905721151   -0.2527017869
H       -2.3664168573   -1.0978249425    0.0958645375
H        0.1574807603    2.8196367116    1.2282475142
C       -2.1818893057    0.2990605156   -0.0045888631
H       -2.6306689958    0.6319020759    0.9449220745
$end

$rem
method                b3lyp
basis                 6-31+g(d,p)
unrestricted          true
symmetry              off
sym_ignore            true
incdft                false
incfock               0
scf_convergence       8
thresh                14
jobtype               freq
scf_guess             read
scf_algorithm         diis
max_scf_cycles        100
$end

--------------------------------------------------------------
 ----------------------------------------------------------------
             Standard Nuclear Orientation (Angstroms)
    I     Atom           X                Y                Z
 ----------------------------------------------------------------
    1      C       1.6785464666     0.3352611048    -0.3613352551
    2      C       1.1694094979    -0.9570213969    -0.4617101894
    3      C      -0.1580320710    -1.4169480602    -0.2342493720
    4      C      -1.2327166987    -0.6371626153     0.0660957876
    5      C       0.2671468820     2.3395170552     0.2395492853
    6      N       1.0168896825     1.3847012150     0.0984742634
    7      H       2.7211379649     0.5205224674    -0.6069269653
    8      H       1.8968954922    -1.7196608419    -0.7227645928
    9      H      -0.3175947196    -2.4905721151    -0.2527017869
   10      H      -2.3664168573    -1.0978249425     0.0958645375
   11      H       0.1574807603     2.8196367116     1.2282475142
   12      C      -2.1818893057     0.2990605156    -0.0045888631
   13      H      -2.6306689958     0.6319020759     0.9449220745
 ----------------------------------------------------------------
 Nuclear Repulsion Energy =   246.4328260590 hartrees
 There are       25 alpha and       24 beta electrons
 Requested basis set is 6-31+G(d,p)
 There are 53 shells and 163 basis functions

 Total QAlloc Memory Limit   8000 MB
 Mega-Array Size      1956 MB
 MEM_STATIC part      2000 MB

                       Distance Matrix (Angstroms)
             C (  1)   C (  2)   C (  3)   C (  4)   C (  5)   N (  6)
   C (  2)  1.392584
   C (  3)  2.541537  1.423156
   C (  4)  3.098993  2.480141  1.361330
   C (  5)  2.523916  3.488984  3.810025  3.337709
   N (  6)  1.323079  2.412620  3.056204  3.024849  1.222166
   H (  7)  1.087030  2.147577  3.490315  4.174465  3.169753  2.036875
   H (  8)  2.097859  1.085820  2.133778  3.404200  4.478733  3.329551
   H (  9)  3.461461  2.146309  1.085573  2.091460  4.890194  4.113626
   H ( 10)  4.315611  3.582287  2.255610  1.224080  4.332623  4.196392
   H ( 11)  3.318514  4.259472  4.493005  3.902910  1.104566  2.018418
   C ( 12)  3.877053  3.608033  2.663349  1.335080  3.197006  3.379560
   H ( 13)  4.512609  4.352458  3.420843  2.082578  3.436690  3.819406
             H (  7)   H (  8)   H (  9)   H ( 10)   H ( 11)   C ( 12)
   H (  8)  2.389815
   H (  9)  4.292559  2.391491
   H ( 10)  5.384810  4.385506  2.501782
   H ( 11)  3.902067  5.238056  5.533283  4.795712
   C ( 12)  4.944849  4.607331  3.364403  1.412597  3.653196
   H ( 13)  5.573372  5.367482  4.066259  1.944912  3.555311  1.101707

 
 A cutoff of  1.0D-14 yielded   1344 shell pairs
 There are     13270 function pairs
 Smallest overlap matrix eigenvalue = 6.78E-06
 Guess MOs from SCF MO coefficient file
 Reading MOs from coefficient file
 Reading MOs from coefficient file
 An unrestricted hybrid HF-DFT SCF calculation will be
 performed using Pulay DIIS extrapolation
 Exchange:     0.2000 Hartree-Fock + 0.0800 Slater + 0.7200 B88
 Correlation:  0.1900 VWN1RPA + 0.8100 LYP
 Using SG-1 standard quadrature grid
 SCF converges when DIIS error is below 1.0E-08
Using Q-Chem read-in guess as SCF_GUESS READ specified.

 -------------------------------------------------------
 OpenMP BLAS3 based DFT computing Module                
 -------------------------------------------------------
 ---------------------------------------
  Cycle       Energy         DIIS Error
 ---------------------------------------
    1    -286.7515275753      2.30E-09
    2    -286.7515275753      5.13E-09 Convergence criterion met
 ---------------------------------------
 <S^2> = 0.7915
 SCF time:  CPU 6.00 s  wall 6.61 s
 SCF   energy in the final basis set = -286.75152758
 Total energy in the final basis set = -286.75152758
 
 --------------------------------------------------------------
 
                    Orbital Energies (a.u.)
 --------------------------------------------------------------
 
 Alpha MOs
 -- Occupied --
-14.400 -10.255 -10.244 -10.244 -10.238 -10.211 -10.210  -0.974
 -0.860  -0.807  -0.745  -0.665  -0.562  -0.526  -0.520  -0.497
 -0.456  -0.425  -0.406  -0.401  -0.361  -0.340  -0.299  -0.219
 -0.164
 -- Virtual --
 -0.060  -0.028  -0.014  -0.010   0.019   0.022   0.041   0.046
  0.049   0.061   0.070   0.075   0.081   0.087   0.097   0.109
  0.114   0.127   0.131   0.132   0.144   0.154   0.174   0.177
  0.185   0.200   0.204   0.210   0.214   0.221   0.231   0.236
  0.251   0.262   0.276   0.291   0.301   0.308   0.322   0.328
  0.399   0.407   0.463   0.513   0.610   0.646   0.662   0.673
  0.686   0.709   0.719   0.732   0.742   0.767   0.773   0.796
  0.813   0.846   0.876   0.892   0.913   0.927   0.948   0.950
  0.974   0.977   1.006   1.035   1.051   1.129   1.153   1.163
  1.203   1.225   1.240   1.288   1.320   1.336   1.357   1.391
  1.424   1.454   1.511   1.562   1.590   1.657   1.660   1.710
  1.726   1.767   1.802   1.858   1.872   1.938   1.944   1.965
  2.023   2.095   2.134   2.134   2.194   2.202   2.244   2.283
  2.303   2.345   2.386   2.403   2.438   2.468   2.484   2.494
  2.514   2.550   2.575   2.641   2.759   2.774   2.807   2.913
  2.937   3.007   3.048   3.147   3.255   3.281   3.323   3.375
  3.401   3.446   3.732   4.236   4.260   4.321   4.378   4.451
  4.579   4.753
 
 Beta MOs
 -- Occupied --
-14.396 -10.252 -10.242 -10.241 -10.239 -10.212 -10.206  -0.966
 -0.855  -0.803  -0.744  -0.657  -0.558  -0.524  -0.511  -0.490
 -0.454  -0.414  -0.397  -0.393  -0.346  -0.336  -0.277  -0.204
 -- Virtual --
 -0.088  -0.052  -0.016  -0.010  -0.003   0.021   0.023   0.042
  0.047   0.052   0.062   0.070   0.076   0.083   0.089   0.101
  0.109   0.116   0.129   0.131   0.137   0.145   0.154   0.175
  0.179   0.185   0.201   0.206   0.211   0.215   0.222   0.233
  0.240   0.254   0.265   0.280   0.295   0.303   0.311   0.327
  0.329   0.403   0.412   0.467   0.515   0.613   0.649   0.666
  0.680   0.688   0.714   0.721   0.729   0.751   0.771   0.784
  0.799   0.824   0.849   0.878   0.895   0.916   0.939   0.949
  0.951   0.981   0.988   1.008   1.039   1.055   1.134   1.154
  1.166   1.207   1.230   1.246   1.291   1.326   1.340   1.364
  1.399   1.430   1.464   1.518   1.568   1.596   1.668   1.668
  1.716   1.733   1.781   1.813   1.860   1.877   1.947   1.952
  1.969   2.028   2.101   2.138   2.140   2.198   2.208   2.251
  2.285   2.308   2.349   2.389   2.407   2.448   2.476   2.485
  2.496   2.518   2.554   2.588   2.646   2.764   2.776   2.813
  2.920   2.949   3.010   3.051   3.150   3.258   3.283   3.327
  3.383   3.413   3.447   3.734   4.240   4.264   4.327   4.386
  4.459   4.582   4.756
 --------------------------------------------------------------
 
          Ground-State Mulliken Net Atomic Charges

     Atom                 Charge (a.u.)    Spin (a.u.)
  --------------------------------------------------------
      1 C                    -0.173877      -0.235737
      2 C                    -0.058179       0.453413
      3 C                     0.182457      -0.452934
      4 C                     0.828480       0.151737
      5 C                    -0.189956       0.301840
      6 N                     0.003037       0.200453
      7 H                     0.143444       0.007870
      8 H                     0.124572      -0.019307
      9 H                     0.145012       0.005275
     10 H                     0.167632       0.004727
     11 H                     0.137801       0.076076
     12 C                    -1.476150       0.474387
     13 H                     0.165727       0.032200
  --------------------------------------------------------
  Sum of atomic charges =    -0.000000
  Sum of spin   charges =     1.000000

 -----------------------------------------------------------------
                    Cartesian Multipole Moments
 -----------------------------------------------------------------
    Charge (ESU x 10^10)
                -0.0000
    Dipole Moment (Debye)
         X       0.3903      Y      -1.7822      Z       2.0078
       Tot       2.7129
    Quadrupole Moments (Debye-Ang)
        XX     -38.8082     XY       3.4702     YY     -41.0991
        XZ      -5.4203     YZ       4.7631     ZZ     -45.1813
    Octopole Moments (Debye-Ang^2)
       XXX       4.4151    XXY     -14.7037    XYY      -0.2763
       YYY     -33.8108    XXZ      10.0250    XYZ      -2.1997
       YYZ      11.6286    XZZ      -0.8784    YZZ      -3.1958
       ZZZ      14.2074
    Hexadecapole Moments (Debye-Ang^3)
      XXXX    -518.4302   XXXY      -6.9413   XXYY    -164.9084
      XYYY     -18.5397   YYYY    -491.5553   XXXZ     -15.4228
      XXYZ      -3.0954   XYYZ       3.6455   YYYZ       2.1592
      XXZZ    -108.9287   XYZZ     -10.0194   YYZZ     -95.4708
      XZZZ      24.9806   YZZZ     -27.7703   ZZZZ     -90.0490
 -----------------------------------------------------------------
 Calculating MO derivatives via CPSCF
   1         3          39      0.362477    0.073413
   2         3          39      0.051254    0.011380
   3         3          39      0.008892    0.002225
   4         3          39      0.001425    0.000438
   5        14          28      0.000151    0.000060
   6        39           3      0.000009    0.000005
   7        42           0      0.000000    0.000000    Roots Converged
 Time for AOints: 18.6 s (CPU) 18.8 s (wall)
 ------------------------------------------------------------------------------
                     AOints        : Timing summary (seconds)
 ------------------------------------------------------------------------------
     job step          cpu (% of tot)      sys (% of tot)     wall (% of tot)
 ------------------------------------------------------------------------------
  cpscf_lag         0.1079E+03 (26.9)   0.4300E-04 (39.8)   0.1098E+03 (27.0)
  iterzp            0.2744E+03 (68.4)   0.6300E-04 (58.3)   0.2784E+03 (68.3)
  make_fx           0.0000E+00 ( 0.0)   0.0000E+00 ( 0.0)   0.0000E+00 ( 0.0)
  AOints            0.1859E+02 ( 4.6)   0.0000E+00 ( 0.0)   0.1881E+02 ( 4.6)
 ------------------------------------------------------------------------------
   Grand Totals     0.4013E+03          0.1080E-03          0.4074E+03
 ------------------------------------------------------------------------------
 Calculating analytic Hessian of the SCF energy
 Polarizability Matrix (a.u.)
            1           2           3
    1-117.5035771   5.2178736   6.6945127
    2   5.2178736-120.4918343  -8.7412358
    3   6.6945127  -8.7412358 -56.2533468
 
 Direct stationary perturbation theory relativistic correction:
 
 rels  =       0.069486819039
 relv  =      -0.330464239618
 rel2e =       0.147914581661
 E_rel =      -0.113062838918
 
 Hessian of the SCF Energy
            1           2           3           4           5           6
    1   0.6410387   0.0328630  -0.1494547  -0.1422264  -0.1147097   0.0043005
    2   0.0328630   0.6166710   0.0802438  -0.0385139  -0.2525907  -0.0234084
    3  -0.1494547   0.0802438   0.1488455   0.0236532   0.0021214  -0.0500958
    4  -0.1422264  -0.0385139   0.0236532   0.6000170  -0.0021896  -0.1089165
    5  -0.1147097  -0.2525907   0.0021214  -0.0021896   0.6441439   0.0849973
    6   0.0043005  -0.0234084  -0.0500958  -0.1089165   0.0849973   0.1356509
    7  -0.0169294  -0.0780722  -0.0105018  -0.2263915  -0.0085658   0.0329091
    8  -0.0289052  -0.0120698   0.0028651  -0.0844481  -0.1209648   0.0104772
    9   0.0012052   0.0216863   0.0099716   0.0182725  -0.0160035  -0.0485408
   10   0.0067188   0.0348334   0.0052658  -0.0824246  -0.0118141   0.0228923
   11  -0.0070750  -0.0149880  -0.0002410   0.0224313   0.0234740  -0.0033046
   12  -0.0010858  -0.0166862  -0.0037850   0.0297716   0.0140580  -0.0026329
   13  -0.0215433   0.0260484  -0.0031593  -0.0022508  -0.0069426   0.0026566
   14   0.0337976  -0.0509461  -0.0082530   0.0072375   0.0177432   0.0040011
   15   0.0075144  -0.0197552  -0.0020177   0.0061423   0.0084576   0.0021132
   16  -0.1673031   0.0958136   0.0702069   0.0275059   0.0297839   0.0012040
   17   0.1178341  -0.2290393  -0.0786839  -0.0016162  -0.0962622  -0.0234573
   18   0.0750903  -0.0550718  -0.0636799  -0.0169607  -0.0407483  -0.0004251
   19  -0.3074991  -0.0543010   0.0658154  -0.0084642  -0.0016866   0.0022811
   20  -0.0548398  -0.0632387   0.0073048  -0.0272557  -0.0006458   0.0059621
   21   0.0636726   0.0130935  -0.0418362  -0.0036928  -0.0031835   0.0037072
   22   0.0076065  -0.0094846  -0.0032670  -0.1806966   0.1348153   0.0531252
   23   0.0205904  -0.0152575  -0.0075843   0.1317764  -0.1979628  -0.0519195
   24   0.0008732  -0.0058850  -0.0005870   0.0552526  -0.0471927  -0.0453323
   25  -0.0042796  -0.0009551   0.0016793  -0.0033317  -0.0300869  -0.0009189
   26  -0.0013146   0.0017481   0.0007335  -0.0005857  -0.0078720  -0.0002667
   27   0.0017118   0.0014023   0.0035630  -0.0016569   0.0034966   0.0030494
   28  -0.0002346  -0.0014130  -0.0003931   0.0033175   0.0040494  -0.0023398
   29   0.0009868   0.0014824  -0.0000143  -0.0028557  -0.0046797   0.0014568
   30  -0.0002600  -0.0054863  -0.0011842   0.0083305   0.0045626  -0.0004028
   31   0.0082622  -0.0018936  -0.0005920  -0.0005671   0.0027805  -0.0031686
   32  -0.0002327   0.0206377   0.0030294  -0.0062788  -0.0082878  -0.0016519
   33  -0.0028014   0.0029897  -0.0002176  -0.0012174  -0.0032856   0.0000187
   34  -0.0041436  -0.0108638  -0.0007432   0.0231575   0.0108466  -0.0082449
   35   0.0005995  -0.0041803  -0.0018388   0.0044393   0.0066186  -0.0073010
   36  -0.0010020   0.0060360   0.0012981  -0.0071534  -0.0071676   0.0030783
   37   0.0005330   0.0059389   0.0014907  -0.0076449  -0.0062804   0.0042198
   38   0.0004057   0.0017711   0.0003174  -0.0021408  -0.0027139   0.0044149
   39   0.0002359   0.0008413  -0.0002748  -0.0018248  -0.0001123  -0.0001882
            7           8           9          10          11          12
    1  -0.0169294  -0.0289052   0.0012052   0.0067188  -0.0070750  -0.0010858
    2  -0.0780722  -0.0120698   0.0216863   0.0348334  -0.0149880  -0.0166862
    3  -0.0105018   0.0028651   0.0099716   0.0052658  -0.0002410  -0.0037850
    4  -0.2263915  -0.0844481   0.0182725  -0.0824246   0.0224313   0.0297716
    5  -0.0085658  -0.1209648  -0.0160035  -0.0118141   0.0234740   0.0140580
    6   0.0329091   0.0104772  -0.0485408   0.0228923  -0.0033046  -0.0026329
    7   0.6111028  -0.0421232  -0.0887450  -0.2343888   0.1260812   0.0380570
    8  -0.0421232   0.6668535   0.0445819   0.1572742  -0.2069299  -0.0503799
    9  -0.0887450   0.0445819   0.1028358   0.0416293  -0.0412217  -0.0415440
   10  -0.2343888   0.1572742   0.0416293   0.6454878  -0.4005725  -0.0789519
   11   0.1260812  -0.2069299  -0.0412217  -0.4005725   0.5156195   0.0634292
   12   0.0380570  -0.0503799  -0.0415440  -0.0789519   0.0634292   0.0868787
   13   0.0066660  -0.0002985  -0.0001723  -0.0132307   0.0074882  -0.0050431
   14  -0.0050648  -0.0005564  -0.0003531  -0.0027859  -0.0115185   0.0039914
   15  -0.0041281  -0.0012979   0.0022035   0.0016467   0.0050164  -0.0041300
   16  -0.0156977  -0.0027619   0.0023511   0.0109825  -0.0087213  -0.0005090
   17   0.0301974   0.0060724  -0.0057548  -0.0143894   0.0132068   0.0031812
   18   0.0161143   0.0031910  -0.0078655  -0.0077495  -0.0005119   0.0049281
   19   0.0026726  -0.0017106   0.0007707  -0.0001611   0.0003767   0.0000858
   20  -0.0012506  -0.0039160  -0.0009094   0.0013969  -0.0001954  -0.0005531
   21   0.0021312  -0.0013101   0.0045420  -0.0006652   0.0001331  -0.0000092
   22  -0.0187330   0.0191652   0.0070756  -0.0024818  -0.0011609   0.0003400
   23  -0.0079650   0.0075058   0.0022535  -0.0038490   0.0008806   0.0001244
   24  -0.0014490  -0.0031259   0.0029117   0.0047379   0.0000831   0.0017208
   25  -0.0561554  -0.0401109   0.0063513   0.0013394   0.0281830  -0.0005199
   26  -0.0420272  -0.3331878  -0.0077574   0.0027812  -0.0170498   0.0005564
   27   0.0073534  -0.0061495  -0.0280136  -0.0026908  -0.0120097   0.0003835
   28  -0.0209703  -0.0043374   0.0055759  -0.0725690  -0.0331853   0.0057604
   29   0.0248959   0.0122875  -0.0055001  -0.0889897  -0.0918261   0.0014951
   30  -0.0080486   0.0033612   0.0062638   0.0259710   0.0022661  -0.0126611
   31  -0.0022863   0.0000307   0.0004664   0.0040265  -0.0018054   0.0008739
   32   0.0042196  -0.0000418  -0.0014513  -0.0007905   0.0019595   0.0004697
   33   0.0012078   0.0007202  -0.0015042  -0.0003699  -0.0030813   0.0026254
   34  -0.0460331   0.0271556   0.0108138  -0.2267841   0.2520200  -0.0130290
   35  -0.0056206  -0.0203862   0.0154857   0.3196482  -0.1898631  -0.0124622
   36   0.0132073  -0.0008078   0.0003312   0.0030850  -0.0264798  -0.0326463
   37   0.0171439   0.0010701  -0.0055945  -0.0365148   0.0159400   0.0242501
   38   0.0052954   0.0053335  -0.0050562   0.0072573  -0.0227696  -0.0072242
   39   0.0018927  -0.0021256  -0.0015913  -0.0148008   0.0159221   0.0008720
           13          14          15          16          17          18
    1  -0.0215433   0.0337976   0.0075144  -0.1673031   0.1178341   0.0750903
    2   0.0260484  -0.0509461  -0.0197552   0.0958136  -0.2290393  -0.0550718
    3  -0.0031593  -0.0082530  -0.0020177   0.0702069  -0.0786839  -0.0636799
    4  -0.0022508   0.0072375   0.0061423   0.0275059  -0.0016162  -0.0169607
    5  -0.0069426   0.0177432   0.0084576   0.0297839  -0.0962622  -0.0407483
    6   0.0026566   0.0040011   0.0021132   0.0012040  -0.0234573  -0.0004251
    7   0.0066660  -0.0050648  -0.0041281  -0.0156977   0.0301974   0.0161143
    8  -0.0002985  -0.0005564  -0.0012979  -0.0027619   0.0060724   0.0031910
    9  -0.0001723  -0.0003531   0.0022035   0.0023511  -0.0057548  -0.0078655
   10  -0.0132307  -0.0027859   0.0016467   0.0109825  -0.0143894  -0.0077495
   11   0.0074882  -0.0115185   0.0050164  -0.0087213   0.0132068  -0.0005119
   12  -0.0050431   0.0039914  -0.0041300  -0.0005090   0.0031812   0.0049281
   13   0.3022153  -0.3756686  -0.0992025  -0.2730776   0.3492782   0.0732746
   14  -0.3756686   0.5555824   0.2189834   0.3457969  -0.4678978  -0.0954413
   15  -0.0992025   0.2189834   0.3024214   0.0791648  -0.1124725  -0.0620461
   16  -0.2730776   0.3457969   0.0791648   0.4666525  -0.5177505  -0.1684793
   17   0.3492782  -0.4678978  -0.1124725  -0.5177505   0.8311605   0.2218586
   18   0.0732746  -0.0954413  -0.0620461  -0.1684793   0.2218586   0.1283345
   19   0.0017130  -0.0050110   0.0015328  -0.0204412   0.0122682   0.0065476
   20  -0.0004780   0.0015729  -0.0023821   0.0362365  -0.0022350  -0.0093597
   21  -0.0065593  -0.0015686   0.0040873   0.0173870  -0.0081451  -0.0064917
   22   0.0005530   0.0007336  -0.0007400   0.0005353  -0.0042429   0.0008309
   23  -0.0019208   0.0005019  -0.0004906  -0.0007867  -0.0067930  -0.0000168
   24   0.0020573   0.0005307  -0.0011024  -0.0005323  -0.0003188   0.0071272
   25   0.0001328   0.0000288  -0.0002796  -0.0001452   0.0009366   0.0006026
   26   0.0000949   0.0000448   0.0000479   0.0002087   0.0001465   0.0000518
   27   0.0000976   0.0003593  -0.0001471   0.0002956  -0.0005840  -0.0003228
   28   0.0018167   0.0026552  -0.0012334  -0.0005864  -0.0008751   0.0012169
   29  -0.0033890  -0.0024020   0.0012297   0.0010926  -0.0005957  -0.0004836
   30   0.0004586   0.0026001  -0.0015424  -0.0012857   0.0001794   0.0019568
   31  -0.0112584  -0.0017895   0.0077718  -0.0220277   0.0269472   0.0216179
   32   0.0084303  -0.0543983  -0.0895035   0.0190155  -0.0406282  -0.0288390
   33   0.0321380  -0.1204130  -0.2429382   0.0006782   0.0038226   0.0009299
   34   0.0095463   0.0020461  -0.0001882  -0.0077441   0.0022481   0.0002809
   35  -0.0038318   0.0165069  -0.0110484   0.0029675  -0.0093777   0.0072017
   36   0.0077869  -0.0050311   0.0036179  -0.0031797   0.0014927  -0.0032458
   37  -0.0012822  -0.0019759   0.0019992   0.0013468  -0.0008357  -0.0023865
   38   0.0011891  -0.0042330   0.0032154  -0.0008950   0.0022428  -0.0018308
   39  -0.0043331   0.0005941  -0.0005194   0.0026985  -0.0011179   0.0008005
           19          20          21          22          23          24
    1  -0.3074991  -0.0548398   0.0636726   0.0076065   0.0205904   0.0008732
    2  -0.0543010  -0.0632387   0.0130935  -0.0094846  -0.0152575  -0.0058850
    3   0.0658154   0.0073048  -0.0418362  -0.0032670  -0.0075843  -0.0005870
    4  -0.0084642  -0.0272557  -0.0036928  -0.1806966   0.1317764   0.0552526
    5  -0.0016866  -0.0006458  -0.0031835   0.1348153  -0.1979628  -0.0471927
    6   0.0022811   0.0059621   0.0037072   0.0531252  -0.0519195  -0.0453323
    7   0.0026726  -0.0012506   0.0021312  -0.0187330  -0.0079650  -0.0014490
    8  -0.0017106  -0.0039160  -0.0013101   0.0191652   0.0075058  -0.0031259
    9   0.0007707  -0.0009094   0.0045420   0.0070756   0.0022535   0.0029117
   10  -0.0001611   0.0013969  -0.0006652  -0.0024818  -0.0038490   0.0047379
   11   0.0003767  -0.0001954   0.0001331  -0.0011609   0.0008806   0.0000831
   12   0.0000858  -0.0005531  -0.0000092   0.0003400   0.0001244   0.0017208
   13   0.0017130  -0.0004780  -0.0065593   0.0005530  -0.0019208   0.0020573
   14  -0.0050110   0.0015729  -0.0015686   0.0007336   0.0005019   0.0005307
   15   0.0015328  -0.0023821   0.0040873  -0.0007400  -0.0004906  -0.0011024
   16  -0.0204412   0.0362365   0.0173870   0.0005353  -0.0007867  -0.0005323
   17   0.0122682  -0.0022350  -0.0081451  -0.0042429  -0.0067930  -0.0003188
   18   0.0065476  -0.0093597  -0.0064917   0.0008309  -0.0000168   0.0071272
   19   0.3310752   0.0489469  -0.0754803   0.0006863   0.0001704  -0.0012236
   20   0.0489469   0.0700312  -0.0019198  -0.0000426   0.0003604   0.0007432
   21  -0.0754803  -0.0019198   0.0397667  -0.0009481   0.0002692  -0.0034410
   22   0.0006863  -0.0000426  -0.0009481   0.1933538  -0.1390596  -0.0565568
   23   0.0001704   0.0003604   0.0002692  -0.1390596   0.2092437   0.0568050
   24  -0.0012236   0.0007432  -0.0034410  -0.0565568   0.0568050   0.0398759
   25  -0.0004634  -0.0011113  -0.0000899   0.0006911   0.0000425  -0.0008881
   26  -0.0000796  -0.0003869  -0.0002356   0.0002377   0.0011716  -0.0001333
   27   0.0002475  -0.0000244   0.0005629  -0.0008116   0.0005400  -0.0022395
   28   0.0000072  -0.0004094   0.0002526  -0.0012411  -0.0001678  -0.0005522
   29  -0.0000313   0.0003211  -0.0000164   0.0011340   0.0003257   0.0000759
   30  -0.0000114   0.0000019  -0.0001487   0.0000047   0.0001925  -0.0004699
   31   0.0008706  -0.0009853   0.0041447  -0.0001178   0.0008527  -0.0008526
   32   0.0010649  -0.0011389   0.0027096  -0.0002981   0.0000714  -0.0000813
   33  -0.0004368   0.0008613  -0.0005270   0.0002891  -0.0002079   0.0009287
   34   0.0000477  -0.0002508   0.0000269  -0.0003656   0.0006621  -0.0017985
   35  -0.0000506  -0.0005039  -0.0000206  -0.0023400   0.0000241  -0.0023513
   36  -0.0001857   0.0003340  -0.0003202   0.0005942   0.0002622   0.0000737
   37  -0.0000434   0.0000432  -0.0001794   0.0002098  -0.0003456   0.0009321
   38   0.0000435  -0.0000250   0.0001944   0.0005431  -0.0000719   0.0008504
   39   0.0000568  -0.0000589   0.0001080   0.0000638  -0.0002279   0.0005342
           25          26          27          28          29          30
    1  -0.0042796  -0.0013146   0.0017118  -0.0002346   0.0009868  -0.0002600
    2  -0.0009551   0.0017481   0.0014023  -0.0014130   0.0014824  -0.0054863
    3   0.0016793   0.0007335   0.0035630  -0.0003931  -0.0000143  -0.0011842
    4  -0.0033317  -0.0005857  -0.0016569   0.0033175  -0.0028557   0.0083305
    5  -0.0300869  -0.0078720   0.0034966   0.0040494  -0.0046797   0.0045626
    6  -0.0009189  -0.0002667   0.0030494  -0.0023398   0.0014568  -0.0004028
    7  -0.0561554  -0.0420272   0.0073534  -0.0209703   0.0248959  -0.0080486
    8  -0.0401109  -0.3331878  -0.0061495  -0.0043374   0.0122875   0.0033612
    9   0.0063513  -0.0077574  -0.0280136   0.0055759  -0.0055001   0.0062638
   10   0.0013394   0.0027812  -0.0026908  -0.0725690  -0.0889897   0.0259710
   11   0.0281830  -0.0170498  -0.0120097  -0.0331853  -0.0918261   0.0022661
   12  -0.0005199   0.0005564   0.0003835   0.0057604   0.0014951  -0.0126611
   13   0.0001328   0.0000949   0.0000976   0.0018167  -0.0033890   0.0004586
   14   0.0000288   0.0000448   0.0003593   0.0026552  -0.0024020   0.0026001
   15  -0.0002796   0.0000479  -0.0001471  -0.0012334   0.0012297  -0.0015424
   16  -0.0001452   0.0002087   0.0002956  -0.0005864   0.0010926  -0.0012857
   17   0.0009366   0.0001465  -0.0005840  -0.0008751  -0.0005957   0.0001794
   18   0.0006026   0.0000518  -0.0003228   0.0012169  -0.0004836   0.0019568
   19  -0.0004634  -0.0000796   0.0002475   0.0000072  -0.0000313  -0.0000114
   20  -0.0011113  -0.0003869  -0.0000244  -0.0004094   0.0003211   0.0000019
   21  -0.0000899  -0.0002356   0.0005629   0.0002526  -0.0000164  -0.0001487
   22   0.0006911   0.0002377  -0.0008116  -0.0012411   0.0011340   0.0000047
   23   0.0000425   0.0011716   0.0005400  -0.0001678   0.0003257   0.0001925
   24  -0.0008881  -0.0001333  -0.0022395  -0.0005522   0.0000759  -0.0004699
   25   0.0642157   0.0424533  -0.0077652  -0.0002106   0.0001150  -0.0001377
   26   0.0424533   0.3539579   0.0082592  -0.0005968   0.0018108   0.0000643
   27  -0.0077652   0.0082592   0.0200665   0.0023655  -0.0008533  -0.0003042
   28  -0.0002106  -0.0005968   0.0023655   0.1152471   0.0882157  -0.0246408
   29   0.0001150   0.0018108  -0.0008533   0.0882157   0.0941901   0.0100042
   30  -0.0001377   0.0000643  -0.0003042  -0.0246408   0.0100042   0.0077275
   31  -0.0000337  -0.0000252   0.0001428  -0.0009070   0.0009275  -0.0002882
   32   0.0000329  -0.0000235  -0.0000355  -0.0003963   0.0004252  -0.0000467
   33   0.0000341  -0.0000398  -0.0000338   0.0004245  -0.0006977   0.0010700
   34  -0.0003862  -0.0019894   0.0050662  -0.0312686  -0.0165325   0.0026468
   35   0.0014625  -0.0006247   0.0093420  -0.0640560  -0.0044967  -0.0115672
   36   0.0018262  -0.0012815   0.0029857   0.0140785  -0.0057834  -0.0009872
   37  -0.0013731   0.0008428  -0.0043558   0.0075991  -0.0055694  -0.0027391
   38  -0.0009903   0.0002649  -0.0037430   0.0105169  -0.0068425  -0.0061322
   39   0.0001059   0.0000013   0.0004500  -0.0005149  -0.0009128   0.0006824
           31          32          33          34          35          36
    1   0.0082622  -0.0002327  -0.0028014  -0.0041436   0.0005995  -0.0010020
    2  -0.0018936   0.0206377   0.0029897  -0.0108638  -0.0041803   0.0060360
    3  -0.0005920   0.0030294  -0.0002176  -0.0007432  -0.0018388   0.0012981
    4  -0.0005671  -0.0062788  -0.0012174   0.0231575   0.0044393  -0.0071534
    5   0.0027805  -0.0082878  -0.0032856   0.0108466   0.0066186  -0.0071676
    6  -0.0031686  -0.0016519   0.0000187  -0.0082449  -0.0073010   0.0030783
    7  -0.0022863   0.0042196   0.0012078  -0.0460331  -0.0056206   0.0132073
    8   0.0000307  -0.0000418   0.0007202   0.0271556  -0.0203862  -0.0008078
    9   0.0004664  -0.0014513  -0.0015042   0.0108138   0.0154857   0.0003312
   10   0.0040265  -0.0007905  -0.0003699  -0.2267841   0.3196482   0.0030850
   11  -0.0018054   0.0019595  -0.0030813   0.2520200  -0.1898631  -0.0264798
   12   0.0008739   0.0004697   0.0026254  -0.0130290  -0.0124622  -0.0326463
   13  -0.0112584   0.0084303   0.0321380   0.0095463  -0.0038318   0.0077869
   14  -0.0017895  -0.0543983  -0.1204130   0.0020461   0.0165069  -0.0050311
   15   0.0077718  -0.0895035  -0.2429382  -0.0001882  -0.0110484   0.0036179
   16  -0.0220277   0.0190155   0.0006782  -0.0077441   0.0029675  -0.0031797
   17   0.0269472  -0.0406282   0.0038226   0.0022481  -0.0093777   0.0014927
   18   0.0216179  -0.0288390   0.0009299   0.0002809   0.0072017  -0.0032458
   19   0.0008706   0.0010649  -0.0004368   0.0000477  -0.0000506  -0.0001857
   20  -0.0009853  -0.0011389   0.0008613  -0.0002508  -0.0005039   0.0003340
   21   0.0041447   0.0027096  -0.0005270   0.0000269  -0.0000206  -0.0003202
   22  -0.0001178  -0.0002981   0.0002891  -0.0003656  -0.0023400   0.0005942
   23   0.0008527   0.0000714  -0.0002079   0.0006621   0.0000241   0.0002622
   24  -0.0008526  -0.0000813   0.0009287  -0.0017985  -0.0023513   0.0000737
   25  -0.0000337   0.0000329   0.0000341  -0.0003862   0.0014625   0.0018262
   26  -0.0000252  -0.0000235  -0.0000398  -0.0019894  -0.0006247  -0.0012815
   27   0.0001428  -0.0000355  -0.0000338   0.0050662   0.0093420   0.0029857
   28  -0.0009070  -0.0003963   0.0004245  -0.0312686  -0.0640560   0.0140785
   29   0.0009275   0.0004252  -0.0006977  -0.0165325  -0.0044967  -0.0057834
   30  -0.0002882  -0.0000467   0.0010700   0.0026468  -0.0115672  -0.0009872
   31   0.0265610  -0.0244799  -0.0290897  -0.0032615  -0.0006553  -0.0026618
   32  -0.0244799   0.0831365   0.1155420  -0.0004692  -0.0027419  -0.0003262
   33  -0.0290897   0.1155420   0.2416659   0.0000692   0.0057012  -0.0024549
   34  -0.0032615  -0.0004692   0.0000692   0.3446803  -0.2878567  -0.1185533
   35  -0.0006553  -0.0027419   0.0057012  -0.2878567   0.2425146   0.1015719
   36  -0.0026618  -0.0003262  -0.0024549  -0.1185533   0.1015719   0.2628179
   37   0.0007392   0.0001824  -0.0009258  -0.0574450   0.0352939   0.0921579
   38   0.0000956   0.0010300  -0.0019116   0.0229838  -0.0334898  -0.0628194
   39   0.0016355   0.0001848   0.0004371   0.1236533  -0.0927129  -0.2345485
           37          38          39
    1   0.0005330   0.0004057   0.0002359
    2   0.0059389   0.0017711   0.0008413
    3   0.0014907   0.0003174  -0.0002748
    4  -0.0076449  -0.0021408  -0.0018248
    5  -0.0062804  -0.0027139  -0.0001123
    6   0.0042198   0.0044149  -0.0001882
    7   0.0171439   0.0052954   0.0018927
    8   0.0010701   0.0053335  -0.0021256
    9  -0.0055945  -0.0050562  -0.0015913
   10  -0.0365148   0.0072573  -0.0148008
   11   0.0159400  -0.0227696   0.0159221
   12   0.0242501  -0.0072242   0.0008720
   13  -0.0012822   0.0011891  -0.0043331
   14  -0.0019759  -0.0042330   0.0005941
   15   0.0019992   0.0032154  -0.0005194
   16   0.0013468  -0.0008950   0.0026985
   17  -0.0008357   0.0022428  -0.0011179
   18  -0.0023865  -0.0018308   0.0008005
   19  -0.0000434   0.0000435   0.0000568
   20   0.0000432  -0.0000250  -0.0000589
   21  -0.0001794   0.0001944   0.0001080
   22   0.0002098   0.0005431   0.0000638
   23  -0.0003456  -0.0000719  -0.0002279
   24   0.0009321   0.0008504   0.0005342
   25  -0.0013731  -0.0009903   0.0001059
   26   0.0008428   0.0002649   0.0000013
   27  -0.0043558  -0.0037430   0.0004500
   28   0.0075991   0.0105169  -0.0005149
   29  -0.0055694  -0.0068425  -0.0009128
   30  -0.0027391  -0.0061322   0.0006824
   31   0.0007392   0.0000956   0.0016355
   32   0.0001824   0.0010300   0.0001848
   33  -0.0009258  -0.0019116   0.0004371
   34  -0.0574450   0.0229838   0.1236533
   35   0.0352939  -0.0334898  -0.0927129
   36   0.0921579  -0.0628194  -0.2345485
   37   0.0767316  -0.0443042  -0.1088687
   38  -0.0443042   0.0595035   0.0797248
   39  -0.1088687   0.0797248   0.2332381
 Gradient time:  CPU 518.58 s  wall 526.74 s
 **********************************************************************
 **                                                                  **
 **                       VIBRATIONAL ANALYSIS                       **
 **                       --------------------                       **
 **                                                                  **
 **        VIBRATIONAL FREQUENCIES (CM**-1) AND NORMAL MODES         **
 **     FORCE CONSTANTS (mDYN/ANGSTROM) AND REDUCED MASSES (AMU)     **
 **                  INFRARED INTENSITIES (KM/MOL)                   **
 **                                                                  **
 **********************************************************************
 

 Mode:                 1                      2                      3
 Frequency:      -838.80                  62.27                 115.59
 Force Cnst:      0.6005                 0.0078                 0.0385
 Red. Mass:       1.4487                 3.4327                 4.8896
 IR Active:          YES                    YES                    YES
 IR Intens:       42.240                  1.851                  1.528
 Raman Active:       YES                    YES                    YES
               X      Y      Z        X      Y      Z        X      Y      Z
 C          0.003  0.012  0.005   -0.038  0.025 -0.191   -0.044  0.036 -0.061
 C         -0.011 -0.004  0.015    0.003 -0.007 -0.018   -0.048  0.023  0.002
 C          0.024  0.014 -0.034    0.038 -0.001  0.204   -0.010 -0.027  0.078
 C         -0.097 -0.083  0.017    0.042  0.069  0.035   -0.086 -0.101  0.017
 C         -0.015 -0.019  0.009   -0.108 -0.143  0.216    0.327  0.254  0.123
 N          0.005  0.004 -0.011    0.001 -0.022 -0.031    0.051  0.062 -0.020
 H          0.000  0.010 -0.007   -0.107  0.084 -0.438   -0.064  0.009 -0.173
 H          0.013  0.000  0.054   -0.013 -0.011 -0.051   -0.044  0.040 -0.037
 H          0.030  0.015 -0.129    0.056 -0.008  0.467    0.069 -0.041  0.168
 H          0.475 -0.546  0.603    0.011  0.107  0.073    0.017 -0.280  0.193
 H          0.040  0.031 -0.018    0.123 -0.193  0.268    0.508  0.166  0.186
 C          0.057  0.126 -0.037    0.053  0.056 -0.210   -0.216 -0.236 -0.147
 H         -0.179 -0.115 -0.058    0.036  0.322 -0.315   -0.272 -0.153 -0.202
 TransDip   0.087  0.181  0.055    0.025  0.034 -0.009    0.029 -0.014  0.023

 Mode:                 4                      5                      6
 Frequency:       177.33                 244.33                 296.00
 Force Cnst:      0.1115                 0.1194                 0.1668
 Red. Mass:       6.0157                 3.3951                 3.2301
 IR Active:          YES                    YES                    YES
 IR Intens:        0.301                  8.231                 19.858
 Raman Active:       YES                    YES                    YES
               X      Y      Z        X      Y      Z        X      Y      Z
 C         -0.225  0.006  0.023   -0.059 -0.000 -0.024   -0.018  0.041 -0.090
 C         -0.035 -0.079  0.018   -0.060  0.044 -0.181   -0.069  0.051  0.107
 C          0.013 -0.220 -0.015   -0.006 -0.049  0.066   -0.052 -0.092  0.033
 C          0.086 -0.130 -0.023    0.027 -0.024  0.045   -0.127 -0.182 -0.061
 C          0.102  0.267  0.060    0.000  0.026 -0.167   -0.068 -0.048  0.009
 N         -0.284 -0.017 -0.032    0.061 -0.023  0.323    0.215  0.160  0.041
 H         -0.244  0.113  0.012   -0.072  0.012 -0.072   -0.050 -0.079 -0.317
 H          0.081  0.035  0.016   -0.094  0.098 -0.438   -0.049  0.063  0.113
 H          0.025 -0.218 -0.045    0.050 -0.059  0.219    0.043 -0.102 -0.128
 H         -0.054  0.177 -0.258    0.032 -0.011  0.315   -0.224  0.010 -0.677
 H          0.253  0.174  0.124   -0.246  0.354 -0.357    0.145  0.264 -0.121
 C          0.350  0.135 -0.012    0.038 -0.023 -0.080    0.098  0.047  0.045
 H          0.418  0.210 -0.005    0.200  0.253 -0.101   -0.043 -0.188  0.059
 TransDip  -0.002 -0.013 -0.011   -0.060  0.069 -0.008   -0.092  0.014 -0.108

 Mode:                 7                      8                      9
 Frequency:       356.85                 419.35                 490.25
 Force Cnst:      0.2218                 0.1967                 0.4462
 Red. Mass:       2.9564                 1.8982                 3.1508
 IR Active:          YES                    YES                    YES
 IR Intens:       16.362                 32.190                  3.209
 Raman Active:       YES                    YES                    YES
               X      Y      Z        X      Y      Z        X      Y      Z
 C          0.023  0.004  0.061    0.038  0.000  0.110    0.117  0.021  0.021
 C         -0.062  0.021 -0.071   -0.087  0.045 -0.085    0.032  0.091 -0.136
 C         -0.024  0.010 -0.082   -0.045 -0.083  0.018    0.055  0.087  0.209
 C          0.027 -0.038  0.359   -0.013 -0.053 -0.038   -0.173 -0.132 -0.032
 C         -0.005 -0.008 -0.003   -0.019  0.010  0.034    0.088  0.005 -0.032
 N          0.022  0.027 -0.051    0.077  0.109 -0.105   -0.099 -0.122 -0.021
 H          0.060 -0.064  0.170    0.129 -0.172  0.369    0.143  0.106  0.197
 H         -0.070  0.029 -0.120   -0.060  0.060 -0.056   -0.063  0.048 -0.272
 H         -0.050  0.017 -0.362    0.065 -0.103  0.265    0.185  0.068  0.153
 H         -0.118  0.111 -0.378   -0.084  0.064  0.354   -0.110 -0.144 -0.608
 H         -0.108 -0.124  0.037   -0.301 -0.360  0.187   -0.250 -0.285  0.072
 C          0.083 -0.018 -0.116    0.024 -0.028 -0.015    0.010  0.103  0.026
 H         -0.516  0.000 -0.412    0.400  0.305  0.047   -0.065 -0.177  0.100
 TransDip  -0.085  0.029 -0.093    0.010 -0.090  0.157    0.039  0.027 -0.031

 Mode:                10                     11                     12
 Frequency:       606.88                 660.91                 707.31
 Force Cnst:      0.4275                 0.4361                 0.3741
 Red. Mass:       1.9698                 1.6944                 1.2693
 IR Active:          YES                    YES                    YES
 IR Intens:       17.920                 42.683                 41.000
 Raman Active:       YES                    YES                    YES
               X      Y      Z        X      Y      Z        X      Y      Z
 C          0.011 -0.068  0.197    0.091  0.024  0.040   -0.049 -0.022 -0.029
 C         -0.011 -0.024 -0.114    0.032  0.067  0.011   -0.011 -0.028 -0.124
 C          0.025 -0.009  0.088   -0.032  0.046 -0.124    0.018  0.014 -0.011
 C          0.032  0.038 -0.044   -0.084 -0.086  0.062    0.013  0.017  0.002
 C         -0.076 -0.028  0.032   -0.014 -0.049  0.005   -0.020  0.001  0.022
 N          0.000  0.051 -0.075   -0.046 -0.059 -0.009    0.013  0.024  0.014
 H         -0.098  0.013 -0.205    0.019  0.156 -0.169    0.080 -0.127  0.434
 H         -0.068  0.035 -0.444    0.027 -0.004  0.198    0.155 -0.118  0.594
 H         -0.068  0.008 -0.062    0.207 -0.001  0.356    0.076 -0.003  0.448
 H          0.101 -0.058 -0.075   -0.263  0.132  0.103    0.083 -0.075 -0.164
 H          0.580  0.487 -0.142    0.449  0.319 -0.120    0.131  0.202 -0.065
 C         -0.007  0.002  0.006   -0.003 -0.017 -0.013    0.006  0.014  0.020
 H         -0.123 -0.148  0.001    0.315  0.402 -0.014   -0.191 -0.171 -0.013
 TransDip   0.042  0.066 -0.111    0.142  0.147  0.044    0.019  0.023  0.203

 Mode:                13                     14                     15
 Frequency:       805.00                 828.92                 845.69
 Force Cnst:      0.6457                 0.7899                 0.6112
 Red. Mass:       1.6911                 1.9512                 1.4505
 IR Active:          YES                    YES                    YES
 IR Intens:        9.545                 42.754                249.499
 Raman Active:       YES                    YES                    YES
               X      Y      Z        X      Y      Z        X      Y      Z
 C         -0.031 -0.039  0.057   -0.007 -0.032 -0.079   -0.026 -0.023 -0.017
 C          0.101 -0.133  0.000    0.163 -0.121 -0.031   -0.073  0.067  0.060
 C          0.006  0.019 -0.099    0.013  0.014  0.048   -0.026  0.052 -0.023
 C         -0.035 -0.012  0.050   -0.071 -0.049  0.062    0.065  0.005  0.058
 C         -0.004  0.056  0.006   -0.047  0.031  0.057    0.027 -0.043  0.025
 N          0.029  0.067  0.001    0.004  0.067 -0.001   -0.010 -0.020 -0.026
 H         -0.163  0.093 -0.409    0.128 -0.045  0.469    0.022 -0.119  0.132
 H          0.066 -0.070 -0.289    0.134 -0.114 -0.140   -0.130  0.085 -0.133
 H          0.076 -0.011  0.636   -0.144  0.041 -0.469    0.049  0.040  0.128
 H          0.034 -0.095 -0.197   -0.173  0.073  0.048    0.174 -0.130 -0.140
 H         -0.375 -0.138  0.054   -0.034  0.329 -0.092   -0.058  0.184 -0.109
 C         -0.041  0.059 -0.006   -0.082  0.040 -0.052   -0.006  0.006 -0.096
 H          0.004 -0.116  0.091    0.415  0.172  0.160    0.546 -0.540  0.400
 TransDip   0.066  0.073 -0.011    0.163  0.130 -0.018    0.497  0.094  0.013

 Mode:                16                     17                     18
 Frequency:       877.19                 924.72                 965.47
 Force Cnst:      0.5597                 1.0957                 1.0137
 Red. Mass:       1.2345                 2.1748                 1.8459
 IR Active:          YES                    YES                    YES
 IR Intens:       31.479                150.289                176.615
 Raman Active:       YES                    YES                    YES
               X      Y      Z        X      Y      Z        X      Y      Z
 C          0.028  0.005  0.065   -0.172 -0.048  0.047    0.022  0.094  0.001
 C         -0.016 -0.005 -0.094   -0.011 -0.027 -0.008    0.038  0.003 -0.012
 C         -0.002 -0.020  0.043    0.076  0.207  0.013   -0.018 -0.163 -0.012
 C          0.006 -0.000  0.028   -0.022 -0.050  0.001    0.004  0.038  0.054
 C          0.018  0.008  0.001   -0.038  0.009 -0.085   -0.046  0.006 -0.091
 N          0.002  0.003  0.003    0.058  0.008  0.028    0.017 -0.016  0.046
 H         -0.135  0.154 -0.513   -0.169 -0.165 -0.023    0.057  0.129  0.143
 H          0.134 -0.106  0.609   -0.021 -0.057  0.083    0.163  0.130 -0.060
 H         -0.092 -0.000 -0.327    0.077  0.215 -0.161   -0.024 -0.171  0.055
 H         -0.013  0.028  0.014    0.004 -0.116 -0.107    0.044  0.006 -0.065
 H         -0.214 -0.044 -0.009    0.467 -0.540  0.277    0.632 -0.477  0.255
 C         -0.032  0.016 -0.042    0.042 -0.062 -0.008   -0.100  0.093 -0.038
 H          0.257 -0.126  0.167    0.314  0.198  0.025    0.092 -0.240  0.198
 TransDip   0.170  0.050 -0.032   -0.037 -0.385 -0.067    0.238 -0.351 -0.037

 Mode:                19                     20                     21
 Frequency:      1030.01                1141.19                1167.23
 Force Cnst:      1.6640                 0.9256                 1.2359
 Red. Mass:       2.6621                 1.2063                 1.5396
 IR Active:          YES                    YES                    YES
 IR Intens:       64.392                 21.461                 35.531
 Raman Active:       YES                    YES                    YES
               X      Y      Z        X      Y      Z        X      Y      Z
 C          0.221 -0.008 -0.066    0.041 -0.040 -0.016    0.055 -0.095 -0.029
 C         -0.034 -0.093 -0.009   -0.034  0.023  0.012   -0.057  0.005  0.013
 C         -0.132  0.068  0.018    0.014 -0.045 -0.012    0.115 -0.017 -0.017
 C          0.016 -0.006 -0.014    0.034  0.030  0.019    0.005 -0.000  0.005
 C         -0.118  0.145 -0.012   -0.019  0.029  0.010   -0.061  0.080  0.006
 N         -0.047  0.040  0.063   -0.014  0.001  0.005   -0.025  0.012  0.026
 H          0.216  0.078 -0.059    0.048 -0.146 -0.060    0.077 -0.372 -0.132
 H         -0.418 -0.478  0.019   -0.021  0.024  0.044   -0.257 -0.186  0.019
 H         -0.400  0.108  0.125    0.086 -0.053 -0.077    0.699 -0.099 -0.133
 H          0.135 -0.147 -0.015    0.406 -0.489 -0.443   -0.190  0.264  0.159
 H          0.217 -0.137  0.203   -0.032  0.044  0.011    0.027 -0.015  0.081
 C          0.113 -0.087 -0.015   -0.073  0.009  0.030   -0.051  0.060 -0.011
 H          0.106 -0.212  0.012    0.161  0.551 -0.053   -0.095 -0.149  0.056
 TransDip  -0.072 -0.246 -0.023   -0.119  0.075 -0.048    0.073 -0.169 -0.048

 Mode:                22                     23                     24
 Frequency:      1243.20                1395.89                1466.81
 Force Cnst:      1.2599                 1.9029                 2.6464
 Red. Mass:       1.3835                 1.6576                 2.0876
 IR Active:          YES                    YES                    YES
 IR Intens:        2.279                  0.482                  6.722
 Raman Active:       YES                    YES                    YES
               X      Y      Z        X      Y      Z        X      Y      Z
 C         -0.030  0.111  0.020   -0.001 -0.129 -0.022   -0.087  0.070  0.039
 C         -0.064 -0.087  0.004    0.047  0.017 -0.005    0.208  0.109 -0.031
 C          0.047 -0.008 -0.004   -0.178  0.023  0.034   -0.151 -0.038  0.020
 C          0.013  0.012 -0.004    0.002  0.043 -0.004    0.012  0.016  0.001
 C          0.038 -0.055 -0.002   -0.011  0.016 -0.003    0.032 -0.039 -0.005
 N          0.028  0.005 -0.014    0.016  0.021  0.000   -0.013 -0.000 -0.008
 H         -0.066  0.593  0.208   -0.087  0.539  0.112   -0.022 -0.551 -0.124
 H         -0.472 -0.466 -0.019    0.247  0.201  0.008   -0.449 -0.547  0.043
 H          0.300 -0.043 -0.066    0.682 -0.092 -0.162    0.210 -0.094 -0.057
 H          0.040 -0.035 -0.081    0.108 -0.065  0.012    0.111 -0.077  0.000
 H         -0.019  0.044 -0.082    0.009 -0.063  0.055    0.001 -0.033 -0.016
 C         -0.023  0.005  0.006    0.044 -0.032  0.000    0.017 -0.007  0.001
 H          0.053  0.093  0.017   -0.024 -0.062 -0.038   -0.043 -0.023 -0.032
 TransDip  -0.016  0.036  0.028   -0.012 -0.018 -0.006    0.058  0.054  0.024

 Mode:                25                     26                     27
 Frequency:      1483.44                1781.48                1952.03
 Force Cnst:      2.9597                13.9011                19.9749
 Red. Mass:       2.2828                 7.4342                 8.8974
 IR Active:          YES                    YES                    YES
 IR Intens:        3.970                210.103                 64.276
 Raman Active:       YES                    YES                    YES
               X      Y      Z        X      Y      Z        X      Y      Z
 C          0.038  0.222  0.026    0.027  0.056  0.001    0.098 -0.115 -0.057
 C         -0.068 -0.199 -0.013   -0.042 -0.078  0.001   -0.028 -0.039 -0.004
 C         -0.074  0.049  0.025   -0.208  0.170  0.051    0.051 -0.009 -0.010
 C         -0.038  0.059 -0.006    0.458 -0.427 -0.072   -0.055  0.049  0.007
 C          0.013 -0.020  0.004    0.026 -0.043 -0.013    0.288 -0.374 -0.083
 N         -0.017 -0.027  0.001   -0.035  0.042  0.016   -0.353  0.485  0.143
 H          0.156 -0.552 -0.128    0.049 -0.053 -0.033    0.059 -0.139 -0.088
 H          0.405  0.255 -0.089    0.136  0.095  0.003    0.035  0.001  0.003
 H          0.509 -0.032 -0.109    0.059  0.153  0.021    0.004 -0.000 -0.007
 H          0.038 -0.055 -0.046    0.091  0.300  0.093   -0.024 -0.032 -0.009
 H         -0.012  0.084 -0.077    0.078 -0.069 -0.011    0.307 -0.445 -0.157
 C          0.047 -0.051  0.002   -0.220  0.216  0.009    0.023 -0.027  0.002
 H          0.094 -0.024  0.004   -0.409  0.264 -0.014    0.031  0.004 -0.013
 TransDip  -0.047 -0.029  0.032    0.456  0.085  0.016    0.049  0.251 -0.025

 Mode:                28                     29                     30
 Frequency:      2323.70                2953.65                3018.56
 Force Cnst:      3.4048                 5.6212                 5.8502
 Red. Mass:       1.0702                 1.0936                 1.0897
 IR Active:          YES                    YES                    YES
 IR Intens:       21.377                 73.513                 22.607
 Raman Active:       YES                    YES                    YES
               X      Y      Z        X      Y      Z        X      Y      Z
 C          0.000 -0.001 -0.000   -0.000  0.005  0.000    0.000 -0.001 -0.000
 C          0.001  0.000 -0.000   -0.002 -0.003 -0.000    0.001  0.001 -0.000
 C          0.008  0.001 -0.001    0.001  0.000 -0.001   -0.002 -0.001 -0.000
 C         -0.062 -0.030  0.004   -0.000 -0.000  0.001   -0.004  0.005 -0.002
 C         -0.000 -0.000 -0.000    0.017 -0.046 -0.073   -0.001 -0.000 -0.001
 N         -0.000  0.000  0.000   -0.004  0.005 -0.001    0.000  0.000  0.000
 H          0.001 -0.001  0.001   -0.009 -0.001  0.002   -0.001 -0.000  0.001
 H          0.001 -0.001 -0.003    0.004 -0.005  0.002    0.000  0.000  0.001
 H         -0.012 -0.001  0.008    0.001  0.003 -0.000    0.002  0.004  0.002
 H          0.746  0.658 -0.068   -0.000 -0.002  0.003   -0.003 -0.005  0.001
 H         -0.001  0.002  0.001   -0.121  0.455  0.878    0.002  0.005  0.008
 C         -0.010 -0.028  0.003   -0.000  0.001  0.000    0.041 -0.032 -0.068
 H          0.021  0.025  0.002    0.001 -0.007 -0.007   -0.426  0.320  0.842
 TransDip  -0.100  0.108  0.015   -0.045 -0.229 -0.144    0.130 -0.037 -0.071

 Mode:                31                     32                     33
 Frequency:      3178.01                3190.47                3204.56
 Force Cnst:      6.4557                 6.5179                 6.6068
 Red. Mass:       1.0849                 1.0868                 1.0920
 IR Active:          YES                    YES                    YES
 IR Intens:        0.538                  7.074                  5.305
 Raman Active:       YES                    YES                    YES
               X      Y      Z        X      Y      Z        X      Y      Z
 C         -0.072 -0.015  0.017   -0.028 -0.006  0.007    0.024  0.007 -0.005
 C          0.023 -0.022 -0.008   -0.024  0.028  0.009    0.046 -0.049 -0.017
 C          0.002  0.012  0.000   -0.008 -0.069 -0.002   -0.008 -0.047 -0.001
 C         -0.000  0.000  0.000   -0.001  0.001  0.001   -0.002  0.001  0.001
 C          0.001 -0.002 -0.001    0.000 -0.000  0.000   -0.000  0.000 -0.000
 N         -0.001  0.002  0.000   -0.000 -0.000 -0.000    0.000  0.000  0.000
 H          0.860  0.149 -0.205    0.322  0.057 -0.077   -0.260 -0.049  0.061
 H         -0.275  0.287  0.099    0.298 -0.317 -0.109   -0.528  0.557  0.191
 H         -0.020 -0.144 -0.003    0.115  0.816  0.017    0.079  0.535  0.011
 H          0.000 -0.001  0.001    0.000  0.002 -0.001    0.003  0.001 -0.000
 H         -0.003  0.004  0.007   -0.001 -0.001 -0.001    0.001  0.001 -0.000
 C          0.000 -0.000 -0.000   -0.001  0.000 -0.000   -0.000  0.000  0.000
 H         -0.001  0.000  0.001    0.002 -0.002 -0.002    0.001 -0.002 -0.002
 TransDip  -0.012 -0.020  0.003   -0.084 -0.004  0.014    0.046 -0.053 -0.021

 STANDARD THERMODYNAMIC QUANTITIES AT   298.15 K  AND     1.00 ATM

   This Molecule has  1 Imaginary Frequencies
   Zero point vibrational energy:       57.060 kcal/mol

   Atom    1 Element C  Has Mass   12.00000
   Atom    2 Element C  Has Mass   12.00000
   Atom    3 Element C  Has Mass   12.00000
   Atom    4 Element C  Has Mass   12.00000
   Atom    5 Element C  Has Mass   12.00000
   Atom    6 Element N  Has Mass   14.00307
   Atom    7 Element H  Has Mass    1.00783
   Atom    8 Element H  Has Mass    1.00783
   Atom    9 Element H  Has Mass    1.00783
   Atom   10 Element H  Has Mass    1.00783
   Atom   11 Element H  Has Mass    1.00783
   Atom   12 Element C  Has Mass   12.00000
   Atom   13 Element H  Has Mass    1.00783
   Molecular Mass:    92.050050 amu
   Principal axes and moments of inertia in amu*Bohr^2:
                             1           2           3
    Eigenvalues --      505.19817   658.47968  1146.93616
          X               0.79883    -0.58806     0.12667
          Y               0.60155     0.78041    -0.17059
          Z               0.00146     0.21247     0.97717
   Rotational Symmetry Number is   1
   The Molecule is an Asymmetric Top
   Translational Enthalpy:        0.889 kcal/mol
   Rotational Enthalpy:           0.889 kcal/mol
   Vibrational Enthalpy:         60.056 kcal/mol
   gas constant (RT):             0.592 kcal/mol
   Translational Entropy:        39.471  cal/mol.K
   Rotational Entropy:           27.436  cal/mol.K
   Vibrational Entropy:          18.144  cal/mol.K

   Total Enthalpy:               62.426 kcal/mol
   Total Entropy:                85.051  cal/mol.K
Archival summary:
1\1\c8-89\FREQ\ProcedureUnspecified\6-31+G**\166(2)\hpark21\WedMar219:44:042022WedMar219:44:042022\0\\#,FREQ,ProcedureUnspecified,6-31+G**,\\0,2\N\C,1,1.22217\H,2,1.10457,1,120.253\C,1,1.32308,2,165.143,3,170.615,0\H,4,1.08703,1,115.023,2,108.174,0\C,4,1.39258,1,125.329,2,-76.1954,0\H,6,1.08582,4,115.097,1,-171.357,0\C,6,1.42316,4,129.005,1,6.72587,0\H,8,1.08557,6,117.001,4,-172.836,0\C,8,1.36133,6,125.908,4,3.87724,0\H,10,1.22408,8,121.396,6,171.544,0\C,10,1.33508,8,162.036,6,58.6803,0\H,12,1.10171,10,117.118,8,-156.201,0\\\@

 Total job time:  534.72s(wall), 524.81s(cpu) 
 Wed Mar  2 19:44:04 2022

        *************************************************************
        *                                                           *
        *  Thank you very much for using Q-Chem.  Have a nice day.  *
        *                                                           *
        *************************************************************


