
Running Job 1 of 1 qcts1.in
qchem qcts1.in_35542.0 ./qcts1.d/ 1
/home/leeping/opt/qchem/5.0.2-openmp/exe/qcprog.exe_s qcts1.in_35542.0 ./qcts1.d/
Check license passed

                  Welcome to Q-Chem
     A Quantum Leap Into The Future Of Chemistry


 Q-Chem 5.0, Q-Chem, Inc., Pleasanton, CA (2017)

 Yihan Shao,  Zhengting Gan,  E. Epifanovsky,  A. T. B. Gilbert,  M. Wormit,  
 J. Kussmann,  A. W. Lange,  A. Behn,  Jia Deng,  Xintian Feng,  D. Ghosh,  
 M. Goldey,  P. R. Horn,  L. D. Jacobson,  I. Kaliman,  T. Kus,  A. Landau,  
 Jie Liu,  E. I. Proynov,  R. M. Richard,  R. P. Steele,  E. J. Sundstrom,  
 H. L. Woodcock III,  P. M. Zimmerman,  D. Zuev,  B. Albrecht,  E. Alguire,  
 S. A. Baeppler,  D. Barton,  Z. Benda,  Y. A. Bernard,  E. J. Berquist,  
 K. B. Bravaya,  H. Burton,  D. Casanova,  Chun-Min Chang,  Yunqing Chen,  
 A. Chien,  K. D. Closser,  M. P. Coons,  S. Dasgupta,  A. L. Dempwolff,  
 M. Diedenhofen,  Hainam Do,  R. G. Edgar,  Po-Tung Fang,  S. Fatehi,  
 Qingguo Feng,  J. Fosso-Tande,  Qinghui Ge,  A. Ghysels,  G. Gidofalvi,  
 J. Gomes,  J. Gonthier,  A. Gunina,  M. W. D. Hanson-Heine,  
 P. H. P. Harbach,  A. W. Hauser,  J. E. Herr,  E. G. Hohenstein,  
 Z. C. Holden,  Kerwin Hui,  T.-C. Jagau,  Hyunjun Ji,  B. Kaduk,  
 K. Khistyaev,  Jaehoon Kim,  P. Klunzinger,  K. Koh,  D. Kosenkov,  
 L. Koulias,  T. Kowalczyk,  C. M. Krauter,  A. Kunitsa,  Ka Un Lao,  
 A. Laurent,  K. V. Lawler,  Joonho Lee,  D. Lefrancois,  S. Lehtola,  
 D. S. Levine,  Yi-Pei Li,  You-Sheng Lin,  Fenglai Liu,  E. Livshits,  
 A. Luenser,  P. Manohar,  E. Mansoor,  S. F. Manzer,  Shan-Ping Mao,  
 Yuezhi Mao,  N. Mardirossian,  A. V. Marenich,  T. Markovich,  
 L. A. Martinez-Martinez,  S. A. Maurer,  N. J. Mayhall,  S. C. McKenzie,  
 J.-M. Mewes,  A. F. Morrison,  J. W. Mullinax,  K. Nanda,  
 T. S. Nguyen-Beck,  R. Olivares-Amaya,  J. A. Parkhill,  T. M. Perrine,  
 F. Plasser,  S. Prager,  A. Prociuk,  E. Ramos,  D. R. Rehn,  F. Rob,  
 M. Schneider,  N. Sergueev,  S. M. Sharada,  S. Sharma,  D. W. Small,  
 T. Stauch,  T. Stein,  Yu-Chuan Su,  A. J. W. Thom,  A. Tkatchenko,  
 T. Tsuchimochi,  L. Vogt,  O. Vydrov,  M. A. Watson,  J. Wenzel,  
 M. de Wergifosse,  T. A. Wesolowski,  A. White,  J. Witte,  A. Yamada,  
 Jun Yang,  K. Yao,  S. Yeganeh,  S. R. Yost,  Zhi-Qiang You,  A. Zech,  
 Igor Ying Zhang,  Xing Zhang,  Yan Zhao,  Ying Zhu,  B. R. Brooks,  
 G. K. L. Chan,  C. J. Cramer,  M. S. Gordon,  W. J. Hehre,  A. Klamt,  
 M. W. Schmidt,  C. D. Sherrill,  D. G. Truhlar,  A. Aspuru-Guzik,  R. Baer,  
 A. T. Bell,  N. A. Besley,  Jeng-Da Chai,  R. A. DiStasio Jr.,  A. Dreuw,  
 B. D. Dunietz,  T. R. Furlani,  Chao-Ping Hsu,  Yousung Jung,  Jing Kong,  
 D. S. Lambrecht,  WanZhen Liang,  C. Ochsenfeld,  V. A. Rassolov,  
 L. V. Slipchenko,  J. E. Subotnik,  T. Van Voorhis,  J. M. Herbert,  
 A. I. Krylov,  P. M. W. Gill,  M. Head-Gordon

 Contributors to earlier versions of Q-Chem not listed above: 
 R. D. Adamson,  B. Austin,  J. Baker,  G. J. O. Beran,  K. Brandhorst,  
 S. T. Brown,  E. F. C. Byrd,  A. K. Chakraborty,  C.-L. Cheng,  
 Siu Hung Chien,  D. M. Chipman,  D. L. Crittenden,  H. Dachsel,  
 R. J. Doerksen,  A. D. Dutoi,  L. Fusti-Molnar,  W. A. Goddard III,  
 A. Golubeva-Zadorozhnaya,  S. R. Gwaltney,  G. Hawkins,  A. Heyden,  
 S. Hirata,  G. Kedziora,  F. J. Keil,  C. Kelley,  Jihan Kim,  R. A. King,  
 R. Z. Khaliullin,  P. P. Korambath,  W. Kurlancheek,  A. M. Lee,  M. S. Lee,  
 S. V. Levchenko,  Ching Yeh Lin,  D. Liotard,  R. C. Lochan,  I. Lotan,  
 P. E. Maslen,  N. Nair,  D. P. O'Neill,  D. Neuhauser,  E. Neuscamman,  
 C. M. Oana,  R. Olson,  B. Peters,  R. Peverati,  P. A. Pieniazek,  
 Y. M. Rhee,  J. Ritchie,  M. A. Rohrdanz,  E. Rosta,  N. J. Russ,  
 H. F. Schaefer III,  N. E. Schultz,  N. Shenvi,  A. C. Simmonett,  A. Sodt,  
 D. Stuck,  K. S. Thanthiriwatte,  V. Vanovschi,  Tao Wang,  A. Warshel,  
 C. F. Williams,  Q. Wu,  X. Xu,  W. Zhang

 Please cite Q-Chem as follows:
 Y. Shao et al., Mol. Phys. 113, 184-215 (2015)
 DOI: 10.1080/00268976.2014.952696

 Q-Chem 5.0.2 for Intel X86 EM64T Linux

 Parts of Q-Chem use Armadillo 5.200.1 (Boston Tea Smuggler).
 http://arma.sourceforge.net/

 Q-Chem begins on Wed Mar  2 19:01:48 2022  

Host: 
0

     Scratch files written to ./qcts1.d//
 Dec517 15110_ 26548  26544 5633   
Processing $rem in /home/leeping/opt/qchem/5.0.2-openmp/config/preferences.
 MEM_STATIC 2000
 MEM_TOTAL  8000
 SYMMETRY   OFF
 SYM_IGNORE TRUE 

Checking the input file for inconsistencies... 	...done.

--------------------------------------------------------------
User input:
--------------------------------------------------------------
$molecule
0 2
C        1.7454678101    0.3339671072   -0.4465498483
C        1.2335012708   -0.9487431784   -0.5248967036
C       -0.0816795760   -1.3194089684   -0.1476469512
C       -1.0096535482   -0.4404239324    0.3787818136
C       -0.1452421553    1.5325112782    0.3305595724
N        1.0726859564    1.4059306321    0.0764228021
H        2.8027740501    0.5074342969   -0.6189196544
H        1.9004216861   -1.7373122706   -0.8541621207
H       -0.4220019384   -2.3401871573   -0.2869882398
H       -2.2477966717   -0.8425479390    0.2784126840
H       -0.5920710148    2.2759722613    0.9846992571
C       -1.8616297500    0.5482381704    0.0083514122
H       -2.3745880207    1.0359808735    0.8508124146
$end

$rem
method                b3lyp
basis                 6-31g(d)
unrestricted          true
symmetry              off
sym_ignore            true
incdft                false
incfock               0
scf_convergence       6
thresh                14
jobtype               sp
scf_guess             read
scf_algorithm         diis
max_scf_cycles        100
stability_analysis    true
max_cis_cycles        100
cis_n_roots           4
$end

--------------------------------------------------------------
 ----------------------------------------------------------------
             Standard Nuclear Orientation (Angstroms)
    I     Atom           X                Y                Z
 ----------------------------------------------------------------
    1      C       1.7454678101     0.3339671072    -0.4465498483
    2      C       1.2335012708    -0.9487431784    -0.5248967036
    3      C      -0.0816795760    -1.3194089684    -0.1476469512
    4      C      -1.0096535482    -0.4404239324     0.3787818136
    5      C      -0.1452421553     1.5325112782     0.3305595724
    6      N       1.0726859564     1.4059306321     0.0764228021
    7      H       2.8027740501     0.5074342969    -0.6189196544
    8      H       1.9004216861    -1.7373122706    -0.8541621207
    9      H      -0.4220019384    -2.3401871573    -0.2869882398
   10      H      -2.2477966717    -0.8425479390     0.2784126840
   11      H      -0.5920710148     2.2759722613     0.9846992571
   12      C      -1.8616297500     0.5482381704     0.0083514122
   13      H      -2.3745880207     1.0359808735     0.8508124146
 ----------------------------------------------------------------
 Nuclear Repulsion Energy =   259.4444010276 hartrees
 There are       25 alpha and       24 beta electrons
 Requested basis set is 6-31G(d)
 There are 40 shells and 117 basis functions

 Total QAlloc Memory Limit   8000 MB
 Mega-Array Size      1956 MB
 MEM_STATIC part      2000 MB

                       Distance Matrix (Angstroms)
             C (  1)   C (  2)   C (  3)   C (  4)   C (  5)   N (  6)
   C (  2)  1.383327
   C (  3)  2.482229  1.417537
   C (  4)  2.978514  2.471187  1.382345
   C (  5)  2.369639  2.964686  2.892433  2.154531
   N (  6)  1.369395  2.435557  2.968205  2.799390  1.250583
   H (  7)  1.085218  2.142874  3.446669  4.053202  3.262375  2.069783
   H (  8)  2.116685  1.083993  2.145351  3.416227  4.034855  3.380993
   H (  9)  3.445938  2.175640  1.084999  2.097066  3.931381  4.049637
   H ( 10)  4.225627  3.574356  2.258536  1.305671  3.172438  4.015229
   H ( 11)  3.359158  4.001298  3.803876  2.814306  1.086411  2.086469
   C ( 12)  3.641977  3.479245  2.584698  1.356663  2.004644  3.057855
   H ( 13)  4.376166  4.341660  3.435435  2.065340  2.342475  3.552498
             H (  7)   H (  8)   H (  9)   H ( 10)   H ( 11)   C ( 12)
   H (  8)  2.430734
   H (  9)  4.314894  2.465521
   H ( 10)  5.304330  4.392157  2.428194
   H ( 11)  4.150216  5.069555  4.791142  3.600755
   C ( 12)  4.706570  4.485610  3.240795  1.468450  2.355865
   H ( 13)  5.407823  5.373435  4.062720  1.967889  2.175516  1.100345

 
 A cutoff of  1.0D-14 yielded    795 shell pairs
 There are      7067 function pairs
 Smallest overlap matrix eigenvalue = 1.58E-03

 Scale SEOQF with 1.000000e-01/1.000000e-01/1.000000e+00

 Standard Electronic Orientation quadrupole field applied
 Nucleus-field energy     =    -0.0000000005 hartrees
 Guess MOs from SCF MO coefficient file
 Reading MOs from coefficient file
 Reading MOs from coefficient file
 An unrestricted hybrid HF-DFT SCF calculation will be
 performed using Pulay DIIS extrapolation
 Exchange:     0.2000 Hartree-Fock + 0.0800 Slater + 0.7200 B88
 Correlation:  0.1900 VWN1RPA + 0.8100 LYP
 Using SG-1 standard quadrature grid
 SCF converges when DIIS error is below 1.0E-06
Using Q-Chem read-in guess as SCF_GUESS READ specified.

 -------------------------------------------------------
 OpenMP BLAS3 based DFT computing Module                
 -------------------------------------------------------
 ---------------------------------------
  Cycle       Energy         DIIS Error
 ---------------------------------------
    1    -286.6850732866      2.19E-09
    2    -286.6850732866      3.73E-09 Convergence criterion met
 ---------------------------------------
 <S^2> = 0.7617
 SCF time:  CPU 3.10 s  wall 3.76 s
 SCF   energy in the final basis set = -286.68507329
 Total energy in the final basis set = -286.68507329
 
 Direct TDDFT/TDA calculation will be performed
 Exchange:     0.2000 Hartree-Fock + 0.0800 Slater + 0.7200 B88
 Correlation:  0.1900 VWN1RPA + 0.8100 LYP
 Using SG-1 standard quadrature grid
 CIS energy converged when residual is below 10e- 6
 ---------------------------------------------------
 Iter    Rts Conv    Rts Left    Ttl Dev     Max Dev
 ---------------------------------------------------
   1         0           4      0.004633    0.001967
   2         0           4      0.001495    0.000567
   3         0           4      0.000578    0.000189
   4         0           4      0.000238    0.000076
   5         0           4      0.000783    0.000711
   6         0           4      0.000229    0.000206
   7         1           3      0.000069    0.000063
   8         3           1      0.000029    0.000027
   9         3           1      0.000008    0.000007
  10         3           1      0.000003    0.000002
  11         4           0      0.000002    0.000001    Roots Converged
 ---------------------------------------------------
 
 ---------------------------------------------------
         TDDFT/TDA Excitation Energies              
 ---------------------------------------------------

 Excited state   1: excitation energy (eV) =    0.6515
 Total energy for state  1:                  -286.66113093 au
    <S**2>     :  0.8338
    Trans. Mom.:  0.1810 X  -0.0977 Y  -0.1420 Z
    Strength   :     0.0009971257
    D( 24) --> S(  1) amplitude =  0.9888 beta

 Excited state   2: excitation energy (eV) =    1.9251
 Total energy for state  2:                  -286.61432625 au
    <S**2>     :  2.5692
    Trans. Mom.:  0.0336 X   0.0054 Y   0.0276 Z
    Strength   :     0.0000904944
    D( 24) --> V(  1) amplitude =  0.3242 alpha
    S(  1) --> V(  1) amplitude =  0.6817 alpha
    D( 24) --> V(  1) amplitude = -0.6145 beta

 Excited state   3: excitation energy (eV) =    2.1346
 Total energy for state  3:                  -286.60662679 au
    <S**2>     :  0.8692
    Trans. Mom.: -0.2444 X   0.0251 Y   0.0536 Z
    Strength   :     0.0033063468
    D( 24) --> V(  1) amplitude =  0.8908 alpha
    S(  1) --> V(  1) amplitude = -0.3990 alpha
    D( 24) --> V(  2) amplitude = -0.1569 beta

 Excited state   4: excitation energy (eV) =    2.6030
 Total energy for state  4:                  -286.58941308 au
    <S**2>     :  2.7059
    Trans. Mom.: -0.0345 X  -0.0502 Y   0.0050 Z
    Strength   :     0.0002378177
    S(  1) --> V(  1) amplitude = -0.1661 alpha
    S(  1) --> V(  2) amplitude = -0.6980 alpha
    D( 24) --> V(  2) amplitude =  0.6657 beta
 
 ---------------------------------------------------

 Stability analysis will be performed
 ---------------------------------------------------
 Iter    Rts Conv    Rts Left    Ttl Dev     Max Dev
 ---------------------------------------------------
   1         0           8      0.004826    0.000680
   2         0           8      0.002226    0.000462
   3         0           8      0.000866    0.000206
   4         1           7      0.000409    0.000144
   5         2           6      0.000203    0.000102
   6         4           4      0.000086    0.000051
   7         4           4      0.000040    0.000025
   8         5           3      0.000015    0.000009
   9         7           1      0.000006    0.000003
  10         8           0      0.000004    0.000001    Roots Converged
 UKS-> UKS   stable,    smallest eigenvalue:      0.0144839
 UKS->CUKS   stable,    smallest eigenvalue:      0.0247096
 ---------------------------------------------------
  SETman timing summary (seconds)
  CPU time                79.60s
  System time              0.00s
  Wall time               84.60s
 
 --------------------------------------------------------------
 
                    Orbital Energies (a.u.)
 --------------------------------------------------------------
 
 Alpha MOs
 -- Occupied --
-14.371 -10.265 -10.244 -10.222 -10.218 -10.204 -10.202  -0.959
 -0.843  -0.791  -0.710  -0.656  -0.554  -0.536  -0.522  -0.455
 -0.440  -0.423  -0.407  -0.397  -0.341  -0.310  -0.294  -0.187
 -0.182
 -- Virtual --
 -0.055  -0.020   0.010   0.068   0.093   0.115   0.124   0.166
  0.182   0.187   0.238   0.277   0.337   0.342   0.416   0.432
  0.497   0.505   0.536   0.566   0.567   0.575   0.588   0.601
  0.620   0.633   0.646   0.666   0.689   0.704   0.753   0.770
  0.814   0.836   0.843   0.856   0.866   0.891   0.924   0.924
  0.975   0.996   1.035   1.090   1.114   1.172   1.200   1.270
  1.339   1.360   1.410   1.464   1.538   1.571   1.588   1.634
  1.685   1.719   1.762   1.791   1.834   1.875   1.919   1.928
  1.973   2.003   2.120   2.149   2.178   2.216   2.241   2.294
  2.342   2.378   2.422   2.463   2.505   2.605   2.607   2.679
  2.749   2.848   2.973   3.002   3.260   3.976   4.081   4.134
  4.184   4.284   4.375   4.569
 
 Beta MOs
 -- Occupied --
-14.369 -10.257 -10.243 -10.220 -10.217 -10.203 -10.200  -0.952
 -0.834  -0.785  -0.703  -0.648  -0.544  -0.531  -0.514  -0.451
 -0.425  -0.414  -0.402  -0.390  -0.331  -0.300  -0.284  -0.178
 -- Virtual --
 -0.104  -0.043  -0.015   0.028   0.080   0.102   0.119   0.136
  0.170   0.184   0.191   0.243   0.280   0.339   0.347   0.420
  0.435   0.504   0.508   0.541   0.570   0.572   0.581   0.592
  0.606   0.625   0.640   0.649   0.675   0.695   0.711   0.764
  0.776   0.824   0.839   0.846   0.861   0.870   0.895   0.928
  0.929   0.987   0.998   1.040   1.094   1.120   1.178   1.205
  1.274   1.345   1.367   1.416   1.471   1.543   1.578   1.593
  1.644   1.691   1.727   1.769   1.801   1.837   1.887   1.926
  1.934   1.980   2.009   2.126   2.154   2.185   2.227   2.251
  2.301   2.347   2.385   2.431   2.471   2.510   2.611   2.613
  2.685   2.753   2.855   2.979   3.006   3.265   3.982   4.083
  4.147   4.191   4.286   4.379   4.572
 --------------------------------------------------------------
 
          Ground-State Mulliken Net Atomic Charges

     Atom                 Charge (a.u.)    Spin (a.u.)
  --------------------------------------------------------
      1 C                    -0.017244       0.100704
      2 C                    -0.097965       0.018063
      3 C                    -0.154465       0.089706
      4 C                    -0.071281       0.076823
      5 C                    -0.018329       0.432034
      6 N                    -0.314570       0.076759
      7 H                     0.146383      -0.006391
      8 H                     0.139891       0.004590
      9 H                     0.160730      -0.004259
     10 H                     0.142872       0.129535
     11 H                     0.188483       0.053985
     12 C                    -0.257389       0.033638
     13 H                     0.152884      -0.005187
  --------------------------------------------------------
  Sum of atomic charges =    -0.000000
  Sum of spin   charges =     1.000000

 -----------------------------------------------------------------
                    Cartesian Multipole Moments
 -----------------------------------------------------------------
    Charge (ESU x 10^10)
                 0.0000
    Dipole Moment (Debye)
         X      -0.1071      Y      -1.0353      Z       1.0390
       Tot       1.4706
    Quadrupole Moments (Debye-Ang)
        XX     -39.7930     XY      -0.9838     YY     -38.4896
        XZ      -4.4154     YZ       3.1059     ZZ     -43.6382
    Octopole Moments (Debye-Ang^2)
       XXX      -1.8219    XXY     -11.0255    XYY      -7.9342
       YYY     -20.2787    XXZ       4.0882    XYZ      -2.9587
       YYZ       2.3712    XZZ      -2.6754    YZZ      -3.7261
       ZZZ       5.7561
    Hexadecapole Moments (Debye-Ang^3)
      XXXX    -449.1791   XXXY       8.0129   XXYY    -135.5026
      XYYY     -10.3724   YYYY    -326.1848   XXXZ      17.0684
      XXYZ      -2.2700   XYYZ       5.8159   YYYZ     -11.5070
      XXZZ     -95.7492   XYZZ      -1.6091   YYZZ     -69.6926
      XZZZ      42.1872   YZZZ     -23.1597   ZZZZ     -84.4092
 -----------------------------------------------------------------
Archival summary:
1\1\c8-89\SP\ProcedureUnspecified\6-31G*\166(2)\hpark21\WedMar219:03:182022WedMar219:03:182022\0\\#,ProcedureUnspecified,6-31G*,\\0,2\N\C,1,1.25058\H,2,1.08641,1,126.311\C,1,1.36939,2,129.443,3,161.897,0\H,4,1.08522,1,114.469,2,176.79,0\C,4,1.38333,1,124.448,2,-15.2373,0\H,6,1.08399,4,117.649,1,-173.138,0\C,6,1.41754,4,124.804,1,3.79731,0\H,8,1.085,6,120.188,4,176.931,0\C,8,1.38234,6,123.911,4,-1.60848,0\H,10,1.30567,8,114.298,6,159.899,0\C,10,1.35666,8,141.35,6,77.035,0\H,12,1.10035,10,114,8,-175.399,0\\\@

 Total job time:  89.90s(wall), 82.89s(cpu) 
 Wed Mar  2 19:03:18 2022

        *************************************************************
        *                                                           *
        *  Thank you very much for using Q-Chem.  Have a nice day.  *
        *                                                           *
        *************************************************************


