
Running Job 1 of 1 qcts2.in
qchem qcts2.in_37036.0 ./qcts2.d/ 1
/home/leeping/opt/qchem/5.0.2-openmp/exe/qcprog.exe_s qcts2.in_37036.0 ./qcts2.d/
Check license passed

                  Welcome to Q-Chem
     A Quantum Leap Into The Future Of Chemistry


 Q-Chem 5.0, Q-Chem, Inc., Pleasanton, CA (2017)

 Yihan Shao,  Zhengting Gan,  E. Epifanovsky,  A. T. B. Gilbert,  M. Wormit,  
 J. Kussmann,  A. W. Lange,  A. Behn,  Jia Deng,  Xintian Feng,  D. Ghosh,  
 M. Goldey,  P. R. Horn,  L. D. Jacobson,  I. Kaliman,  T. Kus,  A. Landau,  
 Jie Liu,  E. I. Proynov,  R. M. Richard,  R. P. Steele,  E. J. Sundstrom,  
 H. L. Woodcock III,  P. M. Zimmerman,  D. Zuev,  B. Albrecht,  E. Alguire,  
 S. A. Baeppler,  D. Barton,  Z. Benda,  Y. A. Bernard,  E. J. Berquist,  
 K. B. Bravaya,  H. Burton,  D. Casanova,  Chun-Min Chang,  Yunqing Chen,  
 A. Chien,  K. D. Closser,  M. P. Coons,  S. Dasgupta,  A. L. Dempwolff,  
 M. Diedenhofen,  Hainam Do,  R. G. Edgar,  Po-Tung Fang,  S. Fatehi,  
 Qingguo Feng,  J. Fosso-Tande,  Qinghui Ge,  A. Ghysels,  G. Gidofalvi,  
 J. Gomes,  J. Gonthier,  A. Gunina,  M. W. D. Hanson-Heine,  
 P. H. P. Harbach,  A. W. Hauser,  J. E. Herr,  E. G. Hohenstein,  
 Z. C. Holden,  Kerwin Hui,  T.-C. Jagau,  Hyunjun Ji,  B. Kaduk,  
 K. Khistyaev,  Jaehoon Kim,  P. Klunzinger,  K. Koh,  D. Kosenkov,  
 L. Koulias,  T. Kowalczyk,  C. M. Krauter,  A. Kunitsa,  Ka Un Lao,  
 A. Laurent,  K. V. Lawler,  Joonho Lee,  D. Lefrancois,  S. Lehtola,  
 D. S. Levine,  Yi-Pei Li,  You-Sheng Lin,  Fenglai Liu,  E. Livshits,  
 A. Luenser,  P. Manohar,  E. Mansoor,  S. F. Manzer,  Shan-Ping Mao,  
 Yuezhi Mao,  N. Mardirossian,  A. V. Marenich,  T. Markovich,  
 L. A. Martinez-Martinez,  S. A. Maurer,  N. J. Mayhall,  S. C. McKenzie,  
 J.-M. Mewes,  A. F. Morrison,  J. W. Mullinax,  K. Nanda,  
 T. S. Nguyen-Beck,  R. Olivares-Amaya,  J. A. Parkhill,  T. M. Perrine,  
 F. Plasser,  S. Prager,  A. Prociuk,  E. Ramos,  D. R. Rehn,  F. Rob,  
 M. Schneider,  N. Sergueev,  S. M. Sharada,  S. Sharma,  D. W. Small,  
 T. Stauch,  T. Stein,  Yu-Chuan Su,  A. J. W. Thom,  A. Tkatchenko,  
 T. Tsuchimochi,  L. Vogt,  O. Vydrov,  M. A. Watson,  J. Wenzel,  
 M. de Wergifosse,  T. A. Wesolowski,  A. White,  J. Witte,  A. Yamada,  
 Jun Yang,  K. Yao,  S. Yeganeh,  S. R. Yost,  Zhi-Qiang You,  A. Zech,  
 Igor Ying Zhang,  Xing Zhang,  Yan Zhao,  Ying Zhu,  B. R. Brooks,  
 G. K. L. Chan,  C. J. Cramer,  M. S. Gordon,  W. J. Hehre,  A. Klamt,  
 M. W. Schmidt,  C. D. Sherrill,  D. G. Truhlar,  A. Aspuru-Guzik,  R. Baer,  
 A. T. Bell,  N. A. Besley,  Jeng-Da Chai,  R. A. DiStasio Jr.,  A. Dreuw,  
 B. D. Dunietz,  T. R. Furlani,  Chao-Ping Hsu,  Yousung Jung,  Jing Kong,  
 D. S. Lambrecht,  WanZhen Liang,  C. Ochsenfeld,  V. A. Rassolov,  
 L. V. Slipchenko,  J. E. Subotnik,  T. Van Voorhis,  J. M. Herbert,  
 A. I. Krylov,  P. M. W. Gill,  M. Head-Gordon

 Contributors to earlier versions of Q-Chem not listed above: 
 R. D. Adamson,  B. Austin,  J. Baker,  G. J. O. Beran,  K. Brandhorst,  
 S. T. Brown,  E. F. C. Byrd,  A. K. Chakraborty,  C.-L. Cheng,  
 Siu Hung Chien,  D. M. Chipman,  D. L. Crittenden,  H. Dachsel,  
 R. J. Doerksen,  A. D. Dutoi,  L. Fusti-Molnar,  W. A. Goddard III,  
 A. Golubeva-Zadorozhnaya,  S. R. Gwaltney,  G. Hawkins,  A. Heyden,  
 S. Hirata,  G. Kedziora,  F. J. Keil,  C. Kelley,  Jihan Kim,  R. A. King,  
 R. Z. Khaliullin,  P. P. Korambath,  W. Kurlancheek,  A. M. Lee,  M. S. Lee,  
 S. V. Levchenko,  Ching Yeh Lin,  D. Liotard,  R. C. Lochan,  I. Lotan,  
 P. E. Maslen,  N. Nair,  D. P. O'Neill,  D. Neuhauser,  E. Neuscamman,  
 C. M. Oana,  R. Olson,  B. Peters,  R. Peverati,  P. A. Pieniazek,  
 Y. M. Rhee,  J. Ritchie,  M. A. Rohrdanz,  E. Rosta,  N. J. Russ,  
 H. F. Schaefer III,  N. E. Schultz,  N. Shenvi,  A. C. Simmonett,  A. Sodt,  
 D. Stuck,  K. S. Thanthiriwatte,  V. Vanovschi,  Tao Wang,  A. Warshel,  
 C. F. Williams,  Q. Wu,  X. Xu,  W. Zhang

 Please cite Q-Chem as follows:
 Y. Shao et al., Mol. Phys. 113, 184-215 (2015)
 DOI: 10.1080/00268976.2014.952696

 Q-Chem 5.0.2 for Intel X86 EM64T Linux

 Parts of Q-Chem use Armadillo 5.200.1 (Boston Tea Smuggler).
 http://arma.sourceforge.net/

 Q-Chem begins on Wed Mar  2 19:31:36 2022  

Host: 
0

     Scratch files written to ./qcts2.d//
 Dec517 15110_ 26548  26544 5633   
Processing $rem in /home/leeping/opt/qchem/5.0.2-openmp/config/preferences.
 MEM_STATIC 2000
 MEM_TOTAL  8000
 SYMMETRY   OFF
 SYM_IGNORE TRUE 

Checking the input file for inconsistencies... 	...done.

--------------------------------------------------------------
User input:
--------------------------------------------------------------
$molecule
0 2
C        1.6785464666    0.3352611048   -0.3613352551
C        1.1694094979   -0.9570213969   -0.4617101894
C       -0.1580320710   -1.4169480602   -0.2342493720
C       -1.2327166987   -0.6371626153    0.0660957876
C        0.2671468820    2.3395170552    0.2395492853
N        1.0168896825    1.3847012150    0.0984742634
H        2.7211379649    0.5205224674   -0.6069269653
H        1.8968954922   -1.7196608419   -0.7227645928
H       -0.3175947196   -2.4905721151   -0.2527017869
H       -2.3664168573   -1.0978249425    0.0958645375
H        0.1574807603    2.8196367116    1.2282475142
C       -2.1818893057    0.2990605156   -0.0045888631
H       -2.6306689958    0.6319020759    0.9449220745
$end

$rem
method                b3lyp
basis                 6-31+g(d,p)
unrestricted          true
symmetry              off
sym_ignore            true
incdft                false
incfock               0
scf_convergence       6
thresh                14
jobtype               sp
scf_guess             read
scf_algorithm         diis
max_scf_cycles        100
stability_analysis    true
max_cis_cycles        100
cis_n_roots           4
$end

--------------------------------------------------------------
 ----------------------------------------------------------------
             Standard Nuclear Orientation (Angstroms)
    I     Atom           X                Y                Z
 ----------------------------------------------------------------
    1      C       1.6785464666     0.3352611048    -0.3613352551
    2      C       1.1694094979    -0.9570213969    -0.4617101894
    3      C      -0.1580320710    -1.4169480602    -0.2342493720
    4      C      -1.2327166987    -0.6371626153     0.0660957876
    5      C       0.2671468820     2.3395170552     0.2395492853
    6      N       1.0168896825     1.3847012150     0.0984742634
    7      H       2.7211379649     0.5205224674    -0.6069269653
    8      H       1.8968954922    -1.7196608419    -0.7227645928
    9      H      -0.3175947196    -2.4905721151    -0.2527017869
   10      H      -2.3664168573    -1.0978249425     0.0958645375
   11      H       0.1574807603     2.8196367116     1.2282475142
   12      C      -2.1818893057     0.2990605156    -0.0045888631
   13      H      -2.6306689958     0.6319020759     0.9449220745
 ----------------------------------------------------------------
 Nuclear Repulsion Energy =   246.4328260590 hartrees
 There are       25 alpha and       24 beta electrons
 Requested basis set is 6-31+G(d,p)
 There are 53 shells and 163 basis functions

 Total QAlloc Memory Limit   8000 MB
 Mega-Array Size      1956 MB
 MEM_STATIC part      2000 MB

                       Distance Matrix (Angstroms)
             C (  1)   C (  2)   C (  3)   C (  4)   C (  5)   N (  6)
   C (  2)  1.392584
   C (  3)  2.541537  1.423156
   C (  4)  3.098993  2.480141  1.361330
   C (  5)  2.523916  3.488984  3.810025  3.337709
   N (  6)  1.323079  2.412620  3.056204  3.024849  1.222166
   H (  7)  1.087030  2.147577  3.490315  4.174465  3.169753  2.036875
   H (  8)  2.097859  1.085820  2.133778  3.404200  4.478733  3.329551
   H (  9)  3.461461  2.146309  1.085573  2.091460  4.890194  4.113626
   H ( 10)  4.315611  3.582287  2.255610  1.224080  4.332623  4.196392
   H ( 11)  3.318514  4.259472  4.493005  3.902910  1.104566  2.018418
   C ( 12)  3.877053  3.608033  2.663349  1.335080  3.197006  3.379560
   H ( 13)  4.512609  4.352458  3.420843  2.082578  3.436690  3.819406
             H (  7)   H (  8)   H (  9)   H ( 10)   H ( 11)   C ( 12)
   H (  8)  2.389815
   H (  9)  4.292559  2.391491
   H ( 10)  5.384810  4.385506  2.501782
   H ( 11)  3.902067  5.238056  5.533283  4.795712
   C ( 12)  4.944849  4.607331  3.364403  1.412597  3.653196
   H ( 13)  5.573372  5.367482  4.066259  1.944912  3.555311  1.101707

 
 A cutoff of  1.0D-14 yielded   1344 shell pairs
 There are     13270 function pairs
 Smallest overlap matrix eigenvalue = 6.78E-06

 Scale SEOQF with 1.000000e-01/1.000000e-01/1.000000e-01

 Standard Electronic Orientation quadrupole field applied
 Nucleus-field energy     =     0.0000000089 hartrees
 Guess MOs from SCF MO coefficient file
 Reading MOs from coefficient file
 Reading MOs from coefficient file
 An unrestricted hybrid HF-DFT SCF calculation will be
 performed using Pulay DIIS extrapolation
 Exchange:     0.2000 Hartree-Fock + 0.0800 Slater + 0.7200 B88
 Correlation:  0.1900 VWN1RPA + 0.8100 LYP
 Using SG-1 standard quadrature grid
 SCF converges when DIIS error is below 1.0E-06
Using Q-Chem read-in guess as SCF_GUESS READ specified.

 -------------------------------------------------------
 OpenMP BLAS3 based DFT computing Module                
 -------------------------------------------------------
 ---------------------------------------
  Cycle       Energy         DIIS Error
 ---------------------------------------
    1    -286.7515275752      3.82E-09
    2    -286.7515275752      5.98E-09 Convergence criterion met
 ---------------------------------------
 <S^2> = 0.7915
 SCF time:  CPU 5.90 s  wall 7.47 s
 SCF   energy in the final basis set = -286.75152758
 Total energy in the final basis set = -286.75152758
 
 Direct TDDFT/TDA calculation will be performed
 Exchange:     0.2000 Hartree-Fock + 0.0800 Slater + 0.7200 B88
 Correlation:  0.1900 VWN1RPA + 0.8100 LYP
 Using SG-1 standard quadrature grid
 CIS energy converged when residual is below 10e- 6
 ---------------------------------------------------
 Iter    Rts Conv    Rts Left    Ttl Dev     Max Dev
 ---------------------------------------------------
   1         0           4      0.003338    0.001461
   2         0           4      0.001506    0.000495
   3         0           4      0.001018    0.000407
   4         0           4      0.000475    0.000214
   5         0           4      0.000172    0.000087
   6         0           4      0.000054    0.000031
   7         1           3      0.000020    0.000013
   8         2           2      0.000006    0.000004
   9         3           1      0.000002    0.000001
  10         4           0      0.000001    0.000000    Roots Converged
 ---------------------------------------------------
 
 ---------------------------------------------------
         TDDFT/TDA Excitation Energies              
 ---------------------------------------------------

 Excited state   1: excitation energy (eV) =    1.5394
 Total energy for state  1:                  -286.69495508 au
    <S**2>     :  0.9531
    Trans. Mom.:  0.1723 X  -0.0150 Y  -0.0522 Z
    Strength   :     0.0012308132
    S(  1) --> V(  1) amplitude =  0.9475 alpha
    D( 24) --> S(  1) amplitude = -0.2177 beta

 Excited state   2: excitation energy (eV) =    2.0322
 Total energy for state  2:                  -286.67684427 au
    <S**2>     :  0.8189
    Trans. Mom.:  0.2037 X   0.2910 Y  -0.0043 Z
    Strength   :     0.0062829823
    S(  1) --> V(  1) amplitude =  0.1774 alpha
    S(  1) --> V(  2) amplitude = -0.5295 alpha
    D( 24) --> S(  1) amplitude =  0.7999 beta

 Excited state   3: excitation energy (eV) =    2.4067
 Total energy for state  3:                  -286.66308332 au
    <S**2>     :  1.6459
    Trans. Mom.: -0.1742 X  -0.1679 Y  -0.0197 Z
    Strength   :     0.0034735823
    D( 24) --> V(  1) amplitude =  0.5606 alpha
    S(  1) --> V(  2) amplitude = -0.2980 alpha
    S(  1) --> V(  3) amplitude =  0.5108 alpha
    S(  1) --> V(  4) amplitude = -0.2481 alpha
    D( 24) --> S(  1) amplitude = -0.2728 beta
    D( 24) --> V(  1) amplitude = -0.3746 beta

 Excited state   4: excitation energy (eV) =    2.8090
 Total energy for state  4:                  -286.64829764 au
    <S**2>     :  1.4000
    Trans. Mom.:  0.2310 X   0.1047 Y   0.0765 Z
    Strength   :     0.0048305934
    S(  1) --> V(  2) amplitude =  0.4961 alpha
    S(  1) --> V(  3) amplitude = -0.1742 alpha
    D( 24) --> S(  1) amplitude =  0.1743 beta
    D( 24) --> V(  1) amplitude = -0.7890 beta
 
 ---------------------------------------------------

 Stability analysis will be performed
 ---------------------------------------------------
 Iter    Rts Conv    Rts Left    Ttl Dev     Max Dev
 ---------------------------------------------------
   1         0           8      0.003829    0.000508
   2         0           8      0.001427    0.000323
   3         0           8      0.000745    0.000198
   4         0           8      0.000419    0.000178
   5         3           5      0.000332    0.000222
   6         3           5      0.000350    0.000308
   7         4           4      0.000205    0.000189
   8         5           3      0.000090    0.000085
   9         7           1      0.000032    0.000030
  10         7           1      0.000011    0.000009
  11         7           1      0.000004    0.000002
  12         8           0      0.000003    0.000001    Roots Converged
 UKS-> UKS   stable,    smallest eigenvalue:      0.0477429
 UKS->CUKS   stable,    smallest eigenvalue:      0.0578227
 ---------------------------------------------------
  SETman timing summary (seconds)
  CPU time               182.87s
  System time              0.00s
  Wall time              192.63s
 
 --------------------------------------------------------------
 
                    Orbital Energies (a.u.)
 --------------------------------------------------------------
 
 Alpha MOs
 -- Occupied --
-14.400 -10.255 -10.244 -10.244 -10.238 -10.211 -10.210  -0.974
 -0.860  -0.807  -0.745  -0.665  -0.562  -0.526  -0.520  -0.497
 -0.456  -0.425  -0.406  -0.401  -0.361  -0.340  -0.299  -0.219
 -0.164
 -- Virtual --
 -0.060  -0.028  -0.014  -0.010   0.019   0.022   0.041   0.046
  0.049   0.061   0.070   0.075   0.081   0.087   0.097   0.109
  0.114   0.127   0.131   0.132   0.144   0.154   0.174   0.177
  0.185   0.200   0.204   0.210   0.214   0.221   0.231   0.236
  0.251   0.262   0.276   0.291   0.301   0.308   0.322   0.328
  0.399   0.407   0.463   0.513   0.610   0.646   0.662   0.673
  0.686   0.709   0.719   0.732   0.742   0.767   0.773   0.796
  0.813   0.846   0.876   0.892   0.913   0.927   0.948   0.950
  0.974   0.977   1.006   1.035   1.051   1.129   1.153   1.163
  1.203   1.225   1.240   1.288   1.320   1.336   1.357   1.391
  1.424   1.454   1.511   1.562   1.590   1.657   1.660   1.710
  1.726   1.767   1.802   1.858   1.872   1.938   1.944   1.965
  2.023   2.095   2.134   2.134   2.194   2.202   2.244   2.283
  2.303   2.345   2.386   2.403   2.438   2.468   2.484   2.494
  2.514   2.550   2.575   2.641   2.759   2.774   2.807   2.913
  2.937   3.007   3.048   3.147   3.255   3.281   3.323   3.375
  3.401   3.446   3.732   4.236   4.260   4.321   4.378   4.451
  4.579   4.753
 
 Beta MOs
 -- Occupied --
-14.396 -10.252 -10.242 -10.241 -10.239 -10.212 -10.206  -0.966
 -0.855  -0.803  -0.744  -0.657  -0.558  -0.524  -0.511  -0.490
 -0.454  -0.414  -0.397  -0.393  -0.346  -0.336  -0.277  -0.204
 -- Virtual --
 -0.088  -0.052  -0.016  -0.010  -0.003   0.021   0.023   0.042
  0.047   0.052   0.062   0.070   0.076   0.083   0.089   0.101
  0.109   0.116   0.129   0.131   0.137   0.145   0.154   0.175
  0.179   0.185   0.201   0.206   0.211   0.215   0.222   0.233
  0.240   0.254   0.265   0.280   0.295   0.303   0.311   0.327
  0.329   0.403   0.412   0.467   0.515   0.613   0.649   0.666
  0.680   0.688   0.714   0.721   0.729   0.751   0.771   0.784
  0.799   0.824   0.849   0.878   0.895   0.916   0.939   0.949
  0.951   0.981   0.988   1.008   1.039   1.055   1.134   1.154
  1.166   1.207   1.230   1.246   1.291   1.326   1.340   1.364
  1.399   1.430   1.464   1.518   1.568   1.596   1.668   1.668
  1.716   1.733   1.781   1.813   1.860   1.877   1.947   1.952
  1.969   2.028   2.101   2.138   2.140   2.198   2.208   2.251
  2.285   2.308   2.349   2.389   2.407   2.448   2.476   2.485
  2.496   2.518   2.554   2.588   2.646   2.764   2.776   2.813
  2.920   2.949   3.010   3.051   3.150   3.258   3.283   3.327
  3.383   3.413   3.447   3.734   4.240   4.264   4.327   4.386
  4.459   4.582   4.756
 --------------------------------------------------------------
 
          Ground-State Mulliken Net Atomic Charges

     Atom                 Charge (a.u.)    Spin (a.u.)
  --------------------------------------------------------
      1 C                    -0.173877      -0.235737
      2 C                    -0.058179       0.453413
      3 C                     0.182457      -0.452934
      4 C                     0.828480       0.151738
      5 C                    -0.189956       0.301840
      6 N                     0.003037       0.200454
      7 H                     0.143444       0.007870
      8 H                     0.124572      -0.019307
      9 H                     0.145012       0.005275
     10 H                     0.167633       0.004727
     11 H                     0.137801       0.076076
     12 C                    -1.476149       0.474387
     13 H                     0.165727       0.032200
  --------------------------------------------------------
  Sum of atomic charges =     0.000000
  Sum of spin   charges =     1.000000

 -----------------------------------------------------------------
                    Cartesian Multipole Moments
 -----------------------------------------------------------------
    Charge (ESU x 10^10)
                 0.0000
    Dipole Moment (Debye)
         X       0.3903      Y      -1.7822      Z       2.0078
       Tot       2.7129
    Quadrupole Moments (Debye-Ang)
        XX     -38.8082     XY       3.4702     YY     -41.0991
        XZ      -5.4203     YZ       4.7631     ZZ     -45.1813
    Octopole Moments (Debye-Ang^2)
       XXX       4.4151    XXY     -14.7037    XYY      -0.2763
       YYY     -33.8108    XXZ      10.0250    XYZ      -2.1997
       YYZ      11.6286    XZZ      -0.8784    YZZ      -3.1958
       ZZZ      14.2074
    Hexadecapole Moments (Debye-Ang^3)
      XXXX    -518.4301   XXXY      -6.9413   XXYY    -164.9084
      XYYY     -18.5397   YYYY    -491.5553   XXXZ     -15.4228
      XXYZ      -3.0954   XYYZ       3.6455   YYYZ       2.1593
      XXZZ    -108.9287   XYZZ     -10.0194   YYZZ     -95.4708
      XZZZ      24.9806   YZZZ     -27.7703   ZZZZ     -90.0490
 -----------------------------------------------------------------
Archival summary:
1\1\c8-89\SP\ProcedureUnspecified\6-31+G**\166(2)\hpark21\WedMar219:34:572022WedMar219:34:572022\0\\#,ProcedureUnspecified,6-31+G**,\\0,2\N\C,1,1.22217\H,2,1.10457,1,120.253\C,1,1.32308,2,165.143,3,170.615,0\H,4,1.08703,1,115.023,2,108.174,0\C,4,1.39258,1,125.329,2,-76.1954,0\H,6,1.08582,4,115.097,1,-171.357,0\C,6,1.42316,4,129.005,1,6.72587,0\H,8,1.08557,6,117.001,4,-172.836,0\C,8,1.36133,6,125.908,4,3.87724,0\H,10,1.22408,8,121.396,6,171.544,0\C,10,1.33508,8,162.036,6,58.6803,0\H,12,1.10171,10,117.118,8,-156.201,0\\\@

 Total job time:  201.07s(wall), 188.97s(cpu) 
 Wed Mar  2 19:34:57 2022

        *************************************************************
        *                                                           *
        *  Thank you very much for using Q-Chem.  Have a nice day.  *
        *                                                           *
        *************************************************************


