13   
From qcopt_rct.out: Frame 2 / 2, Energy=    -286.9243484626
C        1.6280887493    0.3391027060   -0.3019540130
C        1.1393062704   -0.9425637464   -0.4743434477
C       -0.2056342543   -1.4170736337   -0.2709698386
C       -1.2783134949   -0.6850020273    0.1427727917
C       -0.2470394800    1.6189480583    0.4199345590
N        1.0606667123    1.5041511003    0.0879587857
H        2.6914348684    0.4565023492   -0.5223673124
H        1.8646062087   -1.6816373171   -0.8062086005
H       -0.3708195769   -2.4736849397   -0.4720068384
H       -2.2281390324   -1.2061718666    0.2444385915
H       -0.5064384130    2.6398222189    0.7090256910
C       -1.2953814374    0.7195824297    0.4639179646
H       -2.2523371203    1.1280246689    0.7798016675
13   
From qcopt_prd.out: Frame 3 / 3, Energy=    -286.9514673081
C        1.9264581126    0.3341595586   -0.3725268301
C        1.3271150703   -0.9248753849   -0.5152926331
C       -0.0209415807   -1.0632544753   -0.2332442864
C       -0.7680991809    0.0702843546    0.1945501970
C       -0.0357354549    1.2933685065    0.2991092155
N        1.2554706656    1.4291223117    0.0293988681
H        2.9840418805    0.4722864224   -0.5876893744
H        1.9191232260   -1.7746026924   -0.8435753667
H       -0.5169507418   -2.0254850973   -0.3341788248
H       -2.6957761993   -0.9149933304    0.4206959237
H       -0.5597142285    2.1931996499    0.6225303391
C       -2.1382897738    0.0128020257    0.4988979977
H       -2.6767017952    0.8979881509    0.8213247746
