13   
From qcts1.out: Frame 82 / 82, Energy=    -286.7235106067
C        1.6785464666    0.3352611048   -0.3613352551
C        1.1694094979   -0.9570213969   -0.4617101894
C       -0.1580320710   -1.4169480602   -0.2342493720
C       -1.2327166987   -0.6371626153    0.0660957876
C        0.2671468820    2.3395170552    0.2395492853
N        1.0168896825    1.3847012150    0.0984742634
H        2.7211379649    0.5205224674   -0.6069269653
H        1.8968954922   -1.7196608419   -0.7227645928
H       -0.3175947196   -2.4905721151   -0.2527017869
H       -2.3664168573   -1.0978249425    0.0958645375
H        0.1574807603    2.8196367116    1.2282475142
C       -2.1818893057    0.2990605156   -0.0045888631
H       -2.6306689958    0.6319020759    0.9449220745
