13   
From optimize.out: Frame 1 / 3, Energy=    -286.9243160407
C        0.0349130000   -0.1093960000   -0.0000000000
C       -0.1119030000    0.1002970000    0.0000000000
C       -0.1106560000    0.0872540000    0.0000000000
C       -0.1321170000    0.3518130000    0.0000000000
C        0.0362530000   -0.1156090000   -0.0000000000
N       -0.4235960000    0.3873450000   -0.0000000000
H        0.1426480000    0.0032440000   -0.0000000000
H        0.1419180000   -0.0069480000    0.0000000000
H        0.1419440000   -0.0063250000    0.0000000000
H        0.1343950000   -0.0185540000    0.0000000000
H        0.1425880000    0.0035510000   -0.0000000000
C       -0.1308660000    0.3414060000   -0.0000000000
H        0.1344780000   -0.0180780000   -0.0000000000
13   
From optimize.out: Frame 2 / 3, Energy=    -286.9243187257
C        0.0350570000   -0.1100620000   -0.0000000000
C       -0.1118250000    0.0991190000    0.0000000000
C       -0.1107280000    0.0884050000    0.0000000000
C       -0.1320590000    0.3510970000    0.0000000000
C        0.0361330000   -0.1150870000   -0.0000000000
N       -0.4234290000    0.3869930000   -0.0000000000
H        0.1426390000    0.0032780000   -0.0000000000
H        0.1419270000   -0.0068940000    0.0000000000
H        0.1419680000   -0.0063810000    0.0000000000
H        0.1343390000   -0.0185230000    0.0000000000
H        0.1425800000    0.0035250000   -0.0000000000
C       -0.1310460000    0.3426650000   -0.0000000000
H        0.1344430000   -0.0181340000   -0.0000000000
