13   
From optimize.out: Frame 1 / 3, Energy=    -286.9243160407
C        1.3040196554    0.7956888597   -0.7236635384
C        0.4945328874   -1.2768841593    0.4993852125
C       -0.8222316272   -0.9830105157    0.6927735538
C       -1.5124867511    0.2121169756    0.2815345910
C       -0.9989830858    1.3069394214   -0.3897422234
N        0.2330528547    1.6156848636   -0.8559364668
H        2.2056516302    1.2288584877   -1.1621699808
H        0.8542421306   -2.2302521277    0.8807860513
H       -1.4271471095   -1.7241576763    1.2115871739
H       -2.5703245594    0.2645616038    0.5272875448
H       -1.7228495174    2.0991423409   -0.5943288963
C        1.4773709690   -0.4518761504   -0.1561241677
H        2.4851525232   -0.8568119233   -0.2113888539
13   
From optimize.out: Frame 2 / 3, Energy=    -286.9243187257
C        1.3040787586    0.7965143863   -0.7226674375
C        0.4949950523   -1.2759929378    0.5015103268
C       -0.8220822908   -0.9828933829    0.6937766639
C       -1.5121213949    0.2121724171    0.2814295610
C       -0.9985846610    1.3072821196   -0.3890334230
N        0.2335401797    1.6161238487   -0.8543652145
H        2.2047119863    1.2285559008   -1.1643867682
H        0.8538253822   -2.2314719370    0.8788582653
H       -1.4270038692   -1.7242979655    1.2120134212
H       -2.5704738125    0.2643424735    0.5252823514
H       -1.7229513320    2.0984055203   -0.5953214142
C        1.4775824985   -0.4510402097   -0.1548478061
H        2.4844835028   -0.8577002334   -0.2122485262
