13   
Frame   0 IRC: Energy =  -286.8569550000 ; +0.0000 kcal/mol
C       -0.0124710000   -0.0013710000   -0.0000000000
C       -0.1098190000   -0.0868310000   -0.0000000000
C       -0.0494500000    0.1662590000   -0.0000000000
C       -0.1070080000   -0.1019050000    0.0000000000
C       -0.2531340000    0.0149110000   -0.0000000000
N       -0.1774470000    0.0276340000   -0.0000000000
H        0.1319320000    0.0016090000   -0.0000000000
H        0.1314510000    0.0085260000   -0.0000000000
H        0.1351610000    0.0076490000   -0.0000000000
H        0.1400260000    0.0004450000    0.0000000000
H        0.1448690000    0.0032830000   -0.0000000000
C       -0.1109840000    0.9999900000    0.0000000000
H        0.1368760000   -0.0401970000    0.0000000000
13   
Frame   1 IRC: Energy =  -286.8569510000 ; +0.0025 kcal/mol
C       -0.0124470000   -0.0014850000   -0.0000000000
C       -0.1099800000   -0.0865720000   -0.0000000000
C       -0.0494470000    0.1662660000   -0.0000000000
C       -0.1067730000   -0.1016210000    0.0000000000
C       -0.2532980000    0.0146760000   -0.0000000000
N       -0.1773920000    0.0274890000   -0.0000000000
H        0.1319470000    0.0016050000   -0.0000000000
H        0.1314630000    0.0084680000   -0.0000000000
H        0.1351610000    0.0076670000   -0.0000000000
H        0.1400560000    0.0004310000    0.0000000000
H        0.1448610000    0.0032770000   -0.0000000000
C       -0.1110210000    0.9999310000    0.0000000000
H        0.1368690000   -0.0401310000    0.0000000000
13   
Frame   2 IRC: Energy =  -286.8569430000 ; +0.0075 kcal/mol
C       -0.0120910000   -0.0017120000   -0.0000000000
C       -0.1106620000   -0.0862010000   -0.0000000000
C       -0.0490520000    0.1665070000   -0.0000000000
C       -0.1071240000   -0.1010340000    0.0000000000
C       -0.2534090000    0.0141780000   -0.0000000000
N       -0.1773780000    0.0272790000   -0.0000000000
H        0.1319500000    0.0016040000   -0.0000000000
H        0.1314700000    0.0083760000   -0.0000000000
H        0.1351800000    0.0077120000   -0.0000000000
H        0.1400780000    0.0003950000    0.0000000000
H        0.1448720000    0.0032700000   -0.0000000000
C       -0.1106920000    0.9996110000    0.0000000000
H        0.1368570000   -0.0399840000    0.0000000000
13   
Frame   3 IRC: Energy =  -286.8569380000 ; +0.0107 kcal/mol
C       -0.0119950000   -0.0018380000   -0.0000000000
C       -0.1109120000   -0.0859140000   -0.0000000000
C       -0.0489790000    0.1664870000   -0.0000000000
C       -0.1068830000   -0.1006990000    0.0000000000
C       -0.2536200000    0.0139070000   -0.0000000000
N       -0.1773230000    0.0271110000   -0.0000000000
H        0.1319630000    0.0016010000   -0.0000000000
H        0.1314760000    0.0083100000   -0.0000000000
H        0.1351840000    0.0077330000   -0.0000000000
H        0.1401080000    0.0003790000    0.0000000000
H        0.1448680000    0.0032640000   -0.0000000000
C       -0.1107320000    0.9995640000    0.0000000000
H        0.1368450000   -0.0399050000    0.0000000000
13   
Frame   4 IRC: Energy =  -286.8569300000 ; +0.0157 kcal/mol
C       -0.0117410000   -0.0020180000   -0.0000000000
C       -0.1114370000   -0.0856180000   -0.0000000000
C       -0.0486870000    0.1667370000   -0.0000000000
C       -0.1071970000   -0.1002330000    0.0000000000
C       -0.2536780000    0.0135110000   -0.0000000000
N       -0.1773150000    0.0269480000   -0.0000000000
H        0.1319670000    0.0016000000   -0.0000000000
H        0.1314880000    0.0082380000   -0.0000000000
H        0.1351980000    0.0077690000   -0.0000000000
H        0.1401280000    0.0003500000    0.0000000000
H        0.1448740000    0.0032580000   -0.0000000000
C       -0.1104430000    0.9992430000    0.0000000000
H        0.1368420000   -0.0397850000    0.0000000000
13   
Frame   5 IRC: Energy =  -286.8569250000 ; +0.0188 kcal/mol
C       -0.0115820000   -0.0021530000   -0.0000000000
C       -0.1117650000   -0.0853070000   -0.0000000000
C       -0.0485360000    0.1666890000   -0.0000000000
C       -0.1070140000   -0.0998380000    0.0000000000
C       -0.2539170000    0.0132030000   -0.0000000000
N       -0.1772540000    0.0267600000   -0.0000000000
H        0.1319780000    0.0015970000   -0.0000000000
H        0.1314890000    0.0081650000   -0.0000000000
H        0.1352050000    0.0077920000   -0.0000000000
H        0.1401530000    0.0003310000    0.0000000000
H        0.1448730000    0.0032530000   -0.0000000000
C       -0.1104530000    0.9992030000    0.0000000000
H        0.1368240000   -0.0396940000    0.0000000000
13   
Frame   6 IRC: Energy =  -286.8569180000 ; +0.0232 kcal/mol
C       -0.0114020000   -0.0023030000   -0.0000000000
C       -0.1121830000   -0.0850600000   -0.0000000000
C       -0.0483280000    0.1669450000   -0.0000000000
C       -0.1072270000   -0.0994680000    0.0000000000
C       -0.2539610000    0.0128820000   -0.0000000000
N       -0.1772560000    0.0266290000   -0.0000000000
H        0.1319820000    0.0015960000   -0.0000000000
H        0.1315040000    0.0081070000   -0.0000000000
H        0.1352180000    0.0078230000   -0.0000000000
H        0.1401790000    0.0003070000    0.0000000000
H        0.1448770000    0.0032470000   -0.0000000000
C       -0.1102350000    0.9988860000    0.0000000000
H        0.1368310000   -0.0395920000    0.0000000000
13   
Frame   7 IRC: Energy =  -286.8569120000 ; +0.0270 kcal/mol
C       -0.0111960000   -0.0024470000   -0.0000000000
C       -0.1125690000   -0.0847270000   -0.0000000000
C       -0.0481190000    0.1668910000   -0.0000000000
C       -0.1071460000   -0.0990140000    0.0000000000
C       -0.2541990000    0.0125380000   -0.0000000000
N       -0.1771860000    0.0264240000   -0.0000000000
H        0.1319930000    0.0015930000   -0.0000000000
H        0.1315030000    0.0080280000   -0.0000000000
H        0.1352240000    0.0078460000   -0.0000000000
H        0.1401950000    0.0002850000    0.0000000000
H        0.1448770000    0.0032410000   -0.0000000000
C       -0.1101830000    0.9988310000    0.0000000000
H        0.1368070000   -0.0394880000    0.0000000000
13   
Frame   8 IRC: Energy =  -286.8569060000 ; +0.0307 kcal/mol
C       -0.0111100000   -0.0025550000   -0.0000000000
C       -0.1128680000   -0.0845470000   -0.0000000000
C       -0.0479650000    0.1671250000   -0.0000000000
C       -0.1072430000   -0.0987600000    0.0000000000
C       -0.2542440000    0.0123100000   -0.0000000000
N       -0.1772120000    0.0263390000   -0.0000000000
H        0.1320040000    0.0015910000   -0.0000000000
H        0.1315200000    0.0079870000   -0.0000000000
H        0.1352380000    0.0078720000   -0.0000000000
H        0.1402270000    0.0002670000    0.0000000000
H        0.1448800000    0.0032370000   -0.0000000000
C       -0.1100500000    0.9985460000    0.0000000000
H        0.1368220000   -0.0394130000    0.0000000000
13   
Frame   9 IRC: Energy =  -286.8569000000 ; +0.0345 kcal/mol
C       -0.0108410000   -0.0026940000   -0.0000000000
C       -0.1132580000   -0.0842330000   -0.0000000000
C       -0.0477890000    0.1670740000   -0.0000000000
C       -0.1072340000   -0.0983200000    0.0000000000
C       -0.2544420000    0.0119810000   -0.0000000000
N       -0.1771190000    0.0261320000   -0.0000000000
H        0.1319960000    0.0015900000   -0.0000000000
H        0.1315150000    0.0079110000   -0.0000000000
H        0.1352410000    0.0078930000   -0.0000000000
H        0.1402350000    0.0002460000    0.0000000000
H        0.1448800000    0.0032320000   -0.0000000000
C       -0.1099800000    0.9984980000    0.0000000000
H        0.1367950000   -0.0393100000    0.0000000000
13   
Frame  10 IRC: Energy =  -286.8568950000 ; +0.0377 kcal/mol
C       -0.0108310000   -0.0027840000   -0.0000000000
C       -0.1135080000   -0.0840610000   -0.0000000000
C       -0.0476050000    0.1672580000   -0.0000000000
C       -0.1072720000   -0.0980810000    0.0000000000
C       -0.2545220000    0.0117730000   -0.0000000000
N       -0.1771640000    0.0260620000   -0.0000000000
H        0.1320260000    0.0015870000   -0.0000000000
H        0.1315310000    0.0078750000   -0.0000000000
H        0.1352560000    0.0079140000   -0.0000000000
H        0.1402660000    0.0002300000    0.0000000000
H        0.1448820000    0.0032280000   -0.0000000000
C       -0.1098700000    0.9982430000    0.0000000000
H        0.1368110000   -0.0392430000    0.0000000000
13   
Frame  11 IRC: Energy =  -286.8568880000 ; +0.0420 kcal/mol
C       -0.0105300000   -0.0029160000   -0.0000000000
C       -0.1138910000   -0.0837760000   -0.0000000000
C       -0.0474710000    0.1672430000   -0.0000000000
C       -0.1072900000   -0.0976790000    0.0000000000
C       -0.2546820000    0.0114710000   -0.0000000000
N       -0.1770650000    0.0258640000   -0.0000000000
H        0.1320030000    0.0015880000   -0.0000000000
H        0.1315270000    0.0078040000   -0.0000000000
H        0.1352590000    0.0079370000   -0.0000000000
H        0.1402750000    0.0002110000    0.0000000000
H        0.1448830000    0.0032230000   -0.0000000000
C       -0.1098060000    0.9981750000    0.0000000000
H        0.1367880000   -0.0391440000    0.0000000000
13   
Frame  12 IRC: Energy =  -286.8568830000 ; +0.0452 kcal/mol
C       -0.0105340000   -0.0030050000   -0.0000000000
C       -0.1141420000   -0.0835860000   -0.0000000000
C       -0.0472580000    0.1673880000   -0.0000000000
C       -0.1073080000   -0.0974140000    0.0000000000
C       -0.2547930000    0.0112510000   -0.0000000000
N       -0.1771090000    0.0257860000   -0.0000000000
H        0.1320410000    0.0015830000   -0.0000000000
H        0.1315420000    0.0077650000   -0.0000000000
H        0.1352730000    0.0079550000   -0.0000000000
H        0.1403020000    0.0001940000    0.0000000000
H        0.1448840000    0.0032190000   -0.0000000000
C       -0.1096980000    0.9979390000    0.0000000000
H        0.1368010000   -0.0390740000    0.0000000000
13   
Frame  13 IRC: Energy =  -286.8568770000 ; +0.0489 kcal/mol
C       -0.0102350000   -0.0031250000   -0.0000000000
C       -0.1144980000   -0.0833340000   -0.0000000000
C       -0.0471550000    0.1673960000   -0.0000000000
C       -0.1073340000   -0.0970570000    0.0000000000
C       -0.2549260000    0.0109830000   -0.0000000000
N       -0.1770130000    0.0256050000   -0.0000000000
H        0.1320120000    0.0015850000   -0.0000000000
H        0.1315380000    0.0077010000   -0.0000000000
H        0.1352770000    0.0079780000   -0.0000000000
H        0.1403120000    0.0001760000    0.0000000000
H        0.1448850000    0.0032140000   -0.0000000000
C       -0.1096470000    0.9978600000    0.0000000000
H        0.1367820000   -0.0389820000    0.0000000000
13   
Frame  14 IRC: Energy =  -286.8568710000 ; +0.0527 kcal/mol
C       -0.0102280000   -0.0032230000   -0.0000000000
C       -0.1147820000   -0.0831100000   -0.0000000000
C       -0.0469100000    0.1675220000   -0.0000000000
C       -0.1073440000   -0.0967420000    0.0000000000
C       -0.2550680000    0.0107320000   -0.0000000000
N       -0.1770520000    0.0255070000   -0.0000000000
H        0.1320550000    0.0015790000   -0.0000000000
H        0.1315530000    0.0076540000   -0.0000000000
H        0.1352910000    0.0079960000   -0.0000000000
H        0.1403400000    0.0001570000    0.0000000000
H        0.1448860000    0.0032090000   -0.0000000000
C       -0.1095320000    0.9976200000    0.0000000000
H        0.1367920000   -0.0389010000    0.0000000000
13   
Frame  15 IRC: Energy =  -286.8568650000 ; +0.0565 kcal/mol
C       -0.0099370000   -0.0033300000   -0.0000000000
C       -0.1151060000   -0.0828890000   -0.0000000000
C       -0.0468320000    0.1675420000   -0.0000000000
C       -0.1073740000   -0.0964300000    0.0000000000
C       -0.2551770000    0.0104980000   -0.0000000000
N       -0.1769600000    0.0253440000   -0.0000000000
H        0.1320200000    0.0015820000   -0.0000000000
H        0.1315490000    0.0075980000   -0.0000000000
H        0.1352950000    0.0080180000   -0.0000000000
H        0.1403500000    0.0001420000    0.0000000000
H        0.1448880000    0.0032050000   -0.0000000000
C       -0.1094930000    0.9975390000    0.0000000000
H        0.1367760000   -0.0388190000    0.0000000000
13   
Frame  16 IRC: Energy =  -286.8568580000 ; +0.0609 kcal/mol
C       -0.0099050000   -0.0034470000   -0.0000000000
C       -0.1154480000   -0.0826140000   -0.0000000000
C       -0.0465450000    0.1676650000   -0.0000000000
C       -0.1073770000   -0.0960410000    0.0000000000
C       -0.2553620000    0.0101940000   -0.0000000000
N       -0.1769910000    0.0252150000   -0.0000000000
H        0.1320670000    0.0015760000   -0.0000000000
H        0.1315650000    0.0075400000   -0.0000000000
H        0.1353110000    0.0080390000   -0.0000000000
H        0.1403810000    0.0001190000    0.0000000000
H        0.1448880000    0.0031990000   -0.0000000000
C       -0.1093690000    0.9972740000    0.0000000000
H        0.1367840000   -0.0387180000    0.0000000000
13   
Frame  17 IRC: Energy =  -286.8568520000 ; +0.0646 kcal/mol
C       -0.0096340000   -0.0035400000   -0.0000000000
C       -0.1157340000   -0.0824320000   -0.0000000000
C       -0.0464800000    0.1677010000   -0.0000000000
C       -0.1074080000   -0.0957780000    0.0000000000
C       -0.2554560000    0.0099930000   -0.0000000000
N       -0.1769000000    0.0250690000   -0.0000000000
H        0.1320290000    0.0015780000   -0.0000000000
H        0.1315640000    0.0074900000   -0.0000000000
H        0.1353170000    0.0080590000   -0.0000000000
H        0.1403930000    0.0001050000    0.0000000000
H        0.1448900000    0.0031960000   -0.0000000000
C       -0.1093520000    0.9971980000    0.0000000000
H        0.1367710000   -0.0386380000    0.0000000000
13   
Frame  18 IRC: Energy =  -286.8568420000 ; +0.0709 kcal/mol
C       -0.0095070000   -0.0036900000   -0.0000000000
C       -0.1162400000   -0.0820300000   -0.0000000000
C       -0.0461080000    0.1678150000   -0.0000000000
C       -0.1074220000   -0.0952170000    0.0000000000
C       -0.2556960000    0.0095850000   -0.0000000000
N       -0.1769330000    0.0248820000   -0.0000000000
H        0.1320800000    0.0015730000   -0.0000000000
H        0.1315720000    0.0074110000   -0.0000000000
H        0.1353250000    0.0080880000   -0.0000000000
H        0.1404220000    0.0000770000    0.0000000000
H        0.1448870000    0.0031890000   -0.0000000000
C       -0.1091590000    0.9968400000    0.0000000000
H        0.1367770000   -0.0385230000    0.0000000000
13   
Frame  19 IRC: Energy =  -286.8568370000 ; +0.0740 kcal/mol
C       -0.0092270000   -0.0037330000   -0.0000000000
C       -0.1165330000   -0.0818210000   -0.0000000000
C       -0.0461140000    0.1678710000   -0.0000000000
C       -0.1075510000   -0.0949660000    0.0000000000
C       -0.2556880000    0.0094300000   -0.0000000000
N       -0.1768430000    0.0247400000   -0.0000000000
H        0.1320350000    0.0015830000   -0.0000000000
H        0.1315560000    0.0073750000   -0.0000000000
H        0.1353240000    0.0081150000   -0.0000000000
H        0.1404150000    0.0000680000    0.0000000000
H        0.1448890000    0.0031910000   -0.0000000000
C       -0.1090200000    0.9966420000    0.0000000000
H        0.1367570000   -0.0384950000    0.0000000000
13   
Frame  20 IRC: Energy =  -286.8568180000 ; +0.0860 kcal/mol
C       -0.0089700000   -0.0041780000   -0.0000000000
C       -0.1171850000   -0.0813340000   -0.0000000000
C       -0.0455970000    0.1678840000   -0.0000000000
C       -0.1072270000   -0.0941420000    0.0000000000
C       -0.2562610000    0.0086920000   -0.0000000000
N       -0.1768140000    0.0244270000   -0.0000000000
H        0.1321020000    0.0015550000   -0.0000000000
H        0.1316220000    0.0072030000   -0.0000000000
H        0.1353890000    0.0081560000   -0.0000000000
H        0.1405100000    0.0000060000    0.0000000000
H        0.1449040000    0.0031590000   -0.0000000000
C       -0.1092630000    0.9966530000    0.0000000000
H        0.1367900000   -0.0380810000    0.0000000000
13   
Frame  21 IRC: Energy =  -286.8568080000 ; +0.0922 kcal/mol
C       -0.0090920000   -0.0043900000   -0.0000000000
C       -0.1172100000   -0.0813200000   -0.0000000000
C       -0.0451250000    0.1677020000   -0.0000000000
C       -0.1076990000   -0.0938790000    0.0000000000
C       -0.2564680000    0.0085390000   -0.0000000000
N       -0.1767630000    0.0244530000   -0.0000000000
H        0.1321170000    0.0015510000   -0.0000000000
H        0.1316920000    0.0071630000   -0.0000000000
H        0.1354540000    0.0081880000   -0.0000000000
H        0.1405170000   -0.0000180000    0.0000000000
H        0.1448900000    0.0031380000   -0.0000000000
C       -0.1091320000    0.9968280000    0.0000000000
H        0.1368210000   -0.0379540000    0.0000000000
13   
Frame  22 IRC: Energy =  -286.8565740000 ; +0.2391 kcal/mol
C       -0.0049440000   -0.0060940000   -0.0000000000
C       -0.1257830000   -0.0751940000   -0.0000000000
C       -0.0398010000    0.1695890000   -0.0000000000
C       -0.1073790000   -0.0849620000    0.0000000000
C       -0.2609760000    0.0026350000   -0.0000000000
N       -0.1759220000    0.0207510000   -0.0000000000
H        0.1322510000    0.0015210000   -0.0000000000
H        0.1317320000    0.0058630000   -0.0000000000
H        0.1357300000    0.0085460000   -0.0000000000
H        0.1410360000   -0.0004630000    0.0000000000
H        0.1448950000    0.0030550000   -0.0000000000
C       -0.1077460000    0.9904690000    0.0000000000
H        0.1369080000   -0.0357160000    0.0000000000
13   
Frame  23 IRC: Energy =  -286.8565630000 ; +0.2460 kcal/mol
C       -0.0052390000   -0.0061070000   -0.0000000000
C       -0.1258420000   -0.0750440000   -0.0000000000
C       -0.0392330000    0.1696870000   -0.0000000000
C       -0.1082940000   -0.0846530000    0.0000000000
C       -0.2609800000    0.0025640000   -0.0000000000
N       -0.1758250000    0.0206570000   -0.0000000000
H        0.1322480000    0.0015240000   -0.0000000000
H        0.1318080000    0.0058350000   -0.0000000000
H        0.1358280000    0.0086170000   -0.0000000000
H        0.1410240000   -0.0004820000    0.0000000000
H        0.1448700000    0.0030460000   -0.0000000000
C       -0.1072840000    0.9900170000    0.0000000000
H        0.1369200000   -0.0356620000    0.0000000000
13   
Frame  24 IRC: Energy =  -286.8562160000 ; +0.4637 kcal/mol
C       -0.0010570000   -0.0072120000   -0.0000000000
C       -0.1336950000   -0.0699100000   -0.0000000000
C       -0.0329470000    0.1704990000   -0.0000000000
C       -0.1062390000   -0.0759280000    0.0000000000
C       -0.2669870000   -0.0022500000   -0.0000000000
N       -0.1749660000    0.0174220000   -0.0000000000
H        0.1324180000    0.0014770000   -0.0000000000
H        0.1318510000    0.0046770000   -0.0000000000
H        0.1362170000    0.0087030000   -0.0000000000
H        0.1415940000   -0.0009140000    0.0000000000
H        0.1448730000    0.0029500000   -0.0000000000
C       -0.1083790000    0.9836350000    0.0000000000
H        0.1373170000   -0.0331490000    0.0000000000
13   
Frame  25 IRC: Energy =  -286.8561920000 ; +0.4788 kcal/mol
C       -0.0013530000   -0.0072600000   -0.0000000000
C       -0.1338120000   -0.0697120000   -0.0000000000
C       -0.0320350000    0.1704370000   -0.0000000000
C       -0.1071760000   -0.0754150000    0.0000000000
C       -0.2672500000   -0.0023380000   -0.0000000000
N       -0.1748400000    0.0172990000   -0.0000000000
H        0.1324210000    0.0014810000   -0.0000000000
H        0.1319630000    0.0046330000   -0.0000000000
H        0.1363730000    0.0087920000   -0.0000000000
H        0.1415940000   -0.0009450000    0.0000000000
H        0.1448380000    0.0029320000   -0.0000000000
C       -0.1080610000    0.9831130000    0.0000000000
H        0.1373380000   -0.0330170000    0.0000000000
13   
Frame  26 IRC: Energy =  -286.8557320000 ; +0.7674 kcal/mol
C        0.0027190000   -0.0075510000   -0.0000000000
C       -0.1408900000   -0.0655690000   -0.0000000000
C       -0.0253110000    0.1709820000   -0.0000000000
C       -0.1041250000   -0.0672060000    0.0000000000
C       -0.2738470000   -0.0059300000   -0.0000000000
N       -0.1739640000    0.0145250000   -0.0000000000
H        0.1325630000    0.0014450000   -0.0000000000
H        0.1319330000    0.0036850000   -0.0000000000
H        0.1367990000    0.0086520000   -0.0000000000
H        0.1421480000   -0.0013310000    0.0000000000
H        0.1448290000    0.0028640000   -0.0000000000
C       -0.1107990000    0.9761240000    0.0000000000
H        0.1379450000   -0.0306910000    0.0000000000
13   
Frame  27 IRC: Energy =  -286.8556770000 ; +0.8020 kcal/mol
C        0.0023710000   -0.0075420000   -0.0000000000
C       -0.1412290000   -0.0652950000   -0.0000000000
C       -0.0235400000    0.1708030000   -0.0000000000
C       -0.1052420000   -0.0662640000    0.0000000000
C       -0.2745770000   -0.0060340000   -0.0000000000
N       -0.1738730000    0.0143130000   -0.0000000000
H        0.1326210000    0.0014450000   -0.0000000000
H        0.1320940000    0.0036160000   -0.0000000000
H        0.1370670000    0.0087600000   -0.0000000000
H        0.1421530000   -0.0013830000    0.0000000000
H        0.1447830000    0.0028390000   -0.0000000000
C       -0.1106300000    0.9751910000    0.0000000000
H        0.1380020000   -0.0304480000    0.0000000000
13   
Frame  28 IRC: Energy =  -286.8550320000 ; +1.2067 kcal/mol
C        0.0067710000   -0.0073230000   -0.0000000000
C       -0.1480650000   -0.0618870000   -0.0000000000
C       -0.0159220000    0.1711350000   -0.0000000000
C       -0.1009540000   -0.0578450000    0.0000000000
C       -0.2822830000   -0.0088290000   -0.0000000000
N       -0.1728440000    0.0118430000   -0.0000000000
H        0.1327240000    0.0014240000   -0.0000000000
H        0.1320150000    0.0027650000   -0.0000000000
H        0.1375750000    0.0084030000   -0.0000000000
H        0.1427460000   -0.0017690000    0.0000000000
H        0.1447600000    0.0027820000   -0.0000000000
C       -0.1153230000    0.9673660000    0.0000000000
H        0.1388000000   -0.0280660000    0.0000000000
13   
Frame  29 IRC: Energy =  -286.8549370000 ; +1.2663 kcal/mol
C        0.0064320000   -0.0072260000   -0.0000000000
C       -0.1485900000   -0.0617070000   -0.0000000000
C       -0.0131010000    0.1706870000   -0.0000000000
C       -0.1021910000   -0.0566240000    0.0000000000
C       -0.2836130000   -0.0088060000   -0.0000000000
N       -0.1727790000    0.0116090000   -0.0000000000
H        0.1327960000    0.0014280000   -0.0000000000
H        0.1322300000    0.0026950000   -0.0000000000
H        0.1380270000    0.0085550000   -0.0000000000
H        0.1427640000   -0.0018380000    0.0000000000
H        0.1447290000    0.0027550000   -0.0000000000
C       -0.1155880000    0.9662310000    0.0000000000
H        0.1388830000   -0.0277590000    0.0000000000
13   
Frame  30 IRC: Energy =  -286.8540790000 ; +1.8047 kcal/mol
C        0.0111470000   -0.0065900000   -0.0000000000
C       -0.1549250000   -0.0591910000   -0.0000000000
C       -0.0050890000    0.1710470000   -0.0000000000
C       -0.0967990000   -0.0481370000    0.0000000000
C       -0.2920190000   -0.0108610000   -0.0000000000
N       -0.1716910000    0.0095440000   -0.0000000000
H        0.1328890000    0.0014170000   -0.0000000000
H        0.1320920000    0.0019460000   -0.0000000000
H        0.1385190000    0.0079650000   -0.0000000000
H        0.1433680000   -0.0022180000    0.0000000000
H        0.1446820000    0.0027000000   -0.0000000000
C       -0.1219310000    0.9577160000    0.0000000000
H        0.1397560000   -0.0253370000    0.0000000000
13   
Frame  31 IRC: Energy =  -286.8539220000 ; +1.9032 kcal/mol
C        0.0109190000   -0.0063890000   -0.0000000000
C       -0.1557780000   -0.0591690000   -0.0000000000
C       -0.0010310000    0.1703040000   -0.0000000000
C       -0.0977730000   -0.0466350000    0.0000000000
C       -0.2941880000   -0.0106930000   -0.0000000000
N       -0.1716540000    0.0092970000   -0.0000000000
H        0.1329680000    0.0014250000   -0.0000000000
H        0.1323510000    0.0018650000   -0.0000000000
H        0.1391950000    0.0081610000   -0.0000000000
H        0.1434400000   -0.0023090000    0.0000000000
H        0.1446980000    0.0026760000   -0.0000000000
C       -0.1230230000    0.9564070000    0.0000000000
H        0.1398750000   -0.0249410000    0.0000000000
13   
Frame  32 IRC: Energy =  -286.8528540000 ; +2.5734 kcal/mol
C        0.0157620000   -0.0054470000   -0.0000000000
C       -0.1611900000   -0.0576170000   -0.0000000000
C        0.0069670000    0.1707550000   -0.0000000000
C       -0.0918370000   -0.0381630000    0.0000000000
C       -0.3028530000   -0.0120730000   -0.0000000000
N       -0.1705640000    0.0077220000   -0.0000000000
H        0.1330590000    0.0014240000   -0.0000000000
H        0.1321820000    0.0012250000   -0.0000000000
H        0.1396210000    0.0073780000   -0.0000000000
H        0.1440050000   -0.0026810000    0.0000000000
H        0.1446070000    0.0026080000   -0.0000000000
C       -0.1304580000    0.9473700000    0.0000000000
H        0.1407000000   -0.0225020000    0.0000000000
13   
Frame  33 IRC: Energy =  -286.8525980000 ; +2.7341 kcal/mol
C        0.0158040000   -0.0051240000   -0.0000000000
C       -0.1624680000   -0.0578130000   -0.0000000000
C        0.0123040000    0.1698070000   -0.0000000000
C       -0.0921280000   -0.0362960000    0.0000000000
C       -0.3060770000   -0.0117720000   -0.0000000000
N       -0.1705330000    0.0074780000   -0.0000000000
H        0.1331400000    0.0014370000   -0.0000000000
H        0.1324600000    0.0011240000   -0.0000000000
H        0.1405200000    0.0075810000   -0.0000000000
H        0.1441630000   -0.0027980000    0.0000000000
H        0.1446860000    0.0025880000   -0.0000000000
C       -0.1327360000    0.9457420000    0.0000000000
H        0.1408650000   -0.0219540000    0.0000000000
13   
Frame  34 IRC: Energy =  -286.8513220000 ; +3.5348 kcal/mol
C        0.0206380000   -0.0039010000   -0.0000000000
C       -0.1668340000   -0.0572080000   -0.0000000000
C        0.0204720000    0.1702130000   -0.0000000000
C       -0.0860340000   -0.0276390000    0.0000000000
C       -0.3150840000   -0.0125250000   -0.0000000000
N       -0.1694540000    0.0063830000   -0.0000000000
H        0.1332440000    0.0014450000   -0.0000000000
H        0.1323090000    0.0005830000   -0.0000000000
H        0.1409550000    0.0066730000   -0.0000000000
H        0.1446680000   -0.0031750000    0.0000000000
H        0.1445530000    0.0024990000   -0.0000000000
C       -0.1410210000    0.9361570000    0.0000000000
H        0.1415880000   -0.0195050000    0.0000000000
13   
Frame  35 IRC: Energy =  -286.8509140000 ; +3.7908 kcal/mol
C        0.0210900000   -0.0034120000   -0.0000000000
C       -0.1685390000   -0.0577260000   -0.0000000000
C        0.0272130000    0.1691490000   -0.0000000000
C       -0.0853530000   -0.0252370000    0.0000000000
C       -0.3196660000   -0.0120780000   -0.0000000000
N       -0.1694020000    0.0061830000   -0.0000000000
H        0.1333280000    0.0014660000   -0.0000000000
H        0.1325920000    0.0004560000   -0.0000000000
H        0.1420900000    0.0068330000   -0.0000000000
H        0.1449250000   -0.0033280000    0.0000000000
H        0.1447090000    0.0024790000   -0.0000000000
C       -0.1447830000    0.9339550000    0.0000000000
H        0.1417950000   -0.0187390000    0.0000000000
13   
Frame  36 IRC: Energy =  -286.8494220000 ; +4.7270 kcal/mol
C        0.0259210000   -0.0019260000   -0.0000000000
C       -0.1719810000   -0.0580020000   -0.0000000000
C        0.0357090000    0.1693410000   -0.0000000000
C       -0.0792050000   -0.0160880000    0.0000000000
C       -0.3292110000   -0.0122560000   -0.0000000000
N       -0.1683390000    0.0055530000   -0.0000000000
H        0.1334610000    0.0014840000   -0.0000000000
H        0.1325060000   -0.0000010000   -0.0000000000
H        0.1426200000    0.0058640000   -0.0000000000
H        0.1453820000   -0.0037230000    0.0000000000
H        0.1445450000    0.0023600000   -0.0000000000
C       -0.1538030000    0.9236890000    0.0000000000
H        0.1423940000   -0.0162950000    0.0000000000
13   
Frame  37 IRC: Energy =  -286.8487630000 ; +5.1406 kcal/mol
C        0.0269490000   -0.0011800000   -0.0000000000
C       -0.1741330000   -0.0590120000   -0.0000000000
C        0.0443690000    0.1682030000   -0.0000000000
C       -0.0773180000   -0.0127140000    0.0000000000
C       -0.3358180000   -0.0116160000   -0.0000000000
N       -0.1682320000    0.0054680000   -0.0000000000
H        0.1335550000    0.0015170000   -0.0000000000
H        0.1328100000   -0.0001590000   -0.0000000000
H        0.1440750000    0.0059360000   -0.0000000000
H        0.1457590000   -0.0039330000    0.0000000000
H        0.1447960000    0.0023290000   -0.0000000000
C       -0.1594440000    0.9203730000    0.0000000000
H        0.1426310000   -0.0152110000    0.0000000000
13   
Frame  38 IRC: Energy =  -286.8470620000 ; +6.2080 kcal/mol
C        0.0318430000    0.0005040000   -0.0000000000
C       -0.1769940000   -0.0599240000    0.0000000000
C        0.0529310000    0.1678470000   -0.0000000000
C       -0.0713910000   -0.0028170000    0.0000000000
C       -0.3455690000   -0.0112620000   -0.0000000000
N       -0.1672340000    0.0052990000   -0.0000000000
H        0.1337220000    0.0015440000   -0.0000000000
H        0.1328220000   -0.0005440000   -0.0000000000
H        0.1446540000    0.0049780000   -0.0000000000
H        0.1461620000   -0.0043510000    0.0000000000
H        0.1446240000    0.0021730000   -0.0000000000
C       -0.1686630000    0.9093770000    0.0000000000
H        0.1430940000   -0.0128240000    0.0000000000
13   