13   
Frame   0 IRC: Energy =  -286.8569550000 ; +0.0000 kcal/mol
C        1.5791252056    0.2926202887   -0.3212753300
C        0.6383214384   -0.8741601761   -0.0514834807
C       -0.6901991429   -0.3721876257   -0.7166529371
C       -1.0453332800    0.3114421959    0.6398804315
C       -0.4442860169    1.0906140833   -0.5665324209
N        0.9712589404    1.3958592422   -0.5616369474
H        2.6590888752    0.2502177049   -0.1968520835
H        1.0170265662   -1.8840325215   -0.2076048272
H       -1.3374552282   -0.8896715450   -1.4177306634
H       -2.0117308370    0.6039638343    1.0355374753
H       -1.1044523105    1.8203631371   -1.0220751935
C       -0.0253995665   -0.5228538164    1.2894775493
H       -0.2059646436   -1.2221748016    2.0969484280
13   
Frame   1 IRC: Energy =  -286.8569510000 ; +0.0025 kcal/mol
C        1.5789885914    0.2926121847   -0.3214173304
C        0.6386313116   -0.8740703090   -0.0513579020
C       -0.6901502963   -0.3722574076   -0.7163690213
C       -1.0450188127    0.3117246757    0.6399516735
C       -0.4443462420    1.0906325909   -0.5665370418
N        0.9712764325    1.3960472855   -0.5618967596
H        2.6593529567    0.2504149813   -0.1972030704
H        1.0172486849   -1.8838240766   -0.2072588401
H       -1.3374774814   -0.8899369066   -1.4171909562
H       -2.0116016867    0.6042603139    1.0357512341
H       -1.1044648856    1.8201741708   -1.0221886278
C       -0.0252750606   -0.5227407095    1.2898750778
H       -0.2071635117   -1.2230367934    2.0958415643
13   
Frame   2 IRC: Energy =  -286.8569430000 ; +0.0075 kcal/mol
C        1.5793911746    0.2930242499   -0.3217606194
C        0.6389440159   -0.8736663121   -0.0509183588
C       -0.6899513745   -0.3724446274   -0.7157142053
C       -1.0446892809    0.3124164716    0.6403783293
C       -0.4442648254    1.0905885029   -0.5664830913
N        0.9713103987    1.3960469453   -0.5624147753
H        2.6594491720    0.2508425038   -0.1980393431
H        1.0178518646   -1.8835413638   -0.2065323252
H       -1.3375617359   -0.8905570983   -1.4159851642
H       -2.0110609433    0.6048509775    1.0361209585
H       -1.1046192959    1.8198513598   -1.0225042147
C       -0.0248599688   -0.5221860211    1.2902126809
H       -0.2099392009   -1.2252255880    2.0936401286
13   
Frame   3 IRC: Energy =  -286.8569380000 ; +0.0107 kcal/mol
C        1.5793045326    0.2930636227   -0.3219279319
C        0.6392821797   -0.8735686477   -0.0507776190
C       -0.6898843153   -0.3725067881   -0.7153756053
C       -1.0443531187    0.3127622525    0.6404563798
C       -0.4443109614    1.0905820666   -0.5664750742
N        0.9713283149    1.3962254444   -0.5627110140
H        2.6597058917    0.2510703003   -0.1984521879
H        1.0181169130   -1.8832999571   -0.2061310173
H       -1.3375958937   -0.8908747882   -1.4153563361
H       -2.0108957964    0.6051927728    1.0363665495
H       -1.1046507897    1.8196475682   -1.0226460918
C       -0.0247184180   -0.5220884178    1.2907016287
H       -0.2113285387   -1.2262054286    2.0923283194
13   
Frame   4 IRC: Energy =  -286.8569300000 ; +0.0157 kcal/mol
C        1.5796321881    0.2933963113   -0.3222064648
C        0.6395250295   -0.8732087186   -0.0503917317
C       -0.6897215227   -0.3726826146   -0.7148388333
C       -1.0440680292    0.3133122158    0.6408374417
C       -0.4442517176    1.0905718437   -0.5664400957
N        0.9713604883    1.3962237171   -0.5631350394
H        2.6597882455    0.2514242912   -0.1991410143
H        1.0186251790   -1.8830834176   -0.2055405451
H       -1.3376626721   -0.8913842643   -1.4143490306
H       -2.0104490357    0.6056835046    1.0366679952
H       -1.1047695780    1.8193715211   -1.0229006536
C       -0.0243816663   -0.5215832974    1.2908869612
H       -0.2136269089   -1.2280410922    2.0905510102
13   
Frame   5 IRC: Energy =  -286.8569250000 ; +0.0188 kcal/mol
C        1.5795928318    0.2934824446   -0.3223968490
C        0.6398886963   -0.8731005779   -0.0502355042
C       -0.6896360268   -0.3727430118   -0.7144582196
C       -1.0437627064    0.3137344150    0.6409396983
C       -0.4442669802    1.0905373614   -0.5664180154
N        0.9713766647    1.3963901634   -0.5634652763
H        2.6600359729    0.2516799608   -0.1996103014
H        1.0189309081   -1.8828144091   -0.2050896535
H       -1.3377076132   -0.8917495372   -1.4136355545
H       -2.0102236240    0.6060586602    1.0369321146
H       -1.1048242868    1.8191593580   -1.0230707629
C       -0.0242121672   -0.5215056816    1.2914537446
H       -0.2151916692   -1.2291291458    2.0890545794
13   
Frame   6 IRC: Energy =  -286.8569180000 ; +0.0232 kcal/mol
C        1.5798597251    0.2937523945   -0.3226305417
C        0.6400862143   -0.8727749921   -0.0498881172
C       -0.6894963774   -0.3729012125   -0.7139884620
C       -1.0434467092    0.3141650265    0.6412675089
C       -0.4442448800    1.0905542537   -0.5663987073
N        0.9714102232    1.3963956262   -0.5638251412
H        2.6601167987    0.2519841774   -0.2001980623
H        1.0193728428   -1.8826394642   -0.2045907084
H       -1.3377646049   -0.8921856969   -1.4127681517
H       -2.0098738078    0.6064914484    1.0372001011
H       -1.1049114999    1.8189089422   -1.0232808872
C       -0.0239449277   -0.5210275170    1.2915383319
H       -0.2171629973   -1.2307229862    2.0875628372
13   
Frame   7 IRC: Energy =  -286.8569120000 ; +0.0270 kcal/mol
C        1.5798643383    0.2938830994   -0.3228430923
C        0.6404731435   -0.8726456119   -0.0497080442
C       -0.6893997125   -0.3729793694   -0.7135813351
C       -1.0431996333    0.3146683018    0.6414169989
C       -0.4442232227    1.0905057584   -0.5663670784
N        0.9714252533    1.3965485956   -0.5641888657
H        2.6603572210    0.2522677798   -0.2007230126
H        1.0197212297   -1.8823496810   -0.2040929908
H       -1.3378139691   -0.8925925437   -1.4119625020
H       -2.0095716217    0.6068949077    1.0374746788
H       -1.1049880348    1.8186853501   -1.0234768627
C       -0.0237390936   -0.5209563112    1.2921541921
H       -0.2189058981   -1.2319302754    2.0858979139
13   
Frame   8 IRC: Energy =  -286.8569060000 ; +0.0307 kcal/mol
C        1.5801066805    0.2940470753   -0.3230080857
C        0.6405992891   -0.8723764418   -0.0494258745
C       -0.6892852840   -0.3730947715   -0.7132005597
C       -1.0428754008    0.3149526188    0.6416586384
C       -0.4442336586    1.0905300583   -0.5663566941
N        0.9714336793    1.3965860017   -0.5644668766
H        2.6604058197    0.2525007678   -0.2011714245
H        1.0200663065   -1.8822295209   -0.2037193240
H       -1.3378623658   -0.8929286061   -1.4113053342
H       -2.0093438751    0.6072379349    1.0376913307
H       -1.1050437909    1.8184860737   -1.0236323849
C       -0.0235559946   -0.5205408855    1.2921415513
H       -0.2204114053   -1.2331703046    2.0847950377
13   
Frame   9 IRC: Energy =  -286.8569000000 ; +0.0345 kcal/mol
C        1.5800481226    0.2942707080   -0.3232359167
C        0.6409783167   -0.8722533660   -0.0492479768
C       -0.6891920279   -0.3731810063   -0.7128173550
C       -1.0426801380    0.3154542227    0.6418288168
C       -0.4441980717    1.0904899251   -0.5663287969
N        0.9714989815    1.3966427206   -0.5648000497
H        2.6606522587    0.2527740272   -0.2016782172
H        1.0204059791   -1.8819510819   -0.2032377073
H       -1.3379077953   -0.8933224816   -1.4105133410
H       -2.0090248733    0.6076233703    1.0379480441
H       -1.1051238043    1.8182698729   -1.0238231975
C       -0.0233532838   -0.5204773852    1.2927279561
H       -0.2221036644   -1.2343395257    2.0831777410
13   
Frame  10 IRC: Energy =  -286.8568950000 ; +0.0377 kcal/mol
C        1.5803373849    0.2943104424   -0.3233555521
C        0.6410948385   -0.8720195859   -0.0490071461
C       -0.6890928052   -0.3732745308   -0.7124770628
C       -1.0423872537    0.3157142012    0.6420231739
C       -0.4442062042    1.0904988928   -0.5663137814
N        0.9714461553    1.3967785647   -0.5650698433
H        2.6606781167    0.2529832723   -0.2020781915
H        1.0207121095   -1.8818363219   -0.2029051021
H       -1.3379520891   -0.8936228209   -1.4099282098
H       -2.0088291761    0.6079301489    1.0381449190
H       -1.1051723893    1.8180961390   -1.0239625861
C       -0.0231964850   -0.5201445903    1.2927571537
H       -0.2234322024   -1.2354138114    2.0821722285
13   
Frame  11 IRC: Energy =  -286.8568880000 ; +0.0420 kcal/mol
C        1.5802363123    0.2946069920   -0.3235925078
C        0.6414450851   -0.8718866836   -0.0488185097
C       -0.6889962345   -0.3733639760   -0.7121005120
C       -1.0421790987    0.3161774901    0.6422070079
C       -0.4441789684    1.0904754172   -0.5662931090
N        0.9715557750    1.3967520275   -0.5653719921
H        2.6609219034    0.2532454677   -0.2025653625
H        1.0210461221   -1.8815812705   -0.2024450242
H       -1.3379970507   -0.8940041237   -1.4091609010
H       -2.0085253405    0.6083050640    1.0383922499
H       -1.1052480352    1.8178818761   -1.0241441342
C       -0.0230081191   -0.5200394567    1.2932510105
H       -0.2250723510   -1.2365688241    2.0806417841
13   
Frame  12 IRC: Energy =  -286.8568830000 ; +0.0452 kcal/mol
C        1.5805404577    0.2946009223   -0.3237039553
C        0.6415865276   -0.8716688797   -0.0485921016
C       -0.6889013498   -0.3734527913   -0.7117629455
C       -1.0419097967    0.3164668235    0.6423892771
C       -0.4441768707    1.0904718491   -0.5662729931
N        0.9714764507    1.3969393517   -0.5656584272
H        2.6609536747    0.2534592521   -0.2029711677
H        1.0213518391   -1.8814484961   -0.2021025983
H       -1.3380405813   -0.8943098633   -1.4085602588
H       -2.0083173356    0.6086143870    1.0385923357
H       -1.1053003222    1.8177094011   -1.0242877822
C       -0.0228505209   -0.5197630594    1.2933571742
H       -0.2264121727   -1.2376188969    2.0795734428
13   
Frame  13 IRC: Energy =  -286.8568770000 ; +0.0489 kcal/mol
C        1.5804205391    0.2949213710   -0.3239326207
C        0.6418999832   -0.8715367410   -0.0484069802
C       -0.6888068818   -0.3735377285   -0.7114080812
C       -1.0416981871    0.3168792740    0.6425698826
C       -0.4441583125    1.0904595687   -0.5662578548
N        0.9716057998    1.3968676430   -0.5659264072
H        2.6611828059    0.2537007237   -0.2034198859
H        1.0216646211   -1.8812215484   -0.2016803240
H       -1.3380832166   -0.8946635849   -1.4078492388
H       -2.0080423660    0.6089637548    1.0388220670
H       -1.1053689076    1.8175072169   -1.0244536248
C       -0.0226837578   -0.5196376457    1.2937663339
H       -0.2279321196   -1.2387023035    2.0781767340
13   
Frame  14 IRC: Energy =  -286.8568710000 ; +0.0527 kcal/mol
C        1.5807380528    0.2949082647   -0.3240579786
C        0.6420821621   -0.8713117678   -0.0481681650
C       -0.6887051884   -0.3736327888   -0.7110367531
C       -1.0414211293    0.3172249589    0.6427642696
C       -0.4441477958    1.0904481923   -0.5662330200
N        0.9715155169    1.3970878380   -0.5662511911
H        2.6612337437    0.2539407017   -0.2038727583
H        1.0220018244   -1.8810583575   -0.2012918711
H       -1.3381299978   -0.8950067497   -1.4071690964
H       -2.0078005330    0.6093084496    1.0390463260
H       -1.1054303850    1.8173155073   -1.0246155939
C       -0.0225097604   -0.5193795377    1.2939482067
H       -0.2294265101   -1.2398447111    2.0769376251
13   
Frame  15 IRC: Energy =  -286.8568650000 ; +0.0565 kcal/mol
C        1.5806044594    0.2952350067   -0.3242731806
C        0.6423594214   -0.8711879349   -0.0479952291
C       -0.6886164335   -0.3737111135   -0.7107103116
C       -1.0412174471    0.3175872450    0.6429345261
C       -0.4441359910    1.0904430219   -0.5662217656
N        0.9716555615    1.3969854407   -0.5664841217
H        2.6614465491    0.2541576039   -0.2042754146
H        1.0222860727   -1.8808587246   -0.2009125652
H       -1.3381684494   -0.8953263462   -1.4065259545
H       -2.0075549122    0.6096246866    1.0392538278
H       -1.1054922723    1.8171306191   -1.0247639413
C       -0.0223675340   -0.5192500225    1.2942884600
H       -0.2307990246   -1.2408294822    2.0756856704
13   
Frame  16 IRC: Energy =  -286.8568580000 ; +0.0609 kcal/mol
C        1.5809430240    0.2952365354   -0.3244311930
C        0.6426017860   -0.8709362909   -0.0477206225
C       -0.6884948580   -0.3738163815   -0.7102775350
C       -1.0409037177    0.3180189921    0.6431644111
C       -0.4441152564    1.0904296280   -0.5661907405
N        0.9715660470    1.3972389546   -0.5668746735
H        2.6615246911    0.2544470052   -0.2048168187
H        1.0226885572   -1.8806560766   -0.2004413268
H       -1.3382264123   -0.8957441454   -1.4057039088
H       -2.0072659245    0.6100401225    1.0395271405
H       -1.1055705312    1.8168978669   -1.0249591209
C       -0.0221544799   -0.5189773893    1.2945622386
H       -0.2325929254   -1.2421788210    2.0741621495
13   
Frame  17 IRC: Energy =  -286.8568520000 ; +0.0646 kcal/mol
C        1.5807914714    0.2955654889   -0.3246209484
C        0.6428346555   -0.8708298884   -0.0475951582
C       -0.6883970828   -0.3738640377   -0.7100223238
C       -1.0407182435    0.3183280721    0.6433437785
C       -0.4441017209    1.0904293842   -0.5661895774
N        0.9717287193    1.3971196032   -0.5670826955
H        2.6617156690    0.2546438139   -0.2051773673
H        1.0229536325   -1.8804994056   -0.2001002392
H       -1.3382679519   -0.8960405210   -1.4051296940
H       -2.0070773183    0.6103323511    1.0397232859
H       -1.1056264777    1.8167234599   -1.0250902462
C       -0.0220055479   -0.5188310054    1.2948804433
H       -0.2338298046   -1.2430773152    2.0730607424
13   
Frame  18 IRC: Energy =  -286.8568420000 ; +0.0709 kcal/mol
C        1.5811710051    0.2956128739   -0.3248755573
C        0.6432019145   -0.8704882754   -0.0471711427
C       -0.6882636953   -0.3740734112   -0.7092909170
C       -1.0402961089    0.3189526784    0.6435962900
C       -0.4440872384    1.0903790928   -0.5661257161
N        0.9715749620    1.3973732529   -0.5675912540
H        2.6618547275    0.2550219889   -0.2058869685
H        1.0234521963   -1.8801397705   -0.1994604869
H       -1.3382741424   -0.8965337367   -1.4039698629
H       -2.0065905148    0.6108534271    1.0400538468
H       -1.1057030035    1.8164047639   -1.0253270913
C       -0.0218498465   -0.5185835154    1.2951390829
H       -0.2361902556   -1.2447793686    2.0709097770
13   
Frame  19 IRC: Energy =  -286.8568370000 ; +0.0740 kcal/mol
C        1.5810262464    0.2959276799   -0.3251818662
C        0.6434906209   -0.8703642364   -0.0467138428
C       -0.6882525914   -0.3742521897   -0.7087811570
C       -1.0400625053    0.3192221446    0.6437840102
C       -0.4441026416    1.0903439607   -0.5661025779
N        0.9717094962    1.3972284104   -0.5677184832
H        2.6620230192    0.2551876462   -0.2061907256
H        1.0236276143   -1.8798763020   -0.1991800249
H       -1.3382650072   -0.8967404076   -1.4034348248
H       -2.0062291258    0.6110632735    1.0401402506
H       -1.1057624531    1.8162993116   -1.0254578380
C       -0.0219581957   -0.5186273861    1.2951395464
H       -0.2372444770   -1.2454119050    2.0696975333
13   
Frame  20 IRC: Energy =  -286.8568180000 ; +0.0860 kcal/mol
C        1.5814288043    0.2963324168   -0.3251782238
C        0.6439801839   -0.8698854589   -0.0469037419
C       -0.6878707488   -0.3741893894   -0.7086471282
C       -1.0394950462    0.3201459474    0.6441201377
C       -0.4440509429    1.0904616786   -0.5662052085
N        0.9717434129    1.3975909534   -0.5686358819
H        2.6624351436    0.2557672201   -0.2074472344
H        1.0245766335   -1.8797120212   -0.1981088271
H       -1.3387230896   -0.8979280810   -1.4018537749
H       -2.0060151864    0.6121258064    1.0409505671
H       -1.1059931744    1.8157541217   -1.0259165449
C       -0.0205083684   -0.5174296207    1.2969753614
H       -0.2415076215   -1.2490335733    2.0668504993
13   
Frame  21 IRC: Energy =  -286.8568080000 ; +0.0922 kcal/mol
C        1.5811906389    0.2964913576   -0.3250008047
C        0.6439876814   -0.8697617587   -0.0473132012
C       -0.6874898544   -0.3739653298   -0.7087206820
C       -1.0399069089    0.3205320553    0.6440382110
C       -0.4440889924    1.0907186172   -0.5663203795
N        0.9716982880    1.3974520729   -0.5688777184
H        2.6627234483    0.2558663306   -0.2076934169
H        1.0248125660   -1.8798061128   -0.1978621478
H       -1.3389374895   -0.8982663977   -1.4016365095
H       -2.0059774603    0.6123273916    1.0411540087
H       -1.1058858157    1.8154261264   -1.0258497418
C       -0.0196108738   -0.5166829534    1.2970706411
H       -0.2425152275   -1.2503313992    2.0670117409
13   
Frame  22 IRC: Energy =  -286.8565740000 ; +0.2391 kcal/mol
C        1.5841621433    0.3006407219   -0.3296891586
C        0.6509023514   -0.8651649795   -0.0407907763
C       -0.6851448720   -0.3767952739   -0.6979043556
C       -1.0321244023    0.3307752808    0.6496072445
C       -0.4434529853    1.0900904670   -0.5659538743
N        0.9722729148    1.3995068257   -0.5766837838
H        2.6658880002    0.2629978370   -0.2180484186
H        1.0345215468   -1.8740144941   -0.1884125716
H       -1.3409671116   -0.9084789763   -1.3798794268
H       -1.9979179872    0.6227031362    1.0472949572
H       -1.1075979994    1.8101763892   -1.0308665600
C       -0.0179513928   -0.5146969642    1.3031999343
H       -0.2825902059   -1.2777399696    2.0281267896
13   
Frame  23 IRC: Energy =  -286.8565630000 ; +0.2460 kcal/mol
C        1.5838262933    0.3006652468   -0.3298646554
C        0.6511215869   -0.8649602078   -0.0404718972
C       -0.6847252444   -0.3768145718   -0.6973040593
C       -1.0323089861    0.3311028294    0.6501377436
C       -0.4435975827    1.0902186356   -0.5661158127
N        0.9724280765    1.3996107406   -0.5769165432
H        2.6662245744    0.2632314202   -0.2183416304
H        1.0348326155   -1.8738745887   -0.1881463100
H       -1.3411980783   -0.9089026836   -1.3793780545
H       -1.9973451734    0.6229419051    1.0473285827
H       -1.1075499742    1.8099240385   -1.0309409043
C       -0.0178041048   -0.5143491375    1.3028637546
H       -0.2839040027   -1.2787936269    2.0271497859
13   
Frame  24 IRC: Energy =  -286.8562160000 ; +0.4637 kcal/mol
C        1.5868903972    0.3050503329   -0.3330105827
C        0.6577866787   -0.8607404014   -0.0355883603
C       -0.6822817151   -0.3789287531   -0.6879207417
C       -1.0246913086    0.3412469188    0.6547081826
C       -0.4425644154    1.0900344566   -0.5661627400
N        0.9728989316    1.4014317250   -0.5845204697
H        2.6692990743    0.2701631941   -0.2271724520
H        1.0450134317   -1.8684865354   -0.1801760314
H       -1.3447559301   -0.9203065391   -1.3553876127
H       -1.9902134733    0.6333706361    1.0530969832
H       -1.1089202397    1.8050961851   -1.0356791497
C       -0.0159760130   -0.5135997654    1.3094052404
H       -0.3224854183   -1.3043314540    1.9884077339
13   
Frame  25 IRC: Energy =  -286.8561920000 ; +0.4788 kcal/mol
C        1.5863934828    0.3051373622   -0.3331584117
C        0.6580911615   -0.8604092805   -0.0352986766
C       -0.6816384770   -0.3788494871   -0.6871223329
C       -1.0248895719    0.3417974954    0.6552217836
C       -0.4427734514    1.0902641807   -0.5664066458
N        0.9730680321    1.4015120717   -0.5848933400
H        2.6698216630    0.2705128173   -0.2275695945
H        1.0455354772   -1.8683156104   -0.1798085394
H       -1.3451867431   -0.9210381296   -1.3544677754
H       -1.9895290698    0.6337909652    1.0532259045
H       -1.1088038248    1.8046767549   -1.0357560275
C       -0.0155809634   -0.5131259170    1.3091192765
H       -0.3245077151   -1.3059532228    1.9869143792
13   
Frame  26 IRC: Energy =  -286.8557320000 ; +0.7674 kcal/mol
C        1.5895742318    0.3092924500   -0.3356138737
C        0.6645218100   -0.8567007339   -0.0306787995
C       -0.6794375066   -0.3807518036   -0.6782687568
C       -1.0175342922    0.3511722279    0.6594659591
C       -0.4413881656    1.0901691424   -0.5664565928
N        0.9736868029    1.4032657201   -0.5917207436
H        2.6725911589    0.2770649416   -0.2353262269
H        1.0557422202   -1.8629651104   -0.1733054261
H       -1.3494321922   -0.9326937889   -1.3288134491
H       -1.9832149101    0.6434937882    1.0575635491
H       -1.1096571725    1.8009010769   -1.0400240064
C       -0.0156526008   -0.5144402361    1.3144669001
H       -0.3597993838   -1.3278076742    1.9487114666
13   
Frame  27 IRC: Energy =  -286.8556770000 ; +0.8020 kcal/mol
C        1.5893519918    0.3093137758   -0.3357841481
C        0.6649431517   -0.8560239430   -0.0301812523
C       -0.6783894447   -0.3806267932   -0.6769067214
C       -1.0177017002    0.3521540790    0.6602623897
C       -0.4416178405    1.0904816875   -0.5668157983
N        0.9737904944    1.4035739336   -0.5924012060
H        2.6732054922    0.2777027175   -0.2360272013
H        1.0567914951   -1.8626828775   -0.1727376238
H       -1.3502599138   -0.9340872026   -1.3267870083
H       -1.9821137932    0.6442686096    1.0577434313
H       -1.1094841677    1.8003023181   -1.0402100930
C       -0.0152007328   -0.5140452101    1.3142668084
H       -0.3633150323   -1.3303310945    1.9455784231
13   
Frame  28 IRC: Energy =  -286.8550320000 ; +1.2067 kcal/mol
C        1.5925359297    0.3137850097   -0.3376853482
C        0.6717638892   -0.8525137472   -0.0255439222
C       -0.6761366719   -0.3823110452   -0.6680522530
C       -1.0101826922    0.3615837695    0.6643753440
C       -0.4398451442    1.0906879553   -0.5668155529
N        0.9747716161    1.4052999851   -0.5989955157
H        2.6762984584    0.2843239894   -0.2439541595
H        1.0675114230   -1.8569530951   -0.1670419959
H       -1.3552446188   -0.9467695264   -1.2974249958
H       -1.9764895284    0.6536476749    1.0610212222
H       -1.1097323732    1.7971250826   -1.0444532736
C       -0.0167555973   -0.5169998551    1.3190255240
H       -0.3984946904   -1.3509061974    1.9055449267
13   
Frame  29 IRC: Energy =  -286.8549370000 ; +1.2663 kcal/mol
C        1.5923063703    0.3138326574   -0.3378319026
C        0.6721398956   -0.8515142377   -0.0249402924
C       -0.6745116511   -0.3818483275   -0.6661087059
C       -1.0103257695    0.3627635618    0.6652399855
C       -0.4400400927    1.0909206636   -0.5672010946
N        0.9748926796    1.4056566122   -0.5998061217
H        2.6770691790    0.2851190998   -0.2448438113
H        1.0689189508   -1.8566752814   -0.1664441842
H       -1.3565355966   -0.9487537382   -1.2946441484
H       -1.9752306391    0.6545667275    1.0611347797
H       -1.1094953346    1.7965242994   -1.0447166335
C       -0.0163959184   -0.5168085285    1.3187750426
H       -0.4027920733   -1.3537835085    1.9013870869
13   
Frame  30 IRC: Energy =  -286.8540790000 ; +1.8047 kcal/mol
C        1.5957724226    0.3184064671   -0.3391982220
C        0.6792369344   -0.8483310144   -0.0202901541
C       -0.6723974724   -0.3834687542   -0.6575732631
C       -1.0029019490    0.3722048173    0.6694156028
C       -0.4379618823    1.0916208849   -0.5670051779
N        0.9762028783    1.4074396459   -0.6059286728
H        2.6803111446    0.2915220304   -0.2530814844
H        1.0793103743   -1.8508103234   -0.1617577826
H       -1.3613511784   -0.9614570029   -1.2624305196
H       -1.9706110047    0.6629588779    1.0633029198
H       -1.1093399623    1.7934714004   -1.0490677623
C       -0.0192454314   -0.5210970707    1.3230468538
H       -0.4370248737   -1.3724599585    1.8605676624
13   
Frame  31 IRC: Energy =  -286.8539220000 ; +1.9032 kcal/mol
C        1.5955004791    0.3185376755   -0.3393265645
C        0.6796070723   -0.8470266113   -0.0195716096
C       -0.6700985642   -0.3824825291   -0.6549136273
C       -1.0026432830    0.3735634141    0.6701775120
C       -0.4379115232    1.0916200919   -0.5672503991
N        0.9762637087    1.4078451556   -0.6068755994
H        2.6813188744    0.2924857819   -0.2542519137
H        1.0810649792   -1.8504865954   -0.1611462869
H       -1.3631320937   -0.9641289937   -1.2586078141
H       -1.9694508399    0.6640482163    1.0634158553
H       -1.1091322978    1.7928929967   -1.0495397016
C       -0.0191200387   -0.5211879016    1.3228375827
H       -0.4422664732   -1.3756807010    1.8550525661
13   
Frame  32 IRC: Energy =  -286.8528540000 ; +2.5734 kcal/mol
C        1.5992303885    0.3230379573   -0.3401009208
C        0.6867777166   -0.8442353339   -0.0148771229
C       -0.6681791058   -0.3841813575   -0.6468797438
C       -0.9958329938    0.3829171887    0.6747601154
C       -0.4358332524    1.0928820666   -0.5668494565
N        0.9779342337    1.4096425979   -0.6123213043
H        2.6845292868    0.2984809481   -0.2627709713
H        1.0904144623   -1.8447909813   -0.1577648620
H       -1.3670977300   -0.9757674798   -1.2249752998
H       -1.9658147400    0.6711502227    1.0643188470
H       -1.1087293446    1.7893490013   -1.0540918916
C       -0.0228269382   -0.5264586372    1.3267598731
H       -0.4745719832   -1.3920261929    1.8147927375
13   
Frame  33 IRC: Energy =  -286.8525980000 ; +2.7341 kcal/mol
C        1.5990058884    0.3233828883   -0.3401859690
C        0.6872906822   -0.8426666461   -0.0139332452
C       -0.6652304416   -0.3826484562   -0.6434397030
C       -0.9948008377    0.3845723421    0.6754060115
C       -0.4353589810    1.0925926947   -0.5667884547
N        0.9779175603    1.4101144259   -0.6134559167
H        2.6858309823    0.2996927196   -0.2644319287
H        1.0925541010   -1.8442979754   -0.1571849763
H       -1.3693221669   -0.9792073191   -1.2193811592
H       -1.9649556148    0.6725101187    1.0644354070
H       -1.1086257546    1.7886783019   -1.0549750371
C       -0.0230793531   -0.5269986891    1.3267667295
H       -0.4812260645   -1.3957244053    1.8071682418
13   
Frame  34 IRC: Energy =  -286.8513220000 ; +3.5348 kcal/mol
C        1.6029846625    0.3277533476   -0.3403497261
C        0.6944401349   -0.8401120507   -0.0091085907
C       -0.6632069590   -0.3843376049   -0.6356964787
C       -0.9889412011    0.3939038281    0.6806986525
C       -0.4334173461    1.0944039037   -0.5662480323
N        0.9800063963    1.4119694488   -0.6182243570
H        2.6890815206    0.3053490932   -0.2733644041
H        1.1005968731   -1.8388696877   -0.1552962583
H       -1.3722721015   -0.9892931116   -1.1849013477
H       -1.9621010728    0.6784944667    1.0639896415
H       -1.1081286098    1.7839764906   -1.0599373854
C       -0.0275541354   -0.5331563930    1.3304081951
H       -0.5114881616   -1.4100817308    1.7680300911
13   
Frame  35 IRC: Energy =  -286.8509140000 ; +3.7908 kcal/mol
C        1.6029509128    0.3284324725   -0.3403260471
C        0.6952570890   -0.8382884598   -0.0077833081
C       -0.6595792116   -0.3822395318   -0.6314018076
C       -0.9869354599    0.3960557469    0.6813333940
C       -0.4324424143    1.0938078486   -0.5657268881
N        0.9800189346    1.4125636164   -0.6195773370
H        2.6907572505    0.3069149305   -0.2758023147
H        1.1030909645   -1.8380810006   -0.1549125876
H       -1.3748315707   -0.9934604502   -1.1766351356
H       -1.9617025856    0.6802084622    1.0639851865
H       -1.1081969030    1.7829024917   -1.0614961431
C       -0.0283876428   -0.5343981633    1.3307536302
H       -0.5199993635   -1.4144179632    1.7575893584
13   
Frame  36 IRC: Energy =  -286.8494220000 ; +4.7270 kcal/mol
C        1.6072118847    0.3327179390   -0.3398693109
C        0.7023825224   -0.8358391104   -0.0027982027
C       -0.6571711298   -0.3838243025   -0.6236726335
C       -0.9821290708    0.4055183447    0.6875602467
C       -0.4305704098    1.0961635069   -0.5650624208
N        0.9824980822    1.4145187696   -0.6237167020
H        2.6941580446    0.3122896244   -0.2852413212
H        1.1095675434   -1.8330086476   -0.1547015240
H       -1.3766345233   -1.0016453730   -1.1416900262
H       -1.9595486610    0.6852993484    1.0621653850
H       -1.1078385659    1.7763589429   -1.0670374492
C       -0.0337402143   -0.5413689574    1.3340610225
H       -0.5481855024   -1.4271800850    1.7200029362
13   
Frame  37 IRC: Energy =  -286.8487630000 ; +5.1406 kcal/mol
C        1.6075742726    0.3339138935   -0.3396026514
C        0.7037378706   -0.8336861976   -0.0008300562
C       -0.6525913703   -0.3810319526   -0.6182373079
C       -0.9790005854    0.4086245681    0.6885177109
C       -0.4290462934    1.0952512808   -0.5638563465
N        0.9827638093    1.4153761296   -0.6253690786
H        2.6963976439    0.3143806605   -0.2889308110
H        1.1123112979   -1.8318305170   -0.1548637615
H       -1.3793916426   -1.0064709353   -1.1293981746
H       -1.9597770639    0.6874845963    1.0617519336
H       -1.1082082218    1.7741655281   -1.0696902649
C       -0.0355112632   -0.5436949095    1.3348085186
H       -0.5592584536   -1.4324821450    1.7057002895
13   
Frame  38 IRC: Energy =  -286.8470620000 ; +6.2080 kcal/mol
C        1.6120947328    0.3379831587   -0.3388759819
C        0.7108306072   -0.8314149497    0.0040319543
C       -0.6498058026   -0.3825425128   -0.6103925910
C       -0.9754335031    0.4180761509    0.6957508880
C       -0.4271751769    1.0983652952   -0.5631500497
N        0.9854810275    1.4173789367   -0.6287716248
H        2.6998181620    0.3193910796   -0.2985857608
H        1.1168742989   -1.8273276135   -0.1563224937
H       -1.3795520536   -1.0121547488   -1.0949871540
H       -1.9582564887    0.6918110752    1.0586387410
H       -1.1083379243    1.7653586195   -1.0757717536
C       -0.0416856541   -0.5512613323    1.3375978418
H       -0.5848522252   -1.4436631589    1.6708379845
13   