
Running Job 1 of 1 irc_reactant.in
qchem irc_reactant.in_51092.0 ./irc_reactant.d/ 1
/home/leeping/opt/qchem/5.0.2-openmp/exe/qcprog.exe_s irc_reactant.in_51092.0 ./irc_reactant.d/
Check license passed

                  Welcome to Q-Chem
     A Quantum Leap Into The Future Of Chemistry


 Q-Chem 5.0, Q-Chem, Inc., Pleasanton, CA (2017)

 Yihan Shao,  Zhengting Gan,  E. Epifanovsky,  A. T. B. Gilbert,  M. Wormit,  
 J. Kussmann,  A. W. Lange,  A. Behn,  Jia Deng,  Xintian Feng,  D. Ghosh,  
 M. Goldey,  P. R. Horn,  L. D. Jacobson,  I. Kaliman,  T. Kus,  A. Landau,  
 Jie Liu,  E. I. Proynov,  R. M. Richard,  R. P. Steele,  E. J. Sundstrom,  
 H. L. Woodcock III,  P. M. Zimmerman,  D. Zuev,  B. Albrecht,  E. Alguire,  
 S. A. Baeppler,  D. Barton,  Z. Benda,  Y. A. Bernard,  E. J. Berquist,  
 K. B. Bravaya,  H. Burton,  D. Casanova,  Chun-Min Chang,  Yunqing Chen,  
 A. Chien,  K. D. Closser,  M. P. Coons,  S. Dasgupta,  A. L. Dempwolff,  
 M. Diedenhofen,  Hainam Do,  R. G. Edgar,  Po-Tung Fang,  S. Fatehi,  
 Qingguo Feng,  J. Fosso-Tande,  Qinghui Ge,  A. Ghysels,  G. Gidofalvi,  
 J. Gomes,  J. Gonthier,  A. Gunina,  M. W. D. Hanson-Heine,  
 P. H. P. Harbach,  A. W. Hauser,  J. E. Herr,  E. G. Hohenstein,  
 Z. C. Holden,  Kerwin Hui,  T.-C. Jagau,  Hyunjun Ji,  B. Kaduk,  
 K. Khistyaev,  Jaehoon Kim,  P. Klunzinger,  K. Koh,  D. Kosenkov,  
 L. Koulias,  T. Kowalczyk,  C. M. Krauter,  A. Kunitsa,  Ka Un Lao,  
 A. Laurent,  K. V. Lawler,  Joonho Lee,  D. Lefrancois,  S. Lehtola,  
 D. S. Levine,  Yi-Pei Li,  You-Sheng Lin,  Fenglai Liu,  E. Livshits,  
 A. Luenser,  P. Manohar,  E. Mansoor,  S. F. Manzer,  Shan-Ping Mao,  
 Yuezhi Mao,  N. Mardirossian,  A. V. Marenich,  T. Markovich,  
 L. A. Martinez-Martinez,  S. A. Maurer,  N. J. Mayhall,  S. C. McKenzie,  
 J.-M. Mewes,  A. F. Morrison,  J. W. Mullinax,  K. Nanda,  
 T. S. Nguyen-Beck,  R. Olivares-Amaya,  J. A. Parkhill,  T. M. Perrine,  
 F. Plasser,  S. Prager,  A. Prociuk,  E. Ramos,  D. R. Rehn,  F. Rob,  
 M. Schneider,  N. Sergueev,  S. M. Sharada,  S. Sharma,  D. W. Small,  
 T. Stauch,  T. Stein,  Yu-Chuan Su,  A. J. W. Thom,  A. Tkatchenko,  
 T. Tsuchimochi,  L. Vogt,  O. Vydrov,  M. A. Watson,  J. Wenzel,  
 M. de Wergifosse,  T. A. Wesolowski,  A. White,  J. Witte,  A. Yamada,  
 Jun Yang,  K. Yao,  S. Yeganeh,  S. R. Yost,  Zhi-Qiang You,  A. Zech,  
 Igor Ying Zhang,  Xing Zhang,  Yan Zhao,  Ying Zhu,  B. R. Brooks,  
 G. K. L. Chan,  C. J. Cramer,  M. S. Gordon,  W. J. Hehre,  A. Klamt,  
 M. W. Schmidt,  C. D. Sherrill,  D. G. Truhlar,  A. Aspuru-Guzik,  R. Baer,  
 A. T. Bell,  N. A. Besley,  Jeng-Da Chai,  R. A. DiStasio Jr.,  A. Dreuw,  
 B. D. Dunietz,  T. R. Furlani,  Chao-Ping Hsu,  Yousung Jung,  Jing Kong,  
 D. S. Lambrecht,  WanZhen Liang,  C. Ochsenfeld,  V. A. Rassolov,  
 L. V. Slipchenko,  J. E. Subotnik,  T. Van Voorhis,  J. M. Herbert,  
 A. I. Krylov,  P. M. W. Gill,  M. Head-Gordon

 Contributors to earlier versions of Q-Chem not listed above: 
 R. D. Adamson,  B. Austin,  J. Baker,  G. J. O. Beran,  K. Brandhorst,  
 S. T. Brown,  E. F. C. Byrd,  A. K. Chakraborty,  C.-L. Cheng,  
 Siu Hung Chien,  D. M. Chipman,  D. L. Crittenden,  H. Dachsel,  
 R. J. Doerksen,  A. D. Dutoi,  L. Fusti-Molnar,  W. A. Goddard III,  
 A. Golubeva-Zadorozhnaya,  S. R. Gwaltney,  G. Hawkins,  A. Heyden,  
 S. Hirata,  G. Kedziora,  F. J. Keil,  C. Kelley,  Jihan Kim,  R. A. King,  
 R. Z. Khaliullin,  P. P. Korambath,  W. Kurlancheek,  A. M. Lee,  M. S. Lee,  
 S. V. Levchenko,  Ching Yeh Lin,  D. Liotard,  R. C. Lochan,  I. Lotan,  
 P. E. Maslen,  N. Nair,  D. P. O'Neill,  D. Neuhauser,  E. Neuscamman,  
 C. M. Oana,  R. Olson,  B. Peters,  R. Peverati,  P. A. Pieniazek,  
 Y. M. Rhee,  J. Ritchie,  M. A. Rohrdanz,  E. Rosta,  N. J. Russ,  
 H. F. Schaefer III,  N. E. Schultz,  N. Shenvi,  A. C. Simmonett,  A. Sodt,  
 D. Stuck,  K. S. Thanthiriwatte,  V. Vanovschi,  Tao Wang,  A. Warshel,  
 C. F. Williams,  Q. Wu,  X. Xu,  W. Zhang

 Please cite Q-Chem as follows:
 Y. Shao et al., Mol. Phys. 113, 184-215 (2015)
 DOI: 10.1080/00268976.2014.952696

 Q-Chem 5.0.2 for Intel X86 EM64T Linux

 Parts of Q-Chem use Armadillo 5.200.1 (Boston Tea Smuggler).
 http://arma.sourceforge.net/

 Q-Chem begins on Wed Mar  2 17:50:45 2022  

Host: 
0

     Scratch files written to ./irc_reactant.d//
 Dec517 15110_ 26548  26544 5633   
Processing $rem in /home/leeping/opt/qchem/5.0.2-openmp/config/preferences.
 MEM_STATIC 2000
 MEM_TOTAL  8000
 SYMMETRY   OFF
 SYM_IGNORE TRUE 

Checking the input file for inconsistencies... 	...done.

--------------------------------------------------------------
User input:
--------------------------------------------------------------
$molecule
0 2
C        1.5791252056    0.2926202887   -0.3212753300
C        0.6383214384   -0.8741601761   -0.0514834807
C       -0.6901991429   -0.3721876257   -0.7166529371
C       -1.0453332800    0.3114421959    0.6398804315
C       -0.4442860169    1.0906140833   -0.5665324209
N        0.9712589404    1.3958592422   -0.5616369474
H        2.6590888752    0.2502177049   -0.1968520835
H        1.0170265662   -1.8840325215   -0.2076048272
H       -1.3374552282   -0.8896715450   -1.4177306634
H       -2.0117308370    0.6039638343    1.0355374753
H       -1.1044523105    1.8203631371   -1.0220751935
C       -0.0253995665   -0.5228538164    1.2894775493
H       -0.2059646436   -1.2221748016    2.0969484280
$end

$rem
method                b3lyp
basis                 6-31+g(d,p)
unrestricted          true
symmetry              off
sym_ignore            true
incdft                false
incfock               0
scf_convergence       6
thresh                14
jobtype               sp
scf_guess             read
scf_algorithm         diis
max_scf_cycles        100
stability_analysis    true
max_cis_cycles        100
cis_n_roots           4
$end

--------------------------------------------------------------
 ----------------------------------------------------------------
             Standard Nuclear Orientation (Angstroms)
    I     Atom           X                Y                Z
 ----------------------------------------------------------------
    1      C       1.5791252056     0.2926202887    -0.3212753300
    2      C       0.6383214384    -0.8741601761    -0.0514834807
    3      C      -0.6901991429    -0.3721876257    -0.7166529371
    4      C      -1.0453332800     0.3114421959     0.6398804315
    5      C      -0.4442860169     1.0906140833    -0.5665324209
    6      N       0.9712589404     1.3958592422    -0.5616369474
    7      H       2.6590888752     0.2502177049    -0.1968520835
    8      H       1.0170265662    -1.8840325215    -0.2076048272
    9      H      -1.3374552282    -0.8896715450    -1.4177306634
   10      H      -2.0117308370     0.6039638343     1.0355374753
   11      H      -1.1044523105     1.8203631371    -1.0220751935
   12      C      -0.0253995665    -0.5228538164     1.2894775493
   13      H      -0.2059646436    -1.2221748016     2.0969484280
 ----------------------------------------------------------------
 Nuclear Repulsion Energy =   282.0846731230 hartrees
 There are       25 alpha and       24 beta electrons
 Requested basis set is 6-31+G(d,p)
 There are 53 shells and 163 basis functions

 Total QAlloc Memory Limit   8000 MB
 Mega-Array Size      1956 MB
 MEM_STATIC part      2000 MB

                       Distance Matrix (Angstroms)
             C (  1)   C (  2)   C (  3)   C (  4)   C (  5)   N (  6)
   C (  2)  1.522917
   C (  3)  2.397525  1.568245
   C (  4)  2.794988  2.172172  1.560017
   C (  5)  2.188867  2.301663  1.490905  1.556855
   N (  6)  1.282346  2.350339  2.431144  2.585778  1.448091
   H (  7)  1.087934  2.317080  3.446057  3.798238  3.236335  2.072277
   H (  8)  2.250932  1.089786  2.336541  3.129164  3.333585  3.299261
   H (  9)  3.332637  2.402200  1.085468  2.400369  2.333200  3.359570
   H ( 10)  3.851250  3.223235  2.401976  1.084453  2.293543  3.475096
   H ( 11)  3.166498  3.352576  2.252147  2.245536  1.084377  2.168129
   C ( 12)  2.415372  1.536918  2.118778  1.469112  2.494698  2.846298
   H ( 13)  3.365851  2.334458  2.978811  2.275866  3.535523  3.912548
             H (  7)   H (  8)   H (  9)   H ( 10)   H ( 11)   C ( 12)
   H (  8)  2.692862
   H (  9)  4.331542  2.827851
   H ( 10)  4.843602  4.112043  2.950274
   H ( 11)  4.160600  4.345870  2.748658  2.556668
   C ( 12)  3.164379  2.276118  3.030680  2.297763  3.463856
   H ( 13)  3.954490  2.691603  3.707263  2.778879  4.448890  1.083357

 
 A cutoff of  1.0D-14 yielded   1402 shell pairs
 There are     13508 function pairs
 Smallest overlap matrix eigenvalue = 2.55E-05

 Scale SEOQF with 1.000000e-01/1.000000e-01/1.000000e-01

 Standard Electronic Orientation quadrupole field applied
 Nucleus-field energy     =     0.0000000014 hartrees
 Guess MOs from SCF MO coefficient file
 Reading MOs from coefficient file
 Reading MOs from coefficient file
 An unrestricted hybrid HF-DFT SCF calculation will be
 performed using Pulay DIIS extrapolation
 Exchange:     0.2000 Hartree-Fock + 0.0800 Slater + 0.7200 B88
 Correlation:  0.1900 VWN1RPA + 0.8100 LYP
 Using SG-1 standard quadrature grid
 SCF converges when DIIS error is below 1.0E-06
Using Q-Chem read-in guess as SCF_GUESS READ specified.

 -------------------------------------------------------
 OpenMP BLAS3 based DFT computing Module                
 -------------------------------------------------------
 ---------------------------------------
  Cycle       Energy         DIIS Error
 ---------------------------------------
    1    -286.8569554559      7.55E-10
    2    -286.8569554559      7.57E-10 Convergence criterion met
 ---------------------------------------
 <S^2> = 0.7556
 SCF time:  CPU 6.53 s  wall 9.25 s
 SCF   energy in the final basis set = -286.85695546
 Total energy in the final basis set = -286.85695546
 
 Direct TDDFT/TDA calculation will be performed
 Exchange:     0.2000 Hartree-Fock + 0.0800 Slater + 0.7200 B88
 Correlation:  0.1900 VWN1RPA + 0.8100 LYP
 Using SG-1 standard quadrature grid
 CIS energy converged when residual is below 10e- 6
 ---------------------------------------------------
 Iter    Rts Conv    Rts Left    Ttl Dev     Max Dev
 ---------------------------------------------------
   1         0           4      0.001582    0.000800
   2         0           4      0.000728    0.000256
   3         0           4      0.000298    0.000124
   4         0           4      0.000179    0.000069
   5         0           4      0.000993    0.000919
   6         0           4      0.000347    0.000314
   7         0           4      0.000186    0.000159
   8         1           3      0.000099    0.000079
   9         1           3      0.000024    0.000018
  10         3           1      0.000005    0.000004
  11         4           0      0.000002    0.000001    Roots Converged
 ---------------------------------------------------
 
 ---------------------------------------------------
         TDDFT/TDA Excitation Energies              
 ---------------------------------------------------

 Excited state   1: excitation energy (eV) =    3.1529
 Total energy for state  1:                  -286.74109013 au
    <S**2>     :  0.8590
    Trans. Mom.:  0.2313 X   0.1199 Y  -0.1712 Z
    Strength   :     0.0075088643
    S(  1) --> V(  1) amplitude =  0.9798 alpha

 Excited state   2: excitation energy (eV) =    3.9847
 Total energy for state  2:                  -286.71052110 au
    <S**2>     :  0.8116
    Trans. Mom.: -0.1060 X  -0.0899 Y  -0.1325 Z
    Strength   :     0.0035996774
    S(  1) --> V(  2) amplitude =  0.9801 alpha

 Excited state   3: excitation energy (eV) =    4.0749
 Total energy for state  3:                  -286.70720633 au
    <S**2>     :  1.7920
    Trans. Mom.:  0.0067 X   0.0660 Y  -0.0495 Z
    Strength   :     0.0006835174
    D( 24) --> V(  1) amplitude =  0.4265 alpha
    D( 23) --> S(  1) amplitude =  0.2403 beta
    D( 24) --> S(  1) amplitude = -0.7612 beta
    D( 24) --> V(  1) amplitude = -0.2884 beta

 Excited state   4: excitation energy (eV) =    4.4421
 Total energy for state  4:                  -286.69371179 au
    <S**2>     :  0.8311
    Trans. Mom.:  0.1572 X  -0.0797 Y   0.0753 Z
    Strength   :     0.0039973841
    S(  1) --> V(  3) amplitude =  0.9226 alpha
    S(  1) --> V(  4) amplitude = -0.3114 alpha
 
 ---------------------------------------------------

 Stability analysis will be performed
 ---------------------------------------------------
 Iter    Rts Conv    Rts Left    Ttl Dev     Max Dev
 ---------------------------------------------------
   1         0           8      0.003031    0.000665
   2         0           8      0.002184    0.000795
   3         0           8      0.001469    0.000637
   4         1           7      0.000730    0.000360
   5         2           6      0.000401    0.000220
   6         2           6      0.000163    0.000104
   7         4           4      0.000057    0.000039
   8         4           4      0.000021    0.000015
   9         7           1      0.000007    0.000004
  10         7           1      0.000003    0.000001
  11         8           0      0.000002    0.000000    Roots Converged
 UKS-> UKS   stable,    smallest eigenvalue:      0.1031226
 UKS->CUKS   stable,    smallest eigenvalue:      0.1151977
 ---------------------------------------------------
  SETman timing summary (seconds)
  CPU time               206.62s
  System time              0.00s
  Wall time              233.81s
 
 --------------------------------------------------------------
 
                    Orbital Energies (a.u.)
 --------------------------------------------------------------
 
 Alpha MOs
 -- Occupied --
-14.334 -10.233 -10.231 -10.223 -10.221 -10.220 -10.211  -0.980
 -0.867  -0.759  -0.674  -0.615  -0.583  -0.549  -0.518  -0.465
 -0.450  -0.420  -0.410  -0.369  -0.344  -0.317  -0.282  -0.270
 -0.180
 -- Virtual --
 -0.021  -0.001   0.015   0.021   0.029   0.045   0.049   0.061
  0.071   0.073   0.080   0.092   0.103   0.107   0.110   0.119
  0.121   0.137   0.143   0.161   0.163   0.175   0.178   0.185
  0.187   0.197   0.212   0.219   0.224   0.241   0.246   0.254
  0.261   0.271   0.284   0.298   0.306   0.321   0.329   0.343
  0.355   0.382   0.420   0.461   0.620   0.656   0.666   0.673
  0.691   0.711   0.724   0.745   0.752   0.757   0.784   0.794
  0.801   0.809   0.859   0.894   0.915   0.938   0.958   0.981
  0.999   1.013   1.044   1.060   1.084   1.086   1.125   1.169
  1.212   1.242   1.263   1.391   1.411   1.433   1.482   1.512
  1.576   1.603   1.644   1.674   1.734   1.774   1.809   1.839
  1.889   1.924   1.935   2.012   2.028   2.078   2.111   2.152
  2.157   2.220   2.248   2.298   2.321   2.361   2.365   2.369
  2.392   2.443   2.453   2.464   2.489   2.511   2.545   2.558
  2.580   2.615   2.633   2.635   2.691   2.700   2.743   2.820
  2.829   2.904   2.993   3.030   3.094   3.268   3.314   3.355
  3.512   3.534   3.693   4.177   4.417   4.462   4.584   4.601
  4.660   4.853
 
 Beta MOs
 -- Occupied --
-14.334 -10.233 -10.231 -10.221 -10.220 -10.220 -10.199  -0.976
 -0.861  -0.753  -0.661  -0.611  -0.579  -0.544  -0.512  -0.458
 -0.446  -0.415  -0.406  -0.361  -0.340  -0.304  -0.275  -0.266
 -- Virtual --
 -0.060  -0.012  -0.000   0.015   0.022   0.032   0.045   0.050
  0.061   0.071   0.077   0.083   0.094   0.104   0.108   0.111
  0.121   0.124   0.139   0.146   0.161   0.165   0.177   0.179
  0.186   0.189   0.197   0.212   0.223   0.227   0.243   0.249
  0.256   0.261   0.274   0.289   0.299   0.310   0.322   0.331
  0.348   0.359   0.385   0.425   0.466   0.623   0.664   0.668
  0.693   0.704   0.714   0.727   0.751   0.755   0.768   0.787
  0.797   0.805   0.813   0.863   0.898   0.917   0.943   0.960
  0.984   1.001   1.016   1.046   1.063   1.087   1.093   1.135
  1.175   1.218   1.247   1.268   1.394   1.413   1.439   1.485
  1.516   1.579   1.617   1.648   1.678   1.741   1.783   1.814
  1.849   1.894   1.931   1.941   2.019   2.032   2.086   2.124
  2.156   2.162   2.233   2.254   2.303   2.324   2.364   2.367
  2.373   2.396   2.452   2.457   2.470   2.492   2.518   2.549
  2.562   2.590   2.621   2.638   2.641   2.695   2.704   2.745
  2.822   2.834   2.909   2.995   3.034   3.095   3.269   3.315
  3.358   3.513   3.536   3.698   4.178   4.437   4.464   4.588
  4.604   4.664   4.858
 --------------------------------------------------------------
 
          Ground-State Mulliken Net Atomic Charges

     Atom                 Charge (a.u.)    Spin (a.u.)
  --------------------------------------------------------
      1 C                    -0.012471      -0.001370
      2 C                    -0.109819      -0.086831
      3 C                    -0.049450       0.166260
      4 C                    -0.107008      -0.101906
      5 C                    -0.253134       0.014910
      6 N                    -0.177447       0.027633
      7 H                     0.131932       0.001608
      8 H                     0.131451       0.008526
      9 H                     0.135161       0.007648
     10 H                     0.140026       0.000445
     11 H                     0.144869       0.003283
     12 C                    -0.110984       0.999990
     13 H                     0.136876      -0.040197
  --------------------------------------------------------
  Sum of atomic charges =    -0.000000
  Sum of spin   charges =     1.000000

 -----------------------------------------------------------------
                    Cartesian Multipole Moments
 -----------------------------------------------------------------
    Charge (ESU x 10^10)
                -0.0000
    Dipole Moment (Debye)
         X      -1.5134      Y      -2.4881      Z      -0.0815
       Tot       2.9134
    Quadrupole Moments (Debye-Ang)
        XX     -38.3804     XY      -4.7475     YY     -44.3224
        XZ       0.6912     YZ       0.4684     ZZ     -42.5220
    Octopole Moments (Debye-Ang^2)
       XXX     -11.4413    XXY      -8.4077    XYY     -12.7608
       YYY     -31.0420    XXZ       1.0657    XYZ       2.0801
       YYZ       2.6370    XZZ     -10.8114    YZZ     -10.6232
       ZZZ       3.6739
    Hexadecapole Moments (Debye-Ang^3)
      XXXX    -261.7470   XXXY     -14.6634   XXYY     -93.9713
      XYYY     -28.7060   YYYY    -251.5181   XXXZ      15.6729
      XXYZ      15.2079   XYYZ      12.6924   YYYZ      34.3951
      XXZZ     -81.5947   XYZZ      -4.6550   YYZZ     -70.0551
      XZZZ      15.5837   YZZZ      28.6342   ZZZZ    -199.2296
 -----------------------------------------------------------------
Archival summary:
1\1\c8-66\SP\ProcedureUnspecified\6-31+G**\166(2)\hpark21\WedMar217:54:512022WedMar217:54:512022\0\\#,ProcedureUnspecified,6-31+G**,\\0,2\N\C,1,1.28235\H,2,1.08793,1,121.703\C,1,1.44809,2,106.419,3,-175.895,0\H,4,1.08438,1,117.044,2,-163.179,0\C,4,1.49091,1,111.617,2,-17.351,0\H,6,1.08547,4,129.134,1,-128.923,0\C,2,1.52292,1,113.547,3,172.391,0\H,8,1.08979,2,118.029,1,157.457,0\C,8,1.53692,2,104.254,1,-67.7668,0\H,10,1.08336,8,125.081,2,-137.852,0\C,10,1.46911,8,92.512,2,84.35,0\H,12,1.08445,10,127.628,8,158.877,0\\\@

 Total job time:  246.21s(wall), 213.39s(cpu) 
 Wed Mar  2 17:54:51 2022

        *************************************************************
        *                                                           *
        *  Thank you very much for using Q-Chem.  Have a nice day.  *
        *                                                           *
        *************************************************************


