
Running Job 1 of 1 qcfsm.in
qchem qcfsm.in_16918.0 ./qcfsm.d/ 1
/home/leeping/opt/qchem/5.0.2-openmp/exe/qcprog.exe_s qcfsm.in_16918.0 ./qcfsm.d/
Check license passed

                  Welcome to Q-Chem
     A Quantum Leap Into The Future Of Chemistry


 Q-Chem 5.0, Q-Chem, Inc., Pleasanton, CA (2017)

 Yihan Shao,  Zhengting Gan,  E. Epifanovsky,  A. T. B. Gilbert,  M. Wormit,  
 J. Kussmann,  A. W. Lange,  A. Behn,  Jia Deng,  Xintian Feng,  D. Ghosh,  
 M. Goldey,  P. R. Horn,  L. D. Jacobson,  I. Kaliman,  T. Kus,  A. Landau,  
 Jie Liu,  E. I. Proynov,  R. M. Richard,  R. P. Steele,  E. J. Sundstrom,  
 H. L. Woodcock III,  P. M. Zimmerman,  D. Zuev,  B. Albrecht,  E. Alguire,  
 S. A. Baeppler,  D. Barton,  Z. Benda,  Y. A. Bernard,  E. J. Berquist,  
 K. B. Bravaya,  H. Burton,  D. Casanova,  Chun-Min Chang,  Yunqing Chen,  
 A. Chien,  K. D. Closser,  M. P. Coons,  S. Dasgupta,  A. L. Dempwolff,  
 M. Diedenhofen,  Hainam Do,  R. G. Edgar,  Po-Tung Fang,  S. Fatehi,  
 Qingguo Feng,  J. Fosso-Tande,  Qinghui Ge,  A. Ghysels,  G. Gidofalvi,  
 J. Gomes,  J. Gonthier,  A. Gunina,  M. W. D. Hanson-Heine,  
 P. H. P. Harbach,  A. W. Hauser,  J. E. Herr,  E. G. Hohenstein,  
 Z. C. Holden,  Kerwin Hui,  T.-C. Jagau,  Hyunjun Ji,  B. Kaduk,  
 K. Khistyaev,  Jaehoon Kim,  P. Klunzinger,  K. Koh,  D. Kosenkov,  
 L. Koulias,  T. Kowalczyk,  C. M. Krauter,  A. Kunitsa,  Ka Un Lao,  
 A. Laurent,  K. V. Lawler,  Joonho Lee,  D. Lefrancois,  S. Lehtola,  
 D. S. Levine,  Yi-Pei Li,  You-Sheng Lin,  Fenglai Liu,  E. Livshits,  
 A. Luenser,  P. Manohar,  E. Mansoor,  S. F. Manzer,  Shan-Ping Mao,  
 Yuezhi Mao,  N. Mardirossian,  A. V. Marenich,  T. Markovich,  
 L. A. Martinez-Martinez,  S. A. Maurer,  N. J. Mayhall,  S. C. McKenzie,  
 J.-M. Mewes,  A. F. Morrison,  J. W. Mullinax,  K. Nanda,  
 T. S. Nguyen-Beck,  R. Olivares-Amaya,  J. A. Parkhill,  T. M. Perrine,  
 F. Plasser,  S. Prager,  A. Prociuk,  E. Ramos,  D. R. Rehn,  F. Rob,  
 M. Schneider,  N. Sergueev,  S. M. Sharada,  S. Sharma,  D. W. Small,  
 T. Stauch,  T. Stein,  Yu-Chuan Su,  A. J. W. Thom,  A. Tkatchenko,  
 T. Tsuchimochi,  L. Vogt,  O. Vydrov,  M. A. Watson,  J. Wenzel,  
 M. de Wergifosse,  T. A. Wesolowski,  A. White,  J. Witte,  A. Yamada,  
 Jun Yang,  K. Yao,  S. Yeganeh,  S. R. Yost,  Zhi-Qiang You,  A. Zech,  
 Igor Ying Zhang,  Xing Zhang,  Yan Zhao,  Ying Zhu,  B. R. Brooks,  
 G. K. L. Chan,  C. J. Cramer,  M. S. Gordon,  W. J. Hehre,  A. Klamt,  
 M. W. Schmidt,  C. D. Sherrill,  D. G. Truhlar,  A. Aspuru-Guzik,  R. Baer,  
 A. T. Bell,  N. A. Besley,  Jeng-Da Chai,  R. A. DiStasio Jr.,  A. Dreuw,  
 B. D. Dunietz,  T. R. Furlani,  Chao-Ping Hsu,  Yousung Jung,  Jing Kong,  
 D. S. Lambrecht,  WanZhen Liang,  C. Ochsenfeld,  V. A. Rassolov,  
 L. V. Slipchenko,  J. E. Subotnik,  T. Van Voorhis,  J. M. Herbert,  
 A. I. Krylov,  P. M. W. Gill,  M. Head-Gordon

 Contributors to earlier versions of Q-Chem not listed above: 
 R. D. Adamson,  B. Austin,  J. Baker,  G. J. O. Beran,  K. Brandhorst,  
 S. T. Brown,  E. F. C. Byrd,  A. K. Chakraborty,  C.-L. Cheng,  
 Siu Hung Chien,  D. M. Chipman,  D. L. Crittenden,  H. Dachsel,  
 R. J. Doerksen,  A. D. Dutoi,  L. Fusti-Molnar,  W. A. Goddard III,  
 A. Golubeva-Zadorozhnaya,  S. R. Gwaltney,  G. Hawkins,  A. Heyden,  
 S. Hirata,  G. Kedziora,  F. J. Keil,  C. Kelley,  Jihan Kim,  R. A. King,  
 R. Z. Khaliullin,  P. P. Korambath,  W. Kurlancheek,  A. M. Lee,  M. S. Lee,  
 S. V. Levchenko,  Ching Yeh Lin,  D. Liotard,  R. C. Lochan,  I. Lotan,  
 P. E. Maslen,  N. Nair,  D. P. O'Neill,  D. Neuhauser,  E. Neuscamman,  
 C. M. Oana,  R. Olson,  B. Peters,  R. Peverati,  P. A. Pieniazek,  
 Y. M. Rhee,  J. Ritchie,  M. A. Rohrdanz,  E. Rosta,  N. J. Russ,  
 H. F. Schaefer III,  N. E. Schultz,  N. Shenvi,  A. C. Simmonett,  A. Sodt,  
 D. Stuck,  K. S. Thanthiriwatte,  V. Vanovschi,  Tao Wang,  A. Warshel,  
 C. F. Williams,  Q. Wu,  X. Xu,  W. Zhang

 Please cite Q-Chem as follows:
 Y. Shao et al., Mol. Phys. 113, 184-215 (2015)
 DOI: 10.1080/00268976.2014.952696

 Q-Chem 5.0.2 for Intel X86 EM64T Linux

 Parts of Q-Chem use Armadillo 5.200.1 (Boston Tea Smuggler).
 http://arma.sourceforge.net/

 Q-Chem begins on Wed Mar  2 11:46:17 2022  

Host: 
0

     Scratch files written to ./qcfsm.d//
 Dec517 15110_ 26548  26544 5633   
Processing $rem in /home/leeping/opt/qchem/5.0.2-openmp/config/preferences.
 MEM_STATIC 2000
 MEM_TOTAL  8000
 SYMMETRY   OFF
 SYM_IGNORE TRUE 
 Now reading second FSM geometry

Checking the input file for inconsistencies... 	...done.

--------------------------------------------------------------
User input:
--------------------------------------------------------------
$molecule
0 2
C        1.5486951731    0.2442336635   -0.2494075832
C        0.5832877847   -0.9254885455   -0.0949144588
C       -0.7096484807   -0.3596107883   -0.7855341012
C       -1.1193955337    0.1992909432    0.5904615686
C       -0.4422521773    1.0835525612   -0.5517996318
N        0.9671171309    1.3696570034   -0.4538244963
H        2.6208252181    0.1780447767   -0.0708608150
H        0.9605783932   -1.9279423739   -0.3083543462
H       -1.3195292186   -0.8226233496   -1.5554190234
H       -2.0921367155    0.5063234239    0.9619766907
H       -1.0832887086    1.8560368313   -0.9641885398
C       -0.1340248975   -0.6634536071    1.2281084250
H        0.2197720324   -0.7380205390    2.2537563110
****
C        1.5862167321    0.3752484457   -0.3110432178
C        0.7817497375   -0.8579963142   -0.0686461741
C       -0.5626767796   -0.5793514462   -0.6572232044
C       -0.8331545171    0.7408410072    0.9835204086
C       -0.5267377577    0.9886603279   -0.4988024863
N        0.8919135618    1.4118661882   -0.5987913352
H        2.6709340366    0.4221547241   -0.2209525076
H        1.2124765558   -1.8542205295   -0.0970044697
H       -1.1233934872   -1.1933047692   -1.3562425719
H       -1.7077709260    1.1078635516    1.5084557950
H       -1.1949331404    1.6218615707   -1.0820825965
C       -0.4590759748   -0.6817606617    0.8721791246
H       -0.7355480409   -1.5018620945    1.5266332353
$end

$rem
method                b3lyp
basis                 6-31g(d)
unrestricted          true
symmetry              off
sym_ignore            true
incdft                false
incfock               0
scf_convergence       8
thresh                14
jobtype               fsm
scf_guess             core
scf_guess_mix         5
scf_algorithm         diis
max_scf_cycles        100
fsm_nnode             21
fsm_ngrad             6
fsm_mode              2
fsm_opt_mode          2
$end

--------------------------------------------------------------
 ----------------------------------------------------------------
             Standard Nuclear Orientation (Angstroms)
    I     Atom           X                Y                Z
 ----------------------------------------------------------------
    1      C       1.5486951731     0.2442336635    -0.2494075832
    2      C       0.5832877847    -0.9254885455    -0.0949144588
    3      C      -0.7096484807    -0.3596107883    -0.7855341012
    4      C      -1.1193955337     0.1992909432     0.5904615686
    5      C      -0.4422521773     1.0835525612    -0.5517996318
    6      N       0.9671171309     1.3696570034    -0.4538244963
    7      H       2.6208252181     0.1780447767    -0.0708608150
    8      H       0.9605783932    -1.9279423739    -0.3083543462
    9      H      -1.3195292186    -0.8226233496    -1.5554190234
   10      H      -2.0921367155     0.5063234239     0.9619766907
   11      H      -1.0832887086     1.8560368313    -0.9641885398
   12      C      -0.1340248975    -0.6634536071     1.2281084250
   13      H       0.2197720324    -0.7380205390     2.2537563110
 ----------------------------------------------------------------
 Nuclear Repulsion Energy =   282.1903129743 hartrees
 There are       25 alpha and       24 beta electrons
 Requested basis set is 6-31G(d)
 There are 40 shells and 117 basis functions

 Total QAlloc Memory Limit   8000 MB
 Mega-Array Size      1956 MB
 MEM_STATIC part      2000 MB
 beginning FSman 

*******************************************
*******************************************
******** Starting FSM Calculation *********
*******************************************
*******************************************
-FSM parameters:
 Maximum displacement of each coordinate during optimization (Angstrom)      0.05
 Maximum optimization steps for each new node                                6
 The scaling factor for optimization (hartrees/Angstrom^2)                   1.75
 The number of LST interpolations used for reparameterization                100
-Aligning product structure to maximum coincidence with the reactant structure
 Total R --> P Distance 2.071497
 New node interpolation distace (Angstroms): 0.10
-Performing force calculation on reactant structure in state:0
 ----------------------------------------------------------------
             Standard Nuclear Orientation (Angstroms)
    I     Atom           X                Y                Z
 ----------------------------------------------------------------
    1      C       1.5486951731     0.2442336635    -0.2494075832
    2      C       0.5832877847    -0.9254885455    -0.0949144588
    3      C      -0.7096484807    -0.3596107883    -0.7855341012
    4      C      -1.1193955337     0.1992909432     0.5904615686
    5      C      -0.4422521773     1.0835525612    -0.5517996318
    6      N       0.9671171309     1.3696570034    -0.4538244963
    7      H       2.6208252181     0.1780447767    -0.0708608150
    8      H       0.9605783932    -1.9279423739    -0.3083543462
    9      H      -1.3195292186    -0.8226233496    -1.5554190234
   10      H      -2.0921367155     0.5063234239     0.9619766907
   11      H      -1.0832887086     1.8560368313    -0.9641885398
   12      C      -0.1340248975    -0.6634536071     1.2281084250
   13      H       0.2197720324    -0.7380205390     2.2537563110
 ----------------------------------------------------------------
 Nuclear Repulsion Energy =   282.1903129743 hartrees
 There are       25 alpha and       24 beta electrons

                       Distance Matrix (Angstroms)
             C (  1)   C (  2)   C (  3)   C (  4)   C (  5)   N (  6)
   C (  2)  1.524510
   C (  3)  2.398369  1.571260
   C (  4)  2.797518  2.152673  1.540658
   C (  5)  2.181689  2.301461  1.486221  1.595369
   N (  6)  1.283198  2.354535  2.431448  2.610330  1.441450
   H (  7)  1.088909  2.317309  3.448461  3.798296  3.230122  2.073970
   H (  8)  2.251156  1.092162  2.340304  3.107939  3.331111  3.300813
   H (  9)  3.327245  2.400910  1.085844  2.385197  2.326021  3.353857
   H ( 10)  3.846011  3.213254  2.390588  1.085596  2.312322  3.479780
   H ( 11)  3.167990  3.357082  2.254023  2.272234  1.085230  2.168225
   C ( 12)  2.416298  1.527609  2.116228  1.456666  2.512988  2.859187
   H ( 13)  2.999448  2.384018  3.200672  2.332053  3.409919  3.511670
             H (  7)   H (  8)   H (  9)   H ( 10)   H ( 11)   C ( 12)
   H (  8)  2.692212
   H (  9)  4.328007  2.824144
   H ( 10)  4.835962  4.105906  2.949628
   H ( 11)  4.163430  4.350403  2.753286  2.559221
   C ( 12)  3.159848  2.271080  3.029650  2.296390  3.472045
   H ( 13)  3.465267  2.920466  4.109309  2.926091  4.333852  1.087514

 
 Requested basis set is 6-31G(d)
 There are 40 shells and 117 basis functions
 A cutoff of  1.0D-14 yielded    812 shell pairs
 There are      7084 function pairs
 
 -------------------------------------------------------
 OpenMP Integral Computing Module                       
 Release: version 1.0, May 2013, Q-Chem Inc. Pittsburgh 
 -------------------------------------------------------
 Integral Job Info:
 Integral job number is                      11
 Integral operator is                         1
 short-range coefficients                     0
 long-range coefficients              100000000
 Omega coefficients                           0
 if combine SR and LR in K                    0
 Integral screening is                        0
 Integral computing path is                   2
 max size of driver memory is            800000
 size of driver memory is                593474
 size of scratch memory is              2361544
 max col of scratch BK array               1296
 max len of scratch array in speh3          155
 max len of scratch index in speh4           18
 max int batch size is                      520
 min int batch size is                       52
 fixed nKL is                                52
 max L of basis functions is                  2
 order of int derivative is                   0
 number of shells is                         40
 number of basis is                         117
 number of cartesian basis is               117
 number of contracted shell pairs           812
 number of primitive shell pairs           3615
 maxK2 (contraction) of shell pair           36
 max number of K2 of shell pair               1
 max number of CS2 of shell pair             84
 max number of PS2 of shell pair            426
 mem total for path MDJ                  535308
 -------------------------------------------------------
 Smallest overlap matrix eigenvalue = 1.65E-03

 Scale SEOQF with 1.000000e-01/1.000000e-01/1.000000e-01

 Standard Electronic Orientation quadrupole field applied
 Nucleus-field energy     =     0.0000000015 hartrees
 Guess MOs from core Hamiltonian diagonalization
 Mixing HOMO and LUMO in initial guess
 Adding  50% of the LUMO to the HOMO
 An unrestricted hybrid HF-DFT SCF calculation will be
 performed using Pulay DIIS extrapolation
 Exchange:     0.2000 Hartree-Fock + 0.0800 Slater + 0.7200 B88
 Correlation:  0.1900 VWN1RPA + 0.8100 LYP
 Using SG-1 standard quadrature grid
 SCF converges when DIIS error is below 1.0E-08
 using 4 threads for integral computing
 -------------------------------------------------------
 OpenMP Integral computing Module                
 Release: version 1.0, May 2013, Q-Chem Inc. Pittsburgh 
 -------------------------------------------------------
 -------------------------------------------------------
 OpenMP BLAS3 based DFT computing Module                
 Release: version 1.0, May 2013, Q-Chem Inc. Pittsburgh 
 -------------------------------------------------------
 ---------------------------------------
  Cycle       Energy         DIIS Error
 ---------------------------------------
    1    -236.5586338771      1.34E-01
    2    -229.1362164082      1.08E-01
    3    -262.4932570201      9.64E-02
    4    -279.3159494226      6.23E-02
    5    -283.2386362845      4.09E-02
    6    -286.2294964161      1.77E-02
    7    -286.4858388720      1.27E-02
    8    -286.8045294930      4.28E-03
    9    -286.8265396354      2.52E-03
   10    -286.8380464293      2.50E-04
   11    -286.8382305665      1.68E-04
   12    -286.8382936474      5.40E-05
   13    -286.8383102682      2.40E-05
   14    -286.8383136211      8.53E-06
   15    -286.8383138585      2.01E-06
   16    -286.8383138786      5.86E-07
   17    -286.8383138833      2.55E-07
   18    -286.8383138848      1.45E-07
   19    -286.8383138854      2.28E-08
   20    -286.8383138855      1.27E-08
   21    -286.8383138856      5.71E-09 Convergence criterion met
 ---------------------------------------
 <S^2> = 0.7566
 SCF time:  CPU 54.85 s  wall 45.24 s
 SCF   energy in the final basis set = -286.83831389
 Total energy in the final basis set = -286.83831389
 
 --------------------------------------------------------------
 
                    Orbital Energies (a.u.)
 --------------------------------------------------------------
 
 Alpha MOs
 -- Occupied --
-14.320 -10.224 -10.220 -10.210 -10.209 -10.208 -10.206  -0.968
 -0.856  -0.749  -0.664  -0.606  -0.571  -0.535  -0.517  -0.466
 -0.439  -0.405  -0.400  -0.356  -0.337  -0.298  -0.274  -0.256
 -0.182
 -- Virtual --
  0.004   0.100   0.114   0.128   0.150   0.150   0.153   0.162
  0.177   0.200   0.221   0.262   0.280   0.296   0.348   0.391
  0.494   0.513   0.524   0.543   0.558   0.573   0.601   0.604
  0.606   0.659   0.675   0.678   0.720   0.741   0.770   0.777
  0.805   0.807   0.822   0.842   0.854   0.877   0.888   0.936
  0.954   0.973   1.043   1.096   1.206   1.237   1.328   1.390
  1.446   1.475   1.504   1.517   1.587   1.632   1.672   1.713
  1.742   1.828   1.873   1.881   1.932   1.954   1.988   2.027
  2.060   2.168   2.207   2.217   2.232   2.254   2.363   2.380
  2.456   2.490   2.502   2.542   2.590   2.626   2.664   2.676
  2.718   2.808   2.841   2.914   2.963   3.959   4.194   4.239
  4.362   4.433   4.508   4.640
 
 Beta MOs
 -- Occupied --
-14.319 -10.222 -10.219 -10.211 -10.209 -10.207 -10.193  -0.964
 -0.850  -0.741  -0.652  -0.601  -0.567  -0.528  -0.511  -0.461
 -0.434  -0.402  -0.394  -0.348  -0.332  -0.291  -0.262  -0.251
 -- Virtual --
 -0.062   0.020   0.102   0.118   0.134   0.151   0.156   0.157
  0.165   0.181   0.204   0.227   0.267   0.284   0.298   0.359
  0.394   0.497   0.519   0.532   0.553   0.561   0.578   0.607
  0.610   0.622   0.669   0.679   0.683   0.729   0.745   0.775
  0.786   0.808   0.809   0.824   0.844   0.858   0.882   0.892
  0.940   0.958   0.977   1.047   1.108   1.208   1.243   1.335
  1.392   1.450   1.480   1.514   1.525   1.594   1.640   1.677
  1.716   1.751   1.835   1.878   1.894   1.940   1.970   1.994
  2.035   2.068   2.172   2.222   2.226   2.242   2.270   2.368
  2.390   2.463   2.497   2.510   2.546   2.594   2.633   2.666
  2.684   2.725   2.813   2.845   2.917   2.965   3.961   4.208
  4.245   4.368   4.438   4.511   4.644
 --------------------------------------------------------------
 
          Ground-State Mulliken Net Atomic Charges

     Atom                 Charge (a.u.)    Spin (a.u.)
  --------------------------------------------------------
      1 C                     0.088679       0.046536
      2 C                    -0.258586      -0.065662
      3 C                    -0.108001       0.078138
      4 C                    -0.163334      -0.095696
      5 C                    -0.019139       0.096315
      6 N                    -0.342092       0.039627
      7 H                     0.143042       0.001399
      8 H                     0.142887       0.022631
      9 H                     0.148132      -0.000816
     10 H                     0.147237       0.005296
     11 H                     0.151384       0.002887
     12 C                    -0.066443       0.888640
     13 H                     0.136234      -0.019295
  --------------------------------------------------------
  Sum of atomic charges =     0.000000
  Sum of spin   charges =     1.000000

 -----------------------------------------------------------------
                    Cartesian Multipole Moments
 -----------------------------------------------------------------
    Charge (ESU x 10^10)
                 0.0000
    Dipole Moment (Debye)
         X      -0.9587      Y      -1.8079      Z       0.1099
       Tot       2.0493
    Quadrupole Moments (Debye-Ang)
        XX     -37.7191     XY      -4.6408     YY     -43.8150
        XZ       1.7594     YZ       1.0444     ZZ     -39.7858
    Octopole Moments (Debye-Ang^2)
       XXX      -7.5601    XXY      -6.0931    XYY      -9.3359
       YYY     -21.1113    XXZ       1.7920    XYZ       0.7640
       YYZ      -0.0782    XZZ      -5.6665    YZZ      -6.1910
       ZZZ       7.0393
    Hexadecapole Moments (Debye-Ang^3)
      XXXX    -253.7845   XXXY     -13.2363   XXYY     -88.9578
      XYYY     -24.4732   YYYY    -234.3838   XXXZ      11.9595
      XXYZ      12.8034   XYYZ       9.8641   YYYZ      31.5381
      XXZZ     -74.7728   XYZZ      -4.3273   YYZZ     -67.4832
      XZZZ      16.7069   YZZZ      27.9392   ZZZZ    -167.5967
 -----------------------------------------------------------------
 Calculating analytic gradient of the SCF energy
 Gradient of SCF Energy
            1           2           3           4           5           6
    1   0.0000879   0.0000102  -0.0000626  -0.0000146   0.0000003  -0.0000211
    2   0.0001478   0.0000433  -0.0001699   0.0001109   0.0000426  -0.0000677
    3   0.0001837  -0.0001030   0.0000141  -0.0000481   0.0001366  -0.0001421
            7           8           9          10          11          12
    1   0.0000107   0.0000295  -0.0000039  -0.0000066  -0.0000273  -0.0000155
    2   0.0000292   0.0000315   0.0000268  -0.0000472  -0.0000168  -0.0001060
    3   0.0000276  -0.0000249  -0.0000095   0.0000379  -0.0000000  -0.0000323
           13
    1   0.0000130
    2  -0.0000243
    3  -0.0000400
 Max gradient component =       1.837E-04
 RMS gradient           =       7.054E-05
 Gradient time:  CPU 7.98 s  wall 6.24 s
-Performing force calculation on product structure in state0
 ----------------------------------------------------------------
             Standard Nuclear Orientation (Angstroms)
    I     Atom           X                Y                Z
 ----------------------------------------------------------------
    1      C       1.5862115261     0.3752867863    -0.3110235091
    2      C       0.7817774154    -0.8579746245    -0.0686020491
    3      C      -0.5626457309    -0.5793903717    -0.6572154713
    4      C      -0.8331971144     0.7408479284     0.9834791084
    5      C      -0.5267579590     0.9886277291    -0.4988457633
    6      N       0.8918824152     1.4118737592    -0.5988198759
    7      H       2.6709255699     0.4222292743    -0.2209124023
    8      H       1.2125353320    -1.8541865764    -0.0969187601
    9      H      -1.1233294840    -1.1933839390    -1.3562259243
   10      H      -1.7078353888     1.1078609931     1.5083846905
   11      H      -1.1949609423     1.6217892518    -1.0821602836
   12      C      -0.4590727304    -0.6817459504     0.8721923315
   13      H      -0.7355329084    -1.5018342604     1.5266679080
 ----------------------------------------------------------------
 Nuclear Repulsion Energy =   281.7784456582 hartrees
 There are       25 alpha and       24 beta electrons

                       Distance Matrix (Angstroms)
             C (  1)   C (  2)   C (  3)   C (  4)   C (  5)   N (  6)
   C (  2)  1.492252
   C (  3)  2.376730  1.493837
   C (  4)  2.768196  2.504247  2.123230
   C (  5)  2.208190  2.303761  1.576404  1.533814
   N (  6)  1.280403  2.333552  2.466616  2.435127  1.483803
   H (  7)  1.089462  2.287138  3.413149  3.718999  3.259330  2.070557
   H (  8)  2.270688  1.085722  2.256171  3.476562  3.356826  3.319921
   H (  9)  3.300725  2.323770  1.086264  3.049533  2.419127  3.379661
   H ( 10)  3.833752  3.542537  2.974576  1.084074  2.331981  3.360248
   H ( 11)  3.143778  3.329268  2.329290  2.274598  1.089791  2.152347
   C ( 12)  2.588533  1.567118  1.536324  1.475170  2.162053  2.893475
   H ( 13)  3.505879  2.293833  2.377002  2.309592  3.216939  3.956750
             H (  7)   H (  8)   H (  9)   H ( 10)   H ( 11)   C ( 12)
   H (  8)  2.706353
   H (  9)  4.277326  2.734736
   H ( 10)  4.757532  4.458620  3.720668
   H ( 11)  4.138329  4.341560  2.829389  2.690369
   C ( 12)  3.494357  2.260103  2.380936  2.273069  3.109228
   H ( 13)  4.284859  2.560304  2.925167  2.784998  4.095617  1.085041

 
 Applying Cartesian multipole field
    Component          Value
    ---------          -----
     (2,0,0)        1.00000E-11
     (0,2,0)        2.00000E-11
     (0,0,2)       -3.00000E-11
 Nucleus-field energy     =     0.0000000022 hartrees
 Requested basis set is 6-31G(d)
 There are 40 shells and 117 basis functions
 A cutoff of  1.0D-14 yielded    811 shell pairs
 There are      7083 function pairs
 Smallest overlap matrix eigenvalue = 1.31E-03
 Guess MOs from core Hamiltonian diagonalization
 Mixing HOMO and LUMO in initial guess
 Adding  50% of the LUMO to the HOMO
 An unrestricted hybrid HF-DFT SCF calculation will be
 performed using Pulay DIIS extrapolation
 Exchange:     0.2000 Hartree-Fock + 0.0800 Slater + 0.7200 B88
 Correlation:  0.1900 VWN1RPA + 0.8100 LYP
 Using SG-1 standard quadrature grid
 SCF converges when DIIS error is below 1.0E-08
 using 4 threads for integral computing
 -------------------------------------------------------
 OpenMP Integral computing Module                
 Release: version 1.0, May 2013, Q-Chem Inc. Pittsburgh 
 -------------------------------------------------------
 -------------------------------------------------------
 OpenMP BLAS3 based DFT computing Module                
 Release: version 1.0, May 2013, Q-Chem Inc. Pittsburgh 
 -------------------------------------------------------
 ---------------------------------------
  Cycle       Energy         DIIS Error
 ---------------------------------------
    1    -236.8141051503      1.34E-01
    2    -233.5751407177      1.04E-01
    3    -266.7898500184      8.38E-02
    4    -270.6452650823      8.40E-02
    5    -283.1221072061      4.01E-02
    6    -285.8704306226      2.32E-02
    7    -286.3835347835      1.32E-02
    8    -286.7240361477      7.87E-03
    9    -286.8206341813      2.68E-03
   10    -286.8339405643      1.16E-03
   11    -286.8363092264      1.59E-04
   12    -286.8364570633      7.72E-05
   13    -286.8364802447      3.45E-05
   14    -286.8364850055      8.65E-06
   15    -286.8364858265      3.44E-06
   16    -286.8364859403      1.11E-06
   17    -286.8364859496      5.35E-07
   18    -286.8364859531      1.11E-07
   19    -286.8364859542      2.45E-08
   20    -286.8364859547      9.88E-09 Convergence criterion met
 ---------------------------------------
 <S^2> = 0.7545
 SCF time:  CPU 52.63 s  wall 51.89 s
 SCF   energy in the final basis set = -286.83648595
 Total energy in the final basis set = -286.83648595
 
 --------------------------------------------------------------
 
                    Orbital Energies (a.u.)
 --------------------------------------------------------------
 
 Alpha MOs
 -- Occupied --
-14.317 -10.220 -10.220 -10.215 -10.212 -10.211 -10.194  -0.964
 -0.858  -0.746  -0.657  -0.608  -0.574  -0.540  -0.512  -0.463
 -0.429  -0.412  -0.388  -0.366  -0.329  -0.315  -0.266  -0.256
 -0.174
 -- Virtual --
 -0.002   0.090   0.109   0.136   0.145   0.151   0.156   0.167
  0.182   0.200   0.214   0.244   0.277   0.326   0.369   0.379
  0.485   0.517   0.527   0.550   0.557   0.573   0.587   0.601
  0.617   0.620   0.668   0.677   0.704   0.754   0.776   0.791
  0.816   0.830   0.837   0.842   0.853   0.881   0.905   0.935
  0.946   1.018   1.072   1.099   1.154   1.245   1.280   1.366
  1.438   1.454   1.504   1.544   1.613   1.652   1.671   1.707
  1.796   1.810   1.872   1.886   1.914   1.937   2.002   2.020
  2.060   2.153   2.181   2.228   2.257   2.291   2.368   2.420
  2.474   2.485   2.510   2.523   2.580   2.616   2.619   2.683
  2.734   2.789   2.832   2.929   2.959   3.951   4.131   4.240
  4.356   4.475   4.518   4.656
 
 Beta MOs
 -- Occupied --
-14.317 -10.221 -10.220 -10.216 -10.211 -10.210 -10.181  -0.961
 -0.854  -0.737  -0.646  -0.602  -0.571  -0.538  -0.501  -0.461
 -0.425  -0.406  -0.384  -0.362  -0.317  -0.303  -0.263  -0.254
 -- Virtual --
 -0.036   0.004   0.092   0.114   0.139   0.149   0.155   0.158
  0.171   0.186   0.202   0.219   0.247   0.284   0.329   0.374
  0.387   0.487   0.524   0.542   0.554   0.562   0.576   0.593
  0.613   0.620   0.642   0.671   0.688   0.707   0.758   0.779
  0.795   0.817   0.836   0.838   0.843   0.856   0.884   0.908
  0.943   0.948   1.025   1.080   1.111   1.156   1.252   1.285
  1.369   1.445   1.458   1.511   1.548   1.617   1.656   1.681
  1.713   1.799   1.824   1.881   1.894   1.929   1.942   2.009
  2.029   2.074   2.160   2.195   2.234   2.268   2.298   2.382
  2.432   2.482   2.489   2.519   2.528   2.586   2.620   2.625
  2.687   2.741   2.794   2.840   2.931   2.960   3.954   4.137
  4.253   4.365   4.479   4.522   4.659
 --------------------------------------------------------------
 
          Ground-State Mulliken Net Atomic Charges

     Atom                 Charge (a.u.)    Spin (a.u.)
  --------------------------------------------------------
      1 C                     0.096605       0.006825
      2 C                    -0.192665       0.036920
      3 C                    -0.106784       0.107736
      4 C                    -0.071194       0.952339
      5 C                    -0.099758      -0.043505
      6 N                    -0.337275       0.012586
      7 H                     0.143764       0.003957
      8 H                     0.148713       0.001442
      9 H                     0.149512       0.008540
     10 H                     0.139485      -0.039533
     11 H                     0.141875       0.005464
     12 C                    -0.161854      -0.053153
     13 H                     0.149576       0.000384
  --------------------------------------------------------
  Sum of atomic charges =    -0.000000
  Sum of spin   charges =     1.000000

 -----------------------------------------------------------------
                    Cartesian Multipole Moments
 -----------------------------------------------------------------
    Charge (ESU x 10^10)
                -0.0000
    Dipole Moment (Debye)
         X      -0.9856      Y      -2.6533      Z       0.1432
       Tot       2.8341
    Quadrupole Moments (Debye-Ang)
        XX     -37.4466     XY      -3.3555     YY     -42.7372
        XZ       0.6090     YZ       0.5966     ZZ     -41.0810
    Octopole Moments (Debye-Ang^2)
       XXX      -5.5013    XXY      -7.3872    XYY     -11.1012
       YYY     -33.2980    XXZ       1.9140    XYZ       1.6326
       YYZ       3.5685    XZZ      -9.1216    YZZ      -9.5273
       ZZZ       3.7930
    Hexadecapole Moments (Debye-Ang^3)
      XXXX    -246.4140   XXXY      -9.3628   XXYY     -87.9557
      XYYY     -22.3964   YYYY    -265.5617   XXXZ      27.6796
      XXYZ       9.0690   XYYZ      13.9839   YYYZ      18.2076
      XXZZ     -69.8382   XYZZ      -3.4912   YYZZ     -69.0730
      XZZZ      29.9413   YZZZ      14.3109   ZZZZ    -164.1087
 -----------------------------------------------------------------
 Calculating analytic gradient of the SCF energy
 Gradient of SCF Energy
            1           2           3           4           5           6
    1  -0.0001233  -0.0000103   0.0000444   0.0001140   0.0000134   0.0000488
    2   0.0000045   0.0000267   0.0000305  -0.0000021   0.0000158  -0.0000456
    3  -0.0000168   0.0000510   0.0000968   0.0000015  -0.0000489   0.0000125
            7           8           9          10          11          12
    1  -0.0000177  -0.0000322  -0.0000082  -0.0000569   0.0000271  -0.0000005
    2   0.0000005  -0.0000039   0.0000222  -0.0000325   0.0000115  -0.0000431
    3   0.0000136   0.0000065  -0.0000353  -0.0000488   0.0000132  -0.0000591
           13
    1   0.0000015
    2   0.0000155
    3   0.0000139
 Max gradient component =       1.233E-04
 RMS gradient           =       4.192E-05
 Gradient time:  CPU 8.03 s  wall 5.85 s

STARTING FREEZING STRING ITERATION # 1
 The distance between the innermost nodes (Angstroms): 2.071
-Adding two new nodes
 The distance between the previous and current R_nodes (Angstroms): 0.0953
 The distance between the previous and current P_nodes (Angstroms): 0.0970
-Optimizing new reactant side node
 Using BFGS, step: 2 E_tol 0.0018
 max_steps 6, node_spacing 0.0986, sigma 0.7000
 ----------------------------------------------------------------
             Standard Nuclear Orientation (Angstroms)
    I     Atom           X                Y                Z
 ----------------------------------------------------------------
    1      C       1.5514299380     0.2513243629    -0.2527977704
    2      C       0.5948112176    -0.9228007569    -0.1004306539
    3      C      -0.7027510405    -0.3704782156    -0.7811460714
    4      C      -1.1155395058     0.2297158447     0.6078070839
    5      C      -0.4447250460     1.0801999661    -0.5545692812
    6      N       0.9648180449     1.3730956165    -0.4604673501
    7      H       2.6245958163     0.1906496775    -0.0784937665
    8      H       0.9750906373    -1.9260939626    -0.3027778115
    9      H      -1.3112018180    -0.8422761762    -1.5468699493
   10      H      -2.0817912381     0.5409362892     0.9910985220
   11      H      -1.0870750760     1.8477276771    -0.9747626074
   12      C      -0.1472900225    -0.6717328961     1.2105810688
   13      H       0.1841265980    -0.7823550608     2.2398598258
 ----------------------------------------------------------------
 Nuclear Repulsion Energy =   282.0138207901 hartrees
 There are       25 alpha and       24 beta electrons

                       Distance Matrix (Angstroms)
             C (  1)   C (  2)   C (  3)   C (  4)   C (  5)   N (  6)
   C (  2)  1.522138
   C (  3)  2.397316  1.565919
   C (  4)  2.802469  2.180641  1.568381
   C (  5)  2.182369  2.301932  1.490765  1.588847
   N (  6)  1.282814  2.353226  2.433859  2.603155  1.442725
   H (  7)  1.088921  2.315228  3.446712  3.802782  3.230894  2.073390
   H (  8)  2.252957  1.091858  2.337505  3.138059  3.334228  3.302972
   H (  9)  3.326446  2.394067  1.085882  2.414557  2.330527  3.356845
   H ( 10)  3.851162  3.240087  2.423485  1.085087  2.315141  3.475825
   H ( 11)  3.167246  3.356937  2.259564  2.263471  1.085484  2.167958
   C ( 12)  2.424698  1.527253  2.089562  1.453772  2.504694  2.865399
   H ( 13)  3.025120  2.380199  3.175322  2.318839  3.416636  3.542205
             H (  7)   H (  8)   H (  9)   H ( 10)   H ( 11)   C ( 12)
   H (  8)  2.692912
   H (  9)  4.325918  2.819496
   H ( 10)  4.839092  4.135805  2.991382
   H ( 11)  4.162416  4.352680  2.759286  2.561596
   C ( 12)  3.176282  2.263496  2.997885  2.293694  3.465055
   H ( 13)  3.503911  2.898063  4.071722  2.906009  4.343626  1.086963

 
 Applying Cartesian multipole field
    Component          Value
    ---------          -----
     (2,0,0)        1.00000E-11
     (0,2,0)        2.00000E-11
     (0,0,2)       -3.00000E-11
 Nucleus-field energy     =     0.0000000015 hartrees
 Requested basis set is 6-31G(d)
 There are 40 shells and 117 basis functions
 A cutoff of  1.0D-14 yielded    812 shell pairs
 There are      7084 function pairs
 Smallest overlap matrix eigenvalue = 1.70E-03
 Guess MOs from core Hamiltonian diagonalization
 Mixing HOMO and LUMO in initial guess
 Adding  50% of the LUMO to the HOMO
 An unrestricted hybrid HF-DFT SCF calculation will be
 performed using Pulay DIIS extrapolation
 Exchange:     0.2000 Hartree-Fock + 0.0800 Slater + 0.7200 B88
 Correlation:  0.1900 VWN1RPA + 0.8100 LYP
 Using SG-1 standard quadrature grid
 SCF converges when DIIS error is below 1.0E-08
 using 4 threads for integral computing
 -------------------------------------------------------
 OpenMP Integral computing Module                
 Release: version 1.0, May 2013, Q-Chem Inc. Pittsburgh 
 -------------------------------------------------------
 -------------------------------------------------------
 OpenMP BLAS3 based DFT computing Module                
 Release: version 1.0, May 2013, Q-Chem Inc. Pittsburgh 
 -------------------------------------------------------
 ---------------------------------------
  Cycle       Energy         DIIS Error
 ---------------------------------------
    1    -236.6728047953      1.34E-01
    2    -229.6296788221      1.07E-01
    3    -262.5046724910      9.66E-02
    4    -279.5577085462      6.15E-02
    5    -283.1340572702      4.16E-02
    6    -286.2167822646      1.79E-02
    7    -286.4450146215      1.33E-02
    8    -286.8045570683      4.19E-03
    9    -286.8235113203      2.78E-03
   10    -286.8372625630      2.09E-04
   11    -286.8374627872      1.37E-04
   12    -286.8375113745      5.88E-05
   13    -286.8375307101      2.49E-05
   14    -286.8375344056      6.03E-06
   15    -286.8375345127      1.92E-06
   16    -286.8375345319      5.53E-07
   17    -286.8375345360      2.13E-07
   18    -286.8375345369      1.27E-07
   19    -286.8375345372      1.53E-08
   20    -286.8375345372      4.69E-09 Convergence criterion met
 ---------------------------------------
 <S^2> = 0.7566
 SCF time:  CPU 52.27 s  wall 49.34 s
 SCF   energy in the final basis set = -286.83753454
 Total energy in the final basis set = -286.83753454
 
 --------------------------------------------------------------
 
                    Orbital Energies (a.u.)
 --------------------------------------------------------------
 
 Alpha MOs
 -- Occupied --
-14.319 -10.224 -10.220 -10.212 -10.209 -10.209 -10.204  -0.967
 -0.855  -0.748  -0.665  -0.605  -0.573  -0.535  -0.516  -0.466
 -0.438  -0.405  -0.401  -0.357  -0.339  -0.295  -0.274  -0.258
 -0.178
 -- Virtual --
  0.003   0.100   0.107   0.131   0.150   0.151   0.152   0.162
  0.177   0.199   0.220   0.266   0.279   0.298   0.344   0.392
  0.495   0.511   0.522   0.540   0.559   0.573   0.598   0.601
  0.607   0.658   0.674   0.677   0.717   0.741   0.771   0.780
  0.806   0.807   0.825   0.842   0.854   0.879   0.890   0.936
  0.957   0.976   1.047   1.093   1.205   1.222   1.339   1.385
  1.446   1.473   1.501   1.517   1.587   1.634   1.657   1.718
  1.742   1.827   1.864   1.876   1.931   1.953   1.986   2.032
  2.066   2.162   2.206   2.218   2.246   2.255   2.360   2.371
  2.455   2.487   2.505   2.538   2.592   2.627   2.666   2.676
  2.707   2.803   2.837   2.914   2.963   3.958   4.194   4.240
  4.361   4.436   4.501   4.631
 
 Beta MOs
 -- Occupied --
-14.319 -10.223 -10.219 -10.210 -10.210 -10.210 -10.192  -0.963
 -0.849  -0.741  -0.653  -0.600  -0.569  -0.528  -0.510  -0.460
 -0.434  -0.402  -0.394  -0.350  -0.333  -0.287  -0.262  -0.253
 -- Virtual --
 -0.058   0.019   0.102   0.112   0.135   0.151   0.155   0.158
  0.165   0.182   0.202   0.225   0.271   0.283   0.300   0.355
  0.395   0.498   0.517   0.530   0.551   0.561   0.579   0.603
  0.609   0.622   0.669   0.678   0.682   0.727   0.745   0.775
  0.789   0.809   0.810   0.827   0.844   0.858   0.885   0.893
  0.940   0.961   0.979   1.051   1.106   1.207   1.228   1.346
  1.387   1.449   1.478   1.513   1.523   1.594   1.640   1.662
  1.722   1.750   1.834   1.870   1.888   1.939   1.968   1.994
  2.038   2.074   2.167   2.214   2.232   2.256   2.271   2.364
  2.384   2.462   2.493   2.513   2.543   2.596   2.634   2.667
  2.683   2.715   2.808   2.842   2.917   2.965   3.960   4.207
  4.246   4.368   4.442   4.504   4.634
 --------------------------------------------------------------
 
          Ground-State Mulliken Net Atomic Charges

     Atom                 Charge (a.u.)    Spin (a.u.)
  --------------------------------------------------------
      1 C                     0.090503       0.042858
      2 C                    -0.254542      -0.064736
      3 C                    -0.112158       0.098423
      4 C                    -0.163551      -0.093504
      5 C                    -0.015500       0.084223
      6 N                    -0.343196       0.039141
      7 H                     0.143322       0.001568
      8 H                     0.142584       0.021020
      9 H                     0.149558      -0.001259
     10 H                     0.149225       0.005101
     11 H                     0.151149       0.003805
     12 C                    -0.070689       0.879287
     13 H                     0.133296      -0.015928
  --------------------------------------------------------
  Sum of atomic charges =    -0.000000
  Sum of spin   charges =     1.000000

 -----------------------------------------------------------------
                    Cartesian Multipole Moments
 -----------------------------------------------------------------
    Charge (ESU x 10^10)
                -0.0000
    Dipole Moment (Debye)
         X      -0.9849      Y      -1.7907      Z       0.0719
       Tot       2.0450
    Quadrupole Moments (Debye-Ang)
        XX     -37.6546     XY      -4.6849     YY     -43.8010
        XZ       1.6551     YZ       1.1100     ZZ     -39.8752
    Octopole Moments (Debye-Ang^2)
       XXX      -7.4949    XXY      -5.9987    XYY      -9.3911
       YYY     -21.4740    XXZ       1.9349    XYZ       0.6906
       YYZ       0.0656    XZZ      -5.9581    YZZ      -6.2974
       ZZZ       6.9609
    Hexadecapole Moments (Debye-Ang^3)
      XXXX    -253.4854   XXXY     -13.0582   XXYY     -88.9746
      XYYY     -24.3856   YYYY    -236.1582   XXXZ      12.7108
      XXYZ      12.9851   XYYZ      10.3393   YYYZ      31.4794
      XXZZ     -74.5628   XYZZ      -4.2614   YYZZ     -67.4595
      XZZZ      17.3538   YZZZ      27.7590   ZZZZ    -167.9362
 -----------------------------------------------------------------
 Calculating analytic gradient of the SCF energy
 Gradient of SCF Energy
            1           2           3           4           5           6
    1   0.0001560   0.0050689   0.0028154  -0.0052106   0.0001224   0.0004787
    2   0.0004294   0.0003070  -0.0078253   0.0067475   0.0015892  -0.0006258
    3   0.0008022  -0.0033414   0.0011361   0.0100189  -0.0012134  -0.0000709
            7           8           9          10          11          12
    1   0.0000868   0.0000617   0.0006594   0.0003334  -0.0001039  -0.0038524
    2   0.0000831  -0.0001727  -0.0004149   0.0006435   0.0002843  -0.0015527
    3  -0.0002436   0.0005303  -0.0004134   0.0006325   0.0005114  -0.0072204
           13
    1  -0.0006159
    2   0.0005074
    3  -0.0011284
 Max gradient component =       1.002E-02
 RMS gradient           =       3.037E-03
 Gradient time:  CPU 7.53 s  wall 5.26 s
 ----------------------------------------------------------------
             Standard Nuclear Orientation (Angstroms)
    I     Atom           X                Y                Z
 ----------------------------------------------------------------
    1      C       1.5515612365     0.2520139183    -0.2557870570
    2      C       0.5826141440    -0.9228822315    -0.0916485437
    3      C      -0.7094631393    -0.3501792535    -0.7831509455
    4      C      -1.0992976897     0.2175751883     0.5828070839
    5      C      -0.4458903359     1.0745251328    -0.5517803942
    6      N       0.9626077447     1.3759208079    -0.4616664333
    7      H       2.6252022379     0.1939113592    -0.0794895851
    8      H       0.9786628364    -1.9247927488    -0.3030965304
    9      H      -1.3109389795    -0.8462122672    -1.5433614091
   10      H      -2.0804904789     0.5480048033     0.9963449529
   11      H      -1.0875673559     1.8446382288    -0.9795689218
   12      C      -0.1394808413    -0.6690106669     1.2278252689
   13      H       0.1769794496    -0.7955997539     2.2396041372
 ----------------------------------------------------------------
 Nuclear Repulsion Energy =   282.6260914534 hartrees
 There are       25 alpha and       24 beta electrons

                       Distance Matrix (Angstroms)
             C (  1)   C (  2)   C (  3)   C (  4)   C (  5)   N (  6)
   C (  2)  1.531725
   C (  3)  2.398537  1.573413
   C (  4)  2.780554  2.141112  1.529757
   C (  5)  2.180355  2.293290  1.467237  1.564798
   N (  6)  1.285465  2.359196  2.424581  2.585371  1.443200
   H (  7)  1.089570  2.327991  3.451256  3.783001  3.229574  2.075434
   H (  8)  2.251430  1.097902  2.357887  3.113276  3.329730  3.304559
   H (  9)  3.325335  2.387235  1.088918  2.386845  2.328256  3.358118
   H ( 10)  3.853212  3.231001  2.419309  1.114871  2.312106  3.474434
   H ( 11)  3.166277  3.352175  2.235792  2.255768  1.089875  2.165903
   C ( 12)  2.430847  1.525412  2.114370  1.457166  2.510139  2.872408
   H ( 13)  3.035448  2.369700  3.181388  2.323872  3.417186  3.553811
             H (  7)   H (  8)   H (  9)   H ( 10)   H ( 11)   C ( 12)
   H (  8)  2.692582
   H (  9)  4.326429  2.818487
   H ( 10)  4.840077  4.142668  2.997692
   H ( 11)  4.161694  4.351498  2.758339  2.563472
   C ( 12)  3.177606  2.273973  3.013833  2.302657  3.477052
   H ( 13)  3.514416  2.895358  4.065377  2.906396  4.351208  1.067646

 
 Applying Cartesian multipole field
    Component          Value
    ---------          -----
     (2,0,0)        1.00000E-11
     (0,2,0)        2.00000E-11
     (0,0,2)       -3.00000E-11
 Nucleus-field energy     =     0.0000000015 hartrees
 Requested basis set is 6-31G(d)
 There are 40 shells and 117 basis functions
 A cutoff of  1.0D-14 yielded    812 shell pairs
 There are      7084 function pairs
 Smallest overlap matrix eigenvalue = 1.63E-03
 Guess MOs from core Hamiltonian diagonalization
 Mixing HOMO and LUMO in initial guess
 Adding  50% of the LUMO to the HOMO
 An unrestricted hybrid HF-DFT SCF calculation will be
 performed using Pulay DIIS extrapolation
 Exchange:     0.2000 Hartree-Fock + 0.0800 Slater + 0.7200 B88
 Correlation:  0.1900 VWN1RPA + 0.8100 LYP
 Using SG-1 standard quadrature grid
 SCF converges when DIIS error is below 1.0E-08
 using 4 threads for integral computing
 -------------------------------------------------------
 OpenMP Integral computing Module                
 Release: version 1.0, May 2013, Q-Chem Inc. Pittsburgh 
 -------------------------------------------------------
 -------------------------------------------------------
 OpenMP BLAS3 based DFT computing Module                
 Release: version 1.0, May 2013, Q-Chem Inc. Pittsburgh 
 -------------------------------------------------------
 ---------------------------------------
  Cycle       Energy         DIIS Error
 ---------------------------------------
    1    -235.2126136999      1.36E-01
    2    -229.8743535946      1.09E-01
    3    -258.4816424324      1.02E-01
    4    -276.8973718749      7.21E-02
    5    -283.9727474548      3.71E-02
    6    -286.5914727008      1.11E-02
    7    -286.6372166316      1.02E-02
    8    -286.8269831334      2.13E-03
    9    -286.8328729771      1.47E-03
   10    -286.8364896070      2.68E-04
   11    -286.8366013109      9.11E-05
   12    -286.8366163885      2.86E-05
   13    -286.8366189020      1.32E-05
   14    -286.8366197287      4.55E-06
   15    -286.8366201177      1.53E-06
   16    -286.8366202582      4.77E-07
   17    -286.8366202967      2.63E-07
   18    -286.8366203124      1.45E-07
   19    -286.8366203246      6.86E-08
   20    -286.8366203262      1.55E-08
   21    -286.8366203262      3.32E-09 Convergence criterion met
 ---------------------------------------
 <S^2> = 0.7564
 SCF time:  CPU 54.92 s  wall 42.90 s
 SCF   energy in the final basis set = -286.83662033
 Total energy in the final basis set = -286.83662033
 
 --------------------------------------------------------------
 
                    Orbital Energies (a.u.)
 --------------------------------------------------------------
 
 Alpha MOs
 -- Occupied --
-14.320 -10.222 -10.220 -10.210 -10.210 -10.208 -10.203  -0.971
 -0.858  -0.751  -0.664  -0.605  -0.571  -0.538  -0.514  -0.465
 -0.441  -0.404  -0.400  -0.352  -0.336  -0.301  -0.274  -0.259
 -0.180
 -- Virtual --
  0.003   0.097   0.115   0.129   0.150   0.152   0.154   0.162
  0.178   0.202   0.222   0.268   0.282   0.296   0.347   0.389
  0.494   0.511   0.525   0.542   0.558   0.572   0.601   0.607
  0.614   0.659   0.674   0.678   0.718   0.742   0.769   0.781
  0.803   0.806   0.817   0.839   0.853   0.880   0.890   0.934
  0.954   0.975   1.052   1.096   1.210   1.230   1.336   1.385
  1.447   1.470   1.501   1.521   1.598   1.632   1.676   1.712
  1.743   1.829   1.867   1.885   1.934   1.953   1.990   2.032
  2.062   2.174   2.209   2.224   2.233   2.254   2.369   2.388
  2.459   2.492   2.509   2.540   2.591   2.632   2.663   2.681
  2.725   2.822   2.842   2.910   2.964   3.958   4.193   4.240
  4.369   4.436   4.512   4.637
 
 Beta MOs
 -- Occupied --
-14.319 -10.221 -10.220 -10.211 -10.211 -10.207 -10.190  -0.967
 -0.853  -0.743  -0.652  -0.600  -0.567  -0.531  -0.508  -0.459
 -0.437  -0.402  -0.393  -0.344  -0.332  -0.293  -0.262  -0.254
 -- Virtual --
 -0.059   0.019   0.099   0.118   0.133   0.151   0.157   0.159
  0.165   0.182   0.206   0.228   0.273   0.285   0.298   0.359
  0.392   0.498   0.516   0.534   0.553   0.560   0.577   0.613
  0.616   0.622   0.670   0.678   0.684   0.727   0.746   0.773
  0.790   0.806   0.808   0.819   0.842   0.856   0.886   0.893
  0.937   0.959   0.978   1.056   1.109   1.212   1.236   1.343
  1.387   1.450   1.476   1.514   1.526   1.605   1.638   1.681
  1.715   1.752   1.836   1.876   1.892   1.943   1.971   1.999
  2.038   2.070   2.178   2.224   2.230   2.243   2.272   2.377
  2.395   2.465   2.501   2.515   2.545   2.594   2.639   2.666
  2.688   2.733   2.828   2.847   2.913   2.966   3.960   4.205
  4.248   4.375   4.441   4.515   4.641
 --------------------------------------------------------------
 
          Ground-State Mulliken Net Atomic Charges

     Atom                 Charge (a.u.)    Spin (a.u.)
  --------------------------------------------------------
      1 C                     0.086857       0.044191
      2 C                    -0.260583      -0.066910
      3 C                    -0.104662       0.086459
      4 C                    -0.164097      -0.091575
      5 C                    -0.015727       0.082788
      6 N                    -0.342933       0.039915
      7 H                     0.143442       0.001907
      8 H                     0.140600       0.022037
      9 H                     0.148813      -0.000830
     10 H                     0.144051       0.005787
     11 H                     0.151148       0.003810
     12 C                    -0.064488       0.893037
     13 H                     0.137580      -0.020616
  --------------------------------------------------------
  Sum of atomic charges =    -0.000000
  Sum of spin   charges =     1.000000

 -----------------------------------------------------------------
                    Cartesian Multipole Moments
 -----------------------------------------------------------------
    Charge (ESU x 10^10)
                -0.0000
    Dipole Moment (Debye)
         X      -0.9274      Y      -1.8346      Z       0.1388
       Tot       2.0604
    Quadrupole Moments (Debye-Ang)
        XX     -37.8225     XY      -4.5932     YY     -43.7891
        XZ       1.7189     YZ       0.9878     ZZ     -39.6850
    Octopole Moments (Debye-Ang^2)
       XXX      -7.0062    XXY      -6.1646    XYY      -9.4183
       YYY     -21.7181    XXZ       1.8334    XYZ       0.7218
       YYZ       0.2864    XZZ      -5.8717    YZZ      -6.5721
       ZZZ       7.5158
    Hexadecapole Moments (Debye-Ang^3)
      XXXX    -253.7588   XXXY     -12.7587   XXYY     -88.7505
      XYYY     -24.2385   YYYY    -235.8495   XXXZ      12.4847
      XXYZ      13.0861   XYYZ      10.1853   YYYZ      31.8992
      XXZZ     -74.6298   XYZZ      -4.3223   YYZZ     -66.9680
      XZZZ      16.8332   YZZZ      27.6371   ZZZZ    -166.7999
 -----------------------------------------------------------------
 Calculating analytic gradient of the SCF energy
 Gradient of SCF Energy
            1           2           3           4           5           6
    1   0.0036410  -0.0055970  -0.0009416   0.0240006  -0.0025568  -0.0034561
    2  -0.0017702   0.0025171   0.0163854  -0.0044318  -0.0162663   0.0037222
    3  -0.0007932   0.0007814   0.0074378  -0.0203227   0.0050232   0.0000931
            7           8           9          10          11          12
    1   0.0005800   0.0027647   0.0002583  -0.0144181  -0.0012196   0.0008807
    2   0.0004834  -0.0028289  -0.0030943   0.0059424   0.0017879  -0.0030929
    3  -0.0000006   0.0001901  -0.0011700   0.0088867  -0.0019978   0.0149947
           13
    1  -0.0039361
    2   0.0006460
    3  -0.0131226
 Max gradient component =       2.400E-02
 RMS gradient           =       7.994E-03
 Gradient time:  CPU 7.71 s  wall 2.34 s
WARNING!!!!! energy has increased from optimization step!
 ----------------------------------------------------------------
             Standard Nuclear Orientation (Angstroms)
    I     Atom           X                Y                Z
 ----------------------------------------------------------------
    1      C       1.5487197281     0.2533711789    -0.2551529342
    2      C       0.5869147650    -0.9248448082    -0.0922417236
    3      C      -0.7087588275    -0.3628431770    -0.7889582249
    4      C      -1.1179519575     0.2208371347     0.5984912544
    5      C      -0.4439016188     1.0871740160    -0.5556532282
    6      N       0.9652904928     1.3730285488    -0.4616932489
    7      H       2.6247321751     0.1934993587    -0.0794469151
    8      H       0.9764654645    -1.9225966744    -0.3032884991
    9      H      -1.3111704941    -0.8437052139    -1.5425111751
   10      H      -2.0693518123     0.5431721636     0.9893031764
   11      H      -1.0866258680     1.8432924779    -0.9779332475
   12      C      -0.1400858108    -0.6665867134     1.2162595821
   13      H       0.1802226181    -0.7958856884     2.2498567849
 ----------------------------------------------------------------
 Nuclear Repulsion Energy =   281.9872943484 hartrees
 There are       25 alpha and       24 beta electrons

                       Distance Matrix (Angstroms)
             C (  1)   C (  2)   C (  3)   C (  4)   C (  5)   N (  6)
   C (  2)  1.529641
   C (  3)  2.400183  1.574811
   C (  4)  2.800162  2.167088  1.559852
   C (  5)  2.180841  2.307716  1.492357  1.592775
   N (  6)  1.279328  2.357941  2.433679  2.606038  1.440959
   H (  7)  1.091907  2.324555  3.453272  3.803687  3.231399  2.071509
   H (  8)  2.250473  1.091696  2.347059  3.129553  3.337641  3.299449
   H (  9)  3.322625  2.390103  1.077947  2.398849  2.335453  3.356241
   H ( 10)  3.837069  3.221888  2.415428  1.077866  2.307578  3.464550
   H ( 11)  3.161536  3.353770  2.246226  2.262401  1.078485  2.167490
   C ( 12)  2.421454  1.519014  2.106311  1.457869  2.511505  2.863112
   H ( 13)  3.041184  2.380642  3.195655  2.333665  3.436034  3.559919
             H (  7)   H (  8)   H (  9)   H ( 10)   H ( 11)   C ( 12)
   H (  8)  2.691607
   H (  9)  4.325238  2.816551
   H ( 10)  4.826896  4.126477  2.984686
   H ( 11)  4.159720  4.346655  2.754837  2.554620
   C ( 12)  3.172195  2.265673  3.002270  2.288470  3.465532
   H ( 13)  3.518546  2.902074  4.075364  2.905625  4.357613  1.089788

 
 Applying Cartesian multipole field
    Component          Value
    ---------          -----
     (2,0,0)        1.00000E-11
     (0,2,0)        2.00000E-11
     (0,0,2)       -3.00000E-11
 Nucleus-field energy     =     0.0000000015 hartrees
 Requested basis set is 6-31G(d)
 There are 40 shells and 117 basis functions
 A cutoff of  1.0D-14 yielded    812 shell pairs
 There are      7084 function pairs
 Smallest overlap matrix eigenvalue = 1.64E-03
 Guess MOs from core Hamiltonian diagonalization
 Mixing HOMO and LUMO in initial guess
 Adding  50% of the LUMO to the HOMO
 An unrestricted hybrid HF-DFT SCF calculation will be
 performed using Pulay DIIS extrapolation
 Exchange:     0.2000 Hartree-Fock + 0.0800 Slater + 0.7200 B88
 Correlation:  0.1900 VWN1RPA + 0.8100 LYP
 Using SG-1 standard quadrature grid
 SCF converges when DIIS error is below 1.0E-08
 using 4 threads for integral computing
 -------------------------------------------------------
 OpenMP Integral computing Module                
 Release: version 1.0, May 2013, Q-Chem Inc. Pittsburgh 
 -------------------------------------------------------
 -------------------------------------------------------
 OpenMP BLAS3 based DFT computing Module                
 Release: version 1.0, May 2013, Q-Chem Inc. Pittsburgh 
 -------------------------------------------------------
 ---------------------------------------
  Cycle       Energy         DIIS Error
 ---------------------------------------
    1    -236.6929472441      1.33E-01
    2    -229.3715025115      1.07E-01
    3    -262.3753726674      9.66E-02
    4    -279.5294609499      6.18E-02
    5    -283.2582935041      4.07E-02
    6    -286.2129594653      1.80E-02
    7    -286.4739379942      1.28E-02
    8    -286.8054175482      4.17E-03
    9    -286.8256241688      2.57E-03
   10    -286.8374932014      2.21E-04
   11    -286.8376886914      1.47E-04
   12    -286.8377426407      5.85E-05
   13    -286.8377625793      2.44E-05
   14    -286.8377661730      7.51E-06
   15    -286.8377663205      1.75E-06
   16    -286.8377663401      5.91E-07
   17    -286.8377663445      2.18E-07
   18    -286.8377663456      1.29E-07
   19    -286.8377663459      1.88E-08
   20    -286.8377663460      5.69E-09 Convergence criterion met
 ---------------------------------------
 <S^2> = 0.7567
 SCF time:  CPU 52.08 s  wall 38.68 s
 SCF   energy in the final basis set = -286.83776635
 Total energy in the final basis set = -286.83776635
 
 --------------------------------------------------------------
 
                    Orbital Energies (a.u.)
 --------------------------------------------------------------
 
 Alpha MOs
 -- Occupied --
-14.319 -10.224 -10.220 -10.210 -10.209 -10.209 -10.204  -0.967
 -0.855  -0.748  -0.664  -0.606  -0.573  -0.536  -0.516  -0.466
 -0.439  -0.406  -0.401  -0.356  -0.336  -0.297  -0.273  -0.258
 -0.177
 -- Virtual --
  0.005   0.102   0.109   0.128   0.150   0.151   0.153   0.163
  0.176   0.202   0.220   0.265   0.279   0.295   0.347   0.391
  0.494   0.510   0.524   0.541   0.559   0.571   0.598   0.602
  0.606   0.658   0.677   0.678   0.718   0.740   0.771   0.785
  0.806   0.808   0.827   0.844   0.856   0.877   0.889   0.939
  0.962   0.976   1.048   1.093   1.203   1.224   1.336   1.387
  1.446   1.471   1.504   1.521   1.589   1.632   1.668   1.716
  1.741   1.826   1.865   1.877   1.933   1.952   1.983   2.032
  2.065   2.166   2.208   2.219   2.241   2.253   2.362   2.375
  2.454   2.490   2.506   2.539   2.592   2.626   2.663   2.672
  2.713   2.809   2.839   2.917   2.964   3.961   4.194   4.239
  4.360   4.436   4.504   4.635
 
 Beta MOs
 -- Occupied --
-14.318 -10.222 -10.219 -10.210 -10.210 -10.208 -10.192  -0.963
 -0.849  -0.741  -0.652  -0.601  -0.568  -0.529  -0.510  -0.459
 -0.434  -0.403  -0.395  -0.349  -0.331  -0.289  -0.262  -0.252
 -- Virtual --
 -0.058   0.020   0.104   0.114   0.134   0.151   0.156   0.158
  0.166   0.180   0.205   0.226   0.270   0.283   0.298   0.358
  0.394   0.498   0.516   0.530   0.552   0.562   0.576   0.604
  0.610   0.622   0.669   0.680   0.684   0.728   0.744   0.775
  0.794   0.809   0.810   0.829   0.846   0.860   0.883   0.893
  0.942   0.966   0.979   1.052   1.106   1.205   1.230   1.343
  1.389   1.449   1.477   1.516   1.526   1.595   1.639   1.672
  1.720   1.749   1.833   1.871   1.890   1.941   1.968   1.991
  2.039   2.072   2.171   2.219   2.229   2.251   2.270   2.366
  2.387   2.462   2.496   2.514   2.543   2.596   2.632   2.665
  2.680   2.721   2.815   2.843   2.919   2.966   3.963   4.207
  4.245   4.367   4.442   4.507   4.638
 --------------------------------------------------------------
 
          Ground-State Mulliken Net Atomic Charges

     Atom                 Charge (a.u.)    Spin (a.u.)
  --------------------------------------------------------
      1 C                     0.088489       0.046436
      2 C                    -0.256610      -0.066602
      3 C                    -0.111803       0.094367
      4 C                    -0.164928      -0.095813
      5 C                    -0.016167       0.087943
      6 N                    -0.340999       0.039723
      7 H                     0.142519       0.001824
      8 H                     0.141731       0.021808
      9 H                     0.149147      -0.001178
     10 H                     0.147743       0.005013
     11 H                     0.151626       0.003415
     12 C                    -0.065548       0.882582
     13 H                     0.134800      -0.019517
  --------------------------------------------------------
  Sum of atomic charges =     0.000000
  Sum of spin   charges =     1.000000

 -----------------------------------------------------------------
                    Cartesian Multipole Moments
 -----------------------------------------------------------------
    Charge (ESU x 10^10)
                 0.0000
    Dipole Moment (Debye)
         X      -0.9873      Y      -1.8032      Z       0.1061
       Tot       2.0586
    Quadrupole Moments (Debye-Ang)
        XX     -37.7241     XY      -4.6568     YY     -43.7461
        XZ       1.6711     YZ       1.0435     ZZ     -39.7715
    Octopole Moments (Debye-Ang^2)
       XXX      -7.4119    XXY      -6.0597    XYY      -9.3895
       YYY     -21.6021    XXZ       1.8960    XYZ       0.6962
       YYZ       0.1823    XZZ      -5.9314    YZZ      -6.4822
       ZZZ       7.3341
    Hexadecapole Moments (Debye-Ang^3)
      XXXX    -253.7610   XXXY     -13.1252   XXYY     -88.8459
      XYYY     -24.3789   YYYY    -236.1689   XXXZ      12.4783
      XXYZ      13.1122   XYYZ      10.1990   YYYZ      31.8322
      XXZZ     -74.6262   XYZZ      -4.3554   YYZZ     -67.2684
      XZZZ      16.9051   YZZZ      27.7778   ZZZZ    -167.7905
 -----------------------------------------------------------------
 Calculating analytic gradient of the SCF energy
 Gradient of SCF Energy
            1           2           3           4           5           6
    1  -0.0025960   0.0009962  -0.0036722  -0.0099415  -0.0011866   0.0020591
    2   0.0047697  -0.0026509  -0.0060197   0.0052613   0.0077820  -0.0041539
    3  -0.0014903   0.0025669  -0.0075916   0.0064147  -0.0014244   0.0009927
            7           8           9          10          11          12
    1   0.0019130   0.0006506   0.0038231   0.0054625   0.0021656   0.0002368
    2   0.0003192   0.0004490   0.0010375  -0.0004412  -0.0041510  -0.0015330
    3   0.0001163   0.0001212   0.0039702  -0.0005760   0.0016291  -0.0062538
           13
    1   0.0000892
    2  -0.0006690
    3   0.0015251
 Max gradient component =       9.941E-03
 RMS gradient           =       3.731E-03
 Gradient time:  CPU 7.89 s  wall 2.37 s
 FSM gradient convergence criteria satisfied
done with opt_step_by_gradient, Reactant, iter1
-Optimizing new product side node
 Using BFGS, step: 2 E_tol 0.0018279
 max_steps 6, node_spacing 0.0986427, sigma 0.7000000
 ----------------------------------------------------------------
             Standard Nuclear Orientation (Angstroms)
    I     Atom           X                Y                Z
 ----------------------------------------------------------------
    1      C       1.5852318033     0.3699044303    -0.3077585927
    2      C       0.7744446468    -0.8618713816    -0.0747673327
    3      C      -0.5706173841    -0.5682296519    -0.6642237153
    4      C      -0.8497288236     0.7255939939     0.9680270668
    5      C      -0.5216349642     0.9936044014    -0.5068557164
    6      N       0.8968480981     1.4111588360    -0.5926463135
    7      H       2.6697390568     0.4108651137    -0.2129754467
    8      H       1.2039914407    -1.8587166852    -0.1125788053
    9      H      -1.1345326221    -1.1755133184    -1.3665273082
   10      H      -1.7323026411     1.0863328474     1.4840953950
   11      H      -1.1892562673     1.6350445408    -1.0812518577
   12      C      -0.4424731484    -0.6858151945     0.8898382179
   13      H      -0.6932383155    -1.4866726909     1.5770775021
 ----------------------------------------------------------------
 Nuclear Repulsion Energy =   281.6338795202 hartrees
 There are       25 alpha and       24 beta electrons

                       Distance Matrix (Angstroms)
             C (  1)   C (  2)   C (  3)   C (  4)   C (  5)   N (  6)
   C (  2)  1.492961
   C (  3)  2.377993  1.497624
   C (  4)  2.771855  2.499081  2.101458
   C (  5)  2.206248  2.304195  1.570506  1.534521
   N (  6)  1.280330  2.334491  2.465067  2.440539  1.481150
   H (  7)  1.089412  2.287160  3.414991  3.725651  3.257425  2.070720
   H (  8)  2.269403  1.086113  2.262500  3.473347  3.356930  3.319170
   H (  9)  3.302488  2.326201  1.086289  3.024147  2.412416  3.378797
   H ( 10)  3.837974  3.536854  2.949977  1.084157  2.331995  3.366126
   H ( 11)  3.145895  3.332225  2.326165  2.267581  1.089539  2.154226
   C ( 12)  2.580769  1.562802  1.563763  1.471070  2.185743  2.896350
   H ( 13)  3.491549  2.296315  2.425284  2.299903  3.244071  3.953923
             H (  7)   H (  8)   H (  9)   H ( 10)   H ( 11)   C ( 12)
   H (  8)  2.703608
   H (  9)  4.280159  2.740045
   H ( 10)  4.765950  4.454718  3.687727
   H ( 11)  4.140575  4.344229  2.825529  2.678991
   C ( 12)  3.479191  2.256409  2.410381  2.270971  3.135167
   H ( 13)  4.256120  2.567652  2.992720  2.776447  4.130117  1.084691

 
 Applying Cartesian multipole field
    Component          Value
    ---------          -----
     (2,0,0)        1.00000E-11
     (0,2,0)        2.00000E-11
     (0,0,2)       -3.00000E-11
 Nucleus-field energy     =     0.0000000021 hartrees
 Requested basis set is 6-31G(d)
 There are 40 shells and 117 basis functions
 A cutoff of  1.0D-14 yielded    811 shell pairs
 There are      7083 function pairs
 Smallest overlap matrix eigenvalue = 1.32E-03
 Guess MOs from core Hamiltonian diagonalization
 Mixing HOMO and LUMO in initial guess
 Adding  50% of the LUMO to the HOMO
 An unrestricted hybrid HF-DFT SCF calculation will be
 performed using Pulay DIIS extrapolation
 Exchange:     0.2000 Hartree-Fock + 0.0800 Slater + 0.7200 B88
 Correlation:  0.1900 VWN1RPA + 0.8100 LYP
 Using SG-1 standard quadrature grid
 SCF converges when DIIS error is below 1.0E-08
 using 4 threads for integral computing
 -------------------------------------------------------
 OpenMP Integral computing Module                
 Release: version 1.0, May 2013, Q-Chem Inc. Pittsburgh 
 -------------------------------------------------------
 -------------------------------------------------------
 OpenMP BLAS3 based DFT computing Module                
 Release: version 1.0, May 2013, Q-Chem Inc. Pittsburgh 
 -------------------------------------------------------
 ---------------------------------------
  Cycle       Energy         DIIS Error
 ---------------------------------------
    1    -236.3698047866      1.35E-01
    2    -230.6714639491      1.05E-01
    3    -259.6083308328      9.48E-02
    4    -270.7140372183      8.49E-02
    5    -281.3955573938      4.98E-02
    6    -285.5947637838      2.26E-02
    7    -286.0353118290      1.86E-02
    8    -286.7126724140      5.75E-03
    9    -286.7863890936      4.69E-03
   10    -286.8270396523      1.71E-03
   11    -286.8329059205      9.67E-04
   12    -286.8350102999      4.19E-04
   13    -286.8355812390      1.16E-04
   14    -286.8356363585      5.09E-05
   15    -286.8356504188      4.24E-06
   16    -286.8356556908      1.82E-06
   17    -286.8356580268      1.40E-06
   18    -286.8356589825      6.32E-07
   19    -286.8356595628      2.66E-07
   20    -286.8356598284      1.04E-07
   21    -286.8356598886      3.34E-08
   22    -286.8356598918      8.33E-09 Convergence criterion met
 ---------------------------------------
 <S^2> = 0.7547
 SCF time:  CPU 57.23 s  wall 67.04 s
 SCF   energy in the final basis set = -286.83565989
 Total energy in the final basis set = -286.83565989
 
 --------------------------------------------------------------
 
                    Orbital Energies (a.u.)
 --------------------------------------------------------------
 
 Alpha MOs
 -- Occupied --
-14.318 -10.220 -10.220 -10.217 -10.215 -10.212 -10.192  -0.964
 -0.857  -0.746  -0.658  -0.606  -0.576  -0.540  -0.511  -0.464
 -0.428  -0.413  -0.390  -0.367  -0.327  -0.315  -0.267  -0.257
 -0.166
 -- Virtual --
 -0.002   0.089   0.101   0.137   0.145   0.151   0.156   0.167
  0.183   0.198   0.212   0.244   0.279   0.325   0.369   0.379
  0.486   0.514   0.524   0.549   0.557   0.575   0.589   0.602
  0.613   0.621   0.668   0.677   0.701   0.752   0.777   0.790
  0.816   0.830   0.838   0.841   0.854   0.880   0.907   0.939
  0.948   1.029   1.072   1.099   1.143   1.245   1.278   1.359
  1.437   1.450   1.497   1.546   1.617   1.641   1.666   1.711
  1.794   1.811   1.865   1.883   1.917   1.937   2.008   2.018
  2.063   2.153   2.190   2.228   2.256   2.286   2.368   2.415
  2.470   2.483   2.510   2.522   2.581   2.615   2.624   2.682
  2.725   2.786   2.829   2.928   2.960   3.951   4.133   4.241
  4.354   4.478   4.511   4.646
 
 Beta MOs
 -- Occupied --
-14.317 -10.220 -10.220 -10.217 -10.213 -10.212 -10.179  -0.960
 -0.853  -0.736  -0.648  -0.601  -0.572  -0.538  -0.500  -0.462
 -0.424  -0.407  -0.386  -0.363  -0.317  -0.300  -0.264  -0.255
 -- Virtual --
 -0.031   0.004   0.092   0.106   0.141   0.148   0.155   0.158
  0.171   0.187   0.200   0.217   0.247   0.286   0.328   0.376
  0.386   0.489   0.522   0.537   0.551   0.564   0.578   0.594
  0.613   0.619   0.644   0.671   0.687   0.704   0.756   0.780
  0.793   0.817   0.834   0.840   0.843   0.858   0.883   0.910
  0.946   0.951   1.035   1.081   1.111   1.145   1.253   1.282
  1.362   1.445   1.455   1.503   1.549   1.619   1.645   1.677
  1.718   1.797   1.824   1.875   1.890   1.932   1.941   2.013
  2.026   2.079   2.158   2.207   2.233   2.270   2.292   2.382
  2.428   2.478   2.488   2.519   2.526   2.587   2.619   2.628
  2.685   2.732   2.791   2.837   2.930   2.961   3.953   4.138
  4.254   4.364   4.483   4.514   4.649
 --------------------------------------------------------------
 
          Ground-State Mulliken Net Atomic Charges

     Atom                 Charge (a.u.)    Spin (a.u.)
  --------------------------------------------------------
      1 C                     0.096606       0.006013
      2 C                    -0.189059       0.031838
      3 C                    -0.111836       0.122959
      4 C                    -0.073448       0.943702
      5 C                    -0.096912      -0.042643
      6 N                    -0.336473       0.012386
      7 H                     0.143580       0.004062
      8 H                     0.148877       0.001427
      9 H                     0.150368       0.008078
     10 H                     0.138896      -0.041087
     11 H                     0.141746       0.004751
     12 C                    -0.163176      -0.051726
     13 H                     0.150832       0.000241
  --------------------------------------------------------
  Sum of atomic charges =     0.000000
  Sum of spin   charges =     1.000000

 -----------------------------------------------------------------
                    Cartesian Multipole Moments
 -----------------------------------------------------------------
    Charge (ESU x 10^10)
                -0.0000
    Dipole Moment (Debye)
         X      -0.9468      Y      -2.6965      Z       0.1177
       Tot       2.8603
    Quadrupole Moments (Debye-Ang)
        XX     -37.5395     XY      -3.4286     YY     -42.7695
        XZ       0.6809     YZ       0.4311     ZZ     -40.9669
    Octopole Moments (Debye-Ang^2)
       XXX      -5.4456    XXY      -7.3292    XYY     -10.9211
       YYY     -32.9696    XXZ       1.9080    XYZ       1.6691
       YYZ       3.4950    XZZ      -9.0421    YZZ      -9.7674
       ZZZ       4.0665
    Hexadecapole Moments (Debye-Ang^3)
      XXXX    -247.1399   XXXY      -9.4436   XXYY     -88.1200
      XYYY     -22.3895   YYYY    -264.5568   XXXZ      27.4635
      XXYZ       9.4255   XYYZ      13.9948   YYYZ      18.5609
      XXZZ     -70.0501   XYZZ      -3.1745   YYZZ     -68.8101
      XZZZ      29.6410   YZZZ      14.3353   ZZZZ    -164.2914
 -----------------------------------------------------------------
 Calculating analytic gradient of the SCF energy
 Gradient of SCF Energy
            1           2           3           4           5           6
    1  -0.0009657   0.0005758  -0.0038008  -0.0033278   0.0040863   0.0000810
    2   0.0002734  -0.0023022   0.0067601  -0.0064920   0.0023209   0.0005263
    3   0.0007531  -0.0004626  -0.0035347  -0.0045986  -0.0049485   0.0001757
            7           8           9          10          11          12
    1  -0.0000667   0.0003990   0.0000003  -0.0000473  -0.0004379   0.0018266
    2  -0.0001906  -0.0000629   0.0005735   0.0006142   0.0003783  -0.0037493
    3  -0.0001754   0.0001281  -0.0004219   0.0003270   0.0007558   0.0096225
           13
    1   0.0016774
    2   0.0013504
    3   0.0023798
 Max gradient component =       9.622E-03
 RMS gradient           =       2.881E-03
 Gradient time:  CPU 7.58 s  wall 2.16 s
 ----------------------------------------------------------------
             Standard Nuclear Orientation (Angstroms)
    I     Atom           X                Y                Z
 ----------------------------------------------------------------
    1      C       1.5881352970     0.3675358189    -0.3089088804
    2      C       0.7702513160    -0.8554606316    -0.0750272494
    3      C      -0.5610628170    -0.5866550171    -0.6540945129
    4      C      -0.8437235544     0.7421832567     0.9783439551
    5      C      -0.5332051294     0.9876637097    -0.4932616901
    6      N       0.8981609428     1.4092676357    -0.5913681351
    7      H       2.6696821429     0.4082571570    -0.2098278618
    8      H       1.2002748132    -1.8595545811    -0.1183609505
    9      H      -1.1378723490    -1.1718198170    -1.3678119117
   10      H      -1.7393238903     1.0786904028     1.4753360264
   11      H      -1.1855429302     1.6375929153    -1.0842459395
   12      C      -0.4434210676    -0.6747989051     0.8648382179
   13      H      -0.6858821208    -1.4872165368     1.5838421705
 ----------------------------------------------------------------
 Nuclear Repulsion Energy =   282.1507555072 hartrees
 There are       25 alpha and       24 beta electrons

                       Distance Matrix (Angstroms)
             C (  1)   C (  2)   C (  3)   C (  4)   C (  5)   N (  6)
   C (  2)  1.489750
   C (  3)  2.376696  1.476473
   C (  4)  2.776926  2.503392  2.123809
   C (  5)  2.217798  2.295872  1.582758  1.523911
   N (  6)  1.281036  2.326363  2.473252  2.437860  1.495387
   H (  7)  1.086839  2.285386  3.409536  3.723879  3.267190  2.070237
   H (  8)  2.268629  1.093162  2.238212  3.485646  3.354423  3.316656
   H (  9)  3.304846  2.326437  1.088356  3.042101  2.407038  3.377915
   H ( 10)  3.842038  3.527398  2.948923  1.078118  2.310495  3.367027
   H ( 11)  3.147616  3.325503  2.349954  2.274396  1.094173  2.153342
   C ( 12)  2.567365  1.545635  1.526029  1.476809  2.148553  2.874667
   H ( 13)  3.491958  2.295929  2.415564  2.315549  3.234610  3.953524
             H (  7)   H (  8)   H (  9)   H ( 10)   H ( 11)   C ( 12)
   H (  8)  2.703793
   H (  9)  4.281944  2.738802
   H ( 10)  4.767451  4.451336  3.675599
   H ( 11)  4.139883  4.342246  2.824090  2.677780
   C ( 12)  3.466890  2.252124  2.390401  2.264243  3.113973
   H ( 13)  4.250869  2.567824  3.002671  2.775859  4.139177  1.111655

 
 Applying Cartesian multipole field
    Component          Value
    ---------          -----
     (2,0,0)        1.00000E-11
     (0,2,0)        2.00000E-11
     (0,0,2)       -3.00000E-11
 Nucleus-field energy     =     0.0000000022 hartrees
 Requested basis set is 6-31G(d)
 There are 40 shells and 117 basis functions
 A cutoff of  1.0D-14 yielded    811 shell pairs
 There are      7083 function pairs
 Smallest overlap matrix eigenvalue = 1.34E-03
 Guess MOs from core Hamiltonian diagonalization
 Mixing HOMO and LUMO in initial guess
 Adding  50% of the LUMO to the HOMO
 An unrestricted hybrid HF-DFT SCF calculation will be
 performed using Pulay DIIS extrapolation
 Exchange:     0.2000 Hartree-Fock + 0.0800 Slater + 0.7200 B88
 Correlation:  0.1900 VWN1RPA + 0.8100 LYP
 Using SG-1 standard quadrature grid
 SCF converges when DIIS error is below 1.0E-08
 using 4 threads for integral computing
 -------------------------------------------------------
 OpenMP Integral computing Module                
 Release: version 1.0, May 2013, Q-Chem Inc. Pittsburgh 
 -------------------------------------------------------
 -------------------------------------------------------
 OpenMP BLAS3 based DFT computing Module                
 Release: version 1.0, May 2013, Q-Chem Inc. Pittsburgh 
 -------------------------------------------------------
 ---------------------------------------
  Cycle       Energy         DIIS Error
 ---------------------------------------
    1    -236.4284860567      1.35E-01
    2    -234.6712235594      1.05E-01
    3    -269.3232183286      8.09E-02
    4    -271.0831426850      8.29E-02
    5    -283.6976673545      3.71E-02
    6    -285.8999056718      2.30E-02
    7    -286.7163489716      7.23E-03
    8    -286.7954203345      4.79E-03
    9    -286.8274256000      1.92E-03
   10    -286.8334601730      9.60E-04
   11    -286.8349526171      1.44E-04
   12    -286.8349998991      2.93E-05
   13    -286.8350029442      1.74E-05
   14    -286.8350039201      2.64E-06
   15    -286.8350042051      9.15E-07
   16    -286.8350043111      3.77E-07
   17    -286.8350043403      1.79E-07
   18    -286.8350043523      4.78E-08
   19    -286.8350043585      2.42E-08
   20    -286.8350043609      1.18E-08
   21    -286.8350043618      3.15E-09 Convergence criterion met
 ---------------------------------------
 <S^2> = 0.7543
 SCF time:  CPU 55.14 s  wall 40.80 s
 SCF   energy in the final basis set = -286.83500436
 Total energy in the final basis set = -286.83500436
 
 --------------------------------------------------------------
 
                    Orbital Energies (a.u.)
 --------------------------------------------------------------
 
 Alpha MOs
 -- Occupied --
-14.318 -10.220 -10.220 -10.217 -10.213 -10.211 -10.193  -0.967
 -0.860  -0.749  -0.656  -0.606  -0.574  -0.540  -0.511  -0.465
 -0.431  -0.411  -0.388  -0.361  -0.329  -0.318  -0.268  -0.256
 -0.174
 -- Virtual --
 -0.001   0.086   0.110   0.136   0.144   0.151   0.156   0.166
  0.181   0.202   0.216   0.240   0.279   0.329   0.365   0.377
  0.486   0.515   0.528   0.548   0.560   0.573   0.591   0.604
  0.619   0.621   0.670   0.677   0.704   0.754   0.774   0.786
  0.811   0.827   0.836   0.840   0.850   0.881   0.906   0.940
  0.943   1.020   1.070   1.092   1.146   1.254   1.289   1.360
  1.433   1.451   1.501   1.544   1.627   1.648   1.675   1.709
  1.801   1.810   1.867   1.885   1.909   1.945   2.002   2.019
  2.065   2.161   2.180   2.230   2.266   2.291   2.369   2.427
  2.476   2.495   2.509   2.522   2.574   2.618   2.622   2.686
  2.735   2.799   2.832   2.930   2.956   3.948   4.135   4.241
  4.361   4.476   4.520   4.656
 
 Beta MOs
 -- Occupied --
-14.317 -10.221 -10.220 -10.217 -10.211 -10.210 -10.180  -0.963
 -0.856  -0.739  -0.646  -0.602  -0.571  -0.537  -0.501  -0.462
 -0.427  -0.404  -0.385  -0.357  -0.317  -0.307  -0.265  -0.254
 -- Virtual --
 -0.037   0.005   0.088   0.114   0.140   0.148   0.155   0.158
  0.170   0.185   0.205   0.220   0.243   0.287   0.332   0.372
  0.385   0.489   0.522   0.543   0.553   0.564   0.576   0.598
  0.615   0.622   0.643   0.672   0.688   0.708   0.758   0.777
  0.789   0.812   0.831   0.837   0.842   0.854   0.884   0.909
  0.943   0.951   1.027   1.079   1.105   1.148   1.261   1.293
  1.363   1.441   1.455   1.507   1.548   1.630   1.652   1.687
  1.714   1.804   1.822   1.879   1.890   1.923   1.952   2.010
  2.027   2.078   2.166   2.197   2.236   2.277   2.299   2.383
  2.438   2.484   2.499   2.518   2.526   2.580   2.621   2.628
  2.690   2.742   2.803   2.841   2.933   2.957   3.950   4.140
  4.255   4.371   4.480   4.523   4.659
 --------------------------------------------------------------
 
          Ground-State Mulliken Net Atomic Charges

[...]
      4 C                    -0.126324       0.478661
      5 C                    -0.048629      -0.008650
      6 N                    -0.337699       0.026916
      7 H                     0.145252       0.006591
      8 H                     0.144618       0.004654
      9 H                     0.177766       0.001877
     10 H                     0.142271      -0.007926
     11 H                     0.152487       0.000062
     12 C                    -0.204265       0.680610
     13 H                     0.140489      -0.034644
  --------------------------------------------------------
  Sum of atomic charges =     0.000000
  Sum of spin   charges =     1.000000

 -----------------------------------------------------------------
                    Cartesian Multipole Moments
 -----------------------------------------------------------------
    Charge (ESU x 10^10)
                -0.0000
    Dipole Moment (Debye)
         X      -1.1639      Y      -2.6122      Z      -0.8225
       Tot       2.9757
    Quadrupole Moments (Debye-Ang)
        XX     -37.5036     XY      -3.7397     YY     -43.6125
        XZ       1.7483     YZ       0.6163     ZZ     -40.8906
    Octopole Moments (Debye-Ang^2)
       XXX      -8.6699    XXY      -8.2224    XYY     -10.3897
       YYY     -30.4134    XXZ       0.6761    XYZ       1.6789
       YYZ       0.7380    XZZ      -8.7717    YZZ     -10.5790
       ZZZ       2.9716
    Hexadecapole Moments (Debye-Ang^3)
      XXXX    -247.7156   XXXY      -7.7075   XXYY     -89.2082
      XYYY     -20.9820   YYYY    -252.3555   XXXZ      24.0585
      XXYZ      12.5568   XYYZ      15.2380   YYYZ      26.0831
      XXZZ     -74.0734   XYZZ      -1.2085   YYZZ     -68.3787
      XZZZ      25.8700   YZZZ      20.6502   ZZZZ    -174.2665
 -----------------------------------------------------------------
 Calculating analytic gradient of the SCF energy
 Gradient of SCF Energy
            1           2           3           4           5           6
    1   0.0038788   0.0072313  -0.0073349   0.0076012  -0.0011640  -0.0018621
    2   0.0022260  -0.0042713  -0.0199043   0.0023113   0.0050411  -0.0007230
    3   0.0015813  -0.0043016   0.0023846   0.0181136  -0.0012845  -0.0013511
            7           8           9          10          11          12
    1  -0.0019646   0.0007341   0.0031046  -0.0032773   0.0014417  -0.0081615
    2  -0.0012365   0.0018582  -0.0007944   0.0017166   0.0019727   0.0164319
    3   0.0005033   0.0012068  -0.0122313   0.0029318   0.0007048  -0.0189315
           13
    1  -0.0002272
    2  -0.0046284
    3   0.0106739
 Max gradient component =       1.990E-02
 RMS gradient           =       7.202E-03
 Gradient time:  CPU 7.65 s  wall 2.26 s
 ----------------------------------------------------------------
             Standard Nuclear Orientation (Angstroms)
    I     Atom           X                Y                Z
 ----------------------------------------------------------------
    1      C       1.5827689065     0.3172522648    -0.3107193475
    2      C       0.6785586147    -0.8885527339    -0.1024359639
    3      C      -0.6179891378    -0.4352674855    -0.7291858520
    4      C      -0.9599529730     0.5898791066     0.8355447220
    5      C      -0.4821661623     1.0425472444    -0.5478004065
    6      N       0.9455047135     1.4007498014    -0.5593937686
    7      H       2.6574440754     0.2995130931    -0.1451628092
    8      H       1.0660838347    -1.8911741938    -0.2553004778
    9      H      -1.2910303900    -0.9992162912    -1.3750527885
   10      H      -2.0089022515     0.7315229900     1.1163624233
   11      H      -1.1248759640     1.7466517091    -1.0682686656
   12      C      -0.1930221310    -0.6540201555     1.1188018211
   13      H      -0.2681515305    -1.2764276695     2.0171647697
 ----------------------------------------------------------------
 Nuclear Repulsion Energy =   280.6455594377 hartrees
 There are       25 alpha and       24 beta electrons

                       Distance Matrix (Angstroms)
             C (  1)   C (  2)   C (  3)   C (  4)   C (  5)   N (  6)
   C (  2)  1.521494
   C (  3)  2.363205  1.509741
   C (  4)  2.802442  2.397976  1.901643
   C (  5)  2.201413  2.296689  1.495087  1.531937
   N (  6)  1.281371  2.349676  2.417499  2.496825  1.471967
   H (  7)  1.087497  2.308531  3.407264  3.759210  3.251364  2.077269
   H (  8)  2.268740  1.085722  2.276035  3.383843  3.330068  3.308138
   H (  9)  3.335359  2.347569  1.090031  2.742550  2.346786  3.380418
   H ( 10)  3.886938  3.366387  2.588839  1.095087  2.279714  3.461870
   H ( 11)  3.154109  3.336092  2.265542  2.233792  1.086152  2.159879
   C ( 12)  2.477970  1.518578  1.908798  1.488524  2.395727  2.886982
   H ( 13)  3.374132  2.353596  2.893506  2.314717  3.464461  3.908823
             H (  7)   H (  8)   H (  9)   H ( 10)   H ( 11)   C ( 12)
   H (  8)  2.709920
   H (  9)  4.334718  2.757793
   H ( 10)  4.853130  4.267967  3.117362
   H ( 11)  4.153586  4.323771  2.767944  2.566048
   C ( 12)  3.260673  2.236975  2.746651  2.284110  3.378588
   H ( 13)  3.964639  2.705956  3.553909  2.805980  4.403735  1.095487

 
 Applying Cartesian multipole field
    Component          Value
    ---------          -----
     (2,0,0)        1.00000E-11
     (0,2,0)        2.00000E-11
     (0,0,2)       -3.00000E-11
 Nucleus-field energy     =     0.0000000017 hartrees
 Requested basis set is 6-31G(d)
 There are 40 shells and 117 basis functions
 A cutoff of  1.0D-14 yielded    811 shell pairs
 There are      7083 function pairs
 Smallest overlap matrix eigenvalue = 1.59E-03
 Guess MOs from core Hamiltonian diagonalization
 Mixing HOMO and LUMO in initial guess
 Adding  50% of the LUMO to the HOMO
 An unrestricted hybrid HF-DFT SCF calculation will be
 performed using Pulay DIIS extrapolation
 Exchange:     0.2000 Hartree-Fock + 0.0800 Slater + 0.7200 B88
 Correlation:  0.1900 VWN1RPA + 0.8100 LYP
 Using SG-1 standard quadrature grid
 SCF converges when DIIS error is below 1.0E-08
 using 4 threads for integral computing
 -------------------------------------------------------
 OpenMP Integral computing Module                
 Release: version 1.0, May 2013, Q-Chem Inc. Pittsburgh 
 -------------------------------------------------------
 -------------------------------------------------------
 OpenMP BLAS3 based DFT computing Module                
 Release: version 1.0, May 2013, Q-Chem Inc. Pittsburgh 
 -------------------------------------------------------
 ---------------------------------------
  Cycle       Energy         DIIS Error
 ---------------------------------------
    1    -233.9777224479      1.39E-01
    2    -223.2554883556      1.08E-01
    3    -255.0406787244      9.91E-02
    4    -280.1756367940      5.67E-02
    5    -281.7436341857      4.85E-02
    6    -285.8377720385      2.01E-02
    7    -286.2807524237      1.51E-02
    8    -286.6631196350      6.17E-03
    9    -286.7495402156      3.40E-03
   10    -286.7663648871      2.68E-03
   11    -286.7774937354      1.52E-03
   12    -286.7806776797      1.19E-03
   13    -286.7845996393      4.38E-04
   14    -286.7852661069      1.46E-04
   15    -286.7853339216      6.84E-05
   16    -286.7853894081      5.75E-05
   17    -286.7854335889      5.57E-05
   18    -286.7854829057      4.30E-05
   19    -286.7855849665      2.31E-05
   20    -286.7855921755      1.38E-05
   21    -286.7855975985      5.75E-06
   22    -286.7855976713      3.92E-06
   23    -286.7855977917      1.23E-06
   24    -286.7855978181      1.45E-07
   25    -286.7855978212      2.04E-07
   26    -286.7855978219      3.44E-08
   27    -286.7855978221      1.36E-08
   28    -286.7855978221      9.40E-09 Convergence criterion met
 ---------------------------------------
 <S^2> = 0.7680
 SCF time:  CPU 72.80 s  wall 47.41 s
 SCF   energy in the final basis set = -286.78559782
 Total energy in the final basis set = -286.78559782
 
 --------------------------------------------------------------
 
                    Orbital Energies (a.u.)
 --------------------------------------------------------------
 
 Alpha MOs
 -- Occupied --
-14.317 -10.248 -10.232 -10.220 -10.211 -10.211 -10.189  -0.964
 -0.845  -0.748  -0.670  -0.597  -0.584  -0.540  -0.512  -0.459
 -0.430  -0.417  -0.403  -0.370  -0.342  -0.294  -0.275  -0.263
 -0.099
 -- Virtual --
 -0.017   0.003   0.090   0.142   0.145   0.148   0.152   0.162
  0.178   0.199   0.208   0.256   0.283   0.311   0.338   0.385
  0.485   0.508   0.515   0.532   0.560   0.583   0.591   0.594
  0.621   0.651   0.664   0.678   0.693   0.733   0.753   0.785
  0.806   0.825   0.828   0.845   0.863   0.882   0.921   0.931
  0.970   1.013   1.074   1.129   1.167   1.204   1.294   1.308
  1.371   1.420   1.462   1.507   1.578   1.630   1.689   1.745
  1.760   1.832   1.838   1.878   1.936   1.964   1.972   2.056
  2.088   2.098   2.144   2.250   2.276   2.310   2.354   2.388
  2.405   2.462   2.496   2.525   2.586   2.616   2.631   2.672
  2.692   2.737   2.821   2.903   2.960   3.947   4.163   4.248
  4.355   4.416   4.517   4.585
 
 Beta MOs
 -- Occupied --
-14.316 -10.248 -10.232 -10.220 -10.211 -10.206 -10.178  -0.961
 -0.839  -0.744  -0.658  -0.590  -0.582  -0.536  -0.501  -0.453
 -0.426  -0.414  -0.400  -0.365  -0.336  -0.282  -0.261  -0.255
 -- Virtual --
 -0.006   0.002   0.026   0.092   0.143   0.148   0.153   0.157
  0.168   0.181   0.201   0.210   0.260   0.288   0.315   0.348
  0.387   0.488   0.515   0.521   0.540   0.569   0.586   0.595
  0.602   0.628   0.662   0.675   0.684   0.703   0.736   0.757
  0.787   0.808   0.827   0.830   0.848   0.870   0.884   0.925
  0.933   0.974   1.019   1.086   1.137   1.170   1.212   1.296
  1.317   1.376   1.427   1.464   1.517   1.586   1.633   1.697
  1.753   1.765   1.838   1.844   1.881   1.950   1.973   1.976
  2.062   2.100   2.110   2.151   2.256   2.289   2.324   2.360
  2.404   2.412   2.471   2.503   2.535   2.588   2.624   2.641
  2.673   2.694   2.742   2.825   2.905   2.961   3.950   4.174
  4.255   4.357   4.434   4.518   4.586
 --------------------------------------------------------------
 
          Ground-State Mulliken Net Atomic Charges

     Atom                 Charge (a.u.)    Spin (a.u.)
  --------------------------------------------------------
      1 C                     0.098278       0.013861
      2 C                    -0.193268      -0.023852
      3 C                    -0.101965      -0.051701
      4 C                    -0.121115       0.308384
      5 C                    -0.043469      -0.010478
      6 N                    -0.339623       0.032413
      7 H                     0.145600       0.006038
      8 H                     0.142404       0.006241
      9 H                     0.176254      -0.002268
     10 H                     0.148689      -0.001202
     11 H                     0.152744       0.001020
     12 C                    -0.200559       0.757564
     13 H                     0.136030      -0.036019
  --------------------------------------------------------
  Sum of atomic charges =    -0.000000
  Sum of spin   charges =     1.000000

 -----------------------------------------------------------------
                    Cartesian Multipole Moments
 -----------------------------------------------------------------
    Charge (ESU x 10^10)
                -0.0000
    Dipole Moment (Debye)
         X      -1.2961      Y      -2.4110      Z      -0.7348
       Tot       2.8342
    Quadrupole Moments (Debye-Ang)
        XX     -37.3411     XY      -3.9322     YY     -43.5424
        XZ       1.4903     YZ       0.9536     ZZ     -41.0139
    Octopole Moments (Debye-Ang^2)
       XXX      -9.0560    XXY      -7.9737    XYY     -10.6586
       YYY     -30.1178    XXZ       0.9677    XYZ       1.4743
       YYZ       0.9426    XZZ      -9.0573    YZZ      -9.9987
       ZZZ       2.9831
    Hexadecapole Moments (Debye-Ang^3)
      XXXX    -246.6229   XXXY      -8.1812   XXYY     -89.0277
      XYYY     -21.3206   YYYY    -251.9473   XXXZ      23.1731
      XXYZ      12.9182   XYYZ      14.9207   YYYZ      27.0695
      XXZZ     -73.9378   XYZZ      -1.6323   YYZZ     -68.0137
      XZZZ      24.8453   YZZZ      22.1125   ZZZZ    -175.8753
 -----------------------------------------------------------------
 Calculating analytic gradient of the SCF energy
 Gradient of SCF Energy
            1           2           3           4           5           6
    1   0.0051756   0.0122974  -0.0031822   0.0099138  -0.0044498  -0.0023507
    2   0.0023285  -0.0027720  -0.0294880   0.0208189   0.0021245  -0.0019669
    3   0.0014706  -0.0066789   0.0090338   0.0331111   0.0004957  -0.0016504
            7           8           9          10          11          12
    1  -0.0015909   0.0009723   0.0040794  -0.0045098   0.0014285  -0.0160181
    2  -0.0009389   0.0018519  -0.0022428   0.0005258   0.0013751   0.0139717
    3   0.0003464   0.0014045  -0.0115344   0.0011673   0.0004084  -0.0344664
           13
    1  -0.0017653
    2  -0.0055878
    3   0.0068924
 Max gradient component =       3.447E-02
 RMS gradient           =       1.107E-02
 Gradient time:  CPU 7.68 s  wall 2.16 s
 E1 = -286.7843353, E2 = -286.7855978, Emax = -286.7848320
 Iteration 5, Curvature = -3.7114774
 Curvature, final (in Hartree/Bohr^2) = -1.0393195
 ----------------------------------------------------------------
             Standard Nuclear Orientation (Angstroms)
    I     Atom           X                Y                Z
 ----------------------------------------------------------------
    1      C       1.5830672607     0.3174083821    -0.3108029774
    2      C       0.6798527157    -0.8882387361    -0.1032112671
    3      C      -0.6169064605    -0.4374661265    -0.7276230701
    4      C      -0.9592682785     0.5948448142     0.8392795550
    5      C      -0.4830533543     1.0417764815    -0.5473537108
    6      N       0.9453627508     1.4003664893    -0.5594477936
    7      H       2.6575855283     0.2995830337    -0.1452005795
    8      H       1.0661997005    -1.8912560852    -0.2552276045
    9      H      -1.2907559659    -0.9996337678    -1.3748169613
   10      H      -2.0093673870     0.7312085099     1.1159541259
   11      H      -1.1248451321     1.7464287161    -1.0683333612
   12      C      -0.1950535316    -0.6548307554     1.1150569652
   13      H      -0.2685516488    -1.2767351502     2.0162793352
 ----------------------------------------------------------------
 Nuclear Repulsion Energy =   280.6240077656 hartrees
 There are       25 alpha and       24 beta electrons
 Requested basis set is 6-31G(d)
 There are 40 shells and 117 basis functions
 Geometry Optimization Parameters
   NAtoms,    NIC,     NZ,  NCons,   NDum,   NFix, NCnnct, MaxDiis
       13     157       0       0       0       0       0       0


** GEOMETRY OPTIMIZATION IN DELOCALIZED INTERNAL COORDINATES **
   Searching for a Minimum

   Optimization Cycle:   1

                       Coordinates (Angstroms)
     ATOM                X               Y               Z
      1  C         1.5830672607    0.3174083821   -0.3108029774
      2  C         0.6798527157   -0.8882387361   -0.1032112671
      3  C        -0.6169064605   -0.4374661265   -0.7276230701
      4  C        -0.9592682785    0.5948448142    0.8392795550
      5  C        -0.4830533543    1.0417764815   -0.5473537108
      6  N         0.9453627508    1.4003664893   -0.5594477936
      7  H         2.6575855283    0.2995830337   -0.1452005795
      8  H         1.0661997005   -1.8912560852   -0.2552276045
      9  H        -1.2907559659   -0.9996337678   -1.3748169613
     10  H        -2.0093673870    0.7312085099    1.1159541259
     11  H        -1.1248451321    1.7464287161   -1.0683333612
     12  C        -0.1950535316   -0.6548307554    1.1150569652
     13  H        -0.2685516488   -1.2767351502    2.0162793352
   Point Group: c1    Number of degrees of freedom:    33


   Energy is   -286.785597822


 Attempting to Generate Delocalized Internal Coordinates

 33 Hessian modes will be used to form the next step
  Hessian Eigenvalues:
     0.012366    0.013859    0.014741    0.020589    0.022911    0.027537
     0.028455    0.031403    0.032198    0.039216    0.042014    0.047684
     0.052595    0.053691    0.070954    0.113978    0.117561    0.158469
     0.161319    0.202587    0.208891    0.223744    0.249017    0.259991
     0.286860    0.335137    0.339671    0.343018    0.347668    0.351206
     0.352544    0.353321    0.630179

 Minimum Search - Taking Simple RFO Step
 Searching for Lamda that Minimizes Along All modes
 Value Taken    Lamda =  -0.01051850
 Calculated Step too Large.  Step scaled by  0.706425
 Step Taken.  Stepsize is  0.300000

                             Maximum     Tolerance    Cnvgd?
         Gradient           0.014681      0.000300      NO
         Displacement       0.160067      0.001200      NO
         Energy change     *********      0.000001      NO


 New Cartesian Coordinates Obtained by Inverse Iteration

 Displacement from previous Coordinates is:  0.211609
 ----------------------------------------------------------------
             Standard Nuclear Orientation (Angstroms)
    I     Atom           X                Y                Z
 ----------------------------------------------------------------
    1      C       1.5817774021     0.3120151961    -0.3122421681
    2      C       0.6705574181    -0.8850034414    -0.0964459145
    3      C      -0.6147839286    -0.4163785966    -0.7283474707
    4      C      -0.9774092738     0.5682604273     0.8128780744
    5      C      -0.4744878904     1.0504386071    -0.5483289568
    6      N       0.9553169006     1.4060716891    -0.5409374500
    7      H       2.6589303224     0.2868294437    -0.1546823471
    8      H       1.0419166784    -1.8939299535    -0.2578800626
    9      H      -1.3057425376    -0.9745698267    -1.3508585737
   10      H      -2.0288149060     0.6845983511     1.0737343376
   11      H      -1.1174727517     1.7522927453    -1.0719248652
   12      C      -0.1715907581    -0.6477523447     1.1360505493
   13      H      -0.2339304782    -1.2594164913     2.0335375031
 ----------------------------------------------------------------
 Nuclear Repulsion Energy =   281.1288503397 hartrees
 There are       25 alpha and       24 beta electrons

































 Eigenvalues after right structure
 -1.0520452 -0.0000000 -0.0000000 -0.0000000 0.0000000 0.0000000 0.0000136 0.0154506 0.0367850 0.0478847 0.0556955 0.0563782 0.0601949 0.0677641 0.0759820 0.0838606 0.0942607 0.0997558 0.1149912 0.1584833 0.1889420 0.2257506 0.2706847 0.2823052 0.3032485 0.3874259 0.4123283 0.4575947 0.6214570 0.7255242 0.7723545 0.9566518 1.0227813 1.0829721 1.1832730 1.2410602 1.2716043 1.3233086 1.7485751
Archival summary:
1\1\c8-66\JobtypUnspecified\ProcedureUnspecified\6-31G*\166(2)\hpark21\WedMar212:43:532022WedMar212:43:532022\0\\#,JobtypUnspecified,ProcedureUnspecified,6-31G*,\\0,2\N\C,1,1.28129\H,2,1.08891,1,121.953\C,1,1.47339,2,105.62,3,-173.947,0\H,4,1.08636,1,114.888,2,-158.662,0\C,4,1.48447,1,109.319,2,-17.8805,0\H,6,1.08468,4,129.665,1,-137.327,0\C,6,1.50699,4,100.126,1,28.9512,0\H,8,1.08715,6,121.176,4,-164.526,0\C,8,1.51147,6,79.5071,4,79.9263,0\H,10,1.08789,8,128.053,6,138.976,0\C,10,1.49415,8,104.588,6,-37.2057,0\H,12,1.08951,10,123.75,8,139.268,0\\\@

 Total job time:  3455.72s(wall), 4936.30s(cpu) 
 Wed Mar  2 12:43:53 2022

        *************************************************************
        *                                                           *
        *  Thank you very much for using Q-Chem.  Have a nice day.  *
        *                                                           *
        *************************************************************


