
Running Job 1 of 1 qcopt_prd.in
qchem qcopt_prd.in_16679.0 ./qcopt_prd.d/ 1
/home/leeping/opt/qchem/5.0.2-openmp/exe/qcprog.exe_s qcopt_prd.in_16679.0 ./qcopt_prd.d/
Check license passed

                  Welcome to Q-Chem
     A Quantum Leap Into The Future Of Chemistry


 Q-Chem 5.0, Q-Chem, Inc., Pleasanton, CA (2017)

 Yihan Shao,  Zhengting Gan,  E. Epifanovsky,  A. T. B. Gilbert,  M. Wormit,  
 J. Kussmann,  A. W. Lange,  A. Behn,  Jia Deng,  Xintian Feng,  D. Ghosh,  
 M. Goldey,  P. R. Horn,  L. D. Jacobson,  I. Kaliman,  T. Kus,  A. Landau,  
 Jie Liu,  E. I. Proynov,  R. M. Richard,  R. P. Steele,  E. J. Sundstrom,  
 H. L. Woodcock III,  P. M. Zimmerman,  D. Zuev,  B. Albrecht,  E. Alguire,  
 S. A. Baeppler,  D. Barton,  Z. Benda,  Y. A. Bernard,  E. J. Berquist,  
 K. B. Bravaya,  H. Burton,  D. Casanova,  Chun-Min Chang,  Yunqing Chen,  
 A. Chien,  K. D. Closser,  M. P. Coons,  S. Dasgupta,  A. L. Dempwolff,  
 M. Diedenhofen,  Hainam Do,  R. G. Edgar,  Po-Tung Fang,  S. Fatehi,  
 Qingguo Feng,  J. Fosso-Tande,  Qinghui Ge,  A. Ghysels,  G. Gidofalvi,  
 J. Gomes,  J. Gonthier,  A. Gunina,  M. W. D. Hanson-Heine,  
 P. H. P. Harbach,  A. W. Hauser,  J. E. Herr,  E. G. Hohenstein,  
 Z. C. Holden,  Kerwin Hui,  T.-C. Jagau,  Hyunjun Ji,  B. Kaduk,  
 K. Khistyaev,  Jaehoon Kim,  P. Klunzinger,  K. Koh,  D. Kosenkov,  
 L. Koulias,  T. Kowalczyk,  C. M. Krauter,  A. Kunitsa,  Ka Un Lao,  
 A. Laurent,  K. V. Lawler,  Joonho Lee,  D. Lefrancois,  S. Lehtola,  
 D. S. Levine,  Yi-Pei Li,  You-Sheng Lin,  Fenglai Liu,  E. Livshits,  
 A. Luenser,  P. Manohar,  E. Mansoor,  S. F. Manzer,  Shan-Ping Mao,  
 Yuezhi Mao,  N. Mardirossian,  A. V. Marenich,  T. Markovich,  
 L. A. Martinez-Martinez,  S. A. Maurer,  N. J. Mayhall,  S. C. McKenzie,  
 J.-M. Mewes,  A. F. Morrison,  J. W. Mullinax,  K. Nanda,  
 T. S. Nguyen-Beck,  R. Olivares-Amaya,  J. A. Parkhill,  T. M. Perrine,  
 F. Plasser,  S. Prager,  A. Prociuk,  E. Ramos,  D. R. Rehn,  F. Rob,  
 M. Schneider,  N. Sergueev,  S. M. Sharada,  S. Sharma,  D. W. Small,  
 T. Stauch,  T. Stein,  Yu-Chuan Su,  A. J. W. Thom,  A. Tkatchenko,  
 T. Tsuchimochi,  L. Vogt,  O. Vydrov,  M. A. Watson,  J. Wenzel,  
 M. de Wergifosse,  T. A. Wesolowski,  A. White,  J. Witte,  A. Yamada,  
 Jun Yang,  K. Yao,  S. Yeganeh,  S. R. Yost,  Zhi-Qiang You,  A. Zech,  
 Igor Ying Zhang,  Xing Zhang,  Yan Zhao,  Ying Zhu,  B. R. Brooks,  
 G. K. L. Chan,  C. J. Cramer,  M. S. Gordon,  W. J. Hehre,  A. Klamt,  
 M. W. Schmidt,  C. D. Sherrill,  D. G. Truhlar,  A. Aspuru-Guzik,  R. Baer,  
 A. T. Bell,  N. A. Besley,  Jeng-Da Chai,  R. A. DiStasio Jr.,  A. Dreuw,  
 B. D. Dunietz,  T. R. Furlani,  Chao-Ping Hsu,  Yousung Jung,  Jing Kong,  
 D. S. Lambrecht,  WanZhen Liang,  C. Ochsenfeld,  V. A. Rassolov,  
 L. V. Slipchenko,  J. E. Subotnik,  T. Van Voorhis,  J. M. Herbert,  
 A. I. Krylov,  P. M. W. Gill,  M. Head-Gordon

 Contributors to earlier versions of Q-Chem not listed above: 
 R. D. Adamson,  B. Austin,  J. Baker,  G. J. O. Beran,  K. Brandhorst,  
 S. T. Brown,  E. F. C. Byrd,  A. K. Chakraborty,  C.-L. Cheng,  
 Siu Hung Chien,  D. M. Chipman,  D. L. Crittenden,  H. Dachsel,  
 R. J. Doerksen,  A. D. Dutoi,  L. Fusti-Molnar,  W. A. Goddard III,  
 A. Golubeva-Zadorozhnaya,  S. R. Gwaltney,  G. Hawkins,  A. Heyden,  
 S. Hirata,  G. Kedziora,  F. J. Keil,  C. Kelley,  Jihan Kim,  R. A. King,  
 R. Z. Khaliullin,  P. P. Korambath,  W. Kurlancheek,  A. M. Lee,  M. S. Lee,  
 S. V. Levchenko,  Ching Yeh Lin,  D. Liotard,  R. C. Lochan,  I. Lotan,  
 P. E. Maslen,  N. Nair,  D. P. O'Neill,  D. Neuhauser,  E. Neuscamman,  
 C. M. Oana,  R. Olson,  B. Peters,  R. Peverati,  P. A. Pieniazek,  
 Y. M. Rhee,  J. Ritchie,  M. A. Rohrdanz,  E. Rosta,  N. J. Russ,  
 H. F. Schaefer III,  N. E. Schultz,  N. Shenvi,  A. C. Simmonett,  A. Sodt,  
 D. Stuck,  K. S. Thanthiriwatte,  V. Vanovschi,  Tao Wang,  A. Warshel,  
 C. F. Williams,  Q. Wu,  X. Xu,  W. Zhang

 Please cite Q-Chem as follows:
 Y. Shao et al., Mol. Phys. 113, 184-215 (2015)
 DOI: 10.1080/00268976.2014.952696

 Q-Chem 5.0.2 for Intel X86 EM64T Linux

 Parts of Q-Chem use Armadillo 5.200.1 (Boston Tea Smuggler).
 http://arma.sourceforge.net/

 Q-Chem begins on Wed Mar  2 11:43:28 2022  

Host: 
0

     Scratch files written to ./qcopt_prd.d//
 Dec517 15110_ 26548  26544 5633   
Processing $rem in /home/leeping/opt/qchem/5.0.2-openmp/config/preferences.
 MEM_STATIC 2000
 MEM_TOTAL  8000
 SYMMETRY   OFF
 SYM_IGNORE TRUE 

Checking the input file for inconsistencies... 	...done.

--------------------------------------------------------------
User input:
--------------------------------------------------------------
$molecule
0 2
C        1.5870793774    0.3753843937   -0.3119053564
C        0.7820645318   -0.8578262721   -0.0688868138
C       -0.5627703348   -0.5794053137   -0.6571102005
C       -0.8325735059    0.7413699577    0.9848007507
C       -0.5271771098    0.9883395933   -0.4982636290
N        0.8917918590    1.4118715522   -0.5988534640
H        2.6718673927    0.4219606112   -0.2217395189
H        1.2115170854   -1.8547515029   -0.0957786751
H       -1.1230205578   -1.1920600677   -1.3575009313
H       -1.7091975256    1.1071311352    1.5074004879
H       -1.1954027774    1.6214851215   -1.0817205603
C       -0.4584914177   -0.6818767224    0.8724562960
H       -0.7356870172   -1.5016224859    1.5271016146
$end

$rem
method                b3lyp
basis                 6-31g(d)
unrestricted          true
symmetry              off
sym_ignore            true
incdft                false
incfock               0
scf_convergence       8
thresh                14
jobtype               opt
scf_guess             core
scf_guess_mix         5
scf_algorithm         diis
max_scf_cycles        100
geom_opt_max_cycles   300
$end

--------------------------------------------------------------
 ----------------------------------------------------------------
             Standard Nuclear Orientation (Angstroms)
    I     Atom           X                Y                Z
 ----------------------------------------------------------------
    1      C       1.5870793774     0.3753843937    -0.3119053564
    2      C       0.7820645318    -0.8578262721    -0.0688868138
    3      C      -0.5627703348    -0.5794053137    -0.6571102005
    4      C      -0.8325735059     0.7413699577     0.9848007507
    5      C      -0.5271771098     0.9883395933    -0.4982636290
    6      N       0.8917918590     1.4118715522    -0.5988534640
    7      H       2.6718673927     0.4219606112    -0.2217395189
    8      H       1.2115170854    -1.8547515029    -0.0957786751
    9      H      -1.1230205578    -1.1920600677    -1.3575009313
   10      H      -1.7091975256     1.1071311352     1.5074004879
   11      H      -1.1954027774     1.6214851215    -1.0817205603
   12      C      -0.4584914177    -0.6818767224     0.8724562960
   13      H      -0.7356870172    -1.5016224859     1.5271016146
 ----------------------------------------------------------------
 Nuclear Repulsion Energy =   281.7340837896 hartrees
 There are       25 alpha and       24 beta electrons
 Requested basis set is 6-31G(d)
 There are 40 shells and 117 basis functions

 Total QAlloc Memory Limit   8000 MB
 Mega-Array Size      1956 MB
 MEM_STATIC part      2000 MB
 A cutoff of  1.0D-14 yielded    811 shell pairs
 There are      7083 function pairs
 
 -------------------------------------------------------
 OpenMP Integral Computing Module                       
 Release: version 1.0, May 2013, Q-Chem Inc. Pittsburgh 
 -------------------------------------------------------
 Integral Job Info:
 Integral job number is                      11
 Integral operator is                         1
 short-range coefficients                     0
 long-range coefficients              100000000
 Omega coefficients                           0
 if combine SR and LR in K                    0
 Integral screening is                        0
 Integral computing path is                   2
 max size of driver memory is            800000
 size of driver memory is                593474
 size of scratch memory is              2361544
 max col of scratch BK array               1296
 max len of scratch array in speh3          155
 max len of scratch index in speh4           18
 max int batch size is                      520
 min int batch size is                       52
 fixed nKL is                                52
 max L of basis functions is                  2
 order of int derivative is                   0
 number of shells is                         40
 number of basis is                         117
 number of cartesian basis is               117
 number of contracted shell pairs           811
 number of primitive shell pairs           3597
 maxK2 (contraction) of shell pair           36
 max number of K2 of shell pair               1
 max number of CS2 of shell pair             84
 max number of PS2 of shell pair            414
 mem total for path MDJ                  535308
 -------------------------------------------------------
 Smallest overlap matrix eigenvalue = 1.32E-03

 Scale SEOQF with 1.000000e-01/1.000000e-01/1.000000e+00

 Standard Electronic Orientation quadrupole field applied
 Nucleus-field energy     =    -0.0000000222 hartrees
 Guess MOs from core Hamiltonian diagonalization
 Mixing HOMO and LUMO in initial guess
 Adding  50% of the LUMO to the HOMO
 An unrestricted hybrid HF-DFT SCF calculation will be
 performed using Pulay DIIS extrapolation
 Exchange:     0.2000 Hartree-Fock + 0.0800 Slater + 0.7200 B88
 Correlation:  0.1900 VWN1RPA + 0.8100 LYP
 Using SG-1 standard quadrature grid
 SCF converges when DIIS error is below 1.0E-08
 using 4 threads for integral computing
 -------------------------------------------------------
 OpenMP Integral computing Module                
 Release: version 1.0, May 2013, Q-Chem Inc. Pittsburgh 
 -------------------------------------------------------
 -------------------------------------------------------
 OpenMP BLAS3 based DFT computing Module                
 Release: version 1.0, May 2013, Q-Chem Inc. Pittsburgh 
 -------------------------------------------------------
 ---------------------------------------
  Cycle       Energy         DIIS Error
 ---------------------------------------
    1    -236.8115729146      1.34E-01
    2    -233.6028141596      1.04E-01
    3    -266.7849250828      8.38E-02
    4    -270.6633164568      8.40E-02
    5    -283.1031057511      4.02E-02
    6    -285.8693757358      2.32E-02
    7    -286.3790851426      1.33E-02
    8    -286.7230912986      7.91E-03
    9    -286.8205419548      2.70E-03
   10    -286.8339276156      1.17E-03
   11    -286.8363065224      1.60E-04
   12    -286.8364544171      7.78E-05
   13    -286.8364776756      3.46E-05
   14    -286.8364824273      8.55E-06
   15    -286.8364832356      3.40E-06
   16    -286.8364833468      1.10E-06
   17    -286.8364833555      5.35E-07
   18    -286.8364833586      1.11E-07
   19    -286.8364833595      2.45E-08
   20    -286.8364833600      9.33E-09 Convergence criterion met
 ---------------------------------------
 <S^2> = 0.7545
 SCF time:  CPU 52.78 s  wall 50.30 s
 SCF   energy in the final basis set = -286.83648336
 Total energy in the final basis set = -286.83648336
 
 --------------------------------------------------------------
 
                    Orbital Energies (a.u.)
 --------------------------------------------------------------
 
 Alpha MOs
 -- Occupied --
-14.317 -10.220 -10.220 -10.215 -10.212 -10.211 -10.194  -0.964
 -0.858  -0.746  -0.657  -0.607  -0.574  -0.540  -0.512  -0.463
 -0.429  -0.412  -0.388  -0.366  -0.328  -0.315  -0.266  -0.256
 -0.174
 -- Virtual --
 -0.002   0.090   0.109   0.136   0.145   0.151   0.156   0.167
  0.182   0.200   0.214   0.243   0.276   0.326   0.369   0.378
  0.485   0.517   0.527   0.550   0.557   0.572   0.587   0.601
  0.617   0.620   0.668   0.677   0.703   0.754   0.776   0.791
  0.816   0.830   0.837   0.842   0.853   0.881   0.905   0.935
  0.946   1.018   1.072   1.098   1.154   1.245   1.280   1.366
  1.438   1.454   1.504   1.544   1.613   1.652   1.671   1.707
  1.796   1.810   1.872   1.885   1.914   1.937   2.002   2.020
  2.059   2.152   2.180   2.227   2.257   2.291   2.367   2.420
  2.473   2.484   2.509   2.523   2.580   2.616   2.619   2.683
  2.734   2.789   2.832   2.929   2.958   3.951   4.131   4.240
  4.356   4.474   4.518   4.656
 
 Beta MOs
 -- Occupied --
-14.317 -10.221 -10.220 -10.216 -10.211 -10.210 -10.181  -0.961
 -0.854  -0.737  -0.646  -0.602  -0.571  -0.538  -0.501  -0.461
 -0.425  -0.406  -0.384  -0.362  -0.317  -0.303  -0.263  -0.254
 -- Virtual --
 -0.037   0.004   0.092   0.114   0.139   0.149   0.155   0.158
  0.171   0.186   0.202   0.218   0.247   0.284   0.329   0.374
  0.387   0.488   0.524   0.542   0.554   0.562   0.576   0.593
  0.613   0.620   0.642   0.671   0.688   0.707   0.758   0.779
  0.794   0.817   0.836   0.838   0.843   0.856   0.884   0.908
  0.943   0.948   1.025   1.080   1.110   1.156   1.252   1.285
  1.369   1.445   1.458   1.511   1.548   1.617   1.656   1.681
  1.713   1.799   1.824   1.881   1.894   1.929   1.942   2.009
  2.029   2.074   2.160   2.194   2.233   2.268   2.297   2.382
  2.431   2.482   2.489   2.518   2.528   2.586   2.620   2.624
  2.687   2.740   2.793   2.840   2.931   2.959   3.953   4.136
  4.253   4.365   4.479   4.521   4.660
 --------------------------------------------------------------
 
          Ground-State Mulliken Net Atomic Charges

     Atom                 Charge (a.u.)    Spin (a.u.)
  --------------------------------------------------------
      1 C                     0.096672       0.006784
      2 C                    -0.192717       0.036626
      3 C                    -0.106775       0.107565
      4 C                    -0.071140       0.952407
      5 C                    -0.099632      -0.043360
      6 N                    -0.337431       0.012527
      7 H                     0.143911       0.003953
      8 H                     0.148684       0.001413
      9 H                     0.149483       0.008609
     10 H                     0.139473      -0.039338
     11 H                     0.141921       0.005406
     12 C                    -0.162009      -0.052960
     13 H                     0.149561       0.000367
  --------------------------------------------------------
  Sum of atomic charges =    -0.000000
  Sum of spin   charges =     1.000000

 -----------------------------------------------------------------
                    Cartesian Multipole Moments
 -----------------------------------------------------------------
    Charge (ESU x 10^10)
                -0.0000
    Dipole Moment (Debye)
         X      -0.9852      Y      -2.6531      Z       0.1408
       Tot       2.8336
    Quadrupole Moments (Debye-Ang)
        XX     -37.4370     XY      -3.3548     YY     -42.7475
        XZ       0.6104     YZ       0.5926     ZZ     -41.0855
    Octopole Moments (Debye-Ang^2)
       XXX      -5.5091    XXY      -7.3774    XYY     -11.1068
       YYY     -33.3090    XXZ       1.9063    XYZ       1.6330
       YYZ       3.5637    XZZ      -9.1296    YZZ      -9.5401
       ZZZ       3.7558
    Hexadecapole Moments (Debye-Ang^3)
      XXXX    -246.4029   XXXY      -9.3504   XXYY     -87.9845
      XYYY     -22.3887   YYYY    -265.5947   XXXZ      27.6994
      XXYZ       9.0507   XYYZ      14.0036   YYYZ      18.1783
      XXZZ     -69.8722   XYZZ      -3.4755   YYZZ     -69.1093
      XZZZ      30.0016   YZZZ      14.2822   ZZZZ    -164.2335
 -----------------------------------------------------------------
 Calculating analytic gradient of the SCF energy
 Gradient of SCF Energy
            1           2           3           4           5           6
    1   0.0004526   0.0001250  -0.0000929   0.0000939  -0.0003680  -0.0001395
    2  -0.0000477   0.0001862  -0.0002147   0.0003664  -0.0001214   0.0001079
    3  -0.0001176  -0.0000547  -0.0001534   0.0004438  -0.0000359   0.0000130
            7           8           9          10          11          12
    1   0.0000531  -0.0001201   0.0000458  -0.0000808  -0.0000017   0.0001374
    2  -0.0000698  -0.0001089   0.0001471   0.0000129   0.0000271  -0.0003408
    3   0.0000693   0.0001238  -0.0000955  -0.0001132  -0.0000506  -0.0000652
           13
    1  -0.0001049
    2   0.0000557
    3   0.0000363
 Max gradient component =       4.526E-04
 RMS gradient           =       1.709E-04
 Gradient time:  CPU 7.92 s  wall 3.60 s
 Geometry Optimization Parameters
   NAtoms,    NIC,     NZ,  NCons,   NDum,   NFix, NCnnct, MaxDiis
       13     128       0       0       0       0       0       0


** GEOMETRY OPTIMIZATION IN DELOCALIZED INTERNAL COORDINATES **
   Searching for a Minimum

   Optimization Cycle:   1

                       Coordinates (Angstroms)
     ATOM                X               Y               Z
      1  C         1.5870793774    0.3753843937   -0.3119053564
      2  C         0.7820645318   -0.8578262721   -0.0688868138
      3  C        -0.5627703348   -0.5794053137   -0.6571102005
      4  C        -0.8325735059    0.7413699577    0.9848007507
      5  C        -0.5271771098    0.9883395933   -0.4982636290
      6  N         0.8917918590    1.4118715522   -0.5988534640
      7  H         2.6718673927    0.4219606112   -0.2217395189
      8  H         1.2115170854   -1.8547515029   -0.0957786751
      9  H        -1.1230205578   -1.1920600677   -1.3575009313
     10  H        -1.7091975256    1.1071311352    1.5074004879
     11  H        -1.1954027774    1.6214851215   -1.0817205603
     12  C        -0.4584914177   -0.6818767224    0.8724562960
     13  H        -0.7356870172   -1.5016224859    1.5271016146
   Point Group: c1    Number of degrees of freedom:    33


   Energy is   -286.836483360


 Attempting to Generate Delocalized Internal Coordinates

 33 Hessian modes will be used to form the next step
  Hessian Eigenvalues:
     0.010947    0.014987    0.015580    0.016906    0.018063    0.020124
     0.022624    0.042551    0.047797    0.053691    0.061481    0.071024
     0.078360    0.087729    0.107066    0.128844    0.144273    0.159885
     0.170467    0.188257    0.223383    0.259715    0.284892    0.301406
     0.316960    0.332063    0.348274    0.348676    0.352586    0.352998
     0.353884    0.354986    0.646417

 Minimum Search - Taking Simple RFO Step
 Searching for Lamda that Minimizes Along All modes
 Value Taken    Lamda =  -0.00000370
 Step Taken.  Stepsize is  0.009847

                             Maximum     Tolerance    Cnvgd?
         Gradient           0.000325      0.000300      NO
         Displacement       0.005619      0.001200      NO
         Energy change     *********      0.000001      NO


 New Cartesian Coordinates Obtained by Inverse Iteration

 Displacement from previous Coordinates is:  0.006173
 ----------------------------------------------------------------
             Standard Nuclear Orientation (Angstroms)
    I     Atom           X                Y                Z
 ----------------------------------------------------------------
    1      C       1.5864758474     0.3754279053    -0.3108371411
    2      C       0.7817579598    -0.8579047680    -0.0689441827
    3      C      -0.5629728495    -0.5793532898    -0.6568950171
    4      C      -0.8331359222     0.7409432655     0.9838151121
    5      C      -0.5266223635     0.9885386715    -0.4987049745
    6      N       0.8921272406     1.4120147593    -0.5986289077
    7      H       2.6712373787     0.4220048645    -0.2213077669
    8      H       1.2117944999    -1.8544632007    -0.0971778695
    9      H      -1.1237709574    -1.1926793651    -1.3563639937
   10      H      -1.7089435718     1.1071593839     1.5074197201
   11      H      -1.1946200516     1.6217930127    -1.0821757855
   12      C      -0.4585304294    -0.6817936219     0.8724834074
   13      H      -0.7347967809    -1.5016876172     1.5273173989
 ----------------------------------------------------------------
 Nuclear Repulsion Energy =   281.7677913739 hartrees
 There are       25 alpha and       24 beta electrons
 Applying Cartesian multipole field
    Component          Value
    ---------          -----
     (2,0,0)        1.00000E-11
     (0,2,0)        2.00000E-11
     (0,0,2)       -3.00000E-10
 Nucleus-field energy     =    -0.0000000222 hartrees
 Requested basis set is 6-31G(d)
 There are 40 shells and 117 basis functions
 A cutoff of  1.0D-14 yielded    811 shell pairs
 There are      7083 function pairs
 Smallest overlap matrix eigenvalue = 1.32E-03
 Guess MOs from SCF MO coefficient file
 Reading MOs from coefficient file
 Mixing HOMO and LUMO in initial guess
 Adding  50% of the LUMO to the HOMO
 Reading MOs from coefficient file
 An unrestricted hybrid HF-DFT SCF calculation will be
 performed using Pulay DIIS extrapolation
 Exchange:     0.2000 Hartree-Fock + 0.0800 Slater + 0.7200 B88
 Correlation:  0.1900 VWN1RPA + 0.8100 LYP
 Using SG-1 standard quadrature grid
 SCF converges when DIIS error is below 1.0E-08
 Geometry optimization detected.  Setting ReadMinima to 0
 Setting SaveMinima to 0
 using 4 threads for integral computing
 -------------------------------------------------------
 OpenMP Integral computing Module                
 Release: version 1.0, May 2013, Q-Chem Inc. Pittsburgh 
 -------------------------------------------------------
 -------------------------------------------------------
 OpenMP BLAS3 based DFT computing Module                
 Release: version 1.0, May 2013, Q-Chem Inc. Pittsburgh 
 -------------------------------------------------------
 ---------------------------------------
  Cycle       Energy         DIIS Error
 ---------------------------------------
    1    -286.8095052958      1.28E-03
    2    -286.8240438523      2.49E-03
    3    -286.8348880793      5.67E-04
    4    -286.8359215994      4.56E-04
    5    -286.8364271651      1.04E-04
    6    -286.8364704326      5.76E-05
    7    -286.8364822258      1.67E-05
    8    -286.8364847509      6.69E-06
    9    -286.8364850680      2.34E-06
   10    -286.8364851966      7.05E-07
   11    -286.8364852394      2.97E-07
   12    -286.8364852519      1.48E-07
   13    -286.8364852577      5.72E-08
   14    -286.8364852605      2.94E-08
   15    -286.8364852619      1.36E-08
   16    -286.8364852625      4.66E-09 Convergence criterion met
 ---------------------------------------
 <S^2> = 0.7545
 SCF time:  CPU 41.64 s  wall 32.79 s
 SCF   energy in the final basis set = -286.83648526
 Total energy in the final basis set = -286.83648526
 
 --------------------------------------------------------------
 
                    Orbital Energies (a.u.)
 --------------------------------------------------------------
 
 Alpha MOs
 -- Occupied --
-14.317 -10.220 -10.220 -10.215 -10.212 -10.211 -10.194  -0.964
 -0.858  -0.746  -0.657  -0.608  -0.574  -0.540  -0.512  -0.463
 -0.429  -0.412  -0.388  -0.366  -0.329  -0.315  -0.266  -0.256
 -0.174
 -- Virtual --
 -0.002   0.090   0.109   0.136   0.145   0.151   0.156   0.167
  0.182   0.200   0.214   0.244   0.277   0.326   0.369   0.378
  0.485   0.517   0.527   0.550   0.557   0.573   0.587   0.601
  0.617   0.620   0.668   0.677   0.704   0.754   0.776   0.791
  0.816   0.830   0.837   0.841   0.853   0.881   0.905   0.935
  0.946   1.018   1.072   1.098   1.154   1.245   1.280   1.366
  1.438   1.454   1.504   1.544   1.613   1.652   1.671   1.707
  1.796   1.810   1.872   1.886   1.914   1.937   2.002   2.021
  2.060   2.153   2.181   2.228   2.257   2.291   2.368   2.420
  2.474   2.484   2.509   2.523   2.580   2.616   2.619   2.683
  2.734   2.789   2.832   2.929   2.959   3.951   4.131   4.240
  4.356   4.475   4.518   4.656
 
 Beta MOs
 -- Occupied --
-14.317 -10.221 -10.220 -10.216 -10.211 -10.210 -10.181  -0.961
 -0.854  -0.737  -0.646  -0.602  -0.571  -0.538  -0.501  -0.461
 -0.425  -0.406  -0.384  -0.362  -0.317  -0.303  -0.263  -0.254
 -- Virtual --
 -0.036   0.004   0.092   0.114   0.139   0.149   0.155   0.158
  0.171   0.186   0.202   0.218   0.247   0.284   0.329   0.374
  0.387   0.488   0.524   0.542   0.553   0.562   0.576   0.593
  0.613   0.620   0.642   0.671   0.688   0.707   0.758   0.779
  0.795   0.817   0.836   0.838   0.843   0.856   0.884   0.908
  0.943   0.948   1.025   1.080   1.111   1.156   1.252   1.285
  1.369   1.445   1.458   1.511   1.548   1.617   1.656   1.681
  1.713   1.799   1.824   1.881   1.894   1.929   1.942   2.009
  2.029   2.074   2.160   2.195   2.233   2.268   2.297   2.382
  2.432   2.482   2.489   2.518   2.528   2.586   2.620   2.625
  2.687   2.740   2.793   2.840   2.931   2.960   3.954   4.137
  4.253   4.365   4.479   4.522   4.659
 --------------------------------------------------------------
 
          Ground-State Mulliken Net Atomic Charges

     Atom                 Charge (a.u.)    Spin (a.u.)
  --------------------------------------------------------
      1 C                     0.096658       0.006673
      2 C                    -0.192590       0.036737
      3 C                    -0.106734       0.107699
      4 C                    -0.071184       0.952348
      5 C                    -0.099784      -0.043416
      6 N                    -0.337296       0.012653
      7 H                     0.143792       0.003955
      8 H                     0.148713       0.001429
      9 H                     0.149514       0.008571
     10 H                     0.139470      -0.039466
     11 H                     0.141865       0.005425
     12 C                    -0.162010      -0.052978
     13 H                     0.149585       0.000369
  --------------------------------------------------------
  Sum of atomic charges =     0.000000
  Sum of spin   charges =     1.000000

 -----------------------------------------------------------------
                    Cartesian Multipole Moments
 -----------------------------------------------------------------
    Charge (ESU x 10^10)
                 0.0000
    Dipole Moment (Debye)
         X      -0.9850      Y      -2.6545      Z       0.1410
       Tot       2.8348
    Quadrupole Moments (Debye-Ang)
        XX     -37.4442     XY      -3.3544     YY     -42.7417
        XZ       0.6097     YZ       0.5929     ZZ     -41.0825
    Octopole Moments (Debye-Ang^2)
       XXX      -5.5122    XXY      -7.3864    XYY     -11.1017
       YYY     -33.3085    XXZ       1.9048    XYZ       1.6330
       YYZ       3.5586    XZZ      -9.1219    YZZ      -9.5364
       ZZZ       3.7672
    Hexadecapole Moments (Debye-Ang^3)
      XXXX    -246.4166   XXXY      -9.3733   XXYY     -87.9753
      XYYY     -22.4077   YYYY    -265.5783   XXXZ      27.6697
      XXYZ       9.0682   XYYZ      13.9879   YYYZ      18.1950
      XXZZ     -69.8473   XYZZ      -3.4869   YYZZ     -69.0824
      XZZZ      29.9551   YZZZ      14.2905   ZZZZ    -164.1275
 -----------------------------------------------------------------
 Calculating analytic gradient of the SCF energy
 Gradient of SCF Energy
            1           2           3           4           5           6
    1  -0.0000352   0.0000019  -0.0000962   0.0000490   0.0000190   0.0001077
    2   0.0000991   0.0000923  -0.0000909   0.0000455  -0.0001020   0.0000433
    3   0.0001189  -0.0000774   0.0001380   0.0000960  -0.0001037  -0.0000158
            7           8           9          10          11          12
    1  -0.0000192  -0.0000939  -0.0000021  -0.0000715   0.0000378   0.0001106
    2  -0.0000158  -0.0000493   0.0000762  -0.0000015   0.0000174  -0.0001379
    3  -0.0000207   0.0000224  -0.0000619  -0.0000639  -0.0000114  -0.0000633
           13
    1  -0.0000079
    2   0.0000236
    3   0.0000429
 Max gradient component =       1.380E-04
 RMS gradient           =       7.097E-05
 Gradient time:  CPU 7.91 s  wall 5.75 s
 Geometry Optimization Parameters
   NAtoms,    NIC,     NZ,  NCons,   NDum,   NFix, NCnnct, MaxDiis
       13     128       0       0       0       0       0       0

 Cartesian Hessian Update
 Hessian Updated using BFGS Update


** GEOMETRY OPTIMIZATION IN DELOCALIZED INTERNAL COORDINATES **
   Searching for a Minimum

   Optimization Cycle:   2

                       Coordinates (Angstroms)
     ATOM                X               Y               Z
      1  C         1.5864758474    0.3754279053   -0.3108371411
      2  C         0.7817579598   -0.8579047680   -0.0689441827
      3  C        -0.5629728495   -0.5793532898   -0.6568950171
      4  C        -0.8331359222    0.7409432655    0.9838151121
      5  C        -0.5266223635    0.9885386715   -0.4987049745
      6  N         0.8921272406    1.4120147593   -0.5986289077
      7  H         2.6712373787    0.4220048645   -0.2213077669
      8  H         1.2117944999   -1.8544632007   -0.0971778695
      9  H        -1.1237709574   -1.1926793651   -1.3563639937
     10  H        -1.7089435718    1.1071593839    1.5074197201
     11  H        -1.1946200516    1.6217930127   -1.0821757855
     12  C        -0.4585304294   -0.6817936219    0.8724834074
     13  H        -0.7347967809   -1.5016876172    1.5273173989
   Point Group: c1    Number of degrees of freedom:    33


   Energy is   -286.836485262

 Hessian Updated using BFGS Update

 33 Hessian modes will be used to form the next step
  Hessian Eigenvalues:
     0.010969    0.013326    0.015233    0.016857    0.018257    0.020325
     0.026063    0.042304    0.047554    0.053763    0.056497    0.066720
     0.078106    0.086863    0.109923    0.131689    0.144915    0.160057
     0.171018    0.193172    0.228453    0.258325    0.291881    0.301528
     0.314048    0.326189    0.348300    0.350019    0.352593    0.352918
     0.353946    0.355416    0.658089

 Minimum Search - Taking Simple RFO Step
 Searching for Lamda that Minimizes Along All modes
 Value Taken    Lamda =  -0.00000108
 Step Taken.  Stepsize is  0.007217

                             Maximum     Tolerance    Cnvgd?
         Gradient           0.000104      0.000300     YES
         Displacement       0.002656      0.001200      NO
         Energy change     -0.000002      0.000001      NO


 New Cartesian Coordinates Obtained by Inverse Iteration

 Displacement from previous Coordinates is:  0.004824
 ----------------------------------------------------------------
             Standard Nuclear Orientation (Angstroms)
    I     Atom           X                Y                Z
 ----------------------------------------------------------------
    1      C       1.5862167321     0.3752484457    -0.3110432178
    2      C       0.7817497375    -0.8579963142    -0.0686461741
    3      C      -0.5626767796    -0.5793514462    -0.6572232044
    4      C      -0.8331545171     0.7408410072     0.9835204086
    5      C      -0.5267377577     0.9886603279    -0.4988024863
    6      N       0.8919135618     1.4118661882    -0.5987913352
    7      H       2.6709340366     0.4221547241    -0.2209525076
    8      H       1.2124765558    -1.8542205295    -0.0970044697
    9      H      -1.1233934872    -1.1933047692    -1.3562425719
   10      H      -1.7077709260     1.1078635516     1.5084557950
   11      H      -1.1949331404     1.6218615707    -1.0820825965
   12      C      -0.4590759748    -0.6817606617     0.8721791246
   13      H      -0.7355480409    -1.5018620945     1.5266332353
 ----------------------------------------------------------------
 Nuclear Repulsion Energy =   281.7784456603 hartrees
 There are       25 alpha and       24 beta electrons
 Applying Cartesian multipole field
    Component          Value
    ---------          -----
     (2,0,0)        1.00000E-11
     (0,2,0)        2.00000E-11
     (0,0,2)       -3.00000E-10
 Nucleus-field energy     =    -0.0000000222 hartrees
 Requested basis set is 6-31G(d)
 There are 40 shells and 117 basis functions
 A cutoff of  1.0D-14 yielded    811 shell pairs
 There are      7083 function pairs
 Smallest overlap matrix eigenvalue = 1.31E-03
 Guess MOs from SCF MO coefficient file
 Reading MOs from coefficient file
 Mixing HOMO and LUMO in initial guess
 Adding  50% of the LUMO to the HOMO
 Reading MOs from coefficient file
 An unrestricted hybrid HF-DFT SCF calculation will be
 performed using Pulay DIIS extrapolation
 Exchange:     0.2000 Hartree-Fock + 0.0800 Slater + 0.7200 B88
 Correlation:  0.1900 VWN1RPA + 0.8100 LYP
 Using SG-1 standard quadrature grid
 SCF converges when DIIS error is below 1.0E-08
 Geometry optimization detected.  Setting ReadMinima to 0
 Setting SaveMinima to 0
 using 4 threads for integral computing
 -------------------------------------------------------
 OpenMP Integral computing Module                
 Release: version 1.0, May 2013, Q-Chem Inc. Pittsburgh 
 -------------------------------------------------------
 -------------------------------------------------------
 OpenMP BLAS3 based DFT computing Module                
 Release: version 1.0, May 2013, Q-Chem Inc. Pittsburgh 
 -------------------------------------------------------
 ---------------------------------------
  Cycle       Energy         DIIS Error
 ---------------------------------------
    1    -286.8088765244      1.28E-03
    2    -286.8240470933      2.49E-03
    3    -286.8348876717      5.67E-04
    4    -286.8359224197      4.56E-04
    5    -286.8364277947      1.05E-04
    6    -286.8364711139      5.77E-05
    7    -286.8364828967      1.67E-05
    8    -286.8364854305      6.69E-06
    9    -286.8364857485      2.34E-06
   10    -286.8364858777      7.06E-07
   11    -286.8364859209      2.97E-07
   12    -286.8364859336      1.48E-07
   13    -286.8364859394      5.74E-08
   14    -286.8364859423      2.96E-08
   15    -286.8364859436      1.38E-08
   16    -286.8364859442      4.68E-09 Convergence criterion met
 ---------------------------------------
 <S^2> = 0.7545
 SCF time:  CPU 41.77 s  wall 32.51 s
 SCF   energy in the final basis set = -286.83648594
 Total energy in the final basis set = -286.83648594
 
 --------------------------------------------------------------
 
                    Orbital Energies (a.u.)
 --------------------------------------------------------------
 
 Alpha MOs
 -- Occupied --
-14.317 -10.220 -10.220 -10.215 -10.212 -10.211 -10.194  -0.964
 -0.858  -0.746  -0.657  -0.608  -0.574  -0.540  -0.512  -0.463
 -0.429  -0.412  -0.388  -0.366  -0.329  -0.315  -0.266  -0.256
 -0.174
 -- Virtual --
 -0.002   0.090   0.109   0.136   0.145   0.151   0.156   0.167
  0.182   0.200   0.214   0.244   0.277   0.326   0.369   0.379
  0.485   0.517   0.527   0.550   0.557   0.573   0.587   0.601
  0.617   0.620   0.668   0.677   0.704   0.754   0.776   0.791
  0.816   0.830   0.837   0.842   0.853   0.881   0.905   0.935
  0.946   1.018   1.072   1.099   1.154   1.245   1.280   1.366
  1.438   1.454   1.504   1.544   1.613   1.652   1.671   1.707
  1.796   1.810   1.872   1.886   1.914   1.937   2.002   2.020
  2.060   2.153   2.181   2.228   2.257   2.291   2.368   2.420
  2.474   2.485   2.510   2.523   2.580   2.616   2.619   2.683
  2.734   2.789   2.832   2.929   2.959   3.951   4.131   4.240
  4.356   4.475   4.518   4.656
 
 Beta MOs
 -- Occupied --
-14.317 -10.221 -10.220 -10.216 -10.211 -10.210 -10.181  -0.961
 -0.854  -0.737  -0.646  -0.602  -0.571  -0.538  -0.501  -0.461
 -0.425  -0.406  -0.384  -0.362  -0.317  -0.303  -0.263  -0.254
 -- Virtual --
 -0.036   0.004   0.092   0.114   0.139   0.149   0.155   0.158
  0.171   0.186   0.202   0.219   0.247   0.284   0.329   0.374
  0.387   0.487   0.524   0.542   0.554   0.562   0.576   0.593
  0.613   0.620   0.642   0.671   0.688   0.707   0.758   0.779
  0.795   0.817   0.836   0.838   0.843   0.856   0.884   0.908
  0.943   0.948   1.025   1.080   1.111   1.156   1.252   1.285
  1.369   1.445   1.458   1.511   1.548   1.617   1.656   1.681
  1.713   1.799   1.824   1.881   1.894   1.929   1.942   2.009
  2.029   2.074   2.160   2.195   2.234   2.268   2.298   2.382
  2.432   2.482   2.489   2.519   2.528   2.586   2.620   2.625
  2.687   2.741   2.794   2.840   2.931   2.960   3.954   4.137
  4.253   4.365   4.479   4.522   4.659
 --------------------------------------------------------------
 
          Ground-State Mulliken Net Atomic Charges

     Atom                 Charge (a.u.)    Spin (a.u.)
  --------------------------------------------------------
      1 C                     0.096605       0.006745
      2 C                    -0.192665       0.036933
      3 C                    -0.106784       0.107736
      4 C                    -0.071194       0.952344
      5 C                    -0.099759      -0.043514
      6 N                    -0.337274       0.012658
      7 H                     0.143764       0.003963
      8 H                     0.148713       0.001441
      9 H                     0.149512       0.008540
     10 H                     0.139485      -0.039533
     11 H                     0.141875       0.005465
     12 C                    -0.161854      -0.053163
     13 H                     0.149576       0.000384
  --------------------------------------------------------
  Sum of atomic charges =    -0.000000
  Sum of spin   charges =     1.000000

 -----------------------------------------------------------------
                    Cartesian Multipole Moments
 -----------------------------------------------------------------
    Charge (ESU x 10^10)
                -0.0000
    Dipole Moment (Debye)
         X      -0.9857      Y      -2.6533      Z       0.1431
       Tot       2.8341
    Quadrupole Moments (Debye-Ang)
        XX     -37.4468     XY      -3.3557     YY     -42.7371
        XZ       0.6088     YZ       0.5966     ZZ     -41.0810
    Octopole Moments (Debye-Ang^2)
       XXX      -5.5018    XXY      -7.3877    XYY     -11.1018
       YYY     -33.2973    XXZ       1.9136    XYZ       1.6325
       YYZ       3.5681    XZZ      -9.1218    YZZ      -9.5270
       ZZZ       3.7927
    Hexadecapole Moments (Debye-Ang^3)
      XXXX    -246.4129   XXXY      -9.3637   XXYY     -87.9565
      XYYY     -22.3975   YYYY    -265.5613   XXXZ      27.6809
      XXYZ       9.0684   XYYZ      13.9838   YYYZ      18.2048
      XXZZ     -69.8377   XYZZ      -3.4913   YYZZ     -69.0731
      XZZZ      29.9424   YZZZ      14.3088   ZZZZ    -164.1092
 -----------------------------------------------------------------
 Calculating analytic gradient of the SCF energy
 Gradient of SCF Energy
            1           2           3           4           5           6
    1  -0.0001232  -0.0000103   0.0000442   0.0001141   0.0000132   0.0000487
    2   0.0000044   0.0000267   0.0000308  -0.0000019   0.0000154  -0.0000454
    3  -0.0000169   0.0000511   0.0000967   0.0000013  -0.0000488   0.0000127
            7           8           9          10          11          12
    1  -0.0000177  -0.0000322  -0.0000081  -0.0000569   0.0000271  -0.0000004
    2   0.0000005  -0.0000039   0.0000221  -0.0000324   0.0000115  -0.0000432
    3   0.0000136   0.0000065  -0.0000353  -0.0000488   0.0000132  -0.0000592
           13
    1   0.0000015
    2   0.0000155
    3   0.0000139
 Max gradient component =       1.232E-04
 RMS gradient           =       4.190E-05
 Gradient time:  CPU 7.98 s  wall 2.30 s
 Geometry Optimization Parameters
   NAtoms,    NIC,     NZ,  NCons,   NDum,   NFix, NCnnct, MaxDiis
       13     128       0       0       0       0       0       0

 Cartesian Hessian Update
 Hessian Updated using BFGS Update


** GEOMETRY OPTIMIZATION IN DELOCALIZED INTERNAL COORDINATES **
   Searching for a Minimum

   Optimization Cycle:   3

                       Coordinates (Angstroms)
     ATOM                X               Y               Z
      1  C         1.5862167321    0.3752484457   -0.3110432178
      2  C         0.7817497375   -0.8579963142   -0.0686461741
      3  C        -0.5626767796   -0.5793514462   -0.6572232044
      4  C        -0.8331545171    0.7408410072    0.9835204086
      5  C        -0.5267377577    0.9886603279   -0.4988024863
      6  N         0.8919135618    1.4118661882   -0.5987913352
      7  H         2.6709340366    0.4221547241   -0.2209525076
      8  H         1.2124765558   -1.8542205295   -0.0970044697
      9  H        -1.1233934872   -1.1933047692   -1.3562425719
     10  H        -1.7077709260    1.1078635516    1.5084557950
     11  H        -1.1949331404    1.6218615707   -1.0820825965
     12  C        -0.4590759748   -0.6817606617    0.8721791246
     13  H        -0.7355480409   -1.5018620945    1.5266332353
   Point Group: c1    Number of degrees of freedom:    33


   Energy is   -286.836485944

 Hessian Updated using BFGS Update

 33 Hessian modes will be used to form the next step
  Hessian Eigenvalues:
     0.007230    0.011658    0.015255    0.016535    0.018328    0.020278
     0.030204    0.042524    0.047191    0.053950    0.059783    0.066230
     0.078636    0.087365    0.113860    0.130781    0.144903    0.160301
     0.170648    0.186721    0.228109    0.258785    0.288831    0.301714
     0.317826    0.345193    0.348577    0.349962    0.352808    0.353767
     0.354612    0.355617    0.654581

 Minimum Search - Taking Simple RFO Step
 Searching for Lamda that Minimizes Along All modes
 Value Taken    Lamda =   0.00000000
 Step Taken.  Stepsize is  0.007621

                             Maximum     Tolerance    Cnvgd?
         Gradient           0.000084      0.000300     YES
         Displacement       0.003602      0.001200      NO
         Energy change     -0.000001      0.000001     YES


                       Distance Matrix (Angstroms)
             C (  1)   C (  2)   C (  3)   C (  4)   C (  5)   N (  6)
   C (  2)  1.492252
   C (  3)  2.376730  1.493837
   C (  4)  2.768196  2.504247  2.123230
   C (  5)  2.208190  2.303761  1.576404  1.533814
   N (  6)  1.280403  2.333552  2.466616  2.435127  1.483803
   H (  7)  1.089462  2.287138  3.413149  3.718999  3.259330  2.070557
   H (  8)  2.270688  1.085722  2.256171  3.476562  3.356826  3.319921
   H (  9)  3.300725  2.323770  1.086264  3.049533  2.419127  3.379661
   H ( 10)  3.833752  3.542537  2.974576  1.084074  2.331981  3.360248
   H ( 11)  3.143778  3.329268  2.329290  2.274598  1.089791  2.152347
   C ( 12)  2.588533  1.567118  1.536324  1.475170  2.162053  2.893475
   H ( 13)  3.505879  2.293833  2.377002  2.309592  3.216939  3.956750
             H (  7)   H (  8)   H (  9)   H ( 10)   H ( 11)   C ( 12)
   H (  8)  2.706353
   H (  9)  4.277326  2.734736
   H ( 10)  4.757532  4.458620  3.720668
   H ( 11)  4.138329  4.341560  2.829389  2.690369
   C ( 12)  3.494357  2.260103  2.380936  2.273069  3.109228
   H ( 13)  4.284859  2.560304  2.925167  2.784998  4.095617  1.085041

 
 Final energy is   -286.836485944214     


 ******************************
 **  OPTIMIZATION CONVERGED  **
 ******************************

                       Coordinates (Angstroms)
     ATOM                X               Y               Z
      1  C         1.5862167321    0.3752484457   -0.3110432178
      2  C         0.7817497375   -0.8579963142   -0.0686461741
      3  C        -0.5626767796   -0.5793514462   -0.6572232044
      4  C        -0.8331545171    0.7408410072    0.9835204086
      5  C        -0.5267377577    0.9886603279   -0.4988024863
      6  N         0.8919135618    1.4118661882   -0.5987913352
      7  H         2.6709340366    0.4221547241   -0.2209525076
      8  H         1.2124765558   -1.8542205295   -0.0970044697
      9  H        -1.1233934872   -1.1933047692   -1.3562425719
     10  H        -1.7077709260    1.1078635516    1.5084557950
     11  H        -1.1949331404    1.6218615707   -1.0820825965
     12  C        -0.4590759748   -0.6817606617    0.8721791246
     13  H        -0.7355480409   -1.5018620945    1.5266332353

Z-matrix Print:
$molecule
0 2
N 
C  1 1.280403
H  2 1.089462 1 121.575291
C  1 1.483803 2 105.806384 3 -174.531297 0
H  4 1.089791 1 112.608483 2 -157.134592 0
C  2 1.492252 1 114.409767 3 177.918547 0
H  6 1.085722 2 122.696937 1 162.016079 0
C  6 1.493837 2 105.487127 1 17.282753 0
H  8 1.086264 6 127.783423 2 128.799994 0
C  4 1.533814 1 107.590375 2 69.448203 0
H  10 1.084074 4 125.060629 1 133.169282 0
C  10 1.475170 4 91.845841 1 -91.069538 0
H  12 1.085041 10 128.225101 4 -159.614834 0
$end

 
 --------------------------------------------------------------
 
                    Orbital Energies (a.u.)
 --------------------------------------------------------------
 
 Alpha MOs
 -- Occupied --
-14.317 -10.220 -10.220 -10.215 -10.212 -10.211 -10.194  -0.964
 -0.858  -0.746  -0.657  -0.608  -0.574  -0.540  -0.512  -0.463
 -0.429  -0.412  -0.388  -0.366  -0.329  -0.315  -0.266  -0.256
 -0.174
 -- Virtual --
 -0.002   0.090   0.109   0.136   0.145   0.151   0.156   0.167
  0.182   0.200   0.214   0.244   0.277   0.326   0.369   0.379
  0.485   0.517   0.527   0.550   0.557   0.573   0.587   0.601
  0.617   0.620   0.668   0.677   0.704   0.754   0.776   0.791
  0.816   0.830   0.837   0.842   0.853   0.881   0.905   0.935
  0.946   1.018   1.072   1.099   1.154   1.245   1.280   1.366
  1.438   1.454   1.504   1.544   1.613   1.652   1.671   1.707
  1.796   1.810   1.872   1.886   1.914   1.937   2.002   2.020
  2.060   2.153   2.181   2.228   2.257   2.291   2.368   2.420
  2.474   2.485   2.510   2.523   2.580   2.616   2.619   2.683
  2.734   2.789   2.832   2.929   2.959   3.951   4.131   4.240
  4.356   4.475   4.518   4.656
 
 Beta MOs
 -- Occupied --
-14.317 -10.221 -10.220 -10.216 -10.211 -10.210 -10.181  -0.961
 -0.854  -0.737  -0.646  -0.602  -0.571  -0.538  -0.501  -0.461
 -0.425  -0.406  -0.384  -0.362  -0.317  -0.303  -0.263  -0.254
 -- Virtual --
 -0.036   0.004   0.092   0.114   0.139   0.149   0.155   0.158
  0.171   0.186   0.202   0.219   0.247   0.284   0.329   0.374
  0.387   0.487   0.524   0.542   0.554   0.562   0.576   0.593
  0.613   0.620   0.642   0.671   0.688   0.707   0.758   0.779
  0.795   0.817   0.836   0.838   0.843   0.856   0.884   0.908
  0.943   0.948   1.025   1.080   1.111   1.156   1.252   1.285
  1.369   1.445   1.458   1.511   1.548   1.617   1.656   1.681
  1.713   1.799   1.824   1.881   1.894   1.929   1.942   2.009
  2.029   2.074   2.160   2.195   2.234   2.268   2.298   2.382
  2.432   2.482   2.489   2.519   2.528   2.586   2.620   2.625
  2.687   2.741   2.794   2.840   2.931   2.960   3.954   4.137
  4.253   4.365   4.479   4.522   4.659
 --------------------------------------------------------------
 
          Ground-State Mulliken Net Atomic Charges

     Atom                 Charge (a.u.)    Spin (a.u.)
  --------------------------------------------------------
      1 C                     0.096605       0.006745
      2 C                    -0.192665       0.036933
      3 C                    -0.106784       0.107736
      4 C                    -0.071194       0.952344
      5 C                    -0.099759      -0.043514
      6 N                    -0.337274       0.012658
      7 H                     0.143764       0.003963
      8 H                     0.148713       0.001441
      9 H                     0.149512       0.008540
     10 H                     0.139485      -0.039533
     11 H                     0.141875       0.005465
     12 C                    -0.161854      -0.053163
     13 H                     0.149576       0.000384
  --------------------------------------------------------
  Sum of atomic charges =    -0.000000
  Sum of spin   charges =     1.000000

 -----------------------------------------------------------------
                    Cartesian Multipole Moments
 -----------------------------------------------------------------
    Charge (ESU x 10^10)
                -0.0000
    Dipole Moment (Debye)
         X      -0.9857      Y      -2.6533      Z       0.1431
       Tot       2.8341
    Quadrupole Moments (Debye-Ang)
        XX     -37.4468     XY      -3.3557     YY     -42.7371
        XZ       0.6088     YZ       0.5966     ZZ     -41.0810
    Octopole Moments (Debye-Ang^2)
       XXX      -5.5018    XXY      -7.3877    XYY     -11.1018
       YYY     -33.2973    XXZ       1.9136    XYZ       1.6325
       YYZ       3.5681    XZZ      -9.1218    YZZ      -9.5270
       ZZZ       3.7927
    Hexadecapole Moments (Debye-Ang^3)
      XXXX    -246.4129   XXXY      -9.3637   XXYY     -87.9565
      XYYY     -22.3975   YYYY    -265.5613   XXXZ      27.6809
      XXYZ       9.0684   XYYZ      13.9838   YYYZ      18.2048
      XXZZ     -69.8377   XYZZ      -3.4913   YYZZ     -69.0731
      XZZZ      29.9424   YZZZ      14.3088   ZZZZ    -164.1092
 -----------------------------------------------------------------
Archival summary:
1\1\c8-66\OPT\ProcedureUnspecified\6-31G*\166(2)\hpark21\WedMar211:46:032022WedMar211:46:032022\0\\#,OPT,ProcedureUnspecified,6-31G*,\\0,2\N\C,1,1.2804\H,2,1.08946,1,121.575\C,1,1.4838,2,105.806,3,-174.531,0\H,4,1.08979,1,112.608,2,-157.135,0\C,2,1.49225,1,114.41,3,177.919,0\H,6,1.08572,2,122.697,1,162.016,0\C,6,1.49384,2,105.487,1,17.2828,0\H,8,1.08626,6,127.783,2,128.8,0\C,4,1.53381,1,107.59,2,69.4482,0\H,10,1.08407,4,125.061,1,133.169,0\C,10,1.47517,4,91.8458,1,-91.0695,0\H,12,1.08504,10,128.225,4,-159.615,0\\\@

 Total job time:  154.29s(wall), 164.32s(cpu) 
 Wed Mar  2 11:46:03 2022

        *************************************************************
        *                                                           *
        *  Thank you very much for using Q-Chem.  Have a nice day.  *
        *                                                           *
        *************************************************************


