
Running Job 1 of 1 qcts2.in
qchem qcts2.in_25115.0 ./qcts2.d/ 1
/home/leeping/opt/qchem/5.0.2-openmp/exe/qcprog.exe_s qcts2.in_25115.0 ./qcts2.d/
Check license passed

                  Welcome to Q-Chem
     A Quantum Leap Into The Future Of Chemistry


 Q-Chem 5.0, Q-Chem, Inc., Pleasanton, CA (2017)

 Yihan Shao,  Zhengting Gan,  E. Epifanovsky,  A. T. B. Gilbert,  M. Wormit,  
 J. Kussmann,  A. W. Lange,  A. Behn,  Jia Deng,  Xintian Feng,  D. Ghosh,  
 M. Goldey,  P. R. Horn,  L. D. Jacobson,  I. Kaliman,  T. Kus,  A. Landau,  
 Jie Liu,  E. I. Proynov,  R. M. Richard,  R. P. Steele,  E. J. Sundstrom,  
 H. L. Woodcock III,  P. M. Zimmerman,  D. Zuev,  B. Albrecht,  E. Alguire,  
 S. A. Baeppler,  D. Barton,  Z. Benda,  Y. A. Bernard,  E. J. Berquist,  
 K. B. Bravaya,  H. Burton,  D. Casanova,  Chun-Min Chang,  Yunqing Chen,  
 A. Chien,  K. D. Closser,  M. P. Coons,  S. Dasgupta,  A. L. Dempwolff,  
 M. Diedenhofen,  Hainam Do,  R. G. Edgar,  Po-Tung Fang,  S. Fatehi,  
 Qingguo Feng,  J. Fosso-Tande,  Qinghui Ge,  A. Ghysels,  G. Gidofalvi,  
 J. Gomes,  J. Gonthier,  A. Gunina,  M. W. D. Hanson-Heine,  
 P. H. P. Harbach,  A. W. Hauser,  J. E. Herr,  E. G. Hohenstein,  
 Z. C. Holden,  Kerwin Hui,  T.-C. Jagau,  Hyunjun Ji,  B. Kaduk,  
 K. Khistyaev,  Jaehoon Kim,  P. Klunzinger,  K. Koh,  D. Kosenkov,  
 L. Koulias,  T. Kowalczyk,  C. M. Krauter,  A. Kunitsa,  Ka Un Lao,  
 A. Laurent,  K. V. Lawler,  Joonho Lee,  D. Lefrancois,  S. Lehtola,  
 D. S. Levine,  Yi-Pei Li,  You-Sheng Lin,  Fenglai Liu,  E. Livshits,  
 A. Luenser,  P. Manohar,  E. Mansoor,  S. F. Manzer,  Shan-Ping Mao,  
 Yuezhi Mao,  N. Mardirossian,  A. V. Marenich,  T. Markovich,  
 L. A. Martinez-Martinez,  S. A. Maurer,  N. J. Mayhall,  S. C. McKenzie,  
 J.-M. Mewes,  A. F. Morrison,  J. W. Mullinax,  K. Nanda,  
 T. S. Nguyen-Beck,  R. Olivares-Amaya,  J. A. Parkhill,  T. M. Perrine,  
 F. Plasser,  S. Prager,  A. Prociuk,  E. Ramos,  D. R. Rehn,  F. Rob,  
 M. Schneider,  N. Sergueev,  S. M. Sharada,  S. Sharma,  D. W. Small,  
 T. Stauch,  T. Stein,  Yu-Chuan Su,  A. J. W. Thom,  A. Tkatchenko,  
 T. Tsuchimochi,  L. Vogt,  O. Vydrov,  M. A. Watson,  J. Wenzel,  
 M. de Wergifosse,  T. A. Wesolowski,  A. White,  J. Witte,  A. Yamada,  
 Jun Yang,  K. Yao,  S. Yeganeh,  S. R. Yost,  Zhi-Qiang You,  A. Zech,  
 Igor Ying Zhang,  Xing Zhang,  Yan Zhao,  Ying Zhu,  B. R. Brooks,  
 G. K. L. Chan,  C. J. Cramer,  M. S. Gordon,  W. J. Hehre,  A. Klamt,  
 M. W. Schmidt,  C. D. Sherrill,  D. G. Truhlar,  A. Aspuru-Guzik,  R. Baer,  
 A. T. Bell,  N. A. Besley,  Jeng-Da Chai,  R. A. DiStasio Jr.,  A. Dreuw,  
 B. D. Dunietz,  T. R. Furlani,  Chao-Ping Hsu,  Yousung Jung,  Jing Kong,  
 D. S. Lambrecht,  WanZhen Liang,  C. Ochsenfeld,  V. A. Rassolov,  
 L. V. Slipchenko,  J. E. Subotnik,  T. Van Voorhis,  J. M. Herbert,  
 A. I. Krylov,  P. M. W. Gill,  M. Head-Gordon

 Contributors to earlier versions of Q-Chem not listed above: 
 R. D. Adamson,  B. Austin,  J. Baker,  G. J. O. Beran,  K. Brandhorst,  
 S. T. Brown,  E. F. C. Byrd,  A. K. Chakraborty,  C.-L. Cheng,  
 Siu Hung Chien,  D. M. Chipman,  D. L. Crittenden,  H. Dachsel,  
 R. J. Doerksen,  A. D. Dutoi,  L. Fusti-Molnar,  W. A. Goddard III,  
 A. Golubeva-Zadorozhnaya,  S. R. Gwaltney,  G. Hawkins,  A. Heyden,  
 S. Hirata,  G. Kedziora,  F. J. Keil,  C. Kelley,  Jihan Kim,  R. A. King,  
 R. Z. Khaliullin,  P. P. Korambath,  W. Kurlancheek,  A. M. Lee,  M. S. Lee,  
 S. V. Levchenko,  Ching Yeh Lin,  D. Liotard,  R. C. Lochan,  I. Lotan,  
 P. E. Maslen,  N. Nair,  D. P. O'Neill,  D. Neuhauser,  E. Neuscamman,  
 C. M. Oana,  R. Olson,  B. Peters,  R. Peverati,  P. A. Pieniazek,  
 Y. M. Rhee,  J. Ritchie,  M. A. Rohrdanz,  E. Rosta,  N. J. Russ,  
 H. F. Schaefer III,  N. E. Schultz,  N. Shenvi,  A. C. Simmonett,  A. Sodt,  
 D. Stuck,  K. S. Thanthiriwatte,  V. Vanovschi,  Tao Wang,  A. Warshel,  
 C. F. Williams,  Q. Wu,  X. Xu,  W. Zhang

 Please cite Q-Chem as follows:
 Y. Shao et al., Mol. Phys. 113, 184-215 (2015)
 DOI: 10.1080/00268976.2014.952696

 Q-Chem 5.0.2 for Intel X86 EM64T Linux

 Parts of Q-Chem use Armadillo 5.200.1 (Boston Tea Smuggler).
 http://arma.sourceforge.net/

 Q-Chem begins on Wed Mar  2 13:35:44 2022  

Host: 
0

     Scratch files written to ./qcts2.d//
 Dec517 15110_ 26548  26544 5633   
Processing $rem in /home/leeping/opt/qchem/5.0.2-openmp/config/preferences.
 MEM_STATIC 2000
 MEM_TOTAL  8000
 SYMMETRY   OFF
 SYM_IGNORE TRUE 

Checking the input file for inconsistencies... 	...done.

--------------------------------------------------------------
User input:
--------------------------------------------------------------
$molecule
0 2
C        1.6322517459    0.3543648530   -0.3465257814
C        0.7808889647   -0.8318538957   -0.0283560322
C       -0.5700725752   -0.4158196605   -0.5324487334
C       -0.9438878130    0.6336396690    0.8425088615
C       -0.4366501473    1.0799369772   -0.5346192062
N        0.9686914328    1.4212284455   -0.6351252429
H        2.7196774137    0.3464596221   -0.3307138120
H        1.1529188411   -1.8428947204   -0.1586494908
H       -1.3478985809   -1.0351368499   -0.9585139253
H       -2.0112012016    0.6967558815    1.0376505037
H       -1.1170421309    1.7012313199   -1.1065941909
C       -0.1680845904   -0.6218672378    1.1774890920
H       -0.6753251617   -1.5025885983    1.5684506138
$end

$rem
method                b3lyp
basis                 6-31+g(d,p)
unrestricted          true
symmetry              off
sym_ignore            true
incdft                false
incfock               0
scf_convergence       8
thresh                14
jobtype               freq
scf_guess             read
scf_algorithm         diis
max_scf_cycles        100
$end

--------------------------------------------------------------
 ----------------------------------------------------------------
             Standard Nuclear Orientation (Angstroms)
    I     Atom           X                Y                Z
 ----------------------------------------------------------------
    1      C       1.6322517459     0.3543648530    -0.3465257814
    2      C       0.7808889647    -0.8318538957    -0.0283560322
    3      C      -0.5700725752    -0.4158196605    -0.5324487334
    4      C      -0.9438878130     0.6336396690     0.8425088615
    5      C      -0.4366501473     1.0799369772    -0.5346192062
    6      N       0.9686914328     1.4212284455    -0.6351252429
    7      H       2.7196774137     0.3464596221    -0.3307138120
    8      H       1.1529188411    -1.8428947204    -0.1586494908
    9      H      -1.3478985809    -1.0351368499    -0.9585139253
   10      H      -2.0112012016     0.6967558815     1.0376505037
   11      H      -1.1170421309     1.7012313199    -1.1065941909
   12      C      -0.1680845904    -0.6218672378     1.1774890920
   13      H      -0.6753251617    -1.5025885983     1.5684506138
 ----------------------------------------------------------------
 Nuclear Repulsion Energy =   282.0827628511 hartrees
 There are       25 alpha and       24 beta electrons
 Requested basis set is 6-31+G(d,p)
 There are 53 shells and 163 basis functions

 Total QAlloc Memory Limit   8000 MB
 Mega-Array Size      1956 MB
 MEM_STATIC part      2000 MB

                       Distance Matrix (Angstroms)
             C (  1)   C (  2)   C (  3)   C (  4)   C (  5)   N (  6)
   C (  2)  1.494378
   C (  3)  2.340509  1.500763
   C (  4)  2.851016  2.425063  1.769636
   C (  5)  2.200497  2.322423  1.501697  1.533934
   N (  6)  1.289108  2.340901  2.398559  2.541979  1.449678
   H (  7)  1.087569  2.288830  3.382931  3.857542  3.246840  2.076956
   H (  8)  2.256769  1.085166  2.268252  3.395900  3.348287  3.303857
   H (  9)  3.344629  2.332006  1.081711  2.488317  2.341708  3.391887
   H ( 10)  3.912534  3.356901  2.404140  1.086840  2.257891  3.493251
   H ( 11)  3.154421  3.343839  2.260691  2.229066  1.084479  2.156611
   C ( 12)  2.552814  1.548776  1.768598  1.513400  2.428905  2.958390
   H ( 13)  3.527084  2.262794  2.367683  2.272133  3.339058  4.013383
             H (  7)   H (  8)   H (  9)   H ( 10)   H ( 11)   C ( 12)
   H (  8)  2.697705
   H (  9)  4.341442  2.747061
   H ( 10)  4.937240  4.229966  2.724719
   H ( 11)  4.142199  4.314180  2.750079  2.531062
   C ( 12)  3.398750  2.240809  2.474927  2.270551  3.393279
   H ( 13)  4.307186  2.537944  2.656392  2.627438  4.197075  1.088951

 
 A cutoff of  1.0D-14 yielded   1397 shell pairs
 There are     13489 function pairs
 Smallest overlap matrix eigenvalue = 2.55E-05
 Guess MOs from SCF MO coefficient file
 Reading MOs from coefficient file
 Reading MOs from coefficient file
 An unrestricted hybrid HF-DFT SCF calculation will be
 performed using Pulay DIIS extrapolation
 Exchange:     0.2000 Hartree-Fock + 0.0800 Slater + 0.7200 B88
 Correlation:  0.1900 VWN1RPA + 0.8100 LYP
 Using SG-1 standard quadrature grid
 SCF converges when DIIS error is below 1.0E-08
Using Q-Chem read-in guess as SCF_GUESS READ specified.

 -------------------------------------------------------
 OpenMP BLAS3 based DFT computing Module                
 -------------------------------------------------------
 ---------------------------------------
  Cycle       Energy         DIIS Error
 ---------------------------------------
    1    -286.8210745742      1.81E-10
    2    -286.8210745742      2.97E-10 Convergence criterion met
 ---------------------------------------
 <S^2> = 0.7652
 SCF time:  CPU 6.68 s  wall 11.22 s
 SCF   energy in the final basis set = -286.82107457
 Total energy in the final basis set = -286.82107457
 
 --------------------------------------------------------------
 
                    Orbital Energies (a.u.)
 --------------------------------------------------------------
 
 Alpha MOs
 -- Occupied --
-14.335 -10.264 -10.241 -10.232 -10.230 -10.223 -10.219  -0.989
 -0.877  -0.772  -0.672  -0.625  -0.603  -0.560  -0.516  -0.467
 -0.444  -0.433  -0.416  -0.388  -0.351  -0.332  -0.290  -0.276
 -0.122
 -- Virtual --
 -0.024  -0.011   0.003   0.016   0.024   0.044   0.052   0.054
  0.063   0.069   0.075   0.093   0.099   0.107   0.111   0.118
  0.123   0.127   0.143   0.157   0.163   0.167   0.177   0.182
  0.191   0.201   0.210   0.212   0.219   0.235   0.245   0.249
  0.253   0.264   0.278   0.287   0.297   0.304   0.333   0.353
  0.370   0.380   0.404   0.443   0.613   0.636   0.657   0.676
  0.689   0.703   0.709   0.727   0.736   0.756   0.771   0.780
  0.796   0.815   0.864   0.866   0.912   0.924   0.962   0.980
  0.985   1.024   1.041   1.057   1.080   1.111   1.138   1.170
  1.205   1.254   1.268   1.374   1.406   1.419   1.458   1.480
  1.490   1.540   1.594   1.651   1.738   1.776   1.798   1.852
  1.891   1.908   1.927   1.984   2.003   2.046   2.067   2.120
  2.151   2.168   2.245   2.323   2.336   2.363   2.371   2.399
  2.410   2.426   2.438   2.452   2.466   2.523   2.555   2.562
  2.583   2.594   2.644   2.652   2.674   2.708   2.739   2.757
  2.838   2.865   2.945   2.981   3.118   3.288   3.321   3.334
  3.461   3.567   3.630   4.166   4.394   4.462   4.563   4.587
  4.680   4.693
 
 Beta MOs
 -- Occupied --
-14.334 -10.265 -10.241 -10.231 -10.230 -10.215 -10.212  -0.986
 -0.874  -0.767  -0.663  -0.618  -0.603  -0.557  -0.506  -0.463
 -0.440  -0.431  -0.412  -0.382  -0.342  -0.306  -0.281  -0.272
 -- Virtual --
 -0.028  -0.010  -0.007   0.006   0.016   0.025   0.044   0.053
  0.059   0.065   0.071   0.077   0.093   0.100   0.107   0.111
  0.118   0.128   0.129   0.144   0.158   0.164   0.167   0.177
  0.183   0.192   0.204   0.212   0.215   0.223   0.237   0.247
  0.252   0.254   0.270   0.280   0.293   0.302   0.306   0.335
  0.357   0.374   0.386   0.408   0.445   0.616   0.638   0.658
  0.679   0.705   0.709   0.714   0.734   0.743   0.760   0.773
  0.785   0.802   0.819   0.867   0.878   0.915   0.926   0.966
  0.981   0.989   1.026   1.043   1.061   1.083   1.116   1.144
  1.177   1.214   1.260   1.273   1.379   1.411   1.421   1.462
  1.485   1.498   1.549   1.598   1.657   1.746   1.782   1.807
  1.854   1.897   1.914   1.931   1.986   2.017   2.052   2.071
  2.128   2.157   2.175   2.250   2.325   2.342   2.370   2.376
  2.404   2.417   2.429   2.445   2.455   2.471   2.529   2.564
  2.568   2.587   2.603   2.650   2.656   2.678   2.710   2.744
  2.764   2.840   2.867   2.950   2.982   3.119   3.289   3.322
  3.337   3.465   3.570   3.631   4.168   4.405   4.470   4.578
  4.590   4.681   4.694
 --------------------------------------------------------------
 
          Ground-State Mulliken Net Atomic Charges

     Atom                 Charge (a.u.)    Spin (a.u.)
  --------------------------------------------------------
      1 C                     0.063404       0.061110
      2 C                    -0.237752      -0.040481
      3 C                     0.210786      -0.026425
      4 C                    -0.115159       0.501514
      5 C                    -0.397585      -0.025975
      6 N                    -0.176758       0.027188
      7 H                     0.133779       0.001165
      8 H                     0.141480      -0.003251
      9 H                     0.169192       0.000735
     10 H                     0.153205      -0.013042
     11 H                     0.145237      -0.003358
     12 C                    -0.241895       0.524600
     13 H                     0.152066      -0.003780
  --------------------------------------------------------
  Sum of atomic charges =     0.000000
  Sum of spin   charges =     1.000000

 -----------------------------------------------------------------
                    Cartesian Multipole Moments
 -----------------------------------------------------------------
    Charge (ESU x 10^10)
                 0.0000
    Dipole Moment (Debye)
         X      -1.7072      Y      -3.1953      Z      -0.9432
       Tot       3.7436
    Quadrupole Moments (Debye-Ang)
        XX     -37.4589     XY      -3.3215     YY     -44.7302
        XZ       1.1479     YZ       0.5157     ZZ     -45.5208
    Octopole Moments (Debye-Ang^2)
       XXX     -13.4368    XXY     -11.1353    XYY     -13.7927
       YYY     -38.9636    XXZ      -0.1959    XYZ       4.0427
       YYZ       0.5824    XZZ     -11.2539    YZZ     -11.1454
       ZZZ      -4.6443
    Hexadecapole Moments (Debye-Ang^3)
      XXXX    -263.8137   XXXY     -10.4298   XXYY     -96.1913
      XYYY     -26.0195   YYYY    -274.1276   XXXZ      29.3666
      XXYZ      13.7381   XYYZ      18.8577   YYYZ      32.2715
      XXZZ     -80.5915   XYZZ      -2.3862   YYZZ     -77.2197
      XZZZ      32.7642   YZZZ      30.6345   ZZZZ    -199.0801
 -----------------------------------------------------------------
 Calculating MO derivatives via CPSCF
   1         3          39      0.296282    0.061252
   2         3          39      0.044947    0.010023
   3         3          39      0.005266    0.001048
   4         3          39      0.000724    0.000165
   5        28          14      0.000063    0.000017
   6        39           3      0.000004    0.000001
   7        42           0      0.000000    0.000000    Roots Converged
 Time for AOints: 19.5 s (CPU) 23.2 s (wall)
 ------------------------------------------------------------------------------
                     AOints        : Timing summary (seconds)
 ------------------------------------------------------------------------------
     job step          cpu (% of tot)      sys (% of tot)     wall (% of tot)
 ------------------------------------------------------------------------------
  cpscf_lag         0.1177E+03 (28.2)   0.4400E-04 (34.9)   0.1233E+03 (27.8)
  iterzp            0.2796E+03 (67.0)   0.8100E-04 (64.3)   0.2969E+03 (66.9)
  make_fx           0.0000E+00 ( 0.0)   0.0000E+00 ( 0.0)   0.0000E+00 ( 0.0)
  AOints            0.1948E+02 ( 4.7)   0.1000E-05 ( 0.8)   0.2323E+02 ( 5.2)
 ------------------------------------------------------------------------------
   Grand Totals     0.4171E+03          0.1260E-03          0.4438E+03
 ------------------------------------------------------------------------------
 Calculating analytic Hessian of the SCF energy
 Polarizability Matrix (a.u.)
            1           2           3
    1 -77.9733560   3.6916095   8.5327445
    2   3.6916095 -73.4854016   6.4483686
    3   8.5327445   6.4483686 -69.0657143
 
 Direct stationary perturbation theory relativistic correction:
 
 rels  =       0.069400829863
 relv  =      -0.341607273110
 rel2e =       0.159213520606
 E_rel =      -0.112992922640
 
 Hessian of the SCF Energy
            1           2           3           4           5           6
    1   0.8036908  -0.1248999   0.0394773  -0.1341273  -0.0536607   0.0078018
    2  -0.1248999   0.6018595  -0.1262400  -0.0231285  -0.1427971   0.0065541
    3   0.0394773  -0.1262400   0.1932537   0.0129751   0.0147644  -0.0716842
    4  -0.1341273  -0.0231285   0.0129751   0.4629722  -0.1189097  -0.0397088
    5  -0.0536607  -0.1427971   0.0147644  -0.1189097   0.6874920  -0.0034927
    6   0.0078018   0.0065541  -0.0716842  -0.0397088  -0.0034927   0.2252261
    7  -0.0429753  -0.0341512  -0.0083384  -0.1646300   0.0311429  -0.0310105
    8  -0.0022762   0.0026686  -0.0132688   0.0464728  -0.0780023  -0.0092424
    9  -0.0079025   0.0168971   0.0006200  -0.1033174  -0.0062779  -0.0423078
   10  -0.0052768  -0.0014628   0.0007348  -0.0194324   0.0238197   0.0119434
   11   0.0063125  -0.0284639   0.0087065   0.0254674   0.0056457  -0.0144621
   12  -0.0065103   0.0016701   0.0034431   0.0053903  -0.0164398   0.0135951
   13  -0.0782278   0.0480665  -0.0122372  -0.0367210   0.0065272  -0.0022720
   14   0.0214284   0.0130935  -0.0074063   0.0006446  -0.0380645   0.0122686
   15  -0.0090999  -0.0026865   0.0048055   0.0016235   0.0066561  -0.0064260
   16  -0.2125898   0.1950710  -0.0561066   0.0358173   0.0159962  -0.0068951
   17   0.1603726  -0.3901199   0.0929643  -0.0214484  -0.0637491   0.0202371
   18  -0.0417459   0.0864765  -0.0790611   0.0014312   0.0297936   0.0209540
   19  -0.3352819  -0.0086478  -0.0019090  -0.0045490   0.0040396  -0.0016554
   20  -0.0125414  -0.0560429   0.0058381  -0.0164209   0.0063021   0.0001385
   21   0.0012258   0.0033650  -0.0381767   0.0096671   0.0015170   0.0078023
   22   0.0144948  -0.0147196  -0.0047273  -0.0863597   0.0875659   0.0108869
   23   0.0120289  -0.0111269  -0.0026409   0.0934851  -0.3057970  -0.0331014
   24  -0.0034085   0.0059363  -0.0019171   0.0090536  -0.0350481  -0.0374532
   25  -0.0019425  -0.0012214  -0.0016261  -0.0045434  -0.0141921  -0.0051260
   26   0.0008293  -0.0033556   0.0030280   0.0085516   0.0095632   0.0067279
   27   0.0016669   0.0024787  -0.0004814  -0.0020270   0.0017605  -0.0024695
   28   0.0020791  -0.0019194   0.0005382   0.0017132   0.0015385  -0.0004392
   29   0.0007793  -0.0034605   0.0012377   0.0070066  -0.0048382   0.0007645
   30   0.0019092   0.0007612  -0.0008776   0.0015470   0.0001724  -0.0027339
   31  -0.0058460  -0.0032934  -0.0001913   0.0000776  -0.0000904   0.0001209
   32  -0.0029002   0.0001528   0.0009277  -0.0002057  -0.0034748   0.0009832
   33   0.0004254   0.0005116   0.0011110   0.0008876  -0.0033448   0.0006603
   34  -0.0034931  -0.0287823   0.0273056  -0.0449141   0.0322761   0.0551953
   35  -0.0042087   0.0184416   0.0236319  -0.0069153  -0.0804563   0.0189635
   36   0.0187836   0.0057800  -0.0088333   0.0979194  -0.0011611  -0.0970681
   37  -0.0005041  -0.0009112   0.0041049  -0.0053035  -0.0160532   0.0011588
   38  -0.0012638  -0.0008492  -0.0015426   0.0054003   0.0081763  -0.0063389
   39  -0.0026228  -0.0015043  -0.0022020   0.0045583   0.0111003  -0.0080951
            7           8           9          10          11          12
    1  -0.0429753  -0.0022762  -0.0079025  -0.0052768   0.0063125  -0.0065103
    2  -0.0341512   0.0026686   0.0168971  -0.0014628  -0.0284639   0.0016701
    3  -0.0083384  -0.0132688   0.0006200   0.0007348   0.0087065   0.0034431
    4  -0.1646300   0.0464728  -0.1033174  -0.0194324   0.0254674   0.0053903
    5   0.0311429  -0.0780023  -0.0062779   0.0238197   0.0056457  -0.0164398
    6  -0.0310105  -0.0092424  -0.0423078   0.0119434  -0.0144621   0.0135951
    7   0.5027598   0.1774298   0.1954590  -0.0281404  -0.0562841  -0.0602172
    8   0.1774298   0.4426177   0.1002988   0.0076420   0.0487668   0.0186500
    9   0.1954590   0.1002988   0.2151416   0.0072306  -0.0257642  -0.0482661
   10  -0.0281404   0.0076420   0.0072306   0.5657023  -0.1110273  -0.1234832
   11  -0.0562841   0.0487668  -0.0257642  -0.1110273   0.1772712  -0.1599782
   12  -0.0602172   0.0186500  -0.0482661  -0.1234832  -0.1599782   0.1826521
   13  -0.0379657  -0.0320810  -0.0460946  -0.0835158   0.0523146   0.0361660
   14   0.0168158  -0.1945319  -0.0308330  -0.0020512  -0.0208488   0.0580872
   15  -0.0244671   0.0278189  -0.0386648   0.0446287   0.0261446  -0.1357707
   16  -0.0311864  -0.0367753   0.0240926  -0.0135089  -0.0316216   0.0268099
   17  -0.0120575  -0.0288925  -0.0043625   0.0022757   0.0161714   0.0083772
   18  -0.0126800   0.0009687   0.0097812   0.0337665  -0.0069235  -0.0057843
   19  -0.0003037  -0.0003534   0.0003618   0.0000959  -0.0006591   0.0001771
   20  -0.0034542  -0.0020115   0.0013480  -0.0002880  -0.0018505  -0.0004364
   21  -0.0010867   0.0031522   0.0017876  -0.0028824  -0.0016043  -0.0010127
   22  -0.0019038   0.0193230   0.0078102  -0.0023180  -0.0005775   0.0006090
   23  -0.0018177  -0.0001149   0.0001629  -0.0003148   0.0010864   0.0000780
   24  -0.0022484   0.0185643  -0.0000950   0.0036148   0.0015983  -0.0052991
   25  -0.2108532  -0.1296130  -0.0998709   0.0068815   0.0010022   0.0025573
   26  -0.1294398  -0.1541105  -0.0712546  -0.0021086  -0.0034820   0.0029996
   27  -0.0918794  -0.0641169  -0.0740463  -0.0104978  -0.0024289  -0.0078227
   28  -0.0004097  -0.0008721  -0.0015995  -0.3325798   0.0273077   0.0685990
   29   0.0111923  -0.0026897   0.0050455   0.0068032  -0.0310300   0.0211221
   30   0.0110640  -0.0010133  -0.0014424   0.0416313   0.0143005  -0.0339642
   31   0.0016681  -0.0000995   0.0041558   0.0068164  -0.0093226   0.0040265
   32   0.0168280  -0.0091618   0.0155315  -0.0015596   0.0006655  -0.0017739
   33   0.0094984  -0.0086480   0.0042544  -0.0181465   0.0211740  -0.0121407
   34   0.0146552  -0.0573200   0.0192891  -0.1037186   0.0934306   0.0622458
   35  -0.0167251  -0.0222666   0.0018116   0.0885267  -0.1501674   0.0616476
   36   0.0101482  -0.0881379  -0.0212364   0.0117712   0.1459030   0.0605561
   37  -0.0007149   0.0085230   0.0003857   0.0089946   0.0036572  -0.0163701
   38   0.0005208  -0.0022714  -0.0026033  -0.0102550  -0.0137646   0.0059963
   39   0.0057582   0.0149744  -0.0055259  -0.0003114  -0.0066657  -0.0101857
           13          14          15          16          17          18
    1  -0.0782278   0.0214284  -0.0090999  -0.2125898   0.1603726  -0.0417459
    2   0.0480665   0.0130935  -0.0026865   0.1950710  -0.3901199   0.0864765
    3  -0.0122372  -0.0074063   0.0048055  -0.0561066   0.0929643  -0.0790611
    4  -0.0367210   0.0006446   0.0016235   0.0358173  -0.0214484   0.0014312
    5   0.0065272  -0.0380645   0.0066561   0.0159962  -0.0637491   0.0297936
    6  -0.0022720   0.0122686  -0.0064260  -0.0068951   0.0202371   0.0209540
    7  -0.0379657   0.0168158  -0.0244671  -0.0311864  -0.0120575  -0.0126800
    8  -0.0320810  -0.1945319   0.0278189  -0.0367753  -0.0288925   0.0009687
    9  -0.0460946  -0.0308330  -0.0386648   0.0240926  -0.0043625   0.0097812
   10  -0.0835158  -0.0020512   0.0446287  -0.0135089   0.0022757   0.0337665
   11   0.0523146  -0.0208488   0.0261446  -0.0316216   0.0161714  -0.0069235
   12   0.0361660   0.0580872  -0.1357707   0.0268099   0.0083772  -0.0057843
   13   0.5211066  -0.1403355   0.1073724  -0.1488698  -0.0141182   0.0078949
   14  -0.1403355   0.5041900  -0.1741744  -0.0209614  -0.0917025   0.0188693
   15   0.1073724  -0.1741744   0.3707947  -0.0090960   0.0030216  -0.0740769
   16  -0.1488698  -0.0209614  -0.0090960   0.4427926  -0.1476973   0.0349681
   17  -0.0141182  -0.0917025   0.0030216  -0.1476973   0.5614073  -0.1181354
   18   0.0078949   0.0188693  -0.0740769   0.0349681  -0.1181354   0.1268612
   19   0.0012226   0.0030929  -0.0014973  -0.0159415   0.0059501  -0.0022396
   20   0.0037594  -0.0026518   0.0043959   0.0322698   0.0013548  -0.0022443
   21  -0.0000028   0.0039137   0.0126780  -0.0093474  -0.0008821  -0.0059971
   22  -0.0033348   0.0005750  -0.0004237  -0.0022075  -0.0048051   0.0030593
   23  -0.0010074  -0.0006354  -0.0000132  -0.0019188  -0.0039456   0.0015431
   24  -0.0038966   0.0025799  -0.0012939   0.0010617   0.0006909   0.0021161
   25   0.0023532   0.0057372   0.0029530  -0.0030585  -0.0001506  -0.0002513
   26  -0.0127125  -0.0013086  -0.0106364  -0.0026870  -0.0014731  -0.0017111
   27   0.0068972  -0.0032720   0.0033057   0.0041240   0.0023339   0.0015405
   28  -0.0015071   0.0014021  -0.0061717  -0.0025413  -0.0001137   0.0013968
   29  -0.0120197   0.0016815  -0.0057089  -0.0049079   0.0012909   0.0034259
   30   0.0200376  -0.0021602  -0.0046162  -0.0008963  -0.0036482  -0.0016669
   31  -0.1589106   0.1033398  -0.0996717  -0.0208877   0.0178350  -0.0139168
   32   0.1025832  -0.1483550   0.0941400  -0.0064440   0.0082964  -0.0082660
   33  -0.1021717   0.0934857  -0.1212140   0.0036607  -0.0033320   0.0019235
   34   0.0241237   0.0025942  -0.0050459  -0.0255015   0.0125084  -0.0098430
   35  -0.0042964  -0.0188038   0.0311669   0.0100117  -0.0109580  -0.0034909
   36  -0.0120723   0.0261223  -0.0057297  -0.0131149   0.0008814   0.0015716
   37   0.0002467   0.0077180  -0.0011043  -0.0023168   0.0014489  -0.0018403
   38   0.0033199  -0.0020626  -0.0001245  -0.0003353   0.0023199  -0.0003060
   39   0.0003790   0.0025192  -0.0037916   0.0007391   0.0018536   0.0018383
           19          20          21          22          23          24
    1  -0.3352819  -0.0125414   0.0012258   0.0144948   0.0120289  -0.0034085
    2  -0.0086478  -0.0560429   0.0033650  -0.0147196  -0.0111269   0.0059363
    3  -0.0019090   0.0058381  -0.0381767  -0.0047273  -0.0026409  -0.0019171
    4  -0.0045490  -0.0164209   0.0096671  -0.0863597   0.0934851   0.0090536
    5   0.0040396   0.0063021   0.0015170   0.0875659  -0.3057970  -0.0350481
    6  -0.0016554   0.0001385   0.0078023   0.0108869  -0.0331014  -0.0374532
    7  -0.0003037  -0.0034542  -0.0010867  -0.0019038  -0.0018177  -0.0022484
    8  -0.0003534  -0.0020115   0.0031522   0.0193230  -0.0001149   0.0185643
    9   0.0003618   0.0013480   0.0017876   0.0078102   0.0001629  -0.0000950
   10   0.0000959  -0.0002880  -0.0028824  -0.0023180  -0.0003148   0.0036148
   11  -0.0006591  -0.0018505  -0.0016043  -0.0005775   0.0010864   0.0015983
   12   0.0001771  -0.0004364  -0.0010127   0.0006090   0.0000780  -0.0052991
   13   0.0012226   0.0037594  -0.0000028  -0.0033348  -0.0010074  -0.0038966
   14   0.0030929  -0.0026518   0.0039137   0.0005750  -0.0006354   0.0025799
   15  -0.0014973   0.0043959   0.0126780  -0.0004237  -0.0000132  -0.0012939
   16  -0.0159415   0.0322698  -0.0093474  -0.0022075  -0.0019188   0.0010617
   17   0.0059501   0.0013548  -0.0008821  -0.0048051  -0.0039456   0.0006909
   18  -0.0022396  -0.0022443  -0.0059971   0.0030593   0.0015431   0.0021161
   19   0.3571825  -0.0020574   0.0050874  -0.0001859  -0.0006164   0.0002209
   20  -0.0020574   0.0538580  -0.0086147   0.0008543   0.0001159  -0.0000711
   21   0.0050874  -0.0086147   0.0254818  -0.0001782   0.0000875  -0.0002341
   22  -0.0001859   0.0008543  -0.0001782   0.0865125  -0.0992716  -0.0169494
   23  -0.0006164   0.0001159   0.0000875  -0.0992716   0.3193709   0.0339215
   24   0.0002209  -0.0000711  -0.0002341  -0.0169494   0.0339215   0.0419940
   25  -0.0001993  -0.0009216  -0.0002016   0.0008362   0.0002918   0.0010491
   26   0.0001146   0.0004717  -0.0005403  -0.0006215   0.0001854  -0.0007483
   27   0.0002443   0.0003649   0.0001657  -0.0002529  -0.0000121  -0.0002226
   28  -0.0001130  -0.0000524  -0.0003417  -0.0002236  -0.0001405  -0.0000665
   29  -0.0001184   0.0002851  -0.0003498   0.0014521   0.0001640  -0.0012857
   30   0.0000615   0.0003080   0.0013048   0.0001124   0.0003258   0.0000215
   31  -0.0006082   0.0013275   0.0002443   0.0001447   0.0001363  -0.0000155
   32  -0.0001240   0.0007053   0.0003833   0.0004930   0.0000577   0.0007659
   33   0.0002667  -0.0000090   0.0003346   0.0004548  -0.0000927   0.0005721
   34  -0.0006822  -0.0016203  -0.0022853  -0.0059048  -0.0009862   0.0119660
   35  -0.0004956  -0.0006059  -0.0007103   0.0098676   0.0001746  -0.0283403
   36   0.0009553  -0.0013864  -0.0047350  -0.0004585  -0.0002580   0.0007345
   37  -0.0006363  -0.0008549   0.0001014   0.0004500   0.0001313  -0.0003812
   38  -0.0001251   0.0000697   0.0002827  -0.0001356   0.0004650   0.0014363
   39  -0.0000738   0.0003684   0.0006009   0.0000573  -0.0000003   0.0010768
           25          26          27          28          29          30
    1  -0.0019425   0.0008293   0.0016669   0.0020791   0.0007793   0.0019092
    2  -0.0012214  -0.0033556   0.0024787  -0.0019194  -0.0034605   0.0007612
    3  -0.0016261   0.0030280  -0.0004814   0.0005382   0.0012377  -0.0008776
    4  -0.0045434   0.0085516  -0.0020270   0.0017132   0.0070066   0.0015470
    5  -0.0141921   0.0095632   0.0017605   0.0015385  -0.0048382   0.0001724
    6  -0.0051260   0.0067279  -0.0024695  -0.0004392   0.0007645  -0.0027339
    7  -0.2108532  -0.1294398  -0.0918794  -0.0004097   0.0111923   0.0110640
    8  -0.1296130  -0.1541105  -0.0641169  -0.0008721  -0.0026897  -0.0010133
    9  -0.0998709  -0.0712546  -0.0740463  -0.0015995   0.0050455  -0.0014424
   10   0.0068815  -0.0021086  -0.0104978  -0.3325798   0.0068032   0.0416313
   11   0.0010022  -0.0034820  -0.0024289   0.0273077  -0.0310300   0.0143005
   12   0.0025573   0.0029996  -0.0078227   0.0685990   0.0211221  -0.0339642
   13   0.0023532  -0.0127125   0.0068972  -0.0015071  -0.0120197   0.0200376
   14   0.0057372  -0.0013086  -0.0032720   0.0014021   0.0016815  -0.0021602
   15   0.0029530  -0.0106364   0.0033057  -0.0061717  -0.0057089  -0.0046162
   16  -0.0030585  -0.0026870   0.0041240  -0.0025413  -0.0049079  -0.0008963
   17  -0.0001506  -0.0014731   0.0023339  -0.0001137   0.0012909  -0.0036482
   18  -0.0002513  -0.0017111   0.0015405   0.0013968   0.0034259  -0.0016669
   19  -0.0001993   0.0001146   0.0002443  -0.0001130  -0.0001184   0.0000615
   20  -0.0009216   0.0004717   0.0003649  -0.0000524   0.0002851   0.0003080
   21  -0.0002016  -0.0005403   0.0001657  -0.0003417  -0.0003498   0.0013048
   22   0.0008362  -0.0006215  -0.0002529  -0.0002236   0.0014521   0.0001124
   23   0.0002918   0.0001854  -0.0000121  -0.0001405   0.0001640   0.0003258
   24   0.0010491  -0.0007483  -0.0002226  -0.0000665  -0.0012857   0.0000215
   25   0.2109609   0.1346184   0.0975924   0.0002114  -0.0005309  -0.0004775
   26   0.1346184   0.1498560   0.0734513   0.0002409   0.0006443  -0.0003172
   27   0.0975924   0.0734513   0.0822387   0.0003328   0.0009899   0.0014950
   28   0.0002114   0.0002409   0.0003328   0.3399039  -0.0262034  -0.0639340
   29  -0.0005309   0.0006443   0.0009899  -0.0262034   0.0380689  -0.0080609
   30  -0.0004775  -0.0003172   0.0014950  -0.0639340  -0.0080609   0.0442363
   31   0.0001974   0.0003038  -0.0000324   0.0002956   0.0002306  -0.0001816
   32  -0.0003129   0.0008180  -0.0005761   0.0000631   0.0000250   0.0005728
   33  -0.0000328   0.0007575  -0.0004363   0.0007048  -0.0004890   0.0014339
   34  -0.0010037   0.0029981  -0.0071394  -0.0084320   0.0163044  -0.0123093
   35   0.0053949   0.0018395  -0.0112940  -0.0027511  -0.0019123  -0.0025794
   36   0.0042049  -0.0017984  -0.0048309   0.0001390  -0.0175008  -0.0049939
   37   0.0001599  -0.0000872   0.0009712   0.0016034   0.0000118   0.0014358
   38  -0.0001020   0.0003518   0.0003206   0.0015003   0.0017709   0.0013384
   39  -0.0007703   0.0000418   0.0015644   0.0008420   0.0008093   0.0018038
           31          32          33          34          35          36
    1  -0.0058460  -0.0029002   0.0004254  -0.0034931  -0.0042087   0.0187836
    2  -0.0032934   0.0001528   0.0005116  -0.0287823   0.0184416   0.0057800
    3  -0.0001913   0.0009277   0.0011110   0.0273056   0.0236319  -0.0088333
    4   0.0000776  -0.0002057   0.0008876  -0.0449141  -0.0069153   0.0979194
    5  -0.0000904  -0.0034748  -0.0033448   0.0322761  -0.0804563  -0.0011611
    6   0.0001209   0.0009832   0.0006603   0.0551953   0.0189635  -0.0970681
    7   0.0016681   0.0168280   0.0094984   0.0146552  -0.0167251   0.0101482
    8  -0.0000995  -0.0091618  -0.0086480  -0.0573200  -0.0222666  -0.0881379
    9   0.0041558   0.0155315   0.0042544   0.0192891   0.0018116  -0.0212364
   10   0.0068164  -0.0015596  -0.0181465  -0.1037186   0.0885267   0.0117712
   11  -0.0093226   0.0006655   0.0211740   0.0934306  -0.1501674   0.1459030
   12   0.0040265  -0.0017739  -0.0121407   0.0622458   0.0616476   0.0605561
   13  -0.1589106   0.1025832  -0.1021717   0.0241237  -0.0042964  -0.0120723
   14   0.1033398  -0.1483550   0.0934857   0.0025942  -0.0188038   0.0261223
   15  -0.0996717   0.0941400  -0.1212140  -0.0050459   0.0311669  -0.0057297
   16  -0.0208877  -0.0064440   0.0036607  -0.0255015   0.0100117  -0.0131149
   17   0.0178350   0.0082964  -0.0033320   0.0125084  -0.0109580   0.0008814
   18  -0.0139168  -0.0082660   0.0019235  -0.0098430  -0.0034909   0.0015716
   19  -0.0006082  -0.0001240   0.0002667  -0.0006822  -0.0004956   0.0009553
   20   0.0013275   0.0007053  -0.0000090  -0.0016203  -0.0006059  -0.0013864
   21   0.0002443   0.0003833   0.0003346  -0.0022853  -0.0007103  -0.0047350
   22   0.0001447   0.0004930   0.0004548  -0.0059048   0.0098676  -0.0004585
   23   0.0001363   0.0000577  -0.0000927  -0.0009862   0.0001746  -0.0002580
   24  -0.0000155   0.0007659   0.0005721   0.0119660  -0.0283403   0.0007345
   25   0.0001974  -0.0003129  -0.0000328  -0.0010037   0.0053949   0.0042049
   26   0.0003038   0.0008180   0.0007575   0.0029981   0.0018395  -0.0017984
   27  -0.0000324  -0.0005761  -0.0004363  -0.0071394  -0.0112940  -0.0048309
   28   0.0002956   0.0000631   0.0007048  -0.0084320  -0.0027511   0.0001390
   29   0.0002306   0.0000250  -0.0004890   0.0163044  -0.0019123  -0.0175008
   30  -0.0001816   0.0005728   0.0014339  -0.0123093  -0.0025794  -0.0049939
   31   0.1770371  -0.1086598   0.1020842  -0.0005607  -0.0013374   0.0027794
   32  -0.1086598   0.1515791  -0.1014345  -0.0002541  -0.0009547  -0.0017427
   33   0.1020842  -0.1014345   0.1295433   0.0036455   0.0009855  -0.0056452
   34  -0.0005607  -0.0002541   0.0036455   0.2604087   0.0343010  -0.1958868
   35  -0.0013374  -0.0009547   0.0009855   0.0343010   0.4999369  -0.1643415
   36   0.0027794  -0.0017427  -0.0056452  -0.1958868  -0.1643415   0.1397406
   37   0.0005763   0.0004929  -0.0012771  -0.1049769  -0.1113722   0.0748315
   38  -0.0003701  -0.0003536   0.0004357  -0.1054499  -0.2342675   0.0976403
   39   0.0005984   0.0004887  -0.0003967   0.0528624   0.0725496  -0.0495302
           37          38          39
    1  -0.0005041  -0.0012638  -0.0026228
    2  -0.0009112  -0.0008492  -0.0015043
    3   0.0041049  -0.0015426  -0.0022020
    4  -0.0053035   0.0054003   0.0045583
    5  -0.0160532   0.0081763   0.0111003
    6   0.0011588  -0.0063389  -0.0080951
    7  -0.0007149   0.0005208   0.0057582
    8   0.0085230  -0.0022714   0.0149744
    9   0.0003857  -0.0026033  -0.0055259
   10   0.0089946  -0.0102550  -0.0003114
   11   0.0036572  -0.0137646  -0.0066657
   12  -0.0163701   0.0059963  -0.0101857
   13   0.0002467   0.0033199   0.0003790
   14   0.0077180  -0.0020626   0.0025192
   15  -0.0011043  -0.0001245  -0.0037916
   16  -0.0023168  -0.0003353   0.0007391
   17   0.0014489   0.0023199   0.0018536
   18  -0.0018403  -0.0003060   0.0018383
   19  -0.0006363  -0.0001251  -0.0000738
   20  -0.0008549   0.0000697   0.0003684
   21   0.0001014   0.0002827   0.0006009
   22   0.0004500  -0.0001356   0.0000573
   23   0.0001313   0.0004650  -0.0000003
   24  -0.0003812   0.0014363   0.0010768
   25   0.0001599  -0.0001020  -0.0007703
   26  -0.0000872   0.0003518   0.0000418
   27   0.0009712   0.0003206   0.0015644
   28   0.0016034   0.0015003   0.0008420
   29   0.0000118   0.0017709   0.0008093
   30   0.0014358   0.0013384   0.0018038
   31   0.0005763  -0.0003701   0.0005984
   32   0.0004929  -0.0003536   0.0004887
   33  -0.0012771   0.0004357  -0.0003967
   34  -0.1049769  -0.1054499   0.0528624
   35  -0.1113722  -0.2342675   0.0725496
   36   0.0748315   0.0976403  -0.0495302
   37   0.1024216   0.1072957  -0.0620163
   38   0.1072957   0.2404154  -0.0965351
   39  -0.0620163  -0.0965351   0.0728430
 Gradient time:  CPU 549.54 s  wall 585.89 s
 **********************************************************************
 **                                                                  **
 **                       VIBRATIONAL ANALYSIS                       **
 **                       --------------------                       **
 **                                                                  **
 **        VIBRATIONAL FREQUENCIES (CM**-1) AND NORMAL MODES         **
 **     FORCE CONSTANTS (mDYN/ANGSTROM) AND REDUCED MASSES (AMU)     **
 **                  INFRARED INTENSITIES (KM/MOL)                   **
 **                                                                  **
 **********************************************************************
 

 Mode:                 1                      2                      3
 Frequency:      -754.25                 311.90                 375.60
 Force Cnst:      3.0930                 0.2736                 0.2661
 Red. Mass:       9.2277                 4.7737                 3.2008
 IR Active:          YES                    YES                    YES
 IR Intens:      120.017                 52.861                  6.078
 Raman Active:       YES                    YES                    YES
               X      Y      Z        X      Y      Z        X      Y      Z
 C         -0.038 -0.027  0.013    0.075  0.008 -0.114   -0.057  0.099  0.173
 C         -0.120  0.014  0.026    0.129  0.102  0.146   -0.045  0.015  0.069
 C         -0.158  0.248 -0.069   -0.036  0.066  0.265   -0.007  0.027 -0.055
 C         -0.050 -0.413 -0.368   -0.118 -0.166 -0.038    0.225  0.009  0.055
 C          0.055  0.090 -0.062    0.123  0.123  0.087   -0.004 -0.010 -0.070
 N          0.046  0.021 -0.013    0.045  0.023 -0.193   -0.027  0.013 -0.198
 H         -0.038 -0.065  0.061    0.077 -0.103 -0.575   -0.060  0.138  0.387
 H         -0.130  0.028 -0.144    0.097  0.092  0.127    0.061  0.069 -0.061
 H         -0.131  0.200 -0.051    0.084  0.068  0.038   -0.015  0.019 -0.029
 H          0.099  0.119  0.156   -0.140 -0.130 -0.172    0.311  0.355  0.374
 H         -0.007  0.175  0.110    0.043  0.083  0.139   -0.112 -0.014  0.056
 C          0.285  0.030  0.480   -0.218 -0.142 -0.062   -0.069 -0.185  0.025
 H         -0.116 -0.072 -0.187   -0.248 -0.217 -0.260   -0.314 -0.209 -0.319
 TransDip  -0.171  0.297 -0.076   -0.147 -0.028  0.179   -0.019  0.073  0.023

 Mode:                 4                      5                      6
 Frequency:       523.01                 608.37                 731.79
 Force Cnst:      0.7003                 0.4556                 0.5538
 Red. Mass:       4.3451                 2.0894                 1.7551
 IR Active:          YES                    YES                    YES
 IR Intens:       15.172                 20.935                 51.194
 Raman Active:       YES                    YES                    YES
               X      Y      Z        X      Y      Z        X      Y      Z
 C         -0.017  0.018  0.137   -0.016  0.004 -0.133    0.027  0.022  0.061
 C          0.058 -0.040 -0.157    0.036 -0.015  0.030   -0.022  0.060  0.056
 C         -0.200 -0.024  0.354    0.010 -0.080  0.033   -0.136 -0.076 -0.042
 C          0.071  0.007 -0.144    0.080  0.035 -0.111    0.001 -0.059 -0.066
 C          0.044  0.039 -0.148   -0.000 -0.043 -0.029    0.006 -0.007  0.057
 N         -0.028  0.010  0.072   -0.033  0.076  0.168    0.047  0.010 -0.011
 H         -0.023  0.130  0.521   -0.013 -0.018 -0.348    0.033 -0.109 -0.165
 H          0.024 -0.038 -0.252    0.065 -0.017  0.123    0.049  0.070  0.181
 H         -0.247 -0.025  0.441    0.022 -0.102  0.041   -0.021 -0.095 -0.242
 H          0.071 -0.084 -0.123    0.222  0.517  0.398    0.132  0.369  0.420
 H          0.034 -0.042 -0.221    0.017 -0.110 -0.124    0.021  0.079  0.134
 C          0.082 -0.011 -0.154   -0.068 -0.007  0.037    0.015  0.015 -0.123
 H          0.062  0.059 -0.032   -0.342 -0.049 -0.363    0.422  0.081  0.496
 TransDip  -0.074 -0.019  0.099   -0.079  0.114 -0.048   -0.003  0.013  0.229

 Mode:                 7                      8                      9
 Frequency:       748.91                 796.70                 825.87
 Force Cnst:      1.3392                 0.8191                 1.1564
 Red. Mass:       4.0525                 2.1903                 2.8777
 IR Active:          YES                    YES                    YES
 IR Intens:        6.190                 17.652                 20.614
 Raman Active:       YES                    YES                    YES
               X      Y      Z        X      Y      Z        X      Y      Z
 C         -0.117 -0.094  0.078   -0.099  0.047 -0.061   -0.044  0.030  0.022
 C          0.109 -0.076  0.218   -0.078 -0.067  0.093    0.034 -0.095 -0.144
 C          0.050  0.098 -0.086   -0.020 -0.041 -0.015    0.050 -0.160 -0.037
 C          0.127  0.007 -0.106    0.120  0.008 -0.017    0.033 -0.025 -0.112
 C         -0.075  0.186  0.010    0.088 -0.012 -0.060    0.064  0.079  0.231
 N         -0.169 -0.128  0.050    0.027  0.159  0.034   -0.032  0.023 -0.085
 H         -0.115 -0.080 -0.460   -0.098 -0.073 -0.180   -0.051  0.128  0.304
 H          0.176 -0.058  0.259    0.014 -0.012 -0.080    0.196 -0.076  0.172
 H         -0.114  0.051  0.282   -0.108  0.047  0.016   -0.150 -0.142  0.296
 H          0.103 -0.315 -0.124   -0.018 -0.299 -0.590    0.027  0.208 -0.269
 H         -0.064  0.335  0.151   -0.006 -0.005  0.062   -0.021  0.209  0.475
 C          0.107  0.023 -0.168   -0.035 -0.099  0.034   -0.075  0.098  0.050
 H         -0.037  0.123 -0.152    0.116  0.089  0.605   -0.281  0.216  0.069
 TransDip  -0.047 -0.012  0.063    0.051 -0.124 -0.013   -0.054  0.064  0.119

 Mode:                10                     11                     12
 Frequency:       840.45                 880.88                 899.98
 Force Cnst:      0.6385                 1.4588                 0.7172
 Red. Mass:       1.5343                 3.1909                 1.5030
 IR Active:          YES                    YES                    YES
 IR Intens:        1.882                  9.225                 21.555
 Raman Active:       YES                    YES                    YES
               X      Y      Z        X      Y      Z        X      Y      Z
 C          0.024 -0.003 -0.015    0.221  0.066 -0.057   -0.057 -0.065 -0.147
 C         -0.024  0.093  0.020    0.037  0.085 -0.010    0.020 -0.005  0.056
 C         -0.095 -0.058 -0.086   -0.100  0.056 -0.054    0.003  0.028  0.014
 C          0.006 -0.030  0.069    0.103 -0.022  0.008    0.013 -0.055  0.032
 C          0.011 -0.038 -0.041    0.065 -0.083 -0.052    0.042  0.028 -0.025
 N          0.070  0.032  0.016   -0.174 -0.167  0.079   -0.021  0.019  0.017
 H          0.024 -0.128  0.046    0.225  0.510 -0.003   -0.073  0.182  0.775
 H          0.158  0.119  0.366   -0.153  0.022 -0.075    0.053 -0.038  0.420
 H         -0.393 -0.137  0.565   -0.202  0.156 -0.022    0.073  0.134 -0.267
 H         -0.044 -0.224 -0.099    0.039  0.086 -0.337    0.037 -0.016  0.129
 H          0.047  0.122  0.092    0.038  0.247  0.347   -0.020  0.037  0.057
 C          0.015  0.031 -0.014   -0.115  0.000  0.054   -0.013  0.025 -0.044
 H         -0.019 -0.133 -0.403   -0.040  0.079  0.307    0.130 -0.027  0.015
 TransDip  -0.012 -0.042 -0.000    0.031  0.091  0.013   -0.012  0.011  0.148

 Mode:                13                     14                     15
 Frequency:       941.20                 948.57                 958.51
 Force Cnst:      0.9060                 1.5316                 0.9208
 Red. Mass:       1.7358                 2.8891                 1.7011
 IR Active:          YES                    YES                    YES
 IR Intens:        1.940                 20.083                  9.308
 Raman Active:       YES                    YES                    YES
               X      Y      Z        X      Y      Z        X      Y      Z
 C         -0.082 -0.085 -0.001    0.112  0.029 -0.108    0.070 -0.008 -0.031
 C         -0.026  0.185 -0.033   -0.045 -0.024  0.156    0.013 -0.052  0.013
 C          0.029 -0.053  0.032   -0.060 -0.062 -0.006    0.065  0.005 -0.016
 C          0.057 -0.001 -0.002   -0.046  0.152 -0.111   -0.006 -0.087  0.028
 C          0.015  0.033 -0.040   -0.144  0.052  0.109   -0.100  0.094 -0.100
 N         -0.015 -0.048  0.032    0.066 -0.011 -0.006    0.054  0.033  0.007
 H         -0.092 -0.273  0.078    0.117  0.283  0.417    0.072  0.077  0.113
 H          0.011  0.239 -0.273   -0.248 -0.048 -0.300   -0.231 -0.114 -0.236
 H          0.485 -0.520 -0.126    0.069 -0.283  0.071    0.064 -0.330  0.479
 H          0.020  0.015 -0.193   -0.090  0.187 -0.349    0.066 -0.115  0.416
 H         -0.006  0.281  0.257   -0.041  0.160  0.096   -0.113  0.228  0.052
 C         -0.014  0.005  0.030    0.114 -0.142 -0.008   -0.085  0.014 -0.003
 H          0.060 -0.064 -0.032    0.101 -0.234 -0.227   -0.106  0.201  0.374
 TransDip  -0.027 -0.035 -0.001    0.091  0.086 -0.071   -0.050 -0.003  0.084

 Mode:                16                     17                     18
 Frequency:      1006.90                1027.85                1051.30
 Force Cnst:      0.9499                 1.2220                 1.2019
 Red. Mass:       1.5902                 1.9632                 1.8457
 IR Active:          YES                    YES                    YES
 IR Intens:        4.210                  0.818                  7.442
 Raman Active:       YES                    YES                    YES
               X      Y      Z        X      Y      Z        X      Y      Z
 C         -0.059 -0.034 -0.015   -0.032 -0.008 -0.017    0.001  0.068  0.024
 C          0.087  0.009 -0.022   -0.097  0.089  0.047   -0.105 -0.074 -0.002
 C          0.028  0.013 -0.050    0.133  0.072  0.009    0.019 -0.057  0.007
 C         -0.094  0.047  0.020    0.027 -0.068 -0.060   -0.053 -0.012  0.062
 C          0.051  0.066 -0.036    0.058 -0.096  0.093    0.156  0.077 -0.056
 N         -0.033 -0.034  0.008   -0.033 -0.006 -0.000   -0.080  0.004 -0.010
 H         -0.064 -0.006  0.066   -0.039 -0.051  0.133    0.002  0.280 -0.228
 H          0.361  0.124 -0.145   -0.477 -0.006 -0.222   -0.450 -0.238  0.275
 H         -0.239  0.060  0.372   -0.126  0.067  0.539    0.220 -0.333  0.033
 H         -0.070  0.464  0.031    0.058  0.222 -0.064   -0.049  0.111  0.056
 H          0.176  0.054 -0.206   -0.080 -0.415 -0.070    0.316  0.238 -0.073
 C         -0.021 -0.099  0.063   -0.016  0.039 -0.097    0.055  0.003 -0.010
 H          0.387 -0.251  0.252    0.246 -0.060 -0.016    0.201 -0.178 -0.217
 TransDip   0.029  0.030  0.051    0.006 -0.028  0.004    0.083  0.018 -0.021

 Mode:                19                     20                     21
 Frequency:      1095.12                1109.04                1211.89
 Force Cnst:      0.9708                 1.3448                 1.2409
 Red. Mass:       1.3739                 1.8557                 1.4340
 IR Active:          YES                    YES                    YES
 IR Intens:        1.089                  1.328                  0.228
 Raman Active:       YES                    YES                    YES
               X      Y      Z        X      Y      Z        X      Y      Z
 C          0.013 -0.011  0.036    0.065 -0.002 -0.004    0.012  0.009  0.005
 C          0.012 -0.037 -0.064   -0.088  0.083 -0.087   -0.035  0.033  0.005
 C          0.051  0.062  0.048    0.034 -0.022  0.009    0.079 -0.125  0.035
 C          0.004  0.008 -0.014    0.085 -0.017 -0.035    0.016  0.036 -0.065
 C         -0.090 -0.036 -0.067   -0.085  0.137  0.049   -0.014  0.040 -0.022
 N          0.034  0.027  0.005   -0.007 -0.049  0.014   -0.007 -0.013 -0.003
 H          0.016 -0.095 -0.129    0.067 -0.016 -0.014    0.011 -0.070  0.001
 H         -0.117 -0.153  0.461    0.003  0.036  0.603   -0.149  0.016 -0.159
 H          0.063  0.072  0.033    0.045 -0.044  0.024   -0.316  0.497 -0.145
 H         -0.024  0.317 -0.256    0.066 -0.146 -0.119    0.061 -0.392  0.306
 H         -0.374  0.118  0.436    0.040 -0.310 -0.601    0.042  0.241  0.125
 C         -0.021 -0.019  0.012   -0.023 -0.080  0.041   -0.049  0.022  0.045
 H          0.332 -0.243 -0.035    0.026 -0.032  0.221    0.342 -0.283 -0.127
 TransDip  -0.015 -0.011  0.028    0.036 -0.005  0.001    0.011  0.009 -0.006

 Mode:                22                     23                     24
 Frequency:      1254.25                1281.55                1313.24
 Force Cnst:      1.7980                 1.3479                 1.7065
 Red. Mass:       1.9399                 1.3929                 1.6795
 IR Active:          YES                    YES                    YES
 IR Intens:       17.019                  1.937                 10.650
 Raman Active:       YES                    YES                    YES
               X      Y      Z        X      Y      Z        X      Y      Z
 C         -0.005 -0.057  0.033   -0.046 -0.021  0.001    0.011 -0.020 -0.001
 C          0.129 -0.033  0.024   -0.038 -0.023 -0.025   -0.133 -0.002  0.031
 C         -0.108 -0.041 -0.063   -0.021  0.082 -0.002    0.054 -0.079  0.034
 C          0.077 -0.051  0.052    0.012  0.063 -0.069   -0.018 -0.069  0.059
 C         -0.011  0.094  0.018    0.031 -0.051  0.039    0.009  0.091 -0.063
 N          0.014  0.035 -0.004    0.056 -0.027  0.004    0.049 -0.045  0.025
 H         -0.003  0.136 -0.055   -0.041  0.601 -0.152    0.018  0.471 -0.166
 H         -0.287 -0.156 -0.285    0.294  0.091  0.048    0.413  0.236 -0.185
 H         -0.007 -0.141 -0.165    0.192 -0.268  0.133   -0.111  0.209 -0.080
 H          0.030  0.048 -0.245    0.051 -0.394  0.270   -0.038  0.303 -0.165
 H         -0.257 -0.412 -0.257   -0.065 -0.110  0.108   -0.410 -0.191  0.112
 C         -0.087  0.114  0.046   -0.061  0.004  0.017    0.039  0.037 -0.042
 H          0.389 -0.289 -0.243    0.251 -0.187 -0.011   -0.102  0.107 -0.087
 TransDip  -0.101 -0.079 -0.029    0.044  0.004 -0.003    0.020  0.074 -0.071

 Mode:                25                     26                     27
 Frequency:      1332.34                1354.58                1615.54
 Force Cnst:      1.6275                 1.9106                10.2072
 Red. Mass:       1.5561                 1.7673                 6.6378
 IR Active:          YES                    YES                    YES
 IR Intens:       10.342                 17.399                 62.011
 Raman Active:       YES                    YES                    YES
               X      Y      Z        X      Y      Z        X      Y      Z
 C         -0.087  0.001  0.003    0.092  0.078 -0.027   -0.225  0.470 -0.127
 C          0.019  0.017 -0.001   -0.105 -0.127  0.029    0.077 -0.039  0.003
 C          0.023  0.003  0.033    0.005  0.057  0.029   -0.029  0.001 -0.003
 C          0.051 -0.078  0.023    0.047 -0.049  0.007   -0.002 -0.025  0.014
 C         -0.121 -0.067  0.022   -0.039 -0.012  0.017    0.030  0.063 -0.022
 N          0.086 -0.014 -0.006   -0.053  0.002 -0.003    0.212 -0.350  0.094
 H         -0.088  0.421 -0.118    0.104 -0.462  0.127   -0.262 -0.454  0.097
 H         -0.068 -0.007 -0.022    0.574  0.139 -0.174   -0.218 -0.163  0.053
 H         -0.041  0.146 -0.044    0.176 -0.129  0.003    0.014 -0.064  0.003
 H          0.028  0.198 -0.239    0.043  0.044 -0.098    0.001 -0.055  0.019
 H          0.596  0.441 -0.272    0.221  0.121 -0.144   -0.309 -0.220  0.082
 C         -0.023  0.039 -0.013   -0.060  0.090 -0.013   -0.034  0.020  0.006
 H          0.027  0.015 -0.024    0.320 -0.188 -0.169    0.007 -0.012 -0.017
 TransDip  -0.034  0.048 -0.085    0.118 -0.002 -0.062    0.086  0.163 -0.172

 Mode:                28                     29                     30
 Frequency:      3136.39                3176.52                3183.20
 Force Cnst:      6.3081                 6.4810                 6.5173
 Red. Mass:       1.0884                 1.0902                 1.0917
 IR Active:          YES                    YES                    YES
 IR Intens:       18.177                  9.690                  9.410
 Raman Active:       YES                    YES                    YES
               X      Y      Z        X      Y      Z        X      Y      Z
 C         -0.001 -0.000 -0.000   -0.012 -0.000 -0.000   -0.082  0.001 -0.001
 C         -0.001  0.005 -0.001    0.001 -0.000 -0.001    0.012 -0.025 -0.003
 C          0.001  0.000  0.000    0.002  0.002  0.000    0.001  0.001  0.000
 C          0.017 -0.000 -0.005   -0.080  0.007  0.017    0.010 -0.001 -0.002
 C         -0.001  0.001 -0.001    0.009 -0.006  0.004   -0.002  0.004 -0.003
 N         -0.000  0.000 -0.000   -0.000 -0.000 -0.000    0.001 -0.002  0.000
 H          0.012 -0.001  0.001    0.134 -0.001  0.001    0.932 -0.004  0.013
 H          0.021 -0.061 -0.001   -0.005  0.007  0.002   -0.116  0.298  0.040
 H         -0.012 -0.010 -0.004   -0.026 -0.019 -0.011   -0.007 -0.006 -0.004
 H         -0.210  0.015  0.047    0.934 -0.068 -0.184   -0.118  0.008  0.023
 H          0.012 -0.011  0.007   -0.087  0.079 -0.067    0.042 -0.039  0.036
 C         -0.037 -0.067  0.034   -0.007 -0.016  0.008    0.000  0.001 -0.001
 H          0.441  0.782 -0.368    0.095  0.172 -0.078   -0.009 -0.015  0.007
 TransDip  -0.003 -0.130  0.043   -0.096 -0.000  0.026   -0.096 -0.007 -0.018

 Mode:                31                     32                     33
 Frequency:      3201.11                3207.91                3250.67
 Force Cnst:      6.5958                 6.6196                 6.8284
 Red. Mass:       1.0925                 1.0918                 1.0968
 IR Active:          YES                    YES                    YES
 IR Intens:       13.845                  7.179                  0.417
 Raman Active:       YES                    YES                    YES
               X      Y      Z        X      Y      Z        X      Y      Z
 C          0.028  0.001  0.000    0.008 -0.001  0.000    0.003 -0.000  0.000
 C          0.028 -0.077 -0.008    0.003 -0.008 -0.001    0.006 -0.008 -0.000
 C          0.003  0.005  0.002    0.008  0.005  0.004   -0.064 -0.050 -0.035
 C         -0.000  0.001 -0.000   -0.012  0.001  0.003   -0.004  0.000  0.002
 C          0.006 -0.006  0.006   -0.053  0.050 -0.044   -0.005  0.008 -0.005
 N         -0.000  0.001 -0.000   -0.000  0.000  0.000    0.000  0.001 -0.000
 H         -0.311 -0.003 -0.003   -0.083 -0.000 -0.002   -0.021 -0.000 -0.002
 H         -0.318  0.869  0.109   -0.030  0.085  0.011   -0.034  0.084  0.009
 H         -0.058 -0.050 -0.033   -0.091 -0.069 -0.051    0.712  0.563  0.382
 H         -0.000  0.000  0.002    0.136 -0.007 -0.028    0.044 -0.004 -0.010
 H         -0.079  0.074 -0.067    0.607 -0.559  0.511    0.066 -0.064  0.055
 C         -0.003 -0.004  0.003   -0.000 -0.002  0.001   -0.001 -0.001  0.002
 H          0.032  0.051 -0.026    0.008  0.015 -0.006    0.013  0.024 -0.013
 TransDip   0.081 -0.087  0.002   -0.063  0.039 -0.043   -0.008 -0.013 -0.014

 STANDARD THERMODYNAMIC QUANTITIES AT   298.15 K  AND     1.00 ATM

   This Molecule has  1 Imaginary Frequencies
   Zero point vibrational energy:       63.189 kcal/mol

   Atom    1 Element C  Has Mass   12.00000
   Atom    2 Element C  Has Mass   12.00000
   Atom    3 Element C  Has Mass   12.00000
   Atom    4 Element C  Has Mass   12.00000
   Atom    5 Element C  Has Mass   12.00000
   Atom    6 Element N  Has Mass   14.00307
   Atom    7 Element H  Has Mass    1.00783
   Atom    8 Element H  Has Mass    1.00783
   Atom    9 Element H  Has Mass    1.00783
   Atom   10 Element H  Has Mass    1.00783
   Atom   11 Element H  Has Mass    1.00783
   Atom   12 Element C  Has Mass   12.00000
   Atom   13 Element H  Has Mass    1.00783
   Molecular Mass:    92.050050 amu
   Principal axes and moments of inertia in amu*Bohr^2:
                             1           2           3
    Eigenvalues --      347.07097   451.21165   612.72896
          X               0.75005    -0.58575     0.30710
          Y               0.44858     0.79177     0.41457
          Z              -0.48599    -0.17319     0.85663
   Rotational Symmetry Number is   1
   The Molecule is an Asymmetric Top
   Translational Enthalpy:        0.889 kcal/mol
   Rotational Enthalpy:           0.889 kcal/mol
   Vibrational Enthalpy:         64.434 kcal/mol
   gas constant (RT):             0.592 kcal/mol
   Translational Entropy:        39.471  cal/mol.K
   Rotational Entropy:           26.064  cal/mol.K
   Vibrational Entropy:           5.734  cal/mol.K

   Total Enthalpy:               66.804 kcal/mol
   Total Entropy:                71.270  cal/mol.K
Archival summary:
1\1\c8-66\FREQ\ProcedureUnspecified\6-31+G**\166(2)\hpark21\WedMar213:45:492022WedMar213:45:492022\0\\#,FREQ,ProcedureUnspecified,6-31+G**,\\0,2\N\C,1,1.28911\H,2,1.08757,1,121.597\C,1,1.44968,2,106.777,3,-178.858,0\H,4,1.08448,1,115.897,2,-156.372,0\C,2,1.49438,1,114.29,3,179.294,0\H,6,1.08517,2,121.244,1,155.179,0\C,6,1.50076,2,102.784,1,14.8973,0\H,8,1.08171,6,128.38,2,147.241,0\C,4,1.53393,1,116.827,2,61.9454,0\H,10,1.08684,4,117.972,1,159.685,0\C,10,1.5134,4,105.698,1,-61.6151,0\H,12,1.08895,10,120.773,4,-133.87,0\\\@

 Total job time:  605.01s(wall), 556.46s(cpu) 
 Wed Mar  2 13:45:49 2022

        *************************************************************
        *                                                           *
        *  Thank you very much for using Q-Chem.  Have a nice day.  *
        *                                                           *
        *************************************************************


