
Running Job 1 of 1 qcts1.in
qchem qcts1.in_21826.0 ./qcts1.d/ 1
/home/leeping/opt/qchem/5.0.2-openmp/exe/qcprog.exe_s qcts1.in_21826.0 ./qcts1.d/
Check license passed

                  Welcome to Q-Chem
     A Quantum Leap Into The Future Of Chemistry


 Q-Chem 5.0, Q-Chem, Inc., Pleasanton, CA (2017)

 Yihan Shao,  Zhengting Gan,  E. Epifanovsky,  A. T. B. Gilbert,  M. Wormit,  
 J. Kussmann,  A. W. Lange,  A. Behn,  Jia Deng,  Xintian Feng,  D. Ghosh,  
 M. Goldey,  P. R. Horn,  L. D. Jacobson,  I. Kaliman,  T. Kus,  A. Landau,  
 Jie Liu,  E. I. Proynov,  R. M. Richard,  R. P. Steele,  E. J. Sundstrom,  
 H. L. Woodcock III,  P. M. Zimmerman,  D. Zuev,  B. Albrecht,  E. Alguire,  
 S. A. Baeppler,  D. Barton,  Z. Benda,  Y. A. Bernard,  E. J. Berquist,  
 K. B. Bravaya,  H. Burton,  D. Casanova,  Chun-Min Chang,  Yunqing Chen,  
 A. Chien,  K. D. Closser,  M. P. Coons,  S. Dasgupta,  A. L. Dempwolff,  
 M. Diedenhofen,  Hainam Do,  R. G. Edgar,  Po-Tung Fang,  S. Fatehi,  
 Qingguo Feng,  J. Fosso-Tande,  Qinghui Ge,  A. Ghysels,  G. Gidofalvi,  
 J. Gomes,  J. Gonthier,  A. Gunina,  M. W. D. Hanson-Heine,  
 P. H. P. Harbach,  A. W. Hauser,  J. E. Herr,  E. G. Hohenstein,  
 Z. C. Holden,  Kerwin Hui,  T.-C. Jagau,  Hyunjun Ji,  B. Kaduk,  
 K. Khistyaev,  Jaehoon Kim,  P. Klunzinger,  K. Koh,  D. Kosenkov,  
 L. Koulias,  T. Kowalczyk,  C. M. Krauter,  A. Kunitsa,  Ka Un Lao,  
 A. Laurent,  K. V. Lawler,  Joonho Lee,  D. Lefrancois,  S. Lehtola,  
 D. S. Levine,  Yi-Pei Li,  You-Sheng Lin,  Fenglai Liu,  E. Livshits,  
 A. Luenser,  P. Manohar,  E. Mansoor,  S. F. Manzer,  Shan-Ping Mao,  
 Yuezhi Mao,  N. Mardirossian,  A. V. Marenich,  T. Markovich,  
 L. A. Martinez-Martinez,  S. A. Maurer,  N. J. Mayhall,  S. C. McKenzie,  
 J.-M. Mewes,  A. F. Morrison,  J. W. Mullinax,  K. Nanda,  
 T. S. Nguyen-Beck,  R. Olivares-Amaya,  J. A. Parkhill,  T. M. Perrine,  
 F. Plasser,  S. Prager,  A. Prociuk,  E. Ramos,  D. R. Rehn,  F. Rob,  
 M. Schneider,  N. Sergueev,  S. M. Sharada,  S. Sharma,  D. W. Small,  
 T. Stauch,  T. Stein,  Yu-Chuan Su,  A. J. W. Thom,  A. Tkatchenko,  
 T. Tsuchimochi,  L. Vogt,  O. Vydrov,  M. A. Watson,  J. Wenzel,  
 M. de Wergifosse,  T. A. Wesolowski,  A. White,  J. Witte,  A. Yamada,  
 Jun Yang,  K. Yao,  S. Yeganeh,  S. R. Yost,  Zhi-Qiang You,  A. Zech,  
 Igor Ying Zhang,  Xing Zhang,  Yan Zhao,  Ying Zhu,  B. R. Brooks,  
 G. K. L. Chan,  C. J. Cramer,  M. S. Gordon,  W. J. Hehre,  A. Klamt,  
 M. W. Schmidt,  C. D. Sherrill,  D. G. Truhlar,  A. Aspuru-Guzik,  R. Baer,  
 A. T. Bell,  N. A. Besley,  Jeng-Da Chai,  R. A. DiStasio Jr.,  A. Dreuw,  
 B. D. Dunietz,  T. R. Furlani,  Chao-Ping Hsu,  Yousung Jung,  Jing Kong,  
 D. S. Lambrecht,  WanZhen Liang,  C. Ochsenfeld,  V. A. Rassolov,  
 L. V. Slipchenko,  J. E. Subotnik,  T. Van Voorhis,  J. M. Herbert,  
 A. I. Krylov,  P. M. W. Gill,  M. Head-Gordon

 Contributors to earlier versions of Q-Chem not listed above: 
 R. D. Adamson,  B. Austin,  J. Baker,  G. J. O. Beran,  K. Brandhorst,  
 S. T. Brown,  E. F. C. Byrd,  A. K. Chakraborty,  C.-L. Cheng,  
 Siu Hung Chien,  D. M. Chipman,  D. L. Crittenden,  H. Dachsel,  
 R. J. Doerksen,  A. D. Dutoi,  L. Fusti-Molnar,  W. A. Goddard III,  
 A. Golubeva-Zadorozhnaya,  S. R. Gwaltney,  G. Hawkins,  A. Heyden,  
 S. Hirata,  G. Kedziora,  F. J. Keil,  C. Kelley,  Jihan Kim,  R. A. King,  
 R. Z. Khaliullin,  P. P. Korambath,  W. Kurlancheek,  A. M. Lee,  M. S. Lee,  
 S. V. Levchenko,  Ching Yeh Lin,  D. Liotard,  R. C. Lochan,  I. Lotan,  
 P. E. Maslen,  N. Nair,  D. P. O'Neill,  D. Neuhauser,  E. Neuscamman,  
 C. M. Oana,  R. Olson,  B. Peters,  R. Peverati,  P. A. Pieniazek,  
 Y. M. Rhee,  J. Ritchie,  M. A. Rohrdanz,  E. Rosta,  N. J. Russ,  
 H. F. Schaefer III,  N. E. Schultz,  N. Shenvi,  A. C. Simmonett,  A. Sodt,  
 D. Stuck,  K. S. Thanthiriwatte,  V. Vanovschi,  Tao Wang,  A. Warshel,  
 C. F. Williams,  Q. Wu,  X. Xu,  W. Zhang

 Please cite Q-Chem as follows:
 Y. Shao et al., Mol. Phys. 113, 184-215 (2015)
 DOI: 10.1080/00268976.2014.952696

 Q-Chem 5.0.2 for Intel X86 EM64T Linux

 Parts of Q-Chem use Armadillo 5.200.1 (Boston Tea Smuggler).
 http://arma.sourceforge.net/

 Q-Chem begins on Wed Mar  2 12:45:16 2022  

Host: 
0

     Scratch files written to ./qcts1.d//
 Dec517 15110_ 26548  26544 5633   
Processing $rem in /home/leeping/opt/qchem/5.0.2-openmp/config/preferences.
 MEM_STATIC 2000
 MEM_TOTAL  8000
 SYMMETRY   OFF
 SYM_IGNORE TRUE 

Checking the input file for inconsistencies... 	...done.

--------------------------------------------------------------
User input:
--------------------------------------------------------------
$molecule
0 2
C        1.5817774021    0.3120151961   -0.3122421681
C        0.6705574181   -0.8850034414   -0.0964459145
C       -0.6147839286   -0.4163785966   -0.7283474707
C       -0.9774092738    0.5682604273    0.8128780744
C       -0.4744878904    1.0504386071   -0.5483289568
N        0.9553169006    1.4060716891   -0.5409374500
H        2.6589303224    0.2868294437   -0.1546823471
H        1.0419166784   -1.8939299535   -0.2578800626
H       -1.3057425376   -0.9745698267   -1.3508585737
H       -2.0288149060    0.6845983511    1.0737343376
H       -1.1174727517    1.7522927453   -1.0719248652
C       -0.1715907581   -0.6477523447    1.1360505493
H       -0.2339304782   -1.2594164913    2.0335375031
$end

$rem
method                b3lyp
basis                 6-31g(d)
unrestricted          true
symmetry              off
sym_ignore            true
incdft                false
incfock               0
scf_convergence       6
thresh                14
jobtype               sp
scf_guess             read
scf_algorithm         diis
max_scf_cycles        100
stability_analysis    true
max_cis_cycles        100
cis_n_roots           4
$end

--------------------------------------------------------------
 ----------------------------------------------------------------
             Standard Nuclear Orientation (Angstroms)
    I     Atom           X                Y                Z
 ----------------------------------------------------------------
    1      C       1.5817774021     0.3120151961    -0.3122421681
    2      C       0.6705574181    -0.8850034414    -0.0964459145
    3      C      -0.6147839286    -0.4163785966    -0.7283474707
    4      C      -0.9774092738     0.5682604273     0.8128780744
    5      C      -0.4744878904     1.0504386071    -0.5483289568
    6      N       0.9553169006     1.4060716891    -0.5409374500
    7      H       2.6589303224     0.2868294437    -0.1546823471
    8      H       1.0419166784    -1.8939299535    -0.2578800626
    9      H      -1.3057425376    -0.9745698267    -1.3508585737
   10      H      -2.0288149060     0.6845983511     1.0737343376
   11      H      -1.1174727517     1.7522927453    -1.0719248652
   12      C      -0.1715907581    -0.6477523447     1.1360505493
   13      H      -0.2339304782    -1.2594164913     2.0335375031
 ----------------------------------------------------------------
 Nuclear Repulsion Energy =   281.1288503409 hartrees
 There are       25 alpha and       24 beta electrons
 Requested basis set is 6-31G(d)
 There are 40 shells and 117 basis functions

 Total QAlloc Memory Limit   8000 MB
 Mega-Array Size      1956 MB
 MEM_STATIC part      2000 MB

                       Distance Matrix (Angstroms)
             C (  1)   C (  2)   C (  3)   C (  4)   C (  5)   N (  6)
   C (  2)  1.519784
   C (  3)  2.351294  1.506987
   C (  4)  2.807311  2.377949  1.864507
   C (  5)  2.197552  2.293744  1.484467  1.529153
   N (  6)  1.281294  2.351103  2.412813  2.504032  1.473388
   H (  7)  1.088907  2.308725  3.397175  3.773373  3.249056  2.074655
   H (  8)  2.271695  1.087153  2.269175  3.359551  3.324628  3.313251
   H (  9)  3.327431  2.342506  1.084676  2.677664  2.331458  3.381688
   H ( 10)  3.885373  3.334604  2.541482  1.089511  2.276150  3.468823
   H ( 11)  3.152375  3.332258  2.252527  2.230254  1.086362  2.167550
   C ( 12)  2.468401  1.511473  1.930268  1.494146  2.410961  2.881042
   H ( 13)  3.356914  2.344166  2.912691  2.320167  3.472655  3.891922
             H (  7)   H (  8)   H (  9)   H ( 10)   H ( 11)   C ( 12)
   H (  8)  2.716817
   H (  9)  4.329041  2.747968
   H ( 10)  4.862323  4.225091  3.025611
   H ( 11)  4.153328  4.315156  2.747550  2.564053
   C ( 12)  3.248274  2.229036  2.752785  2.286553  3.395595
   H ( 13)  3.943073  2.698331  3.561468  2.814609  4.415307  1.087889

 
 A cutoff of  1.0D-14 yielded    812 shell pairs
 There are      7084 function pairs
 Smallest overlap matrix eigenvalue = 1.60E-03

 Scale SEOQF with 1.000000e-01/1.000000e-01/1.000000e-01

 Standard Electronic Orientation quadrupole field applied
 Nucleus-field energy     =     0.0000000017 hartrees
 Guess MOs from SCF MO coefficient file
 Reading MOs from coefficient file
 Reading MOs from coefficient file
 An unrestricted hybrid HF-DFT SCF calculation will be
 performed using Pulay DIIS extrapolation
 Exchange:     0.2000 Hartree-Fock + 0.0800 Slater + 0.7200 B88
 Correlation:  0.1900 VWN1RPA + 0.8100 LYP
 Using SG-1 standard quadrature grid
 SCF converges when DIIS error is below 1.0E-06
Using Q-Chem read-in guess as SCF_GUESS READ specified.

 -------------------------------------------------------
 OpenMP BLAS3 based DFT computing Module                
 -------------------------------------------------------
 ---------------------------------------
  Cycle       Energy         DIIS Error
 ---------------------------------------
    1    -286.7932560631      1.53E-09
    2    -286.7932560631      2.25E-09 Convergence criterion met
 ---------------------------------------
 <S^2> = 0.7550
 SCF time:  CPU 3.30 s  wall 6.12 s
 SCF   energy in the final basis set = -286.79325606
 Total energy in the final basis set = -286.79325606
 
 Direct TDDFT/TDA calculation will be performed
 Exchange:     0.2000 Hartree-Fock + 0.0800 Slater + 0.7200 B88
 Correlation:  0.1900 VWN1RPA + 0.8100 LYP
 Using SG-1 standard quadrature grid
 CIS energy converged when residual is below 10e- 6
 ---------------------------------------------------
 Iter    Rts Conv    Rts Left    Ttl Dev     Max Dev
 ---------------------------------------------------
   1         0           4      0.004960    0.001977
   2         0           4      0.001518    0.000670
   3         0           4      0.001125    0.000791
   4         0           4      0.000462    0.000367
   5         0           4      0.000196    0.000167
   6         0           4      0.000185    0.000178
   7         2           2      0.000464    0.000462
   8         3           1      0.000123    0.000122
   9         3           1      0.000030    0.000029
  10         3           1      0.000011    0.000010
  11         3           1      0.000004    0.000003
  12         4           0      0.000002    0.000001    Roots Converged
 ---------------------------------------------------
 
 ---------------------------------------------------
         TDDFT/TDA Excitation Energies              
 ---------------------------------------------------

 Excited state   1: excitation energy (eV) =    1.2483
 Total energy for state  1:                  -286.74738148 au
    <S**2>     :  0.8643
    Trans. Mom.:  0.1006 X  -0.2125 Y  -0.3646 Z
    Strength   :     0.0057569151
    S(  1) --> V(  1) amplitude =  0.9346 alpha
    S(  1) --> V(  2) amplitude = -0.2804 alpha

 Excited state   2: excitation energy (eV) =    1.8405
 Total energy for state  2:                  -286.72561857 au
    <S**2>     :  0.7926
    Trans. Mom.:  0.3259 X   0.2062 Y  -0.1311 Z
    Strength   :     0.0074817888
    S(  1) --> V(  1) amplitude =  0.2913 alpha
    S(  1) --> V(  2) amplitude =  0.9494 alpha

 Excited state   3: excitation energy (eV) =    4.1445
 Total energy for state  3:                  -286.64094946 au
    <S**2>     :  0.7880
    Trans. Mom.: -0.0246 X  -0.0099 Y   0.0337 Z
    Strength   :     0.0001866097
    S(  1) --> V(  3) amplitude =  0.9927 alpha

 Excited state   4: excitation energy (eV) =    4.6218
 Total energy for state  4:                  -286.62340803 au
    <S**2>     :  2.6197
    Trans. Mom.: -0.0311 X  -0.0460 Y  -0.0106 Z
    Strength   :     0.0003620181
    D( 22) --> V(  2) amplitude = -0.2061 alpha
    D( 23) --> V(  1) amplitude = -0.3892 alpha
    D( 23) --> V(  2) amplitude = -0.4488 alpha
    D( 24) --> V(  2) amplitude = -0.1683 alpha
    D( 22) --> S(  1) amplitude = -0.4147 beta
    D( 22) --> V(  2) amplitude = -0.1781 beta
    D( 23) --> S(  1) amplitude = -0.5032 beta
    D( 23) --> V(  2) amplitude = -0.1825 beta
 
 ---------------------------------------------------

 Stability analysis will be performed
 ---------------------------------------------------
 Iter    Rts Conv    Rts Left    Ttl Dev     Max Dev
 ---------------------------------------------------
   1         0           8      0.005743    0.001003
   2         0           8      0.002255    0.000621
   3         0           8      0.001424    0.000486
   4         2           6      0.000732    0.000232
   5         3           5      0.000360    0.000149
   6         3           5      0.000134    0.000054
   7         4           4      0.000047    0.000020
   8         5           3      0.000015    0.000007
   9         6           2      0.000006    0.000002
  10         8           0      0.000003    0.000001    Roots Converged
 UKS-> UKS   stable,    smallest eigenvalue:      0.0267065
 UKS->CUKS   stable,    smallest eigenvalue:      0.0455931
 ---------------------------------------------------
  SETman timing summary (seconds)
  CPU time                83.54s
  System time              0.00s
  Wall time              101.32s
 
 --------------------------------------------------------------
 
                    Orbital Energies (a.u.)
 --------------------------------------------------------------
 
 Alpha MOs
 -- Occupied --
-14.317 -10.234 -10.232 -10.221 -10.220 -10.208 -10.187  -0.965
 -0.846  -0.749  -0.669  -0.598  -0.582  -0.540  -0.513  -0.459
 -0.429  -0.417  -0.404  -0.370  -0.343  -0.292  -0.275  -0.265
 -0.106
 -- Virtual --
 -0.009   0.006   0.091   0.144   0.145   0.150   0.153   0.161
  0.179   0.201   0.212   0.258   0.282   0.311   0.339   0.386
  0.486   0.508   0.517   0.531   0.558   0.582   0.594   0.597
  0.623   0.655   0.662   0.678   0.696   0.731   0.755   0.786
  0.807   0.825   0.829   0.847   0.867   0.884   0.915   0.931
  0.970   1.007   1.071   1.141   1.171   1.209   1.302   1.306
  1.377   1.424   1.461   1.508   1.582   1.625   1.690   1.750
  1.768   1.825   1.842   1.884   1.938   1.972   1.972   2.056
  2.086   2.100   2.139   2.260   2.284   2.301   2.357   2.385
  2.412   2.464   2.498   2.533   2.589   2.623   2.637   2.677
  2.699   2.739   2.820   2.906   2.962   3.948   4.168   4.249
  4.365   4.417   4.524   4.582
 
 Beta MOs
 -- Occupied --
-14.316 -10.232 -10.231 -10.220 -10.219 -10.208 -10.176  -0.961
 -0.839  -0.745  -0.657  -0.592  -0.578  -0.535  -0.505  -0.452
 -0.426  -0.414  -0.400  -0.365  -0.338  -0.281  -0.263  -0.254
 -- Virtual --
 -0.004   0.007   0.025   0.094   0.146   0.149   0.153   0.158
  0.165   0.183   0.203   0.214   0.263   0.287   0.315   0.347
  0.388   0.492   0.514   0.523   0.542   0.564   0.585   0.601
  0.606   0.630   0.661   0.677   0.685   0.704   0.734   0.759
  0.788   0.811   0.826   0.831   0.850   0.873   0.887   0.920
  0.934   0.973   1.011   1.085   1.146   1.174   1.218   1.306
  1.315   1.381   1.429   1.463   1.517   1.590   1.629   1.697
  1.760   1.774   1.833   1.846   1.888   1.955   1.976   1.979
  2.063   2.094   2.112   2.144   2.267   2.295   2.312   2.368
  2.399   2.422   2.471   2.504   2.543   2.593   2.632   2.646
  2.679   2.702   2.743   2.824   2.908   2.963   3.950   4.178
  4.253   4.372   4.432   4.526   4.583
 --------------------------------------------------------------
 
          Ground-State Mulliken Net Atomic Charges

     Atom                 Charge (a.u.)    Spin (a.u.)
  --------------------------------------------------------
      1 C                     0.097045       0.016525
      2 C                    -0.201469      -0.036914
      3 C                    -0.114900       0.151514
      4 C                    -0.115201       0.049384
      5 C                    -0.039284      -0.012724
      6 N                    -0.341677       0.036461
      7 H                     0.145780       0.004775
      8 H                     0.140274       0.009094
      9 H                     0.168902      -0.009127
     10 H                     0.157003       0.008234
     11 H                     0.152990       0.002940
     12 C                    -0.183377       0.814694
     13 H                     0.133912      -0.034857
  --------------------------------------------------------
  Sum of atomic charges =     0.000000
  Sum of spin   charges =     1.000000

 -----------------------------------------------------------------
                    Cartesian Multipole Moments
 -----------------------------------------------------------------
    Charge (ESU x 10^10)
                -0.0000
    Dipole Moment (Debye)
         X      -1.4149      Y      -2.2087      Z      -0.5124
       Tot       2.6727
    Quadrupole Moments (Debye-Ang)
        XX     -37.1072     XY      -4.1628     YY     -43.4505
        XZ       1.1426     YZ       0.9776     ZZ     -41.1909
    Octopole Moments (Debye-Ang^2)
       XXX     -10.2579    XXY      -7.8777    XYY     -11.0059
       YYY     -30.0987    XXZ       1.1777    XYZ       1.3932
       YYZ       1.1386    XZZ      -9.0131    YZZ      -9.4485
       ZZZ       3.2829
    Hexadecapole Moments (Debye-Ang^3)
      XXXX    -245.2744   XXXY      -8.8218   XXYY     -89.3138
      XYYY     -21.6769   YYYY    -250.2300   XXXZ      21.3847
      XXYZ      13.0160   XYYZ      14.2758   YYYZ      28.0610
      XXZZ     -73.9466   XYZZ      -2.2238   YYZZ     -67.2121
      XZZZ      23.1428   YZZZ      23.0297   ZZZZ    -176.4719
 -----------------------------------------------------------------
Archival summary:
1\1\c8-66\SP\ProcedureUnspecified\6-31G*\166(2)\hpark21\WedMar212:47:112022WedMar212:47:112022\0\\#,ProcedureUnspecified,6-31G*,\\0,2\N\C,1,1.28129\H,2,1.08891,1,121.953\C,1,1.47339,2,105.62,3,-173.947,0\H,4,1.08636,1,114.888,2,-158.662,0\C,4,1.48447,1,109.319,2,-17.8805,0\H,6,1.08468,4,129.665,1,-137.327,0\C,6,1.50699,4,100.126,1,28.9512,0\H,8,1.08715,6,121.176,4,-164.526,0\C,8,1.51147,6,79.5071,4,79.9263,0\H,10,1.08789,8,128.053,6,138.976,0\C,10,1.49415,8,104.588,6,-37.2057,0\H,12,1.08951,10,123.75,8,139.268,0\\\@

 Total job time:  114.73s(wall), 87.03s(cpu) 
 Wed Mar  2 12:47:11 2022

        *************************************************************
        *                                                           *
        *  Thank you very much for using Q-Chem.  Have a nice day.  *
        *                                                           *
        *************************************************************


