
Running Job 1 of 1 qcts2.in
qchem qcts2.in_24854.0 ./qcts2.d/ 1
/home/leeping/opt/qchem/5.0.2-openmp/exe/qcprog.exe_s qcts2.in_24854.0 ./qcts2.d/
Check license passed

                  Welcome to Q-Chem
     A Quantum Leap Into The Future Of Chemistry


 Q-Chem 5.0, Q-Chem, Inc., Pleasanton, CA (2017)

 Yihan Shao,  Zhengting Gan,  E. Epifanovsky,  A. T. B. Gilbert,  M. Wormit,  
 J. Kussmann,  A. W. Lange,  A. Behn,  Jia Deng,  Xintian Feng,  D. Ghosh,  
 M. Goldey,  P. R. Horn,  L. D. Jacobson,  I. Kaliman,  T. Kus,  A. Landau,  
 Jie Liu,  E. I. Proynov,  R. M. Richard,  R. P. Steele,  E. J. Sundstrom,  
 H. L. Woodcock III,  P. M. Zimmerman,  D. Zuev,  B. Albrecht,  E. Alguire,  
 S. A. Baeppler,  D. Barton,  Z. Benda,  Y. A. Bernard,  E. J. Berquist,  
 K. B. Bravaya,  H. Burton,  D. Casanova,  Chun-Min Chang,  Yunqing Chen,  
 A. Chien,  K. D. Closser,  M. P. Coons,  S. Dasgupta,  A. L. Dempwolff,  
 M. Diedenhofen,  Hainam Do,  R. G. Edgar,  Po-Tung Fang,  S. Fatehi,  
 Qingguo Feng,  J. Fosso-Tande,  Qinghui Ge,  A. Ghysels,  G. Gidofalvi,  
 J. Gomes,  J. Gonthier,  A. Gunina,  M. W. D. Hanson-Heine,  
 P. H. P. Harbach,  A. W. Hauser,  J. E. Herr,  E. G. Hohenstein,  
 Z. C. Holden,  Kerwin Hui,  T.-C. Jagau,  Hyunjun Ji,  B. Kaduk,  
 K. Khistyaev,  Jaehoon Kim,  P. Klunzinger,  K. Koh,  D. Kosenkov,  
 L. Koulias,  T. Kowalczyk,  C. M. Krauter,  A. Kunitsa,  Ka Un Lao,  
 A. Laurent,  K. V. Lawler,  Joonho Lee,  D. Lefrancois,  S. Lehtola,  
 D. S. Levine,  Yi-Pei Li,  You-Sheng Lin,  Fenglai Liu,  E. Livshits,  
 A. Luenser,  P. Manohar,  E. Mansoor,  S. F. Manzer,  Shan-Ping Mao,  
 Yuezhi Mao,  N. Mardirossian,  A. V. Marenich,  T. Markovich,  
 L. A. Martinez-Martinez,  S. A. Maurer,  N. J. Mayhall,  S. C. McKenzie,  
 J.-M. Mewes,  A. F. Morrison,  J. W. Mullinax,  K. Nanda,  
 T. S. Nguyen-Beck,  R. Olivares-Amaya,  J. A. Parkhill,  T. M. Perrine,  
 F. Plasser,  S. Prager,  A. Prociuk,  E. Ramos,  D. R. Rehn,  F. Rob,  
 M. Schneider,  N. Sergueev,  S. M. Sharada,  S. Sharma,  D. W. Small,  
 T. Stauch,  T. Stein,  Yu-Chuan Su,  A. J. W. Thom,  A. Tkatchenko,  
 T. Tsuchimochi,  L. Vogt,  O. Vydrov,  M. A. Watson,  J. Wenzel,  
 M. de Wergifosse,  T. A. Wesolowski,  A. White,  J. Witte,  A. Yamada,  
 Jun Yang,  K. Yao,  S. Yeganeh,  S. R. Yost,  Zhi-Qiang You,  A. Zech,  
 Igor Ying Zhang,  Xing Zhang,  Yan Zhao,  Ying Zhu,  B. R. Brooks,  
 G. K. L. Chan,  C. J. Cramer,  M. S. Gordon,  W. J. Hehre,  A. Klamt,  
 M. W. Schmidt,  C. D. Sherrill,  D. G. Truhlar,  A. Aspuru-Guzik,  R. Baer,  
 A. T. Bell,  N. A. Besley,  Jeng-Da Chai,  R. A. DiStasio Jr.,  A. Dreuw,  
 B. D. Dunietz,  T. R. Furlani,  Chao-Ping Hsu,  Yousung Jung,  Jing Kong,  
 D. S. Lambrecht,  WanZhen Liang,  C. Ochsenfeld,  V. A. Rassolov,  
 L. V. Slipchenko,  J. E. Subotnik,  T. Van Voorhis,  J. M. Herbert,  
 A. I. Krylov,  P. M. W. Gill,  M. Head-Gordon

 Contributors to earlier versions of Q-Chem not listed above: 
 R. D. Adamson,  B. Austin,  J. Baker,  G. J. O. Beran,  K. Brandhorst,  
 S. T. Brown,  E. F. C. Byrd,  A. K. Chakraborty,  C.-L. Cheng,  
 Siu Hung Chien,  D. M. Chipman,  D. L. Crittenden,  H. Dachsel,  
 R. J. Doerksen,  A. D. Dutoi,  L. Fusti-Molnar,  W. A. Goddard III,  
 A. Golubeva-Zadorozhnaya,  S. R. Gwaltney,  G. Hawkins,  A. Heyden,  
 S. Hirata,  G. Kedziora,  F. J. Keil,  C. Kelley,  Jihan Kim,  R. A. King,  
 R. Z. Khaliullin,  P. P. Korambath,  W. Kurlancheek,  A. M. Lee,  M. S. Lee,  
 S. V. Levchenko,  Ching Yeh Lin,  D. Liotard,  R. C. Lochan,  I. Lotan,  
 P. E. Maslen,  N. Nair,  D. P. O'Neill,  D. Neuhauser,  E. Neuscamman,  
 C. M. Oana,  R. Olson,  B. Peters,  R. Peverati,  P. A. Pieniazek,  
 Y. M. Rhee,  J. Ritchie,  M. A. Rohrdanz,  E. Rosta,  N. J. Russ,  
 H. F. Schaefer III,  N. E. Schultz,  N. Shenvi,  A. C. Simmonett,  A. Sodt,  
 D. Stuck,  K. S. Thanthiriwatte,  V. Vanovschi,  Tao Wang,  A. Warshel,  
 C. F. Williams,  Q. Wu,  X. Xu,  W. Zhang

 Please cite Q-Chem as follows:
 Y. Shao et al., Mol. Phys. 113, 184-215 (2015)
 DOI: 10.1080/00268976.2014.952696

 Q-Chem 5.0.2 for Intel X86 EM64T Linux

 Parts of Q-Chem use Armadillo 5.200.1 (Boston Tea Smuggler).
 http://arma.sourceforge.net/

 Q-Chem begins on Wed Mar  2 13:31:34 2022  

Host: 
0

     Scratch files written to ./qcts2.d//
 Dec517 15110_ 26548  26544 5633   
Processing $rem in /home/leeping/opt/qchem/5.0.2-openmp/config/preferences.
 MEM_STATIC 2000
 MEM_TOTAL  8000
 SYMMETRY   OFF
 SYM_IGNORE TRUE 

Checking the input file for inconsistencies... 	...done.

--------------------------------------------------------------
User input:
--------------------------------------------------------------
$molecule
0 2
C        1.6322517459    0.3543648530   -0.3465257814
C        0.7808889647   -0.8318538957   -0.0283560322
C       -0.5700725752   -0.4158196605   -0.5324487334
C       -0.9438878130    0.6336396690    0.8425088615
C       -0.4366501473    1.0799369772   -0.5346192062
N        0.9686914328    1.4212284455   -0.6351252429
H        2.7196774137    0.3464596221   -0.3307138120
H        1.1529188411   -1.8428947204   -0.1586494908
H       -1.3478985809   -1.0351368499   -0.9585139253
H       -2.0112012016    0.6967558815    1.0376505037
H       -1.1170421309    1.7012313199   -1.1065941909
C       -0.1680845904   -0.6218672378    1.1774890920
H       -0.6753251617   -1.5025885983    1.5684506138
$end

$rem
method                b3lyp
basis                 6-31+g(d,p)
unrestricted          true
symmetry              off
sym_ignore            true
incdft                false
incfock               0
scf_convergence       6
thresh                14
jobtype               sp
scf_guess             read
scf_algorithm         diis
max_scf_cycles        100
stability_analysis    true
max_cis_cycles        100
cis_n_roots           4
$end

--------------------------------------------------------------
 ----------------------------------------------------------------
             Standard Nuclear Orientation (Angstroms)
    I     Atom           X                Y                Z
 ----------------------------------------------------------------
    1      C       1.6322517459     0.3543648530    -0.3465257814
    2      C       0.7808889647    -0.8318538957    -0.0283560322
    3      C      -0.5700725752    -0.4158196605    -0.5324487334
    4      C      -0.9438878130     0.6336396690     0.8425088615
    5      C      -0.4366501473     1.0799369772    -0.5346192062
    6      N       0.9686914328     1.4212284455    -0.6351252429
    7      H       2.7196774137     0.3464596221    -0.3307138120
    8      H       1.1529188411    -1.8428947204    -0.1586494908
    9      H      -1.3478985809    -1.0351368499    -0.9585139253
   10      H      -2.0112012016     0.6967558815     1.0376505037
   11      H      -1.1170421309     1.7012313199    -1.1065941909
   12      C      -0.1680845904    -0.6218672378     1.1774890920
   13      H      -0.6753251617    -1.5025885983     1.5684506138
 ----------------------------------------------------------------
 Nuclear Repulsion Energy =   282.0827628511 hartrees
 There are       25 alpha and       24 beta electrons
 Requested basis set is 6-31+G(d,p)
 There are 53 shells and 163 basis functions

 Total QAlloc Memory Limit   8000 MB
 Mega-Array Size      1956 MB
 MEM_STATIC part      2000 MB

                       Distance Matrix (Angstroms)
             C (  1)   C (  2)   C (  3)   C (  4)   C (  5)   N (  6)
   C (  2)  1.494378
   C (  3)  2.340509  1.500763
   C (  4)  2.851016  2.425063  1.769636
   C (  5)  2.200497  2.322423  1.501697  1.533934
   N (  6)  1.289108  2.340901  2.398559  2.541979  1.449678
   H (  7)  1.087569  2.288830  3.382931  3.857542  3.246840  2.076956
   H (  8)  2.256769  1.085166  2.268252  3.395900  3.348287  3.303857
   H (  9)  3.344629  2.332006  1.081711  2.488317  2.341708  3.391887
   H ( 10)  3.912534  3.356901  2.404140  1.086840  2.257891  3.493251
   H ( 11)  3.154421  3.343839  2.260691  2.229066  1.084479  2.156611
   C ( 12)  2.552814  1.548776  1.768598  1.513400  2.428905  2.958390
   H ( 13)  3.527084  2.262794  2.367683  2.272133  3.339058  4.013383
             H (  7)   H (  8)   H (  9)   H ( 10)   H ( 11)   C ( 12)
   H (  8)  2.697705
   H (  9)  4.341442  2.747061
   H ( 10)  4.937240  4.229966  2.724719
   H ( 11)  4.142199  4.314180  2.750079  2.531062
   C ( 12)  3.398750  2.240809  2.474927  2.270551  3.393279
   H ( 13)  4.307186  2.537944  2.656392  2.627438  4.197075  1.088951

 
 A cutoff of  1.0D-14 yielded   1397 shell pairs
 There are     13489 function pairs
 Smallest overlap matrix eigenvalue = 2.55E-05

 Scale SEOQF with 1.000000e-01/1.000000e-01/1.000000e-01

 Standard Electronic Orientation quadrupole field applied
 Nucleus-field energy     =     0.0000000021 hartrees
 Guess MOs from SCF MO coefficient file
 Reading MOs from coefficient file
 Reading MOs from coefficient file
 An unrestricted hybrid HF-DFT SCF calculation will be
 performed using Pulay DIIS extrapolation
 Exchange:     0.2000 Hartree-Fock + 0.0800 Slater + 0.7200 B88
 Correlation:  0.1900 VWN1RPA + 0.8100 LYP
 Using SG-1 standard quadrature grid
 SCF converges when DIIS error is below 1.0E-06
Using Q-Chem read-in guess as SCF_GUESS READ specified.

 -------------------------------------------------------
 OpenMP BLAS3 based DFT computing Module                
 -------------------------------------------------------
 ---------------------------------------
  Cycle       Energy         DIIS Error
 ---------------------------------------
    1    -286.8210745741      3.77E-10
    2    -286.8210745741      5.13E-10 Convergence criterion met
 ---------------------------------------
 <S^2> = 0.7652
 SCF time:  CPU 6.49 s  wall 10.01 s
 SCF   energy in the final basis set = -286.82107457
 Total energy in the final basis set = -286.82107457
 
 Direct TDDFT/TDA calculation will be performed
 Exchange:     0.2000 Hartree-Fock + 0.0800 Slater + 0.7200 B88
 Correlation:  0.1900 VWN1RPA + 0.8100 LYP
 Using SG-1 standard quadrature grid
 CIS energy converged when residual is below 10e- 6
 ---------------------------------------------------
 Iter    Rts Conv    Rts Left    Ttl Dev     Max Dev
 ---------------------------------------------------
   1         0           4      0.002492    0.001069
   2         0           4      0.000624    0.000228
   3         0           4      0.000224    0.000079
   4         0           4      0.000081    0.000028
   5         0           4      0.000034    0.000016
   6         1           3      0.000013    0.000008
   7         3           1      0.000003    0.000002
   8         4           0      0.000002    0.000001    Roots Converged
 ---------------------------------------------------
 
 ---------------------------------------------------
         TDDFT/TDA Excitation Energies              
 ---------------------------------------------------

 Excited state   1: excitation energy (eV) =    1.6540
 Total energy for state  1:                  -286.76029132 au
    <S**2>     :  0.7802
    Trans. Mom.: -0.4027 X  -0.1075 Y   0.4770 Z
    Strength   :     0.0162594491
    S(  1) --> V(  1) amplitude =  0.9923 alpha

 Excited state   2: excitation energy (eV) =    2.1364
 Total energy for state  2:                  -286.74256315 au
    <S**2>     :  0.7710
    Trans. Mom.:  0.0680 X  -0.2299 Y   0.0704 Z
    Strength   :     0.0032680210
    S(  1) --> V(  2) amplitude =  0.9913 alpha

 Excited state   3: excitation energy (eV) =    2.2403
 Total energy for state  3:                  -286.73874675 au
    <S**2>     :  0.7659
    Trans. Mom.:  0.2515 X  -0.2721 Y  -0.0098 Z
    Strength   :     0.0075386688
    S(  1) --> V(  3) amplitude =  0.9804 alpha

 Excited state   4: excitation energy (eV) =    2.9290
 Total energy for state  4:                  -286.71343725 au
    <S**2>     :  0.7730
    Trans. Mom.: -0.3633 X   0.0173 Y   0.0285 Z
    Strength   :     0.0095501672
    S(  1) --> V(  4) amplitude =  0.9837 alpha
 
 ---------------------------------------------------

 Stability analysis will be performed
 ---------------------------------------------------
 Iter    Rts Conv    Rts Left    Ttl Dev     Max Dev
 ---------------------------------------------------
   1         0           8      0.002967    0.000582
   2         0           8      0.000802    0.000261
   3         0           8      0.000339    0.000131
   4         3           5      0.000159    0.000064
   5         4           4      0.000082    0.000025
   6         4           4      0.000051    0.000028
   7         4           4      0.000021    0.000013
   8         7           1      0.000009    0.000004
   9         7           1      0.000005    0.000001
  10         8           0      0.000004    0.000001    Roots Converged
 UKS-> UKS   stable,    smallest eigenvalue:      0.0582025
 UKS->CUKS   stable,    smallest eigenvalue:      0.0570990
 ---------------------------------------------------
  SETman timing summary (seconds)
  CPU time               163.13s
  System time              0.00s
  Wall time              194.20s
 
 --------------------------------------------------------------
 
                    Orbital Energies (a.u.)
 --------------------------------------------------------------
 
 Alpha MOs
 -- Occupied --
-14.335 -10.264 -10.241 -10.232 -10.230 -10.223 -10.219  -0.989
 -0.877  -0.772  -0.672  -0.625  -0.603  -0.560  -0.516  -0.467
 -0.444  -0.433  -0.416  -0.388  -0.351  -0.332  -0.290  -0.276
 -0.122
 -- Virtual --
 -0.024  -0.011   0.003   0.016   0.024   0.044   0.052   0.054
  0.063   0.069   0.075   0.093   0.099   0.107   0.111   0.118
  0.123   0.127   0.143   0.157   0.163   0.167   0.177   0.182
  0.191   0.201   0.210   0.212   0.219   0.235   0.245   0.249
  0.253   0.264   0.278   0.287   0.297   0.304   0.333   0.353
  0.370   0.380   0.404   0.443   0.613   0.636   0.657   0.676
  0.689   0.703   0.709   0.727   0.736   0.756   0.771   0.780
  0.796   0.815   0.864   0.866   0.912   0.924   0.962   0.980
  0.985   1.024   1.041   1.057   1.080   1.111   1.138   1.170
  1.205   1.254   1.268   1.374   1.406   1.419   1.458   1.480
  1.490   1.540   1.594   1.651   1.738   1.776   1.798   1.852
  1.891   1.908   1.927   1.984   2.003   2.046   2.067   2.120
  2.151   2.168   2.245   2.323   2.336   2.363   2.371   2.399
  2.410   2.426   2.438   2.452   2.466   2.523   2.555   2.562
  2.583   2.594   2.644   2.652   2.674   2.708   2.739   2.757
  2.838   2.865   2.945   2.981   3.118   3.288   3.321   3.334
  3.461   3.567   3.630   4.166   4.394   4.462   4.563   4.587
  4.680   4.693
 
 Beta MOs
 -- Occupied --
-14.334 -10.265 -10.241 -10.231 -10.230 -10.215 -10.212  -0.986
 -0.874  -0.767  -0.663  -0.618  -0.603  -0.557  -0.506  -0.463
 -0.440  -0.431  -0.412  -0.382  -0.342  -0.306  -0.281  -0.272
 -- Virtual --
 -0.028  -0.010  -0.007   0.006   0.016   0.025   0.044   0.053
  0.059   0.065   0.071   0.077   0.093   0.100   0.107   0.111
  0.118   0.128   0.129   0.144   0.158   0.164   0.167   0.177
  0.183   0.192   0.204   0.212   0.215   0.223   0.237   0.247
  0.252   0.254   0.270   0.280   0.293   0.302   0.306   0.335
  0.357   0.374   0.386   0.408   0.445   0.616   0.638   0.658
  0.679   0.705   0.709   0.714   0.734   0.743   0.760   0.773
  0.785   0.802   0.819   0.867   0.878   0.915   0.926   0.966
  0.981   0.989   1.026   1.043   1.061   1.083   1.116   1.144
  1.177   1.214   1.260   1.273   1.379   1.411   1.421   1.462
  1.485   1.498   1.549   1.598   1.657   1.746   1.782   1.807
  1.854   1.897   1.914   1.931   1.986   2.017   2.052   2.071
  2.128   2.157   2.175   2.250   2.325   2.342   2.370   2.376
  2.404   2.417   2.429   2.445   2.455   2.471   2.529   2.564
  2.568   2.587   2.603   2.650   2.656   2.678   2.710   2.744
  2.764   2.840   2.867   2.950   2.982   3.119   3.289   3.322
  3.337   3.465   3.570   3.631   4.168   4.405   4.470   4.578
  4.590   4.681   4.694
 --------------------------------------------------------------
 
          Ground-State Mulliken Net Atomic Charges

     Atom                 Charge (a.u.)    Spin (a.u.)
  --------------------------------------------------------
      1 C                     0.063404       0.061110
      2 C                    -0.237752      -0.040481
      3 C                     0.210786      -0.026425
      4 C                    -0.115159       0.501514
      5 C                    -0.397585      -0.025975
      6 N                    -0.176758       0.027188
      7 H                     0.133779       0.001165
      8 H                     0.141480      -0.003251
      9 H                     0.169192       0.000735
     10 H                     0.153205      -0.013042
     11 H                     0.145237      -0.003358
     12 C                    -0.241895       0.524600
     13 H                     0.152066      -0.003780
  --------------------------------------------------------
  Sum of atomic charges =     0.000000
  Sum of spin   charges =     1.000000

 -----------------------------------------------------------------
                    Cartesian Multipole Moments
 -----------------------------------------------------------------
    Charge (ESU x 10^10)
                -0.0000
    Dipole Moment (Debye)
         X      -1.7072      Y      -3.1953      Z      -0.9432
       Tot       3.7436
    Quadrupole Moments (Debye-Ang)
        XX     -37.4589     XY      -3.3215     YY     -44.7302
        XZ       1.1479     YZ       0.5157     ZZ     -45.5208
    Octopole Moments (Debye-Ang^2)
       XXX     -13.4368    XXY     -11.1353    XYY     -13.7927
       YYY     -38.9636    XXZ      -0.1959    XYZ       4.0427
       YYZ       0.5824    XZZ     -11.2539    YZZ     -11.1454
       ZZZ      -4.6443
    Hexadecapole Moments (Debye-Ang^3)
      XXXX    -263.8137   XXXY     -10.4298   XXYY     -96.1913
      XYYY     -26.0195   YYYY    -274.1276   XXXZ      29.3666
      XXYZ      13.7381   XYYZ      18.8577   YYYZ      32.2715
      XXZZ     -80.5915   XYZZ      -2.3862   YYZZ     -77.2197
      XZZZ      32.7642   YZZZ      30.6345   ZZZZ    -199.0801
 -----------------------------------------------------------------
Archival summary:
1\1\c8-66\SP\ProcedureUnspecified\6-31+G**\166(2)\hpark21\WedMar213:35:022022WedMar213:35:022022\0\\#,ProcedureUnspecified,6-31+G**,\\0,2\N\C,1,1.28911\H,2,1.08757,1,121.597\C,1,1.44968,2,106.777,3,-178.858,0\H,4,1.08448,1,115.897,2,-156.372,0\C,2,1.49438,1,114.29,3,179.294,0\H,6,1.08517,2,121.244,1,155.179,0\C,6,1.50076,2,102.784,1,14.8973,0\H,8,1.08171,6,128.38,2,147.241,0\C,4,1.53393,1,116.827,2,61.9454,0\H,10,1.08684,4,117.972,1,159.685,0\C,10,1.5134,4,105.698,1,-61.6151,0\H,12,1.08895,10,120.773,4,-133.87,0\\\@

 Total job time:  208.35s(wall), 169.86s(cpu) 
 Wed Mar  2 13:35:02 2022

        *************************************************************
        *                                                           *
        *  Thank you very much for using Q-Chem.  Have a nice day.  *
        *                                                           *
        *************************************************************


