
Running Job 1 of 1 qcts1.in
qchem qcts1.in_23221.0 ./qcts1.d/ 1
/home/leeping/opt/qchem/5.0.2-openmp/exe/qcprog.exe_s qcts1.in_23221.0 ./qcts1.d/
Check license passed

                  Welcome to Q-Chem
     A Quantum Leap Into The Future Of Chemistry


 Q-Chem 5.0, Q-Chem, Inc., Pleasanton, CA (2017)

 Yihan Shao,  Zhengting Gan,  E. Epifanovsky,  A. T. B. Gilbert,  M. Wormit,  
 J. Kussmann,  A. W. Lange,  A. Behn,  Jia Deng,  Xintian Feng,  D. Ghosh,  
 M. Goldey,  P. R. Horn,  L. D. Jacobson,  I. Kaliman,  T. Kus,  A. Landau,  
 Jie Liu,  E. I. Proynov,  R. M. Richard,  R. P. Steele,  E. J. Sundstrom,  
 H. L. Woodcock III,  P. M. Zimmerman,  D. Zuev,  B. Albrecht,  E. Alguire,  
 S. A. Baeppler,  D. Barton,  Z. Benda,  Y. A. Bernard,  E. J. Berquist,  
 K. B. Bravaya,  H. Burton,  D. Casanova,  Chun-Min Chang,  Yunqing Chen,  
 A. Chien,  K. D. Closser,  M. P. Coons,  S. Dasgupta,  A. L. Dempwolff,  
 M. Diedenhofen,  Hainam Do,  R. G. Edgar,  Po-Tung Fang,  S. Fatehi,  
 Qingguo Feng,  J. Fosso-Tande,  Qinghui Ge,  A. Ghysels,  G. Gidofalvi,  
 J. Gomes,  J. Gonthier,  A. Gunina,  M. W. D. Hanson-Heine,  
 P. H. P. Harbach,  A. W. Hauser,  J. E. Herr,  E. G. Hohenstein,  
 Z. C. Holden,  Kerwin Hui,  T.-C. Jagau,  Hyunjun Ji,  B. Kaduk,  
 K. Khistyaev,  Jaehoon Kim,  P. Klunzinger,  K. Koh,  D. Kosenkov,  
 L. Koulias,  T. Kowalczyk,  C. M. Krauter,  A. Kunitsa,  Ka Un Lao,  
 A. Laurent,  K. V. Lawler,  Joonho Lee,  D. Lefrancois,  S. Lehtola,  
 D. S. Levine,  Yi-Pei Li,  You-Sheng Lin,  Fenglai Liu,  E. Livshits,  
 A. Luenser,  P. Manohar,  E. Mansoor,  S. F. Manzer,  Shan-Ping Mao,  
 Yuezhi Mao,  N. Mardirossian,  A. V. Marenich,  T. Markovich,  
 L. A. Martinez-Martinez,  S. A. Maurer,  N. J. Mayhall,  S. C. McKenzie,  
 J.-M. Mewes,  A. F. Morrison,  J. W. Mullinax,  K. Nanda,  
 T. S. Nguyen-Beck,  R. Olivares-Amaya,  J. A. Parkhill,  T. M. Perrine,  
 F. Plasser,  S. Prager,  A. Prociuk,  E. Ramos,  D. R. Rehn,  F. Rob,  
 M. Schneider,  N. Sergueev,  S. M. Sharada,  S. Sharma,  D. W. Small,  
 T. Stauch,  T. Stein,  Yu-Chuan Su,  A. J. W. Thom,  A. Tkatchenko,  
 T. Tsuchimochi,  L. Vogt,  O. Vydrov,  M. A. Watson,  J. Wenzel,  
 M. de Wergifosse,  T. A. Wesolowski,  A. White,  J. Witte,  A. Yamada,  
 Jun Yang,  K. Yao,  S. Yeganeh,  S. R. Yost,  Zhi-Qiang You,  A. Zech,  
 Igor Ying Zhang,  Xing Zhang,  Yan Zhao,  Ying Zhu,  B. R. Brooks,  
 G. K. L. Chan,  C. J. Cramer,  M. S. Gordon,  W. J. Hehre,  A. Klamt,  
 M. W. Schmidt,  C. D. Sherrill,  D. G. Truhlar,  A. Aspuru-Guzik,  R. Baer,  
 A. T. Bell,  N. A. Besley,  Jeng-Da Chai,  R. A. DiStasio Jr.,  A. Dreuw,  
 B. D. Dunietz,  T. R. Furlani,  Chao-Ping Hsu,  Yousung Jung,  Jing Kong,  
 D. S. Lambrecht,  WanZhen Liang,  C. Ochsenfeld,  V. A. Rassolov,  
 L. V. Slipchenko,  J. E. Subotnik,  T. Van Voorhis,  J. M. Herbert,  
 A. I. Krylov,  P. M. W. Gill,  M. Head-Gordon

 Contributors to earlier versions of Q-Chem not listed above: 
 R. D. Adamson,  B. Austin,  J. Baker,  G. J. O. Beran,  K. Brandhorst,  
 S. T. Brown,  E. F. C. Byrd,  A. K. Chakraborty,  C.-L. Cheng,  
 Siu Hung Chien,  D. M. Chipman,  D. L. Crittenden,  H. Dachsel,  
 R. J. Doerksen,  A. D. Dutoi,  L. Fusti-Molnar,  W. A. Goddard III,  
 A. Golubeva-Zadorozhnaya,  S. R. Gwaltney,  G. Hawkins,  A. Heyden,  
 S. Hirata,  G. Kedziora,  F. J. Keil,  C. Kelley,  Jihan Kim,  R. A. King,  
 R. Z. Khaliullin,  P. P. Korambath,  W. Kurlancheek,  A. M. Lee,  M. S. Lee,  
 S. V. Levchenko,  Ching Yeh Lin,  D. Liotard,  R. C. Lochan,  I. Lotan,  
 P. E. Maslen,  N. Nair,  D. P. O'Neill,  D. Neuhauser,  E. Neuscamman,  
 C. M. Oana,  R. Olson,  B. Peters,  R. Peverati,  P. A. Pieniazek,  
 Y. M. Rhee,  J. Ritchie,  M. A. Rohrdanz,  E. Rosta,  N. J. Russ,  
 H. F. Schaefer III,  N. E. Schultz,  N. Shenvi,  A. C. Simmonett,  A. Sodt,  
 D. Stuck,  K. S. Thanthiriwatte,  V. Vanovschi,  Tao Wang,  A. Warshel,  
 C. F. Williams,  Q. Wu,  X. Xu,  W. Zhang

 Please cite Q-Chem as follows:
 Y. Shao et al., Mol. Phys. 113, 184-215 (2015)
 DOI: 10.1080/00268976.2014.952696

 Q-Chem 5.0.2 for Intel X86 EM64T Linux

 Parts of Q-Chem use Armadillo 5.200.1 (Boston Tea Smuggler).
 http://arma.sourceforge.net/

 Q-Chem begins on Wed Mar  2 13:09:08 2022  

Host: 
0

     Scratch files written to ./qcts1.d//
 Dec517 15110_ 26548  26544 5633   
Processing $rem in /home/leeping/opt/qchem/5.0.2-openmp/config/preferences.
 MEM_STATIC 2000
 MEM_TOTAL  8000
 SYMMETRY   OFF
 SYM_IGNORE TRUE 

Checking the input file for inconsistencies... 	...done.

--------------------------------------------------------------
User input:
--------------------------------------------------------------
$molecule
0 2
C        1.6312646934    0.3549124158   -0.3493989471
C        0.7827285273   -0.8304456405   -0.0248477941
C       -0.5701089165   -0.4132064123   -0.5212560207
C       -0.9423415701    0.6376479873    0.8471736690
C       -0.4331628053    1.0818173686   -0.5316413158
N        0.9706041050    1.4226436515   -0.6367576186
H        2.7195451355    0.3449933508   -0.3394433329
H        1.1533516932   -1.8422698364   -0.1571583227
H       -1.3498423076   -1.0322953580   -0.9451260191
H       -2.0147747634    0.6826046071    1.0219603956
H       -1.1144471920    1.7011040738   -1.1064251121
C       -0.1648001710   -0.6202789857    1.1834783366
H       -0.6837502313   -1.5037714164    1.5539947377
$end

$rem
method                b3lyp
basis                 6-31g(d)
unrestricted          true
symmetry              off
sym_ignore            true
incdft                false
incfock               0
scf_convergence       8
thresh                14
jobtype               sp
scf_guess             read
scf_algorithm         diis
max_scf_cycles        100
$end

--------------------------------------------------------------
 ----------------------------------------------------------------
             Standard Nuclear Orientation (Angstroms)
    I     Atom           X                Y                Z
 ----------------------------------------------------------------
    1      C       1.6312646934     0.3549124158    -0.3493989471
    2      C       0.7827285273    -0.8304456405    -0.0248477941
    3      C      -0.5701089165    -0.4132064123    -0.5212560207
    4      C      -0.9423415701     0.6376479873     0.8471736690
    5      C      -0.4331628053     1.0818173686    -0.5316413158
    6      N       0.9706041050     1.4226436515    -0.6367576186
    7      H       2.7195451355     0.3449933508    -0.3394433329
    8      H       1.1533516932    -1.8422698364    -0.1571583227
    9      H      -1.3498423076    -1.0322953580    -0.9451260191
   10      H      -2.0147747634     0.6826046071     1.0219603956
   11      H      -1.1144471920     1.7011040738    -1.1064251121
   12      C      -0.1648001710    -0.6202789857     1.1834783366
   13      H      -0.6837502313    -1.5037714164     1.5539947377
 ----------------------------------------------------------------
 Nuclear Repulsion Energy =   282.1493062612 hartrees
 There are       25 alpha and       24 beta electrons
 Requested basis set is 6-31G(d)
 There are 40 shells and 117 basis functions

 Total QAlloc Memory Limit   8000 MB
 Mega-Array Size      1956 MB
 MEM_STATIC part      2000 MB

                       Distance Matrix (Angstroms)
             C (  1)   C (  2)   C (  3)   C (  4)   C (  5)   N (  6)
   C (  2)  1.493459
   C (  3)  2.337860  1.500226
   C (  4)  2.852223  2.427259  1.765064
   C (  5)  2.196239  2.322064  1.501319  1.535474
   N (  6)  1.288060  2.342252  2.399476  2.545119  1.448369
   H (  7)  1.088371  2.287332  3.380791  3.860456  3.243365  2.075698
   H (  8)  2.256760  1.085659  2.268283  3.398618  3.347768  3.305007
   H (  9)  3.341592  2.331419  1.082091  2.483366  2.341099  3.392092
   H ( 10)  3.909170  3.348306  2.381046  1.087513  2.252675  3.494494
   H ( 11)  3.150278  3.343326  2.260318  2.230943  1.085376  2.155358
   C ( 12)  2.554713  1.549849  1.764447  1.516592  2.431211  2.962420
   H ( 13)  3.526600  2.257581  2.347107  2.269833  3.331357  4.012504
             H (  7)   H (  8)   H (  9)   H ( 10)   H ( 11)   C ( 12)
   H (  8)  2.696351
   H (  9)  4.338628  2.746440
   H ( 10)  4.937731  4.219282  2.693037
   H ( 11)  4.138453  4.312716  2.748254  2.525461
   C ( 12)  3.401542  2.242341  2.470838  2.268480  3.396219
   H ( 13)  4.311086  2.533292  2.628987  2.614369  4.187429  1.089564

 
 A cutoff of  1.0D-14 yielded    811 shell pairs
 There are      7083 function pairs
 
 -------------------------------------------------------
 OpenMP Integral Computing Module                       
 Release: version 1.0, May 2013, Q-Chem Inc. Pittsburgh 
 -------------------------------------------------------
 Integral Job Info:
 Integral job number is                      11
 Integral operator is                         1
 short-range coefficients                     0
 long-range coefficients              100000000
 Omega coefficients                           0
 if combine SR and LR in K                    0
 Integral screening is                        0
 Integral computing path is                   2
 max size of driver memory is            800000
 size of driver memory is                593474
 size of scratch memory is              2361544
 max col of scratch BK array               1296
 max len of scratch array in speh3          155
 max len of scratch index in speh4           18
 max int batch size is                      520
 min int batch size is                       52
 fixed nKL is                                52
 max L of basis functions is                  2
 order of int derivative is                   0
 number of shells is                         40
 number of basis is                         117
 number of cartesian basis is               117
 number of contracted shell pairs           811
 number of primitive shell pairs           3590
 maxK2 (contraction) of shell pair           36
 max number of K2 of shell pair               1
 max number of CS2 of shell pair             84
 max number of PS2 of shell pair            426
 mem total for path MDJ                  535308
 -------------------------------------------------------
 Smallest overlap matrix eigenvalue = 1.80E-03

 Scale SEOQF with 1.000000e-01/1.000000e-01/1.000000e-01

 Standard Electronic Orientation quadrupole field applied
 Nucleus-field energy     =     0.0000000021 hartrees
 Guess MOs from SCF MO coefficient file
 Reading MOs from coefficient file
 Reading MOs from coefficient file
 An unrestricted hybrid HF-DFT SCF calculation will be
 performed using Pulay DIIS extrapolation
 Exchange:     0.2000 Hartree-Fock + 0.0800 Slater + 0.7200 B88
 Correlation:  0.1900 VWN1RPA + 0.8100 LYP
 Using SG-1 standard quadrature grid
 SCF converges when DIIS error is below 1.0E-08
Using Q-Chem read-in guess as SCF_GUESS READ specified.

 using 4 threads for integral computing
 -------------------------------------------------------
 OpenMP Integral computing Module                
 Release: version 1.0, May 2013, Q-Chem Inc. Pittsburgh 
 -------------------------------------------------------
 -------------------------------------------------------
 OpenMP BLAS3 based DFT computing Module                
 Release: version 1.0, May 2013, Q-Chem Inc. Pittsburgh 
 -------------------------------------------------------
 ---------------------------------------
  Cycle       Energy         DIIS Error
 ---------------------------------------
    1    -286.7989956419      1.59E-09
    2    -286.7989956419      2.28E-09 Convergence criterion met
 ---------------------------------------
 <S^2> = 0.7663
 SCF time:  CPU 5.38 s  wall 4.68 s
 SCF   energy in the final basis set = -286.79899564
 Total energy in the final basis set = -286.79899564
 
 --------------------------------------------------------------
 
                    Orbital Energies (a.u.)
 --------------------------------------------------------------
 
 Alpha MOs
 -- Occupied --
-14.319 -10.252 -10.231 -10.221 -10.220 -10.211 -10.207  -0.977
 -0.866  -0.762  -0.661  -0.615  -0.594  -0.551  -0.506  -0.456
 -0.434  -0.424  -0.406  -0.378  -0.341  -0.321  -0.278  -0.263
 -0.111
 -- Virtual --
 -0.004   0.047   0.072   0.139   0.141   0.148   0.148   0.165
  0.170   0.197   0.208   0.247   0.278   0.312   0.328   0.396
  0.483   0.505   0.527   0.530   0.560   0.566   0.575   0.592
  0.603   0.644   0.648   0.666   0.708   0.729   0.747   0.775
  0.810   0.818   0.826   0.836   0.862   0.887   0.910   0.937
  0.965   0.984   1.109   1.134   1.166   1.253   1.271   1.369
  1.423   1.429   1.490   1.500   1.555   1.585   1.627   1.729
  1.796   1.809   1.816   1.891   1.946   1.951   1.967   2.022
  2.089   2.113   2.131   2.223   2.251   2.305   2.359   2.407
  2.430   2.451   2.485   2.532   2.584   2.598   2.643   2.672
  2.698   2.707   2.792   2.924   2.970   3.954   4.153   4.233
  4.397   4.417   4.515   4.538
 
 Beta MOs
 -- Occupied --
-14.319 -10.254 -10.230 -10.220 -10.219 -10.203 -10.199  -0.974
 -0.863  -0.757  -0.652  -0.608  -0.593  -0.548  -0.496  -0.452
 -0.429  -0.422  -0.401  -0.372  -0.331  -0.294  -0.269  -0.259
 -- Virtual --
 -0.010   0.018   0.061   0.074   0.140   0.147   0.149   0.150
  0.172   0.175   0.198   0.211   0.254   0.282   0.319   0.337
  0.399   0.484   0.519   0.532   0.534   0.571   0.572   0.586
  0.599   0.610   0.653   0.657   0.668   0.711   0.733   0.751
  0.780   0.812   0.819   0.829   0.837   0.868   0.893   0.913
  0.938   0.969   0.993   1.116   1.139   1.175   1.258   1.276
  1.374   1.427   1.434   1.494   1.506   1.565   1.594   1.631
  1.735   1.806   1.816   1.824   1.893   1.952   1.956   1.978
  2.024   2.107   2.122   2.146   2.230   2.260   2.319   2.362
  2.420   2.436   2.462   2.495   2.549   2.586   2.601   2.649
  2.674   2.701   2.711   2.799   2.927   2.971   3.957   4.161
  4.241   4.401   4.435   4.515   4.541
 --------------------------------------------------------------
 
          Ground-State Mulliken Net Atomic Charges

     Atom                 Charge (a.u.)    Spin (a.u.)
  --------------------------------------------------------
      1 C                     0.097273       0.040510
      2 C                    -0.212826       0.030151
      3 C                    -0.117366      -0.117457
      4 C                    -0.154254       0.497128
      5 C                    -0.034719       0.031308
      6 N                    -0.349488       0.028414
      7 H                     0.146620       0.000762
      8 H                     0.154176      -0.003546
      9 H                     0.183177       0.001480
     10 H                     0.144368      -0.011358
     11 H                     0.155037      -0.003524
     12 C                    -0.153760       0.507981
     13 H                     0.141764      -0.001850
  --------------------------------------------------------
  Sum of atomic charges =    -0.000000
  Sum of spin   charges =     1.000000

 -----------------------------------------------------------------
                    Cartesian Multipole Moments
 -----------------------------------------------------------------
    Charge (ESU x 10^10)
                -0.0000
    Dipole Moment (Debye)
         X      -1.6231      Y      -2.9746      Z      -0.9539
       Tot       3.5203
    Quadrupole Moments (Debye-Ang)
        XX     -36.5097     XY      -2.8458     YY     -43.0744
        XZ       0.9987     YZ       0.4641     ZZ     -43.8782
    Octopole Moments (Debye-Ang^2)
       XXX     -13.6393    XXY     -10.5260    XYY     -12.7378
       YYY     -35.9611    XXZ      -0.4539    XYZ       3.5568
       YYZ       0.6994    XZZ      -9.9835    YZZ     -10.1154
       ZZZ      -4.0086
    Hexadecapole Moments (Debye-Ang^3)
      XXXX    -252.3473   XXXY      -8.5399   XXYY     -90.3501
      XYYY     -21.7209   YYYY    -253.6659   XXXZ      28.1687
      XXYZ      13.0226   XYYZ      17.0785   YYYZ      31.9652
      XXZZ     -75.2005   XYZZ      -2.2848   YYZZ     -70.4594
      XZZZ      31.6578   YZZZ      29.6528   ZZZZ    -178.6796
 -----------------------------------------------------------------
Archival summary:
1\1\c8-66\SP\ProcedureUnspecified\6-31G*\166(2)\hpark21\WedMar213:09:192022WedMar213:09:192022\0\\#,ProcedureUnspecified,6-31G*,\\0,2\N\C,1,1.28806\H,2,1.08837,1,121.498\C,1,1.44837,2,106.61,3,-179.032,0\H,4,1.08538,1,115.828,2,-156.091,0\C,2,1.49346,1,114.519,3,179.34,0\H,6,1.08566,2,121.284,1,155.051,0\C,6,1.50023,2,102.691,1,14.8222,0\H,8,1.08209,6,128.337,2,147.047,0\C,4,1.53547,1,117.042,2,62.0531,0\H,10,1.08751,4,117.347,1,161.183,0\C,10,1.51659,4,105.608,1,-61.6046,0\H,12,1.08956,10,120.251,4,-132.523,0\\\@

 Total job time:  10.88s(wall), 7.12s(cpu) 
 Wed Mar  2 13:09:19 2022

        *************************************************************
        *                                                           *
        *  Thank you very much for using Q-Chem.  Have a nice day.  *
        *                                                           *
        *************************************************************


