
Running Job 1 of 1 qcts2.in
qchem qcts2.in_23970.0 ./qcts2.d/ 1
/home/leeping/opt/qchem/5.0.2-openmp/exe/qcprog.exe_s qcts2.in_23970.0 ./qcts2.d/
Check license passed

                  Welcome to Q-Chem
     A Quantum Leap Into The Future Of Chemistry


 Q-Chem 5.0, Q-Chem, Inc., Pleasanton, CA (2017)

 Yihan Shao,  Zhengting Gan,  E. Epifanovsky,  A. T. B. Gilbert,  M. Wormit,  
 J. Kussmann,  A. W. Lange,  A. Behn,  Jia Deng,  Xintian Feng,  D. Ghosh,  
 M. Goldey,  P. R. Horn,  L. D. Jacobson,  I. Kaliman,  T. Kus,  A. Landau,  
 Jie Liu,  E. I. Proynov,  R. M. Richard,  R. P. Steele,  E. J. Sundstrom,  
 H. L. Woodcock III,  P. M. Zimmerman,  D. Zuev,  B. Albrecht,  E. Alguire,  
 S. A. Baeppler,  D. Barton,  Z. Benda,  Y. A. Bernard,  E. J. Berquist,  
 K. B. Bravaya,  H. Burton,  D. Casanova,  Chun-Min Chang,  Yunqing Chen,  
 A. Chien,  K. D. Closser,  M. P. Coons,  S. Dasgupta,  A. L. Dempwolff,  
 M. Diedenhofen,  Hainam Do,  R. G. Edgar,  Po-Tung Fang,  S. Fatehi,  
 Qingguo Feng,  J. Fosso-Tande,  Qinghui Ge,  A. Ghysels,  G. Gidofalvi,  
 J. Gomes,  J. Gonthier,  A. Gunina,  M. W. D. Hanson-Heine,  
 P. H. P. Harbach,  A. W. Hauser,  J. E. Herr,  E. G. Hohenstein,  
 Z. C. Holden,  Kerwin Hui,  T.-C. Jagau,  Hyunjun Ji,  B. Kaduk,  
 K. Khistyaev,  Jaehoon Kim,  P. Klunzinger,  K. Koh,  D. Kosenkov,  
 L. Koulias,  T. Kowalczyk,  C. M. Krauter,  A. Kunitsa,  Ka Un Lao,  
 A. Laurent,  K. V. Lawler,  Joonho Lee,  D. Lefrancois,  S. Lehtola,  
 D. S. Levine,  Yi-Pei Li,  You-Sheng Lin,  Fenglai Liu,  E. Livshits,  
 A. Luenser,  P. Manohar,  E. Mansoor,  S. F. Manzer,  Shan-Ping Mao,  
 Yuezhi Mao,  N. Mardirossian,  A. V. Marenich,  T. Markovich,  
 L. A. Martinez-Martinez,  S. A. Maurer,  N. J. Mayhall,  S. C. McKenzie,  
 J.-M. Mewes,  A. F. Morrison,  J. W. Mullinax,  K. Nanda,  
 T. S. Nguyen-Beck,  R. Olivares-Amaya,  J. A. Parkhill,  T. M. Perrine,  
 F. Plasser,  S. Prager,  A. Prociuk,  E. Ramos,  D. R. Rehn,  F. Rob,  
 M. Schneider,  N. Sergueev,  S. M. Sharada,  S. Sharma,  D. W. Small,  
 T. Stauch,  T. Stein,  Yu-Chuan Su,  A. J. W. Thom,  A. Tkatchenko,  
 T. Tsuchimochi,  L. Vogt,  O. Vydrov,  M. A. Watson,  J. Wenzel,  
 M. de Wergifosse,  T. A. Wesolowski,  A. White,  J. Witte,  A. Yamada,  
 Jun Yang,  K. Yao,  S. Yeganeh,  S. R. Yost,  Zhi-Qiang You,  A. Zech,  
 Igor Ying Zhang,  Xing Zhang,  Yan Zhao,  Ying Zhu,  B. R. Brooks,  
 G. K. L. Chan,  C. J. Cramer,  M. S. Gordon,  W. J. Hehre,  A. Klamt,  
 M. W. Schmidt,  C. D. Sherrill,  D. G. Truhlar,  A. Aspuru-Guzik,  R. Baer,  
 A. T. Bell,  N. A. Besley,  Jeng-Da Chai,  R. A. DiStasio Jr.,  A. Dreuw,  
 B. D. Dunietz,  T. R. Furlani,  Chao-Ping Hsu,  Yousung Jung,  Jing Kong,  
 D. S. Lambrecht,  WanZhen Liang,  C. Ochsenfeld,  V. A. Rassolov,  
 L. V. Slipchenko,  J. E. Subotnik,  T. Van Voorhis,  J. M. Herbert,  
 A. I. Krylov,  P. M. W. Gill,  M. Head-Gordon

 Contributors to earlier versions of Q-Chem not listed above: 
 R. D. Adamson,  B. Austin,  J. Baker,  G. J. O. Beran,  K. Brandhorst,  
 S. T. Brown,  E. F. C. Byrd,  A. K. Chakraborty,  C.-L. Cheng,  
 Siu Hung Chien,  D. M. Chipman,  D. L. Crittenden,  H. Dachsel,  
 R. J. Doerksen,  A. D. Dutoi,  L. Fusti-Molnar,  W. A. Goddard III,  
 A. Golubeva-Zadorozhnaya,  S. R. Gwaltney,  G. Hawkins,  A. Heyden,  
 S. Hirata,  G. Kedziora,  F. J. Keil,  C. Kelley,  Jihan Kim,  R. A. King,  
 R. Z. Khaliullin,  P. P. Korambath,  W. Kurlancheek,  A. M. Lee,  M. S. Lee,  
 S. V. Levchenko,  Ching Yeh Lin,  D. Liotard,  R. C. Lochan,  I. Lotan,  
 P. E. Maslen,  N. Nair,  D. P. O'Neill,  D. Neuhauser,  E. Neuscamman,  
 C. M. Oana,  R. Olson,  B. Peters,  R. Peverati,  P. A. Pieniazek,  
 Y. M. Rhee,  J. Ritchie,  M. A. Rohrdanz,  E. Rosta,  N. J. Russ,  
 H. F. Schaefer III,  N. E. Schultz,  N. Shenvi,  A. C. Simmonett,  A. Sodt,  
 D. Stuck,  K. S. Thanthiriwatte,  V. Vanovschi,  Tao Wang,  A. Warshel,  
 C. F. Williams,  Q. Wu,  X. Xu,  W. Zhang

 Please cite Q-Chem as follows:
 Y. Shao et al., Mol. Phys. 113, 184-215 (2015)
 DOI: 10.1080/00268976.2014.952696

 Q-Chem 5.0.2 for Intel X86 EM64T Linux

 Parts of Q-Chem use Armadillo 5.200.1 (Boston Tea Smuggler).
 http://arma.sourceforge.net/

 Q-Chem begins on Wed Mar  2 13:17:50 2022  

Host: 
0

     Scratch files written to ./qcts2.d//
 Dec517 15110_ 26548  26544 5633   
Processing $rem in /home/leeping/opt/qchem/5.0.2-openmp/config/preferences.
 MEM_STATIC 2000
 MEM_TOTAL  8000
 SYMMETRY   OFF
 SYM_IGNORE TRUE 

Checking the input file for inconsistencies... 	...done.

--------------------------------------------------------------
User input:
--------------------------------------------------------------
$molecule
0 2
C        1.6312646934    0.3549124158   -0.3493989471
C        0.7827285273   -0.8304456405   -0.0248477941
C       -0.5701089165   -0.4132064123   -0.5212560207
C       -0.9423415701    0.6376479873    0.8471736690
C       -0.4331628053    1.0818173686   -0.5316413158
N        0.9706041050    1.4226436515   -0.6367576186
H        2.7195451355    0.3449933508   -0.3394433329
H        1.1533516932   -1.8422698364   -0.1571583227
H       -1.3498423076   -1.0322953580   -0.9451260191
H       -2.0147747634    0.6826046071    1.0219603956
H       -1.1144471920    1.7011040738   -1.1064251121
C       -0.1648001710   -0.6202789857    1.1834783366
H       -0.6837502313   -1.5037714164    1.5539947377
$end

$rem
method                b3lyp
basis                 6-31+g(d,p)
unrestricted          true
symmetry              off
sym_ignore            true
incdft                false
incfock               0
scf_convergence       8
thresh                14
jobtype               freq
scf_guess             read
scf_algorithm         diis
max_scf_cycles        100
$end

--------------------------------------------------------------
 ----------------------------------------------------------------
             Standard Nuclear Orientation (Angstroms)
    I     Atom           X                Y                Z
 ----------------------------------------------------------------
    1      C       1.6312646934     0.3549124158    -0.3493989471
    2      C       0.7827285273    -0.8304456405    -0.0248477941
    3      C      -0.5701089165    -0.4132064123    -0.5212560207
    4      C      -0.9423415701     0.6376479873     0.8471736690
    5      C      -0.4331628053     1.0818173686    -0.5316413158
    6      N       0.9706041050     1.4226436515    -0.6367576186
    7      H       2.7195451355     0.3449933508    -0.3394433329
    8      H       1.1533516932    -1.8422698364    -0.1571583227
    9      H      -1.3498423076    -1.0322953580    -0.9451260191
   10      H      -2.0147747634     0.6826046071     1.0219603956
   11      H      -1.1144471920     1.7011040738    -1.1064251121
   12      C      -0.1648001710    -0.6202789857     1.1834783366
   13      H      -0.6837502313    -1.5037714164     1.5539947377
 ----------------------------------------------------------------
 Nuclear Repulsion Energy =   282.1493062612 hartrees
 There are       25 alpha and       24 beta electrons
 Requested basis set is 6-31+G(d,p)
 There are 53 shells and 163 basis functions

 Total QAlloc Memory Limit   8000 MB
 Mega-Array Size      1956 MB
 MEM_STATIC part      2000 MB

                       Distance Matrix (Angstroms)
             C (  1)   C (  2)   C (  3)   C (  4)   C (  5)   N (  6)
   C (  2)  1.493459
   C (  3)  2.337860  1.500226
   C (  4)  2.852223  2.427259  1.765064
   C (  5)  2.196239  2.322064  1.501319  1.535474
   N (  6)  1.288060  2.342252  2.399476  2.545119  1.448369
   H (  7)  1.088371  2.287332  3.380791  3.860456  3.243365  2.075698
   H (  8)  2.256760  1.085659  2.268283  3.398618  3.347768  3.305007
   H (  9)  3.341592  2.331419  1.082091  2.483366  2.341099  3.392092
   H ( 10)  3.909170  3.348306  2.381046  1.087513  2.252675  3.494494
   H ( 11)  3.150278  3.343326  2.260318  2.230943  1.085376  2.155358
   C ( 12)  2.554713  1.549849  1.764447  1.516592  2.431211  2.962420
   H ( 13)  3.526600  2.257581  2.347107  2.269833  3.331357  4.012504
             H (  7)   H (  8)   H (  9)   H ( 10)   H ( 11)   C ( 12)
   H (  8)  2.696351
   H (  9)  4.338628  2.746440
   H ( 10)  4.937731  4.219282  2.693037
   H ( 11)  4.138453  4.312716  2.748254  2.525461
   C ( 12)  3.401542  2.242341  2.470838  2.268480  3.396219
   H ( 13)  4.311086  2.533292  2.628987  2.614369  4.187429  1.089564

 
 A cutoff of  1.0D-14 yielded   1397 shell pairs
 There are     13489 function pairs
 Smallest overlap matrix eigenvalue = 2.53E-05
 Guess MOs from SCF MO coefficient file
 Reading MOs from coefficient file
 Reading MOs from coefficient file
 An unrestricted hybrid HF-DFT SCF calculation will be
 performed using Pulay DIIS extrapolation
 Exchange:     0.2000 Hartree-Fock + 0.0800 Slater + 0.7200 B88
 Correlation:  0.1900 VWN1RPA + 0.8100 LYP
 Using SG-1 standard quadrature grid
 SCF converges when DIIS error is below 1.0E-08
Using Q-Chem read-in guess as SCF_GUESS READ specified.

 -------------------------------------------------------
 OpenMP BLAS3 based DFT computing Module                
 -------------------------------------------------------
 ---------------------------------------
  Cycle       Energy         DIIS Error
 ---------------------------------------
    1    -286.8209928243      1.48E-09
    2    -286.8209928243      2.55E-09 Convergence criterion met
 ---------------------------------------
 <S^2> = 0.7650
 SCF time:  CPU 6.61 s  wall 10.97 s
 SCF   energy in the final basis set = -286.82099282
 Total energy in the final basis set = -286.82099282
 
 --------------------------------------------------------------
 
                    Orbital Energies (a.u.)
 --------------------------------------------------------------
 
 Alpha MOs
 -- Occupied --
-14.335 -10.263 -10.241 -10.232 -10.231 -10.224 -10.220  -0.989
 -0.879  -0.772  -0.672  -0.625  -0.603  -0.560  -0.515  -0.467
 -0.444  -0.433  -0.416  -0.388  -0.351  -0.332  -0.290  -0.276
 -0.124
 -- Virtual --
 -0.024  -0.011   0.003   0.016   0.024   0.044   0.052   0.054
  0.063   0.069   0.075   0.092   0.099   0.106   0.111   0.118
  0.123   0.128   0.143   0.157   0.162   0.166   0.177   0.182
  0.191   0.201   0.210   0.211   0.219   0.235   0.246   0.249
  0.254   0.264   0.278   0.288   0.297   0.304   0.333   0.353
  0.370   0.380   0.404   0.443   0.612   0.636   0.657   0.675
  0.688   0.703   0.709   0.727   0.737   0.756   0.771   0.780
  0.796   0.815   0.863   0.864   0.912   0.923   0.963   0.979
  0.985   1.023   1.041   1.056   1.079   1.110   1.137   1.170
  1.205   1.256   1.271   1.375   1.410   1.421   1.461   1.481
  1.489   1.539   1.593   1.649   1.735   1.777   1.800   1.852
  1.890   1.906   1.925   1.983   1.999   2.046   2.067   2.120
  2.148   2.165   2.242   2.324   2.337   2.363   2.371   2.397
  2.409   2.427   2.438   2.456   2.466   2.526   2.556   2.565
  2.581   2.594   2.643   2.652   2.676   2.708   2.740   2.758
  2.838   2.865   2.939   2.981   3.118   3.288   3.322   3.333
  3.458   3.562   3.629   4.166   4.392   4.461   4.561   4.587
  4.678   4.692
 
 Beta MOs
 -- Occupied --
-14.334 -10.265 -10.241 -10.231 -10.230 -10.216 -10.213  -0.987
 -0.875  -0.767  -0.663  -0.618  -0.603  -0.557  -0.505  -0.463
 -0.440  -0.431  -0.411  -0.382  -0.342  -0.306  -0.281  -0.273
 -- Virtual --
 -0.029  -0.011  -0.008   0.007   0.016   0.025   0.044   0.053
  0.059   0.065   0.071   0.078   0.093   0.099   0.107   0.111
  0.118   0.128   0.129   0.144   0.158   0.164   0.167   0.177
  0.184   0.192   0.204   0.212   0.215   0.223   0.238   0.248
  0.252   0.255   0.270   0.280   0.294   0.302   0.307   0.335
  0.356   0.373   0.385   0.409   0.445   0.615   0.639   0.657
  0.678   0.705   0.709   0.714   0.734   0.744   0.760   0.773
  0.785   0.802   0.819   0.867   0.876   0.915   0.926   0.967
  0.980   0.990   1.025   1.043   1.060   1.082   1.115   1.141
  1.176   1.215   1.262   1.275   1.380   1.414   1.424   1.466
  1.487   1.497   1.547   1.598   1.655   1.743   1.782   1.809
  1.855   1.897   1.913   1.930   1.985   2.013   2.053   2.071
  2.128   2.154   2.171   2.247   2.325   2.343   2.371   2.376
  2.403   2.416   2.430   2.445   2.459   2.470   2.533   2.566
  2.570   2.586   2.603   2.650   2.655   2.681   2.711   2.744
  2.765   2.841   2.867   2.944   2.982   3.119   3.289   3.323
  3.336   3.462   3.565   3.630   4.168   4.403   4.469   4.576
  4.590   4.679   4.693
 --------------------------------------------------------------
 
          Ground-State Mulliken Net Atomic Charges

     Atom                 Charge (a.u.)    Spin (a.u.)
  --------------------------------------------------------
      1 C                     0.065812       0.063926
      2 C                    -0.241636      -0.040334
      3 C                     0.220497      -0.021259
      4 C                    -0.117634       0.495178
      5 C                    -0.401616      -0.024897
      6 N                    -0.177327       0.027155
      7 H                     0.133381       0.000881
      8 H                     0.141757      -0.003381
      9 H                     0.169607       0.000636
     10 H                     0.153800      -0.011614
     11 H                     0.145297      -0.003476
     12 C                    -0.244456       0.519574
     13 H                     0.152518      -0.002389
  --------------------------------------------------------
  Sum of atomic charges =    -0.000000
  Sum of spin   charges =     1.000000

 -----------------------------------------------------------------
                    Cartesian Multipole Moments
 -----------------------------------------------------------------
    Charge (ESU x 10^10)
                -0.0000
    Dipole Moment (Debye)
         X      -1.7251      Y      -3.2097      Z      -0.9621
       Tot       3.7688
    Quadrupole Moments (Debye-Ang)
        XX     -37.4555     XY      -3.2693     YY     -44.7309
        XZ       1.1510     YZ       0.5063     ZZ     -45.6270
    Octopole Moments (Debye-Ang^2)
       XXX     -13.7900    XXY     -11.3187    XYY     -13.8193
       YYY     -39.2055    XXZ      -0.3743    XYZ       4.1267
       YYZ       0.4492    XZZ     -11.1739    YZZ     -11.1536
       ZZZ      -5.1774
    Hexadecapole Moments (Debye-Ang^3)
      XXXX    -263.7159   XXXY     -10.3689   XXYY     -96.2732
      XYYY     -25.9210   YYYY    -273.9979   XXXZ      29.5816
      XXYZ      13.6291   XYYZ      18.9589   YYYZ      32.4851
      XXZZ     -80.7350   XYZZ      -2.3759   YYZZ     -77.3888
      XZZZ      33.2141   YZZZ      30.9229   ZZZZ    -199.4327
 -----------------------------------------------------------------
 Calculating MO derivatives via CPSCF
   1         3          39      0.295018    0.060761
   2         3          39      0.043989    0.009667
   3         3          39      0.005146    0.001036
   4         3          39      0.000712    0.000166
   5        28          14      0.000061    0.000017
   6        39           3      0.000004    0.000001
   7        42           0      0.000000    0.000000    Roots Converged
 Time for AOints: 19.5 s (CPU) 22.9 s (wall)
 ------------------------------------------------------------------------------
                     AOints        : Timing summary (seconds)
 ------------------------------------------------------------------------------
     job step          cpu (% of tot)      sys (% of tot)     wall (% of tot)
 ------------------------------------------------------------------------------
  cpscf_lag         0.1174E+03 (28.1)   0.4400E-04 (32.8)   0.1208E+03 (27.2)
  iterzp            0.2809E+03 (67.2)   0.8800E-04 (65.7)   0.2995E+03 (67.5)
  make_fx           0.0000E+00 ( 0.0)   0.0000E+00 ( 0.0)   0.0000E+00 ( 0.0)
  AOints            0.1951E+02 ( 4.7)   0.1000E-05 ( 0.7)   0.2288E+02 ( 5.2)
 ------------------------------------------------------------------------------
   Grand Totals     0.4182E+03          0.1340E-03          0.4435E+03
 ------------------------------------------------------------------------------
 Calculating analytic Hessian of the SCF energy
 Polarizability Matrix (a.u.)
            1           2           3
    1 -77.8056386   3.6381998   8.5844403
    2   3.6381998 -73.2299093   6.4967370
    3   8.5844403   6.4967370 -68.7636354
 
 Direct stationary perturbation theory relativistic correction:
 
 rels  =       0.069402816609
 relv  =      -0.341628760057
 rel2e =       0.159229387250
 E_rel =      -0.112996556197
 
 Hessian of the SCF Energy
            1           2           3           4           5           6
    1   0.8031601  -0.1273672   0.0370070  -0.1341489  -0.0539084   0.0085984
    2  -0.1273672   0.6065121  -0.1277268  -0.0236673  -0.1436505   0.0067727
    3   0.0370070  -0.1277268   0.1931693   0.0137232   0.0152661  -0.0718498
    4  -0.1341489  -0.0236673   0.0137232   0.4639663  -0.1173920  -0.0405793
    5  -0.0539084  -0.1436505   0.0152661  -0.1173920   0.6874695  -0.0035016
    6   0.0085984   0.0067727  -0.0718498  -0.0405793  -0.0035016   0.2246275
    7  -0.0434157  -0.0339946  -0.0082567  -0.1654670   0.0316016  -0.0304719
    8  -0.0023504   0.0027376  -0.0130368   0.0457642  -0.0781568  -0.0094542
    9  -0.0076053   0.0169765   0.0006972  -0.1024347  -0.0060864  -0.0418317
   10  -0.0052501  -0.0015510   0.0007411  -0.0191417   0.0237796   0.0121278
   11   0.0063290  -0.0283424   0.0085979   0.0257720   0.0058556  -0.0145056
   12  -0.0061669   0.0015516   0.0035141   0.0060822  -0.0157616   0.0137610
   13  -0.0790186   0.0482083  -0.0120666  -0.0362484   0.0065020  -0.0021008
   14   0.0216649   0.0126451  -0.0074455   0.0013265  -0.0380026   0.0126623
   15  -0.0089443  -0.0027027   0.0052247   0.0016385   0.0064688  -0.0065027
   16  -0.2126190   0.1970613  -0.0560975   0.0352746   0.0158753  -0.0072293
   17   0.1623115  -0.3937744   0.0938885  -0.0214096  -0.0633846   0.0203496
   18  -0.0418101   0.0874701  -0.0788800   0.0010731   0.0297567   0.0207377
   19  -0.3333275  -0.0081064  -0.0002550  -0.0046453   0.0040304  -0.0015633
   20  -0.0119999  -0.0562596   0.0058924  -0.0165357   0.0062656   0.0002752
   21   0.0027754   0.0035339  -0.0385977   0.0096221   0.0014130   0.0077368
   22   0.0144580  -0.0147003  -0.0048132  -0.0860550   0.0867900   0.0110775
   23   0.0120219  -0.0111305  -0.0026841   0.0927445  -0.3051617  -0.0334066
   24  -0.0034935   0.0060609  -0.0018872   0.0092778  -0.0354042  -0.0376031
   25  -0.0019621  -0.0011939  -0.0016169  -0.0046562  -0.0141875  -0.0051742
   26   0.0008314  -0.0033389   0.0030094   0.0085272   0.0095451   0.0067020
   27   0.0016617   0.0024957  -0.0005090  -0.0019370   0.0018517  -0.0024597
   28   0.0020546  -0.0018039   0.0004868   0.0015465   0.0015891  -0.0004589
   29   0.0007819  -0.0033741   0.0012198   0.0068916  -0.0048827   0.0005960
   30   0.0018547   0.0010063  -0.0009652   0.0014109   0.0000187  -0.0029121
   31  -0.0058703  -0.0033177  -0.0001551   0.0000865  -0.0000697   0.0001023
   32  -0.0028760   0.0001732   0.0009464  -0.0002006  -0.0034489   0.0010359
   33   0.0004335   0.0005286   0.0010979   0.0008909  -0.0033139   0.0007024
   34  -0.0034954  -0.0287607   0.0272196  -0.0449639   0.0314781   0.0546007
   35  -0.0041676   0.0184904   0.0236625  -0.0071177  -0.0806249   0.0184657
   36   0.0183187   0.0053807  -0.0087613   0.0966570  -0.0019520  -0.0965146
   37  -0.0005653  -0.0008065   0.0040833  -0.0055475  -0.0160885   0.0010709
   38  -0.0012712  -0.0006881  -0.0015900   0.0052971   0.0081770  -0.0059914
   39  -0.0026293  -0.0013474  -0.0022528   0.0045752   0.0112448  -0.0078917
            7           8           9          10          11          12
    1  -0.0434157  -0.0023504  -0.0076053  -0.0052501   0.0063290  -0.0061669
    2  -0.0339946   0.0027376   0.0169765  -0.0015510  -0.0283424   0.0015516
    3  -0.0082567  -0.0130368   0.0006972   0.0007411   0.0085979   0.0035141
    4  -0.1654670   0.0457642  -0.1024347  -0.0191417   0.0257720   0.0060822
    5   0.0316016  -0.0781568  -0.0060864   0.0237796   0.0058556  -0.0157616
    6  -0.0304719  -0.0094542  -0.0418317   0.0121278  -0.0145056   0.0137610
    7   0.5060841   0.1758906   0.1935935  -0.0285182  -0.0551394  -0.0591121
    8   0.1758906   0.4447253   0.0982700   0.0083538   0.0460943   0.0157277
    9   0.1935935   0.0982700   0.2167161   0.0078079  -0.0259732  -0.0477612
   10  -0.0285182   0.0083538   0.0078079   0.5658278  -0.1025644  -0.1163134
   11  -0.0551394   0.0460943  -0.0259732  -0.1025644   0.1767262  -0.1560679
   12  -0.0591121   0.0157277  -0.0477612  -0.1163134  -0.1560679   0.1827734
   13  -0.0387037  -0.0318519  -0.0458355  -0.0835028   0.0510255   0.0350087
   14   0.0158224  -0.1941648  -0.0302814  -0.0021600  -0.0207259   0.0576058
   15  -0.0240165   0.0287088  -0.0389201   0.0434901   0.0260176  -0.1346708
   16  -0.0308331  -0.0365684   0.0242245  -0.0135102  -0.0314549   0.0260378
   17  -0.0120808  -0.0287838  -0.0040498   0.0024906   0.0159702   0.0082694
   18  -0.0121947   0.0010035   0.0096501   0.0336930  -0.0066762  -0.0056611
   19  -0.0003109  -0.0003266   0.0003715   0.0000575  -0.0006678   0.0001453
   20  -0.0034457  -0.0019927   0.0013476  -0.0003018  -0.0017919  -0.0004279
   21  -0.0010191   0.0032131   0.0016699  -0.0029050  -0.0014683  -0.0010700
   22  -0.0018527   0.0193833   0.0078407  -0.0023370  -0.0005410   0.0005464
   23  -0.0018403  -0.0001013   0.0001746  -0.0003166   0.0011021   0.0000606
   24  -0.0021724   0.0183214  -0.0000842   0.0035925   0.0016552  -0.0052251
   25  -0.2111236  -0.1294137  -0.0991036   0.0068725   0.0012079   0.0026979
   26  -0.1292487  -0.1535807  -0.0704751  -0.0022013  -0.0036546   0.0027999
   27  -0.0910493  -0.0633264  -0.0735014  -0.0105154  -0.0025285  -0.0078354
   28  -0.0006098  -0.0011897  -0.0016363  -0.3332774   0.0221840   0.0629592
   29   0.0119049  -0.0029959   0.0046576   0.0007624  -0.0306486   0.0221930
   30   0.0118157  -0.0015909  -0.0016947   0.0349897   0.0154027  -0.0323887
   31   0.0017107  -0.0001663   0.0041814   0.0068145  -0.0092268   0.0040653
   32   0.0168487  -0.0091373   0.0155709  -0.0016355   0.0007233  -0.0018927
   33   0.0093041  -0.0084944   0.0041875  -0.0180998   0.0209945  -0.0122650
   34   0.0137849  -0.0561461   0.0184833  -0.1031210   0.0894318   0.0602051
   35  -0.0165103  -0.0223134   0.0024676   0.0855916  -0.1474021   0.0601599
   36   0.0076834  -0.0849068  -0.0230380   0.0116395   0.1410566   0.0568847
   37  -0.0007449   0.0086211   0.0001126   0.0090860   0.0036441  -0.0161555
   38   0.0001915  -0.0023304  -0.0025990  -0.0102475  -0.0139062   0.0057821
   39   0.0058958   0.0155650  -0.0060894  -0.0002481  -0.0065049  -0.0100558
           13          14          15          16          17          18
    1  -0.0790186   0.0216649  -0.0089443  -0.2126190   0.1623115  -0.0418101
    2   0.0482083   0.0126451  -0.0027027   0.1970613  -0.3937744   0.0874701
    3  -0.0120666  -0.0074455   0.0052247  -0.0560975   0.0938885  -0.0788800
    4  -0.0362484   0.0013265   0.0016385   0.0352746  -0.0214096   0.0010731
    5   0.0065020  -0.0380026   0.0064688   0.0158753  -0.0633846   0.0297567
    6  -0.0021008   0.0126623  -0.0065027  -0.0072293   0.0203496   0.0207377
    7  -0.0387037   0.0158224  -0.0240165  -0.0308331  -0.0120808  -0.0121947
    8  -0.0318519  -0.1941648   0.0287088  -0.0365684  -0.0287838   0.0010035
    9  -0.0458355  -0.0302814  -0.0389201   0.0242245  -0.0040498   0.0096501
   10  -0.0835028  -0.0021600   0.0434901  -0.0135102   0.0024906   0.0336930
   11   0.0510255  -0.0207259   0.0260176  -0.0314549   0.0159702  -0.0066762
   12   0.0350087   0.0576058  -0.1346708   0.0260378   0.0082694  -0.0056611
   13   0.5241950  -0.1379720   0.1067107  -0.1510654  -0.0143006   0.0079773
   14  -0.1379720   0.5027169  -0.1741731  -0.0217310  -0.0914903   0.0188854
   15   0.1067107  -0.1741731   0.3698918  -0.0086157   0.0030981  -0.0745216
   16  -0.1510654  -0.0217310  -0.0086157   0.4449523  -0.1495427   0.0346298
   17  -0.0143006  -0.0914903   0.0030981  -0.1495427   0.5647650  -0.1194168
   18   0.0079773   0.0188854  -0.0745216   0.0346298  -0.1194168   0.1270598
   19   0.0011448   0.0031109  -0.0014190  -0.0160162   0.0059787  -0.0022336
   20   0.0037669  -0.0026969   0.0043884   0.0323918   0.0012241  -0.0023110
   21  -0.0001937   0.0037554   0.0126979  -0.0091909  -0.0009471  -0.0057547
   22  -0.0033410   0.0005711  -0.0003657  -0.0021961  -0.0047676   0.0030833
   23  -0.0009982  -0.0006378  -0.0000152  -0.0019280  -0.0039073   0.0015486
   24  -0.0038572   0.0026068  -0.0012303   0.0010862   0.0007182   0.0020839
   25   0.0022707   0.0056568   0.0028824  -0.0030376  -0.0001532  -0.0002278
   26  -0.0126702  -0.0013568  -0.0106290  -0.0026557  -0.0014598  -0.0016806
   27   0.0070045  -0.0032296   0.0033619   0.0041640   0.0023362   0.0015044
   28  -0.0017969   0.0012725  -0.0059036  -0.0023321  -0.0001674   0.0014612
   29  -0.0121198   0.0013948  -0.0058408  -0.0048036   0.0012525   0.0035297
   30   0.0200035  -0.0020208  -0.0041254  -0.0006062  -0.0037565  -0.0016548
   31  -0.1584378   0.1021483  -0.0993046  -0.0210727   0.0178297  -0.0139928
   32   0.1013422  -0.1470099   0.0935106  -0.0063933   0.0082538  -0.0082653
   33  -0.1018694   0.0928663  -0.1214768   0.0037471  -0.0033664   0.0020338
   34   0.0243026   0.0027751  -0.0050032  -0.0253350   0.0123931  -0.0097050
   35  -0.0042054  -0.0184562   0.0312669   0.0099337  -0.0108975  -0.0035675
   36  -0.0110379   0.0263862  -0.0057651  -0.0130670   0.0010713   0.0015226
   37   0.0002016   0.0075145  -0.0011491  -0.0022096   0.0014183  -0.0017537
   38   0.0032734  -0.0022157  -0.0000983  -0.0001844   0.0022321  -0.0002768
   39   0.0002564   0.0023820  -0.0039635   0.0009173   0.0018054   0.0018799
           19          20          21          22          23          24
    1  -0.3333275  -0.0119999   0.0027754   0.0144580   0.0120219  -0.0034935
    2  -0.0081064  -0.0562596   0.0035339  -0.0147003  -0.0111305   0.0060609
    3  -0.0002550   0.0058924  -0.0385977  -0.0048132  -0.0026841  -0.0018872
    4  -0.0046453  -0.0165357   0.0096221  -0.0860550   0.0927445   0.0092778
    5   0.0040304   0.0062656   0.0014130   0.0867900  -0.3051617  -0.0354042
    6  -0.0015633   0.0002752   0.0077368   0.0110775  -0.0334066  -0.0376031
    7  -0.0003109  -0.0034457  -0.0010191  -0.0018527  -0.0018403  -0.0021724
    8  -0.0003266  -0.0019927   0.0032131   0.0193833  -0.0001013   0.0183214
    9   0.0003715   0.0013476   0.0016699   0.0078407   0.0001746  -0.0000842
   10   0.0000575  -0.0003018  -0.0029050  -0.0023370  -0.0003166   0.0035925
   11  -0.0006678  -0.0017919  -0.0014683  -0.0005410   0.0011021   0.0016552
   12   0.0001453  -0.0004279  -0.0010700   0.0005464   0.0000606  -0.0052251
   13   0.0011448   0.0037669  -0.0001937  -0.0033410  -0.0009982  -0.0038572
   14   0.0031109  -0.0026969   0.0037554   0.0005711  -0.0006378   0.0026068
   15  -0.0014190   0.0043884   0.0126979  -0.0003657  -0.0000152  -0.0012303
   16  -0.0160162   0.0323918  -0.0091909  -0.0021961  -0.0019280   0.0010862
   17   0.0059787   0.0012241  -0.0009471  -0.0047676  -0.0039073   0.0007182
   18  -0.0022336  -0.0023110  -0.0057547   0.0030833   0.0015486   0.0020839
   19   0.3555341  -0.0026682   0.0033246  -0.0001834  -0.0006168   0.0002166
   20  -0.0026682   0.0542209  -0.0086883   0.0008558   0.0001246  -0.0000828
   21   0.0033246  -0.0086883   0.0257989  -0.0001779   0.0000989  -0.0002537
   22  -0.0001834   0.0008558  -0.0001779   0.0861772  -0.0985441  -0.0171246
   23  -0.0006168   0.0001246   0.0000989  -0.0985441   0.3186623   0.0342580
   24   0.0002166  -0.0000828  -0.0002537  -0.0171246   0.0342580   0.0422081
   25  -0.0002046  -0.0009183  -0.0001891   0.0008412   0.0002896   0.0010503
   26   0.0001113   0.0004655  -0.0005399  -0.0006217   0.0001913  -0.0007434
   27   0.0002509   0.0003685   0.0001644  -0.0002568  -0.0000196  -0.0002134
   28  -0.0001060  -0.0000476  -0.0003322  -0.0002446  -0.0001483  -0.0000587
   29  -0.0001087   0.0002989  -0.0003215   0.0014669   0.0001498  -0.0012711
   30   0.0000917   0.0003216   0.0013274   0.0001404   0.0003230   0.0000157
   31  -0.0006153   0.0013354   0.0002614   0.0001420   0.0001354  -0.0000167
   32  -0.0001159   0.0007043   0.0003886   0.0004853   0.0000539   0.0007593
   33   0.0002785  -0.0000136   0.0003240   0.0004473  -0.0000925   0.0005603
   34  -0.0007053  -0.0015951  -0.0021204  -0.0058443  -0.0009381   0.0118676
   35  -0.0005184  -0.0006473  -0.0007344   0.0097540   0.0001879  -0.0282898
   36   0.0008408  -0.0014620  -0.0046453  -0.0004498  -0.0002408   0.0005731
   37  -0.0006219  -0.0008376   0.0001447   0.0004356   0.0001390  -0.0003681
   38  -0.0001026   0.0000846   0.0002965  -0.0001316   0.0004667   0.0014114
   39  -0.0000490   0.0003919   0.0006021   0.0000524  -0.0000050   0.0010560
           25          26          27          28          29          30
    1  -0.0019621   0.0008314   0.0016617   0.0020546   0.0007819   0.0018547
    2  -0.0011939  -0.0033389   0.0024957  -0.0018039  -0.0033741   0.0010063
    3  -0.0016169   0.0030094  -0.0005090   0.0004868   0.0012198  -0.0009652
    4  -0.0046562   0.0085272  -0.0019370   0.0015465   0.0068916   0.0014109
    5  -0.0141875   0.0095451   0.0018517   0.0015891  -0.0048827   0.0000187
    6  -0.0051742   0.0067020  -0.0024597  -0.0004589   0.0005960  -0.0029121
    7  -0.2111236  -0.1292487  -0.0910493  -0.0006098   0.0119049   0.0118157
    8  -0.1294137  -0.1535807  -0.0633264  -0.0011897  -0.0029959  -0.0015909
    9  -0.0991036  -0.0704751  -0.0735014  -0.0016363   0.0046576  -0.0016947
   10   0.0068725  -0.0022013  -0.0105154  -0.3332774   0.0007624   0.0349897
   11   0.0012079  -0.0036546  -0.0025285   0.0221840  -0.0306486   0.0154027
   12   0.0026979   0.0027999  -0.0078354   0.0629592   0.0221930  -0.0323887
   13   0.0022707  -0.0126702   0.0070045  -0.0017969  -0.0121198   0.0200035
   14   0.0056568  -0.0013568  -0.0032296   0.0012725   0.0013948  -0.0020208
   15   0.0028824  -0.0106290   0.0033619  -0.0059036  -0.0058408  -0.0041254
   16  -0.0030376  -0.0026557   0.0041640  -0.0023321  -0.0048036  -0.0006062
   17  -0.0001532  -0.0014598   0.0023362  -0.0001674   0.0012525  -0.0037565
   18  -0.0002278  -0.0016806   0.0015044   0.0014612   0.0035297  -0.0016548
   19  -0.0002046   0.0001113   0.0002509  -0.0001060  -0.0001087   0.0000917
   20  -0.0009183   0.0004655   0.0003685  -0.0000476   0.0002989   0.0003216
   21  -0.0001891  -0.0005399   0.0001644  -0.0003322  -0.0003215   0.0013274
   22   0.0008412  -0.0006217  -0.0002568  -0.0002446   0.0014669   0.0001404
   23   0.0002896   0.0001913  -0.0000196  -0.0001483   0.0001498   0.0003230
   24   0.0010503  -0.0007434  -0.0002134  -0.0000587  -0.0012711   0.0000157
   25   0.2113919   0.1343084   0.0968198   0.0002885  -0.0005142  -0.0004453
   26   0.1343084   0.1494763   0.0726856   0.0002288   0.0006506  -0.0003399
   27   0.0968198   0.0726856   0.0818760   0.0002669   0.0009850   0.0014619
   28   0.0002885   0.0002288   0.0002669   0.3410970  -0.0209398  -0.0582218
   29  -0.0005142   0.0006506   0.0009850  -0.0209398   0.0380510  -0.0087730
   30  -0.0004453  -0.0003399   0.0014619  -0.0582218  -0.0087730   0.0430142
   31   0.0002062   0.0002999  -0.0000393   0.0003049   0.0002309  -0.0001552
   32  -0.0003098   0.0008319  -0.0005830   0.0000612   0.0000083   0.0005794
   33  -0.0000265   0.0007624  -0.0004347   0.0007021  -0.0004684   0.0013918
   34  -0.0010694   0.0031393  -0.0072666  -0.0085868   0.0163481  -0.0123158
   35   0.0052977   0.0018421  -0.0112569  -0.0025299  -0.0017199  -0.0025496
   36   0.0041013  -0.0015839  -0.0049449  -0.0001424  -0.0172976  -0.0052552
   37   0.0001825  -0.0000486   0.0008967   0.0016620   0.0000994   0.0014376
   38  -0.0000697   0.0003880   0.0002212   0.0014910   0.0018154   0.0013790
   39  -0.0007682   0.0000323   0.0015299   0.0008777   0.0007910   0.0017852
           31          32          33          34          35          36
    1  -0.0058703  -0.0028760   0.0004335  -0.0034954  -0.0041676   0.0183187
    2  -0.0033177   0.0001732   0.0005286  -0.0287607   0.0184904   0.0053807
    3  -0.0001551   0.0009464   0.0010979   0.0272196   0.0236625  -0.0087613
    4   0.0000865  -0.0002006   0.0008909  -0.0449639  -0.0071177   0.0966570
    5  -0.0000697  -0.0034489  -0.0033139   0.0314781  -0.0806249  -0.0019520
    6   0.0001023   0.0010359   0.0007024   0.0546007   0.0184657  -0.0965146
    7   0.0017107   0.0168487   0.0093041   0.0137849  -0.0165103   0.0076834
    8  -0.0001663  -0.0091373  -0.0084944  -0.0561461  -0.0223134  -0.0849068
    9   0.0041814   0.0155709   0.0041875   0.0184833   0.0024676  -0.0230380
   10   0.0068145  -0.0016355  -0.0180998  -0.1031210   0.0855916   0.0116395
   11  -0.0092268   0.0007233   0.0209945   0.0894318  -0.1474021   0.1410566
   12   0.0040653  -0.0018927  -0.0122650   0.0602051   0.0601599   0.0568847
   13  -0.1584378   0.1013422  -0.1018694   0.0243026  -0.0042054  -0.0110379
   14   0.1021483  -0.1470099   0.0928663   0.0027751  -0.0184562   0.0263862
   15  -0.0993046   0.0935106  -0.1214768  -0.0050032   0.0312669  -0.0057651
   16  -0.0210727  -0.0063933   0.0037471  -0.0253350   0.0099337  -0.0130670
   17   0.0178297   0.0082538  -0.0033664   0.0123931  -0.0108975   0.0010713
   18  -0.0139928  -0.0082653   0.0020338  -0.0097050  -0.0035675   0.0015226
   19  -0.0006153  -0.0001159   0.0002785  -0.0007053  -0.0005184   0.0008408
   20   0.0013354   0.0007043  -0.0000136  -0.0015951  -0.0006473  -0.0014620
   21   0.0002614   0.0003886   0.0003240  -0.0021204  -0.0007344  -0.0046453
   22   0.0001420   0.0004853   0.0004473  -0.0058443   0.0097540  -0.0004498
   23   0.0001354   0.0000539  -0.0000925  -0.0009381   0.0001879  -0.0002408
   24  -0.0000167   0.0007593   0.0005603   0.0118676  -0.0282898   0.0005731
   25   0.0002062  -0.0003098  -0.0000265  -0.0010694   0.0052977   0.0041013
   26   0.0002999   0.0008319   0.0007624   0.0031393   0.0018421  -0.0015839
   27  -0.0000393  -0.0005830  -0.0004347  -0.0072666  -0.0112569  -0.0049449
   28   0.0003049   0.0000612   0.0007021  -0.0085868  -0.0025299  -0.0001424
   29   0.0002309   0.0000083  -0.0004684   0.0163481  -0.0017199  -0.0172976
   30  -0.0001552   0.0005794   0.0013918  -0.0123158  -0.0025496  -0.0052552
   31   0.1767422  -0.1074770   0.1017503  -0.0005696  -0.0013434   0.0027017
   32  -0.1074770   0.1502192  -0.1008093  -0.0002246  -0.0010059  -0.0017539
   33   0.1017503  -0.1008093   0.1298088   0.0037032   0.0009539  -0.0055302
   34  -0.0005696  -0.0002246   0.0037032   0.2636281   0.0395686  -0.1900677
   35  -0.0013434  -0.0010059   0.0009539   0.0395686   0.4968529  -0.1575280
   36   0.0027017  -0.0017539  -0.0055302  -0.1900677  -0.1575280   0.1413499
   37   0.0005586   0.0004954  -0.0012612  -0.1080249  -0.1137528   0.0728224
   38  -0.0003786  -0.0003659   0.0004527  -0.1074695  -0.2343061   0.0928303
   39   0.0006012   0.0005130  -0.0003998   0.0503992   0.0669497  -0.0458757
           37          38          39
    1  -0.0005653  -0.0012712  -0.0026293
    2  -0.0008065  -0.0006881  -0.0013474
    3   0.0040833  -0.0015900  -0.0022528
    4  -0.0055475   0.0052971   0.0045752
    5  -0.0160885   0.0081770   0.0112448
    6   0.0010709  -0.0059914  -0.0078917
    7  -0.0007449   0.0001915   0.0058958
    8   0.0086211  -0.0023304   0.0155650
    9   0.0001126  -0.0025990  -0.0060894
   10   0.0090860  -0.0102475  -0.0002481
   11   0.0036441  -0.0139062  -0.0065049
   12  -0.0161555   0.0057821  -0.0100558
   13   0.0002016   0.0032734   0.0002564
   14   0.0075145  -0.0022157   0.0023820
   15  -0.0011491  -0.0000983  -0.0039635
   16  -0.0022096  -0.0001844   0.0009173
   17   0.0014183   0.0022321   0.0018054
   18  -0.0017537  -0.0002768   0.0018799
   19  -0.0006219  -0.0001026  -0.0000490
   20  -0.0008376   0.0000846   0.0003919
   21   0.0001447   0.0002965   0.0006021
   22   0.0004356  -0.0001316   0.0000524
   23   0.0001390   0.0004667  -0.0000050
   24  -0.0003681   0.0014114   0.0010560
   25   0.0001825  -0.0000697  -0.0007682
   26  -0.0000486   0.0003880   0.0000323
   27   0.0008967   0.0002212   0.0015299
   28   0.0016620   0.0014910   0.0008777
   29   0.0000994   0.0018154   0.0007910
   30   0.0014376   0.0013790   0.0017852
   31   0.0005586  -0.0003786   0.0006012
   32   0.0004954  -0.0003659   0.0005130
   33  -0.0012612   0.0004527  -0.0003998
   34  -0.1080249  -0.1074695   0.0503992
   35  -0.1137528  -0.2343061   0.0669497
   36   0.0728224   0.0928303  -0.0458757
   37   0.1055876   0.1096021  -0.0598806
   38   0.1096021   0.2406487  -0.0918179
   39  -0.0598806  -0.0918179   0.0696757
 Gradient time:  CPU 551.28 s  wall 584.40 s
 **********************************************************************
 **                                                                  **
 **                       VIBRATIONAL ANALYSIS                       **
 **                       --------------------                       **
 **                                                                  **
 **        VIBRATIONAL FREQUENCIES (CM**-1) AND NORMAL MODES         **
 **     FORCE CONSTANTS (mDYN/ANGSTROM) AND REDUCED MASSES (AMU)     **
 **                  INFRARED INTENSITIES (KM/MOL)                   **
 **                                                                  **
 **********************************************************************
 

 Mode:                 1                      2                      3
 Frequency:      -726.97                 323.57                 377.48
 Force Cnst:      2.8875                 0.2994                 0.2790
 Red. Mass:       9.2733                 4.8538                 3.3234
 IR Active:          YES                    YES                    YES
 IR Intens:      111.096                 49.016                  5.489
 Raman Active:       YES                    YES                    YES
               X      Y      Z        X      Y      Z        X      Y      Z
 C         -0.039 -0.027  0.014    0.075  0.011 -0.116   -0.059  0.102  0.183
 C         -0.122  0.016  0.027    0.127  0.105  0.153   -0.049  0.013  0.067
 C         -0.159  0.249 -0.069   -0.031  0.068  0.257   -0.010  0.028 -0.058
 C         -0.047 -0.416 -0.368   -0.116 -0.168 -0.033    0.232  0.012  0.059
 C          0.054  0.092 -0.064    0.122  0.122  0.091   -0.005 -0.011 -0.075
 N          0.047  0.022 -0.014    0.047  0.023 -0.202   -0.029  0.011 -0.201
 H         -0.038 -0.067  0.062    0.075 -0.102 -0.572   -0.061  0.144  0.415
 H         -0.134  0.029 -0.145    0.098  0.096  0.131    0.059  0.069 -0.070
 H         -0.131  0.200 -0.052    0.093  0.070  0.022   -0.022  0.023 -0.027
 H          0.087  0.116  0.160   -0.133 -0.108 -0.154    0.304  0.345  0.366
 H         -0.007  0.181  0.110    0.040  0.083  0.147   -0.116 -0.013  0.055
 C          0.285  0.026  0.480   -0.225 -0.148 -0.058   -0.065 -0.187  0.023
 H         -0.102 -0.064 -0.182   -0.249 -0.225 -0.262   -0.299 -0.200 -0.306
 TransDip  -0.165  0.286 -0.071   -0.141 -0.025  0.172   -0.016  0.070  0.022

 Mode:                 4                      5                      6
 Frequency:       528.67                 617.51                 742.26
 Force Cnst:      0.7465                 0.5001                 0.7046
 Red. Mass:       4.5332                 2.2261                 2.1707
 IR Active:          YES                    YES                    YES
 IR Intens:       16.542                 20.778                 53.530
 Raman Active:       YES                    YES                    YES
               X      Y      Z        X      Y      Z        X      Y      Z
 C         -0.013  0.018  0.134   -0.022  0.007 -0.139    0.005  0.005 -0.084
 C          0.063 -0.039 -0.158    0.034 -0.017  0.041   -0.007 -0.046 -0.122
 C         -0.205 -0.026  0.371    0.010 -0.080  0.029    0.131  0.057  0.075
 C          0.065  0.003 -0.152    0.098  0.037 -0.115   -0.041  0.058  0.095
 C          0.047  0.042 -0.147    0.002 -0.045 -0.035    0.015 -0.044 -0.067
 N         -0.026  0.011  0.073   -0.036  0.083  0.173   -0.003  0.025 -0.003
 H         -0.017  0.127  0.503   -0.020 -0.018 -0.368    0.001  0.144  0.298
 H          0.025 -0.037 -0.253    0.069 -0.015  0.124   -0.113 -0.062 -0.288
 H         -0.245 -0.027  0.447    0.018 -0.099  0.039    0.075  0.095  0.143
 H          0.071 -0.067 -0.111    0.219  0.517  0.377   -0.148 -0.268 -0.370
 H          0.039 -0.045 -0.227    0.012 -0.111 -0.120   -0.005 -0.186 -0.196
 C          0.077 -0.013 -0.160   -0.075 -0.018  0.043   -0.050 -0.029  0.176
 H          0.065  0.055 -0.026   -0.347 -0.045 -0.348   -0.400 -0.101 -0.420
 TransDip  -0.077 -0.018  0.103   -0.080  0.111 -0.050    0.028 -0.002 -0.233

 Mode:                 7                      8                      9
 Frequency:       751.48                 808.81                 824.19
 Force Cnst:      1.1129                 0.8091                 1.2603
 Red. Mass:       3.3447                 2.0992                 3.1490
 IR Active:          YES                    YES                    YES
 IR Intens:        2.381                 18.000                 24.988
 Raman Active:       YES                    YES                    YES
               X      Y      Z        X      Y      Z        X      Y      Z
 C          0.110  0.095 -0.034    0.116 -0.043  0.045   -0.023  0.024  0.033
 C         -0.109  0.100 -0.146    0.072  0.087 -0.076    0.053 -0.094 -0.170
 C         -0.125 -0.135  0.037    0.003  0.057  0.017    0.067 -0.147 -0.023
 C         -0.092 -0.037  0.054   -0.108 -0.007  0.028    0.021 -0.023 -0.124
 C          0.072 -0.165  0.022   -0.088 -0.011  0.023    0.048  0.086  0.251
 N          0.170  0.121 -0.043   -0.029 -0.158 -0.010   -0.056 -0.016 -0.090
 H          0.113 -0.004  0.264    0.117  0.077  0.124   -0.027  0.179  0.329
 H         -0.107  0.095 -0.093   -0.043  0.029  0.057    0.169 -0.090  0.126
 H          0.051 -0.108 -0.338    0.120 -0.029 -0.068   -0.073 -0.135  0.214
 H         -0.024  0.441  0.290    0.017  0.310  0.616    0.041  0.305 -0.171
 H          0.068 -0.227 -0.033    0.010 -0.024 -0.107   -0.030  0.203  0.470
 C         -0.082 -0.010  0.077    0.028  0.080 -0.029   -0.082  0.114  0.056
 H          0.244 -0.063  0.394   -0.083 -0.108 -0.581   -0.324  0.229  0.022
 TransDip   0.038  0.010  0.030   -0.047  0.127 -0.006   -0.062  0.093  0.115

 Mode:                10                     11                     12
 Frequency:       846.38                 884.70                 902.70
 Force Cnst:      0.5912                 1.3815                 0.7196
 Red. Mass:       1.4008                 2.9957                 1.4988
 IR Active:          YES                    YES                    YES
 IR Intens:        1.264                  6.680                 23.300
 Raman Active:       YES                    YES                    YES
               X      Y      Z        X      Y      Z        X      Y      Z
 C          0.017 -0.007 -0.021    0.203  0.066 -0.058   -0.060 -0.064 -0.141
 C         -0.014  0.077  0.006    0.028  0.074  0.003    0.020 -0.011  0.050
 C         -0.076 -0.057 -0.080   -0.096  0.060 -0.050    0.007  0.030  0.018
 C          0.010 -0.033  0.063    0.109 -0.026  0.013    0.014 -0.060  0.033
 C          0.016 -0.026 -0.031    0.071 -0.081 -0.064    0.044  0.027 -0.026
 N          0.055  0.027  0.012   -0.168 -0.149  0.080   -0.022  0.021  0.015
 H          0.016 -0.092  0.101    0.208  0.482 -0.024   -0.071  0.179  0.763
 H          0.168  0.100  0.365   -0.161  0.015 -0.086    0.048 -0.046  0.411
 H         -0.382 -0.127  0.578   -0.196  0.175 -0.040    0.090  0.142 -0.298
 H         -0.036 -0.223 -0.122    0.040  0.022 -0.368    0.040 -0.012  0.154
 H          0.040  0.136  0.118    0.035  0.234  0.326   -0.024  0.022  0.048
 C          0.003  0.040 -0.006   -0.112 -0.006  0.048   -0.017  0.030 -0.045
 H         -0.061 -0.103 -0.405   -0.017  0.090  0.375    0.124 -0.011  0.041
 TransDip  -0.017 -0.031  0.007    0.037  0.073  0.014   -0.018  0.007  0.153

 Mode:                13                     14                     15
 Frequency:       943.75                 946.40                 961.98
 Force Cnst:      0.9481                 1.3623                 0.9493
 Red. Mass:       1.8068                 2.5814                 1.7411
 IR Active:          YES                    YES                    YES
 IR Intens:        3.373                 22.814                  6.386
 Raman Active:       YES                    YES                    YES
               X      Y      Z        X      Y      Z        X      Y      Z
 C         -0.087 -0.089  0.004    0.077  0.014 -0.105    0.093  0.004 -0.042
 C         -0.024  0.187 -0.041   -0.043  0.016  0.137    0.005 -0.069  0.038
 C          0.040 -0.048  0.032   -0.065 -0.062 -0.004    0.049 -0.006 -0.016
 C          0.061 -0.018  0.009   -0.040  0.159 -0.103   -0.012 -0.067  0.013
 C          0.019  0.036 -0.057   -0.101  0.036  0.111   -0.123  0.099 -0.082
 N         -0.017 -0.046  0.035    0.041 -0.027 -0.001    0.066  0.036  0.003
 H         -0.098 -0.289  0.059    0.081  0.232  0.429    0.098  0.130  0.149
 H          0.007  0.239 -0.281   -0.164  0.015 -0.235   -0.281 -0.142 -0.254
 H          0.489 -0.526 -0.097    0.083 -0.247 -0.013    0.072 -0.348  0.443
 H          0.033 -0.014 -0.149   -0.096  0.218 -0.433    0.051 -0.102  0.389
 H         -0.011  0.285  0.249   -0.003  0.145  0.108   -0.121  0.239  0.058
 C         -0.029  0.015  0.030    0.118 -0.139  0.001   -0.066 -0.001 -0.009
 H          0.051 -0.034  0.017    0.152 -0.283 -0.286   -0.110  0.180  0.339
 TransDip  -0.037 -0.045  0.009    0.100  0.086 -0.078   -0.036  0.012  0.071

 Mode:                16                     17                     18
 Frequency:      1011.00                1031.18                1054.55
 Force Cnst:      1.0487                 1.0880                 1.1976
 Red. Mass:       1.7414                 1.7366                 1.8278
 IR Active:          YES                    YES                    YES
 IR Intens:        5.225                  0.986                  7.254
 Raman Active:       YES                    YES                    YES
               X      Y      Z        X      Y      Z        X      Y      Z
 C         -0.054 -0.034 -0.011   -0.039 -0.014 -0.019   -0.001  0.067  0.025
 C          0.108 -0.009 -0.034   -0.070  0.081  0.041   -0.105 -0.072 -0.005
 C          0.008  0.002 -0.055    0.129  0.068 -0.005    0.022 -0.054  0.008
 C         -0.099  0.050  0.034    0.007 -0.059 -0.050   -0.052 -0.013  0.060
 C          0.043  0.087 -0.061    0.061 -0.074  0.078    0.155  0.075 -0.054
 N         -0.028 -0.032  0.009   -0.034 -0.010  0.001   -0.081  0.003 -0.010
 H         -0.057  0.004  0.043   -0.045 -0.046  0.144   -0.000  0.271 -0.231
 H          0.449  0.120 -0.101   -0.371  0.017 -0.248   -0.449 -0.238  0.294
 H         -0.221  0.047  0.296   -0.168  0.073  0.580    0.219 -0.327  0.038
 H         -0.079  0.437  0.085    0.039  0.291 -0.023   -0.049  0.128  0.052
 H          0.187  0.136 -0.191   -0.040 -0.377 -0.113    0.308  0.228 -0.071
 C         -0.027 -0.102  0.080   -0.023  0.021 -0.079    0.054  0.004 -0.011
 H          0.349 -0.229  0.308    0.291 -0.091  0.059    0.205 -0.181 -0.225
 TransDip   0.017  0.031  0.064    0.003 -0.024  0.021    0.081  0.020 -0.021

 Mode:                19                     20                     21
 Frequency:      1098.50                1109.84                1213.35
 Force Cnst:      0.9798                 1.3453                 1.2360
 Red. Mass:       1.3782                 1.8537                 1.4249
 IR Active:          YES                    YES                    YES
 IR Intens:        1.314                  1.473                  0.200
 Raman Active:       YES                    YES                    YES
               X      Y      Z        X      Y      Z        X      Y      Z
 C          0.012 -0.012  0.035    0.065 -0.002 -0.005    0.011  0.008  0.005
 C          0.011 -0.034 -0.063   -0.089  0.084 -0.085   -0.033  0.032  0.005
 C          0.053  0.064  0.048    0.035 -0.022  0.009    0.078 -0.124  0.034
 C          0.005  0.007 -0.015    0.085 -0.017 -0.034    0.015  0.037 -0.064
 C         -0.091 -0.040 -0.066   -0.086  0.137  0.047   -0.013  0.039 -0.022
 N          0.035  0.027  0.005   -0.007 -0.048  0.015   -0.007 -0.012 -0.003
 H          0.014 -0.102 -0.123    0.067 -0.019 -0.015    0.010 -0.067  0.000
 H         -0.116 -0.148  0.454    0.006  0.037  0.601   -0.151  0.014 -0.157
 H          0.059  0.076  0.040    0.040 -0.034  0.025   -0.314  0.493 -0.144
 H         -0.023  0.317 -0.257    0.068 -0.152 -0.120    0.061 -0.392  0.312
 H         -0.380  0.115  0.442    0.034 -0.313 -0.597    0.040  0.238  0.125
 C         -0.022 -0.019  0.011   -0.023 -0.081  0.040   -0.049  0.022  0.044
 H          0.332 -0.240 -0.022    0.027 -0.032  0.232    0.346 -0.286 -0.130
 TransDip  -0.015 -0.013  0.031    0.038 -0.008  0.002    0.009  0.010 -0.006

 Mode:                22                     23                     24
 Frequency:      1255.18                1283.99                1315.49
 Force Cnst:      1.7925                 1.3619                 1.6988
 Red. Mass:       1.9311                 1.4021                 1.6661
 IR Active:          YES                    YES                    YES
 IR Intens:       16.223                  1.759                 12.264
 Raman Active:       YES                    YES                    YES
               X      Y      Z        X      Y      Z        X      Y      Z
 C         -0.005 -0.054  0.032   -0.044 -0.021  0.002    0.008 -0.018 -0.002
 C          0.127 -0.034  0.024   -0.034 -0.024 -0.025   -0.136 -0.005  0.031
 C         -0.108 -0.041 -0.060   -0.025  0.085 -0.004    0.056 -0.075  0.037
 C          0.078 -0.053  0.055    0.013  0.065 -0.070   -0.016 -0.069  0.056
 C         -0.016  0.094  0.016    0.033 -0.051  0.041    0.004  0.083 -0.060
 N          0.016  0.034 -0.003    0.053 -0.025  0.003    0.053 -0.047  0.025
 H         -0.004  0.133 -0.060   -0.040  0.585 -0.146    0.016  0.497 -0.174
 H         -0.278 -0.152 -0.283    0.279  0.081  0.050    0.432  0.241 -0.188
 H         -0.008 -0.133 -0.171    0.198 -0.283  0.136   -0.103  0.206 -0.076
 H          0.031  0.064 -0.273    0.053 -0.404  0.274   -0.036  0.299 -0.161
 H         -0.241 -0.399 -0.265   -0.065 -0.116  0.104   -0.379 -0.169  0.105
 C         -0.085  0.114  0.046   -0.063  0.003  0.018    0.035  0.040 -0.042
 H          0.391 -0.290 -0.251    0.259 -0.194 -0.004   -0.086  0.097 -0.095
 TransDip  -0.097 -0.077 -0.036    0.042 -0.002  0.002    0.024  0.079 -0.076

 Mode:                25                     26                     27
 Frequency:      1335.12                1356.26                1621.39
 Force Cnst:      1.6215                 1.8955                10.3278
 Red. Mass:       1.5439                 1.7490                 6.6678
 IR Active:          YES                    YES                    YES
 IR Intens:        9.399                 17.538                 62.337
 Raman Active:       YES                    YES                    YES
               X      Y      Z        X      Y      Z        X      Y      Z
 C         -0.085  0.005  0.002    0.094  0.078 -0.028   -0.225  0.472 -0.127
 C          0.018  0.014 -0.002   -0.104 -0.126  0.028    0.075 -0.039  0.003
 C          0.023  0.009  0.034    0.005  0.058  0.028   -0.028  0.001 -0.003
 C          0.050 -0.073  0.019    0.044 -0.043  0.004   -0.002 -0.024  0.013
 C         -0.121 -0.072  0.025   -0.037 -0.013  0.018    0.030  0.062 -0.022
 N          0.083 -0.014 -0.007   -0.055  0.003 -0.003    0.212 -0.352  0.094
 H         -0.086  0.398 -0.109    0.106 -0.483  0.134   -0.263 -0.453  0.101
 H         -0.062 -0.009 -0.012    0.567  0.135 -0.169   -0.214 -0.161  0.055
 H         -0.030  0.134 -0.036    0.177 -0.133  0.006    0.014 -0.064  0.004
 H          0.029  0.180 -0.224    0.042  0.034 -0.085    0.001 -0.055  0.023
 H          0.618  0.456 -0.275    0.217  0.119 -0.137   -0.307 -0.219  0.086
 C         -0.024  0.036 -0.012   -0.058  0.085 -0.012   -0.033  0.019  0.005
 H          0.037  0.006 -0.018    0.317 -0.189 -0.162    0.007 -0.011 -0.014
 TransDip  -0.028  0.047 -0.081    0.121 -0.003 -0.057    0.087  0.164 -0.171

 Mode:                28                     29                     30
 Frequency:      3129.18                3168.54                3175.77
 Force Cnst:      6.2786                 6.4469                 6.4879
 Red. Mass:       1.0883                 1.0899                 1.0918
 IR Active:          YES                    YES                    YES
 IR Intens:       20.096                 11.074                 10.379
 Raman Active:       YES                    YES                    YES
               X      Y      Z        X      Y      Z        X      Y      Z
 C         -0.001 -0.000 -0.000   -0.011 -0.000 -0.000   -0.083  0.001 -0.001
 C         -0.001  0.005 -0.001    0.001 -0.000 -0.001    0.010 -0.021 -0.003
 C          0.001  0.000  0.000    0.002  0.002  0.000    0.001  0.000  0.000
 C          0.018 -0.000 -0.005   -0.081  0.006  0.016    0.009 -0.001 -0.002
 C         -0.001  0.001 -0.001    0.009 -0.007  0.004   -0.002  0.004 -0.003
 N         -0.000  0.000 -0.000   -0.000 -0.000 -0.000    0.001 -0.002  0.000
 H          0.011 -0.001  0.001    0.126 -0.001  0.000    0.947 -0.006  0.009
 H          0.021 -0.058 -0.001   -0.004  0.005  0.001   -0.101  0.258  0.035
 H         -0.012 -0.010 -0.004   -0.026 -0.019 -0.011   -0.005 -0.004 -0.003
 H         -0.216  0.012  0.045    0.937 -0.053 -0.167   -0.111  0.006  0.020
 H          0.012 -0.012  0.008   -0.090  0.081 -0.069    0.045 -0.041  0.038
 C         -0.038 -0.067  0.032   -0.008 -0.017  0.008    0.001  0.001 -0.001
 H          0.451  0.783 -0.351    0.099  0.177 -0.076   -0.010 -0.017  0.007
 TransDip  -0.002 -0.136  0.047   -0.102  0.001  0.029   -0.102 -0.003 -0.018

 Mode:                31                     32                     33
 Frequency:      3196.18                3199.40                3246.31
 Force Cnst:      6.5721                 6.5873                 6.8100
 Red. Mass:       1.0919                 1.0922                 1.0968
 IR Active:          YES                    YES                    YES
 IR Intens:       15.372                  5.454                  0.451
 Raman Active:       YES                    YES                    YES
               X      Y      Z        X      Y      Z        X      Y      Z
 C          0.023  0.001 -0.000    0.012 -0.001  0.000    0.003 -0.000  0.000
 C          0.027 -0.076 -0.009    0.007 -0.018 -0.002    0.006 -0.008 -0.000
 C          0.002  0.005  0.001    0.008  0.005  0.004   -0.064 -0.050 -0.034
 C          0.002  0.000 -0.001   -0.012  0.001  0.003   -0.004  0.000  0.002
 C          0.013 -0.013  0.012   -0.051  0.049 -0.043   -0.005  0.008 -0.005
 N         -0.000  0.001 -0.000   -0.000  0.001 -0.000    0.000  0.001 -0.000
 H         -0.254 -0.002 -0.001   -0.118 -0.001 -0.002   -0.020 -0.000 -0.002
 H         -0.315  0.863  0.110   -0.073  0.203  0.026   -0.033  0.084  0.009
 H         -0.047 -0.042 -0.027   -0.092 -0.070 -0.051    0.714  0.563  0.380
 H         -0.025  0.001  0.006    0.138 -0.005 -0.026    0.043 -0.003 -0.009
 H         -0.158  0.145 -0.133    0.592 -0.542  0.500    0.060 -0.058  0.050
 C         -0.003 -0.004  0.003   -0.001 -0.003  0.001   -0.001 -0.001  0.002
 H          0.030  0.046 -0.022    0.012  0.021 -0.009    0.014  0.024 -0.013
 TransDip   0.086 -0.091  0.008   -0.055  0.028 -0.043   -0.009 -0.014 -0.014

 STANDARD THERMODYNAMIC QUANTITIES AT   298.15 K  AND     1.00 ATM

   This Molecule has  1 Imaginary Frequencies
   Zero point vibrational energy:       63.274 kcal/mol

   Atom    1 Element C  Has Mass   12.00000
   Atom    2 Element C  Has Mass   12.00000
   Atom    3 Element C  Has Mass   12.00000
   Atom    4 Element C  Has Mass   12.00000
   Atom    5 Element C  Has Mass   12.00000
   Atom    6 Element N  Has Mass   14.00307
   Atom    7 Element H  Has Mass    1.00783
   Atom    8 Element H  Has Mass    1.00783
   Atom    9 Element H  Has Mass    1.00783
   Atom   10 Element H  Has Mass    1.00783
   Atom   11 Element H  Has Mass    1.00783
   Atom   12 Element C  Has Mass   12.00000
   Atom   13 Element H  Has Mass    1.00783
   Molecular Mass:    92.050050 amu
   Principal axes and moments of inertia in amu*Bohr^2:
                             1           2           3
    Eigenvalues --      346.23811   451.25024   613.47068
          X               0.74794    -0.58730     0.30929
          Y               0.44945     0.79100     0.41511
          Z              -0.48844    -0.17147     0.85558
   Rotational Symmetry Number is   1
   The Molecule is an Asymmetric Top
   Translational Enthalpy:        0.889 kcal/mol
   Rotational Enthalpy:           0.889 kcal/mol
   Vibrational Enthalpy:         64.496 kcal/mol
   gas constant (RT):             0.592 kcal/mol
   Translational Entropy:        39.471  cal/mol.K
   Rotational Entropy:           26.063  cal/mol.K
   Vibrational Entropy:           5.601  cal/mol.K

   Total Enthalpy:               66.866 kcal/mol
   Total Entropy:                71.135  cal/mol.K
Archival summary:
1\1\c8-66\FREQ\ProcedureUnspecified\6-31+G**\166(2)\hpark21\WedMar213:27:492022WedMar213:27:492022\0\\#,FREQ,ProcedureUnspecified,6-31+G**,\\0,2\N\C,1,1.28806\H,2,1.08837,1,121.498\C,1,1.44837,2,106.61,3,-179.032,0\H,4,1.08538,1,115.828,2,-156.091,0\C,2,1.49346,1,114.519,3,179.34,0\H,6,1.08566,2,121.284,1,155.051,0\C,6,1.50023,2,102.691,1,14.8222,0\H,8,1.08209,6,128.337,2,147.047,0\C,4,1.53547,1,117.042,2,62.0531,0\H,10,1.08751,4,117.347,1,161.183,0\C,10,1.51659,4,105.608,1,-61.6046,0\H,12,1.08956,10,120.251,4,-132.523,0\\\@

 Total job time:  599.08s(wall), 558.12s(cpu) 
 Wed Mar  2 13:27:49 2022

        *************************************************************
        *                                                           *
        *  Thank you very much for using Q-Chem.  Have a nice day.  *
        *                                                           *
        *************************************************************


