13
image # 1 Energy = -286.83831
C 1.54870   0.24423   -0.24941  
C 0.58329   -0.92549  -0.09491  
C -0.70965  -0.35961  -0.78553  
C -1.11940  0.19929   0.59046   
C -0.44225  1.08355   -0.55180  
N 0.96712   1.36966   -0.45382  
H 2.62083   0.17804   -0.07086  
H 0.96058   -1.92794  -0.30835  
H -1.31953  -0.82262  -1.55542  
H -2.09214  0.50632   0.96198   
H -1.08329  1.85604   -0.96419  
C -0.13402  -0.66345  1.22811   
H 0.21977   -0.73802  2.25376   
13
image # 2 Energy = -286.83777
C 1.54872   0.25337   -0.25515  
C 0.58691   -0.92484  -0.09224  
C -0.70876  -0.36284  -0.78896  
C -1.11795  0.22084   0.59849   
C -0.44390  1.08717   -0.55565  
N 0.96529   1.37303   -0.46169  
H 2.62473   0.19350   -0.07945  
H 0.97647   -1.92260  -0.30329  
H -1.31117  -0.84371  -1.54251  
H -2.06935  0.54317   0.98930   
H -1.08663  1.84329   -0.97793  
C -0.14009  -0.66659  1.21626   
H 0.18022   -0.79589  2.24986   
13
image # 3 Energy = -286.83702
C 1.55135   0.25955   -0.25986  
C 0.59089   -0.92086  -0.09215  
C -0.70287  -0.36195  -0.78647  
C -1.10498  0.24259   0.60361   
C -0.44524  1.08228   -0.55708  
N 0.96133   1.38023   -0.47167  
H 2.62737   0.21014   -0.08866  
H 0.99342   -1.91725  -0.29747  
H -1.30534  -0.86798  -1.53114  
H -2.05013  0.58483   1.02123   
H -1.09266  1.83280   -0.99457  
C -0.14771  -0.66927  1.21016   
H 0.13356   -0.85992  2.23866   
13
image # 4 Energy = -286.83567
C 1.54783   0.27285   -0.26505  
C 0.59829   -0.91577  -0.09190  
C -0.69958  -0.36334  -0.78403  
C -1.09265  0.25688   0.60878   
C -0.44824  1.08294   -0.56472  
N 0.96360   1.38040   -0.48181  
H 2.62818   0.22562   -0.09728  
H 1.00567   -1.90875  -0.29181  
H -1.30273  -0.88725  -1.51845  
H -2.02524  0.62177   1.04514   
H -1.09848  1.82259   -1.01042  
C -0.14814  -0.66688  1.21346   
H 0.08308   -0.92808  2.23075   
13
image # 5 Energy = -286.83382
C 1.55820   0.26789   -0.26650  
C 0.60064   -0.90563  -0.08440  
C -0.69725  -0.36307  -0.78222  
C -1.08038  0.26564   0.61271   
C -0.44489  1.08148   -0.57304  
N 0.95303   1.40110   -0.50094  
H 2.62366   0.24327   -0.10713  
H 1.01719   -1.89747  -0.28699  
H -1.30420  -0.90532  -1.50186  
H -1.98997  0.65868   1.06342   
H -1.10736  1.81455   -1.03116  
C -0.13771  -0.65574  1.21664   
H 0.02206   -1.01435  2.23254   
13
image # 6 Energy = -286.83254
C 1.55318   0.28436   -0.27440  
C 0.61039   -0.90251  -0.08278  
C -0.69019  -0.37282  -0.77487  
C -1.06963  0.29656   0.63252   
C -0.44506  1.07550   -0.57584  
N 0.95208   1.39903   -0.51196  
H 2.63094   0.25516   -0.11254  
H 1.02840   -1.89369  -0.28186  
H -1.30037  -0.92121  -1.48765  
H -1.97655  0.68892   1.08492   
H -1.11278  1.80595   -1.04253  
C -0.13703  -0.65485  1.20928   
H -0.02985  -1.07121  2.20842   
13
image # 7 Energy = -286.83101
C 1.55998   0.29899   -0.28251  
C 0.61995   -0.90130  -0.07956  
C -0.68634  -0.38043  -0.76723  
C -1.05059  0.31582   0.64614   
C -0.45721  1.08294   -0.58512  
N 0.95408   1.39975   -0.53043  
H 2.63064   0.26889   -0.11893  
H 1.03596   -1.88562  -0.27595  
H -1.30183  -0.93296  -1.46606  
H -1.95989  0.71389   1.09786   
H -1.11369  1.78999   -1.05148  
C -0.12199  -0.63890  1.22473   
H -0.09640  -1.14311  2.17925   
13
image # 8 Energy = -286.83036
C 1.55860   0.30579   -0.29049  
C 0.63019   -0.89094  -0.07637  
C -0.68132  -0.38517  -0.75450  
C -1.03725  0.33682   0.66020   
C -0.45383  1.07493   -0.58386  
N 0.95490   1.40283   -0.54980  
H 2.63367   0.28229   -0.12451  
H 1.04260   -1.88138  -0.27031  
H -1.30664  -0.94450  -1.44605  
H -1.94389  0.73112   1.10558   
H -1.12231  1.78287   -1.06382  
C -0.10193  -0.61514  1.23603   
H -0.16247  -1.21198  2.14914   
13
image # 9 Energy = -286.82946
C 1.56247   0.31038   -0.30028  
C 0.64022   -0.88417  -0.07066  
C -0.67984  -0.39675  -0.73865  
C -1.02346  0.36961   0.67823   
C -0.45179  1.07085   -0.58102  
N 0.95255   1.40506   -0.56653  
H 2.63949   0.29257   -0.12961  
H 1.04731   -1.87850  -0.26388  
H -1.30829  -0.95313  -1.42180  
H -1.94241  0.73946   1.11045   
H -1.12695  1.77260   -1.06988  
C -0.07823  -0.59680  1.24680   
H -0.22465  -1.26373  2.09908   
13
image # 10 Energy = -286.82831
C 1.56858   0.31657   -0.31148  
C 0.65047   -0.87898  -0.06506  
C -0.67411  -0.40224  -0.71157  
C -1.00324  0.39676   0.69672   
C -0.45469  1.06829   -0.57847  
N 0.95544   1.40422   -0.58304  
H 2.64445   0.30065   -0.13614  
H 1.04828   -1.87483  -0.25681  
H -1.31702  -0.96047  -1.39471  
H -1.94751  0.73448   1.10345   
H -1.12974  1.76311   -1.07333  
C -0.05546  -0.56686  1.25271   
H -0.28499  -1.31335  2.05105   
13
image # 11 Energy = -286.82486
C 1.57578   0.31708   -0.32071  
C 0.66177   -0.87453  -0.06679  
C -0.66611  -0.40936  -0.69487  
C -0.98889  0.44276   0.72489   
C -0.45753  1.06015   -0.56766  
N 0.95739   1.40406   -0.59113  
H 2.65194   0.30491   -0.14364  
H 1.05146   -1.87702  -0.24864  
H -1.31773  -0.96840  -1.36738  
H -1.96359  0.72206   1.09851   
H -1.13138  1.75504   -1.07271  
C -0.05650  -0.56344  1.25087   
H -0.32280  -1.32721  1.99374   
13
image # 12 Energy = -286.81994
C 1.58176   0.31658   -0.33163  
C 0.66895   -0.86805  -0.06104  
C -0.65708  -0.41291  -0.68665  
C -0.96452  0.48152   0.75112   
C -0.45816  1.06197   -0.55880  
N 0.95727   1.40167   -0.59636  
H 2.66324   0.30758   -0.15669  
H 1.05486   -1.87963  -0.23690  
H -1.31872  -0.97420  -1.32770  
H -1.98758  0.69962   1.09007   
H -1.13047  1.74366   -1.06871  
C -0.05971  -0.55489  1.24297   
H -0.36176  -1.33810  1.93501   
13
image # 13 Energy = -286.78483
C 1.58307   0.31741   -0.31080  
C 0.67985   -0.88824  -0.10321  
C -0.61691  -0.43747  -0.72762  
C -0.95927  0.59484   0.83928   
C -0.48305  1.04178   -0.54735  
N 0.94536   1.40037   -0.55945  
H 2.65759   0.29958   -0.14520  
H 1.06620   -1.89126  -0.25523  
H -1.29076  -0.99963  -1.37482  
H -2.00937  0.73121   1.11595   
H -1.12485  1.74643   -1.06833  
C -0.19505  -0.65483  1.11506   
H -0.26855  -1.27674  2.01628   
13
image # 14 Energy = -286.81810
C 1.58451   0.31843   -0.32807  
C 0.67404   -0.87154  -0.07116  
C -0.64097  -0.41028  -0.70682  
C -0.96079  0.50583   0.77485   
C -0.46114  1.05754   -0.56001  
N 0.95604   1.40398   -0.59593  
H 2.66131   0.30846   -0.16010  
H 1.05550   -1.87993  -0.23835  
H -1.32501  -0.97805  -1.32087  
H -1.98634  0.69632   1.08031   
H -1.13228  1.74458   -1.07162  
C -0.07680  -0.56165  1.23704   
H -0.36441  -1.35129  1.95509   
13
image # 15 Energy = -286.79191
C 1.58737   0.32137   -0.32522  
C 0.68029   -0.87542  -0.08420  
C -0.61513  -0.42623  -0.70019  
C -0.95160  0.59324   0.82281   
C -0.48032  1.03901   -0.54942  
N 0.94946   1.39850   -0.58425  
H 2.66341   0.30992   -0.15624  
H 1.06579   -1.88570  -0.24164  
H -1.30603  -0.99148  -1.32487  
H -1.99864  0.71366   1.09796   
H -1.12947  1.73513   -1.07098  
C -0.13672  -0.61775  1.16101   
H -0.34513  -1.33124  1.94894   
13
image # 16 Energy = -286.78878
C 1.58986   0.32001   -0.32625  
C 0.69925   -0.86426  -0.09389  
C -0.60340  -0.46221  -0.68322  
C -0.93846  0.64652   0.87769   
C -0.48771  1.03391   -0.53586  
N 0.94825   1.39481   -0.58548  
H 2.66496   0.30790   -0.15409  
H 1.06193   -1.88654  -0.24402  
H -1.30801  -0.99717  -1.33159  
H -1.99809  0.69907   1.08157   
H -1.12667  1.73758   -1.07009  
C -0.17818  -0.62270  1.11430   
H -0.33913  -1.32322  1.94335   
13
image # 17 Energy = -286.80009
C 1.59438   0.32576   -0.32423  
C 0.70731   -0.87303  -0.09888  
C -0.60245  -0.48483  -0.67744  
C -0.91949  0.67887   0.91704   
C -0.49398  1.02881   -0.52444  
N 0.94403   1.39508   -0.57860  
H 2.66367   0.30843   -0.15367  
H 1.06542   -1.88256  -0.24234  
H -1.29395  -1.01255  -1.34184  
H -1.98862  0.71026   1.09298   
H -1.12589  1.73380   -1.07095  
C -0.22936  -0.62722  1.06436   
H -0.33422  -1.31598  1.92947   
13
image # 18 Energy = -286.80924
C 1.58797   0.32320   -0.32317  
C 0.71722   -0.86707  -0.10363  
C -0.60788  -0.50484  -0.66559  
C -0.89720  0.70658   0.93933   
C -0.49543  1.02387   -0.50941  
N 0.93720   1.39833   -0.56954  
H 2.66922   0.31172   -0.15337  
H 1.07374   -1.88740  -0.23742  
H -1.27251  -1.02963  -1.34438  
H -1.98385  0.73242   1.11810   
H -1.12677  1.72467   -1.07209  
C -0.27396  -0.63703  1.01806   
H -0.33856  -1.30886  1.89480   
13
image # 19 Energy = -286.81622
C 1.58661   0.32760   -0.31876  
C 0.72899   -0.87458  -0.10989  
C -0.61163  -0.51607  -0.65891  
C -0.89647  0.71721   0.94924   
C -0.49558  1.01343   -0.49790  
N 0.92816   1.39836   -0.56240  
H 2.66533   0.31966   -0.15288  
H 1.08785   -1.88368  -0.22838  
H -1.24756  -1.05343  -1.36625  
H -1.95281  0.78453   1.17138   
H -1.13316  1.71531   -1.07842  
C -0.31237  -0.64606  0.98634   
H -0.35640  -1.31553  1.85972   
13
image # 20 Energy = -286.82061
C 1.58662   0.33064   -0.31580  
C 0.73488   -0.87238  -0.11234  
C -0.60949  -0.53228  -0.65679  
C -0.87995  0.73006   0.96307   
C -0.50704  1.01211   -0.49595  
N 0.92117   1.39613   -0.55775  
H 2.66294   0.33023   -0.15541  
H 1.10503   -1.88351  -0.21777  
H -1.22557  -1.07449  -1.38119  
H -1.93400  0.83354   1.22234   
H -1.13387  1.69829   -1.07869  
C -0.34245  -0.65157  0.96043   
H -0.38661  -1.33001  1.82019   
13
image # 21 Energy = -286.82449
C 1.58510   0.33712   -0.31135  
C 0.73907   -0.87220  -0.10837  
C -0.60476  -0.54373  -0.65877  
C -0.86991  0.72555   0.95825   
C -0.51476  1.00970   -0.49889  
N 0.91659   1.39866   -0.55904  
H 2.66444   0.34469   -0.16334  
H 1.12770   -1.88067  -0.20190  
H -1.20564  -1.09251  -1.39134  
H -1.90486  0.89293   1.28319   
H -1.14072  1.68649   -1.08012  
C -0.36785  -0.66372  0.94219   
H -0.43269  -1.35580  1.78499   
13
image # 22 Energy = -286.82833
C 1.58495   0.34426   -0.31180  
C 0.74857   -0.87247  -0.10499  
C -0.59380  -0.55409  -0.65233  
C -0.85727  0.73595   0.96479   
C -0.52160  1.00385   -0.49264  
N 0.91314   1.39943   -0.56371  
H 2.66691   0.35671   -0.17134  
H 1.14167   -1.87539  -0.18633  
H -1.19272  -1.11074  -1.38921  
H -1.87853  0.93093   1.32310   
H -1.14775  1.67561   -1.08122  
C -0.38986  -0.66635  0.92276   
H -0.48187  -1.38082  1.73979   
13
image # 23 Energy = -286.83045
C 1.58144   0.35330   -0.31184  
C 0.76226   -0.86658  -0.09823  
C -0.58124  -0.56835  -0.65533  
C -0.84840  0.73835   0.97645   
C -0.52672  0.99347   -0.49625  
N 0.90409   1.39510   -0.56518  
H 2.67133   0.36624   -0.17750  
H 1.15553   -1.87173  -0.17444  
H -1.18227  -1.12506  -1.39507  
H -1.85089  0.97326   1.36642   
H -1.15439  1.67012   -1.08397  
C -0.41590  -0.67038  0.90574   
H -0.52247  -1.40053  1.70700   
13
image # 24 Energy = -286.83297
C 1.59240   0.35104   -0.30646  
C 0.76543   -0.86567  -0.08920  
C -0.57817  -0.57432  -0.66389  
C -0.85452  0.73332   0.96520   
C -0.52906  0.99461   -0.49792  
N 0.89965   1.41013   -0.57772  
H 2.66740   0.38315   -0.19114  
H 1.17470   -1.86540  -0.15192  
H -1.16254  -1.13929  -1.38461  
H -1.80459  1.02014   1.41462   
H -1.16790  1.65964   -1.08336  
C -0.42302  -0.68165  0.89869   
H -0.58686  -1.43672  1.66650   
13
image # 25 Energy = -286.83499
C 1.58498   0.36513   -0.30924  
C 0.76852   -0.86091  -0.08195  
C -0.57437  -0.57350  -0.66118  
C -0.85128  0.73306   0.97287   
C -0.52473  0.99304   -0.50186  
N 0.90029   1.40570   -0.58349  
H 2.67039   0.39697   -0.20141  
H 1.19039   -1.86479  -0.13308  
H -1.14870  -1.15832  -1.37520  
H -1.76901  1.05237   1.44787   
H -1.17798  1.64629   -1.08262  
C -0.43276  -0.67737  0.88696   
H -0.64162  -1.46532  1.62151   
13
image # 26 Energy = -286.83583
C 1.58485   0.37084   -0.31061  
C 0.78530   -0.86431  -0.07618  
C -0.57211  -0.57945  -0.66399  
C -0.83821  0.74067   0.97731   
C -0.52861  0.99184   -0.49966  
N 0.89544   1.40799   -0.59015  
H 2.67148   0.40817   -0.20996  
H 1.19841   -1.85538  -0.11671  
H -1.13619  -1.17341  -1.36565  
H -1.74288  1.07968   1.47782   
H -1.18480  1.63451   -1.08291  
C -0.45220  -0.68859  0.88964   
H -0.68400  -1.47686  1.57051   
13
image # 27 Energy = -286.83649
C 1.58621   0.37529   -0.31102  
C 0.78178   -0.85797  -0.06860  
C -0.56265  -0.57939  -0.65722  
C -0.83320  0.74085   0.98348   
C -0.52676  0.98863   -0.49885  
N 0.89188   1.41187   -0.59882  
H 2.67093   0.42223   -0.22091  
H 1.21254   -1.85419  -0.09692  
H -1.12333  -1.19338  -1.35623  
H -1.70784  1.10786   1.50838   
H -1.19496  1.62179   -1.08216  
C -0.45907  -0.68175  0.87219   
H -0.73553  -1.50183  1.52667   
