13   
From optimize.out: Frame 1 / 2, Energy=    -286.8516345402
C        1.5189874062    0.3441588063   -0.2644252994
C        0.6216192586   -0.8944701024   -0.0647318007
C       -0.3948716278   -0.5208172525   -1.1474916430
C       -1.0026577606    0.5083552418    0.8086557238
C       -0.5872412418    0.8947648274   -0.6197781154
N        0.8524697132    1.3865955360   -0.5761305058
H        2.5997530457    0.3578848315   -0.1336547130
H        1.1020933072   -1.8728860788   -0.0775504506
H       -1.2194040131   -1.1747379185   -1.4269638383
H       -1.7237658678    1.0470917705    1.4134949852
H       -1.2335871503    1.5920977564   -1.1505755036
C       -0.2723898965   -0.5664110507    1.1480186723
H       -0.2610051735   -1.1016263668    2.0911324881
13   
From optimize.out: Frame 2 / 3, Energy=    -286.8364791119
C        1.5753679093    0.3864788725   -0.3512475155
C        0.7977648760   -0.8454212369   -0.0274360727
C       -0.5587405822   -0.6278946233   -0.6144534106
C       -0.8372152388    0.7822875094    0.9479234555
C       -0.5511250432    0.9466463528   -0.5501673317
N        0.8577007544    1.3905671501   -0.6919022744
H        2.6599291271    0.4589366719   -0.2781146930
H        1.2472111904   -1.8334598149   -0.0014193331
H       -1.1149677950   -1.2923680864   -1.2694450129
H       -1.7144147633    1.1623257940    1.4592341836
H       -1.2376485792    1.5311299547   -1.1623405678
C       -0.4355570371   -0.6373090374    0.9168993255
H       -0.6883048184   -1.4219195066    1.6224692471
