13   
Frame   0 IRC: Energy =  -286.8734670000 ; +0.0000 kcal/mol
C        1.5220644764    0.3458674627   -0.2659712780
C        0.6261616804   -0.8923488114   -0.0628850116
C       -0.3976347031   -0.5227046610   -1.1413023795
C       -1.0009161738    0.5126632266    0.8106095797
C       -0.5872680970    0.8966071085   -0.6198986006
N        0.8501497357    1.3862781438   -0.5796611249
H        2.6024981005    0.3634926294   -0.1406525372
H        1.1087402191   -1.8690053058   -0.0747627544
H       -1.2181857219   -1.1794632011   -1.4229654464
H       -1.7239916303    1.0481435509    1.4148404578
H       -1.2349965784    1.5908292639   -1.1511280598
C       -0.2716181759   -0.5662072313    1.1492455630
H       -0.2750031321   -1.1141521746    2.0845315917
13   
Frame   1 IRC: Energy =  -286.8734650000 ; +0.0013 kcal/mol
C        1.5220231491    0.3459610575   -0.2660181268
C        0.6262537904   -0.8923913928   -0.0629207484
C       -0.3973902849   -0.5225341644   -1.1411227217
C       -1.0007379118    0.5126517437    0.8105531402
C       -0.5872776682    0.8966056575   -0.6199517787
N        0.8501595240    1.3862969872   -0.5797441791
H        2.6025691743    0.3636298109   -0.1407723206
H        1.1088838667   -1.8688761056   -0.0746833458
H       -1.2183892554   -1.1796918648   -1.4226448880
H       -1.7238390288    1.0483604447    1.4149473947
H       -1.2349978160    1.5907722088   -1.1511417688
C       -0.2717421506   -0.5662484756    1.1492925573
H       -0.2755153887   -1.1145359070    2.0842067858
13   
Frame   2 IRC: Energy =  -286.8734330000 ; +0.0213 kcal/mol
C        1.5224136314    0.3472276813   -0.2664667858
C        0.6273178445   -0.8916384828   -0.0622993723
C       -0.3971768668   -0.5235171391   -1.1405546064
C       -0.9995773503    0.5140042668    0.8110064288
C       -0.5867326772    0.8967272158   -0.6200073573
N        0.8500223402    1.3869814740   -0.5811575473
H        2.6030280103    0.3659234670   -0.1429021006
H        1.1114744801   -1.8675448948   -0.0733174622
H       -1.2182982357   -1.1813562225   -1.4176642107
H       -1.7198002104    1.0518876853    1.4164553937
H       -1.2356107828    1.5897344683   -1.1514635685
C       -0.2729188219   -0.5670601704    1.1484137552
H       -0.2841413616   -1.1213693490    2.0799574332
13   
Frame   3 IRC: Energy =  -286.8734280000 ; +0.0245 kcal/mol
C        1.5223898428    0.3473843259   -0.2665416161
C        0.6274780353   -0.8916614125   -0.0623316406
C       -0.3967785714   -0.5232882874   -1.1402583884
C       -0.9992613454    0.5140495381    0.8109603343
C       -0.5867428155    0.8967082685   -0.6200843330
N        0.8499935069    1.3870626935   -0.5813515812
H        2.6031246795    0.3662209928   -0.1431757721
H        1.1117867145   -1.8673126973   -0.0731185921
H       -1.2185498578   -1.1817939866   -1.4171150289
H       -1.7193405946    1.0524055402    1.4167226446
H       -1.2356704835    1.5895915422   -1.1514886562
C       -0.2731741782   -0.5671806282    1.1485175012
H       -0.2852549325   -1.1221858892    2.0792651284
13   
Frame   4 IRC: Energy =  -286.8733890000 ; +0.0489 kcal/mol
C        1.5226526884    0.3484565467   -0.2669072523
C        0.6282964288   -0.8910256765   -0.0617038217
C       -0.3967440076   -0.5242906412   -1.1398822210
C       -0.9983405496    0.5152802717    0.8114739098
C       -0.5863422842    0.8967768828   -0.6200650785
N        0.8498202537    1.3875988646   -0.5825467734
H        2.6034325231    0.3681359729   -0.1449788701
H        1.1138911980   -1.8662371093   -0.0718601046
H       -1.2180639627   -1.1831690495   -1.4134920515
H       -1.7156515893    1.0555660365    1.4181797997
H       -1.2363329909    1.5886336340   -1.1517001432
C       -0.2741422505   -0.5678262212    1.1476975989
H       -0.2924754573   -1.1278995115    2.0757850079
13   
Frame   5 IRC: Energy =  -286.8733760000 ; +0.0571 kcal/mol
C        1.5226490798    0.3486992950   -0.2670177507
C        0.6285276148   -0.8910051931   -0.0617142898
C       -0.3961947925   -0.5240325341   -1.1394651818
C       -0.9978557433    0.5154106898    0.8114397577
C       -0.5863562081    0.8967411138   -0.6201570094
N        0.8497424506    1.3877445215   -0.5828775661
H        2.6035504522    0.3686307240   -0.1454421664
H        1.1144071859   -1.8658891525   -0.0715004767
H       -1.2183203277   -1.1838490410   -1.4127002885
H       -1.7147929580    1.0564746361    1.4186675344
H       -1.2364784141    1.5883762088   -1.1517325277
C       -0.2745474134   -0.5680473009    1.1478521214
H       -0.2943309264   -1.1292539673    2.0746478435
13   
Frame   6 IRC: Energy =  -286.8733270000 ; +0.0879 kcal/mol
C        1.5228477434    0.3497365348   -0.2673665573
C        0.6292716091   -0.8904074721   -0.0610318110
C       -0.3962768556   -0.5251249097   -1.1391757416
C       -0.9970238321    0.5166690854    0.8120560127
C       -0.5860028418    0.8967845268   -0.6200960740
N        0.8495437745    1.3882327317   -0.5840393586
H        2.6037974130    0.3704593127   -0.1471724547
H        1.1163640240   -1.8648774272   -0.0702037147
H       -1.2175665159   -1.1851513638   -1.4096013334
H       -1.7110410381    1.0596175679    1.4201831236
H       -1.2372181519    1.5874026054   -1.1518893894
C       -0.2754533688   -0.5686124915    1.1469783736
H       -0.3012419598   -1.1347287003    2.0713589249
13   
Frame   7 IRC: Energy =  -286.8733040000 ; +0.1023 kcal/mol
C        1.5228641201    0.3500977602   -0.2675263471
C        0.6295814016   -0.8903119924   -0.0610003505
C       -0.3955611834   -0.5248624487   -1.1386170418
C       -0.9963193386    0.5169245569    0.8120376159
C       -0.5860262374    0.8967323589   -0.6201966658
N        0.8494024528    1.3884491663   -0.5845497069
H        2.6039358632    0.3712085844   -0.1478781024
H        1.1171372216   -1.8643904446   -0.0696195308
H       -1.2177826010   -1.1861363240   -1.4085353256
H       -1.7096479227    1.0610471708    1.4209789145
H       -1.2374868480    1.5869888914   -1.1519227043
C       -0.2760399105   -0.5689666127    1.1471854754
H       -0.3040570177   -1.1367806665    2.0696437694
13   
Frame   8 IRC: Energy =  -286.8732390000 ; +0.1431 kcal/mol
C        1.5230185706    0.3511665573   -0.2678878541
C        0.6303251534   -0.8897336697   -0.0602312668
C       -0.3957403838   -0.5260819123   -1.1383713173
C       -0.9955176197    0.5182907774    0.8128073557
C       -0.5856834338    0.8967532211   -0.6201040849
N        0.8491742640    1.3889340183   -0.5857684147
H        2.6041510738    0.3730763440   -0.1496434219
H        1.1190757162   -1.8633551590   -0.0681999929
H       -1.2167728277   -1.1874708160   -1.4056728482
H       -1.7056105854    1.0643398708    1.4226228619
H       -1.2383368924    1.5859497165   -1.1520407055
C       -0.2769480178   -0.5694705660    1.1462020836
H       -0.3111350173   -1.1423983824    2.0662876053
13   
Frame   9 IRC: Energy =  -286.8731960000 ; +0.1701 kcal/mol
C        1.5230505066    0.3516895312   -0.2681182384
C        0.6307215765   -0.8895169007   -0.0601326457
C       -0.3948338331   -0.5258450466   -1.1376372999
C       -0.9945202832    0.5187235118    0.8128156850
C       -0.5857252405    0.8966858532   -0.6202067107
N        0.8489517473    1.3892275172   -0.5865200224
H        2.6043099788    0.3741562875   -0.1506575130
H        1.1201736594   -1.8627001415   -0.0672997358
H       -1.2168877779   -1.1888511795   -1.4042975019
H       -1.7035004652    1.0664611689    1.4238476110
H       -1.2387804533    1.5853237972   -1.1520643307
C       -0.2777595954   -0.5699958365    1.1464689778
H       -0.3151998200   -1.1453585622    2.0638017246
13   
Frame  10 IRC: Energy =  -286.8731100000 ; +0.2240 kcal/mol
C        1.5231696084    0.3528249232   -0.2685121447
C        0.6315136978   -0.8889664645   -0.0592493774
C       -0.3951085835   -0.5272161603   -1.1374108903
C       -0.9937222796    0.5202621985    0.8137971734
C       -0.5853727986    0.8966794787   -0.6200851955
N        0.8486864375    1.3897373129   -0.5878604755
H        2.6045028620    0.3761331572   -0.1525123736
H        1.1221483492   -1.8615822104   -0.0656914302
H       -1.2156010544   -1.1902880874   -1.4015520730
H       -1.6990246867    1.0699984812    1.4256727589
H       -1.2397732428    1.5841874190   -1.1521469805
C       -0.2787007079   -0.5704287780    1.1453344643
H       -0.3227176014   -1.1513412701    2.0602165441
13   
Frame  11 IRC: Energy =  -286.8730360000 ; +0.2705 kcal/mol
C        1.5232099923    0.3535633046   -0.2688453225
C        0.6320030585   -0.8885603697   -0.0590501534
C       -0.3939826907   -0.5270454239   -1.1364519920
C       -0.9923311337    0.5209438078    0.8138578009
C       -0.5854453177    0.8965997322   -0.6201810731
N        0.8483607485    1.3901146019   -0.5889428979
H        2.6046807081    0.3776412384   -0.1539117678
H        1.1236505177   -1.8607250310   -0.0643464873
H       -1.2155277093   -1.1921888635   -1.3998348847
H       -1.6959592200    1.0730256232    1.4274910473
H       -1.2404611663    1.5832768472   -1.1521450641
C       -0.2797916117   -0.5711643987    1.1456726253
H       -0.3284061755   -1.1554810685    2.0566881694
13   
Frame  12 IRC: Energy =  -286.8729180000 ; +0.3445 kcal/mol
C        1.5232994644    0.3547906243   -0.2692923900
C        0.6328902182   -0.8880632500   -0.0580227278
C       -0.3943605171   -0.5285883159   -1.1362213496
C       -0.9915176504    0.5227280498    0.8151228982
C       -0.5850684589    0.8965590694   -0.6200299258
N        0.8480479154    1.3906728346   -0.5904727475
H        2.6048517414    0.3797805559   -0.1558887868
H        1.1256832476   -1.8594664925   -0.0624805482
H       -1.2139245164   -1.1937980819   -1.3971507010
H       -1.6909073479    1.0768784511    1.4295548588
H       -1.2416321858    1.5820152749   -1.1521919414
C       -0.2807803028   -0.5714980728    1.1443511424
H       -0.3365816077   -1.1620106468    2.0527222188
13   
Frame  13 IRC: Energy =  -286.8727900000 ; +0.4248 kcal/mol
C        1.5233389000    0.3558121875   -0.2697800818
C        0.6334772393   -0.8873677941   -0.0576746924
C       -0.3929878494   -0.5285427617   -1.1349601330
C       -0.9895914320    0.5237711183    0.8152921136
C       -0.5851866070    0.8964718808   -0.6201048806
N        0.8475907693    1.3911422199   -0.5920245624
H        2.6050438105    0.3818460330   -0.1577605478
H        1.1276824238   -1.8583625628   -0.0605057828
H       -1.2135320325   -1.1964004257   -1.3950636329
H       -1.6865673150    1.0810844660    1.4322003088
H       -1.2426592269    1.5807233648   -1.1521447163
C       -0.2822129105   -0.5724789404    1.1447763651
H       -0.3443957696   -1.1676987857    2.0477502427
13   
Frame  14 IRC: Energy =  -286.8726270000 ; +0.5271 kcal/mol
C        1.5234032792    0.3571588490   -0.2703118776
C        0.6345187918   -0.8869594123   -0.0564636444
C       -0.3934835481   -0.5302809114   -1.1346881476
C       -0.9887317692    0.5259054004    0.8169407992
C       -0.5847728934    0.8963910397   -0.6199215122
N        0.8472147384    1.3917706237   -0.5938367739
H        2.6051866123    0.3842064859   -0.1598838450
H        1.1297796106   -1.8568903393   -0.0582924456
H       -1.2115495956   -1.1982795402   -1.3924129031
H       -1.6807794559    1.0853323761    1.4345906043
H       -1.2440523857    1.5793001224   -1.1521568652
C       -0.2832542834   -0.5726665048    1.1432409765
H       -0.3534791009   -1.1749881892    2.0431956346
13   
Frame  15 IRC: Energy =  -286.8724070000 ; +0.6652 kcal/mol
C        1.5234240483    0.3585604208   -0.2710453820
C        0.6352105614   -0.8858192808   -0.0558826290
C       -0.3918453022   -0.5304577456   -1.1329822269
C       -0.9860541050    0.5275201840    0.8173454653
C       -0.5849542403    0.8963014057   -0.6199470863
N        0.8465857575    1.3923382530   -0.5961014406
H        2.6053800994    0.3870262446   -0.1623336602
H        1.1323964925   -1.8554634895   -0.0553996488
H       -1.2106192598   -1.2018820004   -1.3899288526
H       -1.6746881565    1.0911084652    1.4384398975
H       -1.2455541775    1.5774792207   -1.1520462715
C       -0.2850926440   -0.5739036552    1.1437771578
H       -0.3641890739   -1.1828080226    2.0361046773
13   
Frame  16 IRC: Energy =  -286.8722290000 ; +0.7769 kcal/mol
C        1.5232069271    0.3599418065   -0.2716296985
C        0.6362688933   -0.8856722860   -0.0546912343
C       -0.3926242577   -0.5322107794   -1.1328704430
C       -0.9857471493    0.5299758039    0.8191902715
C       -0.5844836654    0.8962048994   -0.6197491295
N        0.8464013131    1.3926952814   -0.5977258169
H        2.6055367978    0.3890593050   -0.1640784825
H        1.1340202356   -1.8540550236   -0.0533713936
H       -1.2085412792   -1.2034580015   -1.3878394998
H       -1.6693906280    1.0945928027    1.4404494283
H       -1.2468548960    1.5762398435   -1.1520477732
C       -0.2857184761   -0.5741124813    1.1423141662
H       -0.3720738152   -1.1892011706    2.0320496053
13   
Frame  17 IRC: Energy =  -286.8719310000 ; +0.9639 kcal/mol
C        1.5236657286    0.3611089880   -0.2723925212
C        0.6369468497   -0.8843263586   -0.0539078397
C       -0.3910037392   -0.5325515543   -1.1308617666
C       -0.9822505681    0.5314039092    0.8199366086
C       -0.5847663341    0.8961347410   -0.6196991790
N        0.8454216847    1.3936718936   -0.6005873047
H        2.6055398697    0.3922023836   -0.1666769802
H        1.1367937460   -1.8524702360   -0.0499684006
H       -1.2071843987   -1.2076275047   -1.3854478295
H       -1.6625824874    1.1011231586    1.4450796854
H       -1.2485739193    1.5741630388   -1.1519305222
C       -0.2879218777   -0.5746883212    1.1425980454
H       -0.3840845543   -1.1981441383    2.0238580043
13   
Frame  18 IRC: Energy =  -286.8717090000 ; +1.1032 kcal/mol
C        1.5229920000    0.3628414997   -0.2732096106
C        0.6379630096   -0.8840082680   -0.0527919659
C       -0.3915619306   -0.5341496752   -1.1304863906
C       -0.9819865512    0.5344710419    0.8216975167
C       -0.5843503226    0.8960552495   -0.6194954626
N        0.8454381939    1.3935999238   -0.6022807889
H        2.6057910699    0.3942863267   -0.1683341799
H        1.1383514352   -1.8510649123   -0.0477400240
H       -1.2050974003   -1.2095485077   -1.3836285605
H       -1.6571676613    1.1046944672    1.4473712742
H       -1.2499141298    1.5728368227   -1.1519142757
C       -0.2882848964   -0.5754583054    1.1417211147
H       -0.3921728165   -1.2045556630    2.0190913530
13   
Frame  19 IRC: Energy =  -286.8713080000 ; +1.3548 kcal/mol
C        1.5237622947    0.3638717564   -0.2740849133
C        0.6387698596   -0.8825821515   -0.0516860060
C       -0.3902955022   -0.5348546909   -1.1282364212
C       -0.9779937781    0.5361281157    0.8232069014
C       -0.5846153039    0.8959727313   -0.6193556326
N        0.8441876086    1.3949101862   -0.6058103528
H        2.6056132285    0.3977556370   -0.1709982394
H        1.1411781110   -1.8492118443   -0.0438368459
H       -1.2030884921   -1.2142390768   -1.3813620081
H       -1.6495029542    1.1117974547    1.4526845617
H       -1.2518412811    1.5705232194   -1.1518788305
C       -0.2906580490   -0.5753268623    1.1416949073
H       -0.4055157419   -1.2147444750    2.0096628792
13   
Frame  20 IRC: Energy =  -286.8710090000 ; +1.5424 kcal/mol
C        1.5227774448    0.3659267477   -0.2751774072
C        0.6397833967   -0.8820352870   -0.0505260286
C       -0.3906886536   -0.5364677973   -1.1274453893
C       -0.9774280722    0.5398474684    0.8250271473
C       -0.5842824569    0.8959623160   -0.6190601491
N        0.8442623227    1.3945292911   -0.6078352824
H        2.6059040570    0.4000754911   -0.1726614526
H        1.1427793077   -1.8476585192   -0.0412259764
H       -1.2007967934   -1.2167405199   -1.3797148101
H       -1.6436495474    1.1158417747    1.4555989254
H       -1.2532811269    1.5689867607   -1.1519099620
C       -0.2908598693   -0.5764051512    1.1412007399
H       -0.4145200092   -1.2218625752    2.0037296449
13   
Frame  21 IRC: Energy =  -286.8704620000 ; +1.8857 kcal/mol
C        1.5237576516    0.3669164650   -0.2762855426
C        0.6407073207   -0.8804261251   -0.0490648415
C       -0.3898952265   -0.5374660976   -1.1247400385
C       -0.9728541205    0.5420001426    0.8275692528
C       -0.5844964222    0.8958835978   -0.6188813518
N        0.8428338352    1.3961957103   -0.6122649996
H        2.6054972210    0.4039740648   -0.1753338824
H        1.1457188859   -1.8455670991   -0.0367214499
H       -1.1980458410   -1.2222961886   -1.3776927503
H       -1.6350121157    1.1236673589    1.4618494613
H       -1.2553777240    1.5663643030   -1.1521167421
C       -0.2932844758   -0.5755830402    1.1412746375
H       -0.4295489888   -1.2336630917    1.9924082470
13   
Frame  22 IRC: Energy =  -286.8700420000 ; +2.1492 kcal/mol
C        1.5224280333    0.3695431412   -0.2778879823
C        0.6412591770   -0.8799848744   -0.0472729810
C       -0.3901750598   -0.5390911268   -1.1239494477
C       -0.9719419596    0.5466435487    0.8294459589
C       -0.5844542544    0.8963268354   -0.6177432287
N        0.8430974342    1.3958204866   -0.6150352202
H        2.6059398434    0.4066577836   -0.1769036140
H        1.1476311786   -1.8440851644   -0.0337096563
H       -1.1955473156   -1.2258583366   -1.3762839308
H       -1.6284257156    1.1282540123    1.4655364823
H       -1.2567918018    1.5643889693   -1.1523966133
C       -0.2931780607   -0.5765306078    1.1413916738
H       -0.4398414988   -1.2420846670    1.9848085593
13   
Frame  23 IRC: Energy =  -286.8682180000 ; +3.2938 kcal/mol
C        1.5230612268    0.3718850469   -0.2826339580
C        0.6447500641   -0.8751676652   -0.0438450678
C       -0.3925914884   -0.5444995642   -1.1133292039
C       -0.9609940189    0.5586903436    0.8409679401
C       -0.5845753968    0.8954456838   -0.6166984377
N        0.8395338739    1.3963025334   -0.6256213111
H        2.6047007571    0.4167151777   -0.1808737298
H        1.1536636923   -1.8373918879   -0.0239181786
H       -1.1869516718   -1.2415740017   -1.3755896011
H       -1.6104641121    1.1473657526    1.4831298752
H       -1.2592299461    1.5574576961   -1.1556134872
C       -0.2948891968   -0.5724164044    1.1430250585
H       -0.4760137834   -1.2728127108    1.9510001015
13   
Frame  24 IRC: Energy =  -286.8658010000 ; +4.8105 kcal/mol
C        1.5245281452    0.3737384078   -0.2876845519
C        0.6474335221   -0.8720443152   -0.0387349432
C       -0.4001622045   -0.5520596190   -1.0996106566
C       -0.9537664378    0.5752718717    0.8545434047
C       -0.5855087267    0.8956035403   -0.6123902050
N        0.8381165255    1.3944751084   -0.6349675679
H        2.6070327021    0.4278176630   -0.1823947931
H        1.1619231496   -1.8321136105   -0.0180051865
H       -1.1804230414   -1.2605958401   -1.3799406672
H       -1.5979041601    1.1669637350    1.5027457758
H       -1.2592322822    1.5498686921   -1.1613336889
C       -0.2939712533   -0.5648491399    1.1463928316
H       -0.5080659386   -1.3020764936    1.9113802482
13   
Frame  25 IRC: Energy =  -286.8626960000 ; +6.7589 kcal/mol
C        1.5291141828    0.3757093624   -0.2926994261
C        0.6567823282   -0.8699121433   -0.0339765392
C       -0.4192880932   -0.5611997191   -1.0635022353
C       -0.9501736810    0.5921294046    0.8648503261
C       -0.5864901835    0.8975204715   -0.6065618254
N        0.8371914020    1.3925681600   -0.6414468715
H        2.6124022088    0.4365716076   -0.1812851887
H        1.1720085916   -1.8324949987   -0.0164816712
H       -1.1734824636   -1.2758461537   -1.3886658227
H       -1.5907848385    1.1826419240    1.5181022692
H       -1.2579919757    1.5440373298   -1.1676039175
C       -0.3014442083   -0.5623192040    1.1369975931
H       -0.5278432694   -1.3194060410    1.8722733093
13   
Frame  26 IRC: Energy =  -286.8580090000 ; +9.7000 kcal/mol
C        1.5341891829    0.3775300186   -0.2969714096
C        0.6724895367   -0.8672312430   -0.0318281543
C       -0.4425465543   -0.5724671296   -1.0151102828
C       -0.9479998063    0.6078622884    0.8704763235
C       -0.5873391505    0.9003236285   -0.6015718420
N        0.8362638356    1.3906845654   -0.6450378073
H        2.6169921052    0.4423409194   -0.1794620071
H        1.1800881088   -1.8347934359   -0.0165980590
H       -1.1652467478   -1.2841982124   -1.3962680491
H       -1.5870461745    1.1941731381    1.5284412400
H       -1.2570547643    1.5404876555   -1.1728175508
C       -0.3138055200   -0.5660427600    1.1146807814
H       -0.5389840516   -1.3286694330    1.8420668171
13   
Frame  27 IRC: Energy =  -286.8517780000 ; +13.6101 kcal/mol
C        1.5388897185    0.3788395700   -0.3005439094
C        0.6909641890   -0.8642177642   -0.0322402778
C       -0.4649957298   -0.5851328282   -0.9624125769
C       -0.9468880453    0.6242467392    0.8725013192
C       -0.5882410119    0.9038182806   -0.5973465380
N        0.8351460932    1.3891854256   -0.6468586352
H        2.6202700070    0.4462672543   -0.1776793783
H        1.1859390714   -1.8370317755   -0.0171624318
H       -1.1565441260   -1.2879465766   -1.4011218170
H       -1.5850804168    1.2029346051    1.5354146873
H       -1.2565190146    1.5382370409   -1.1770449905
C       -0.3271628728   -0.5746839773    1.0847514979
H       -0.5457778618   -1.3345159940    1.8197430507
13   
Frame  28 IRC: Energy =  -286.8460750000 ; +17.1888 kcal/mol
C        1.5431948206    0.3796728802   -0.3037202719
C        0.7096642501   -0.8612451732   -0.0349385505
C       -0.4848164625   -0.5981977583   -0.9082820135
C       -0.9464041511    0.6422361159    0.8720182772
C       -0.5891039608    0.9078941003   -0.5936076705
N        0.8337531348    1.3883984213   -0.6477526454
H        2.6226190497    0.4492893867   -0.1761741813
H        1.1903545139   -1.8387565323   -0.0177673276
H       -1.1479475152   -1.2893540510   -1.4030723346
H       -1.5840340526    1.2099690629    1.5403335321
H       -1.2562193949    1.5365022413   -1.1806651836
C       -0.3404867322   -0.5873605756    1.0514035453
H       -0.5505734998   -1.3390481182    1.8022248244
13   
Frame  29 IRC: Energy =  -286.8438160000 ; +18.6063 kcal/mol (Transition State)
C        1.5470074978    0.3805082222   -0.3070443422
C        0.7273932147   -0.8586043258   -0.0394589915
C       -0.5021564982   -0.6108390058   -0.8538167931
C       -0.9454126561    0.6612925444    0.8710391345
C       -0.5895327859    0.9120185660   -0.5903792565
N        0.8322527587    1.3884051072   -0.6481507556
H        2.6245302777    0.4520504189   -0.1750547718
H        1.1943554939   -1.8402288137   -0.0183322461
H       -1.1392554176   -1.2896285779   -1.4018745245
H       -1.5833458172    1.2158691161    1.5438230212
H       -1.2559783856    1.5347847853   -1.1841178966
C       -0.3552442810   -0.6025181403    1.0167422406
H       -0.5546134012   -1.3431098966    1.7866251815
13   
Frame  30 IRC: Energy =  -286.8457120000 ; +17.4165 kcal/mol
C        1.5503268449    0.3818169163   -0.3106864721
C        0.7443588817   -0.8562286260   -0.0449194645
C       -0.5185257579   -0.6233299856   -0.7991082528
C       -0.9429045438    0.6792871439    0.8700348567
C       -0.5898931084    0.9160165817   -0.5874833642
N        0.8309878320    1.3885203347   -0.6483244015
H        2.6265292042    0.4548365711   -0.1741070444
H        1.1984953007   -1.8417320838   -0.0188812783
H       -1.1302540513   -1.2894652589   -1.3993374479
H       -1.5830416019    1.2218135808    1.5472933010
H       -1.2557038268    1.5330538259   -1.1876420253
C       -0.3719231353   -0.6177363890    0.9824250865
H       -0.5584520381   -1.3468526112    1.7707365069
13   
Frame  31 IRC: Energy =  -286.8496910000 ; +14.9197 kcal/mol
C        1.5532730744    0.3835324829   -0.3149525018
C        0.7600622978   -0.8545858720   -0.0512793932
C       -0.5339954815   -0.6354392061   -0.7461505332
C       -0.9375687194    0.6960713968    0.8716172802
C       -0.5894764091    0.9192678602   -0.5850551043
N        0.8298001609    1.3895617086   -0.6485860741
H        2.6286189888    0.4580972321   -0.1737836079
H        1.2036638480   -1.8434385179   -0.0195409941
H       -1.1199963440   -1.2884971347   -1.3926457334
H       -1.5828605022    1.2276927043    1.5502398475
H       -1.2552164703    1.5308726964   -1.1916444381
C       -0.3933763889   -0.6322882242    0.9491149966
H       -0.5629280547   -1.3508471264    1.7526662558
13   
Frame  32 IRC: Energy =  -286.8534060000 ; +12.5885 kcal/mol
C        1.5559480543    0.3853428733   -0.3199786950
C        0.7749538568   -0.8536396684   -0.0570193198
C       -0.5491333254   -0.6468486702   -0.6992021820
C       -0.9280028808    0.7121530052    0.8779372913
C       -0.5883856188    0.9220091461   -0.5820628816
N        0.8285576364    1.3908970040   -0.6497958415
H        2.6308363683    0.4627623638   -0.1746949890
H        1.2113887940   -1.8453695930   -0.0203999073
H       -1.1082690423   -1.2880262061   -1.3802688277
H       -1.5830430366    1.2350102583    1.5536598246
H       -1.2540808515    1.5271438240   -1.1964766660
C       -0.4199073695   -0.6439499124    0.9199563232
H       -0.5708625848   -1.3574844249    1.7283458707
13   
Frame  33 IRC: Energy =  -286.8555150000 ; +11.2651 kcal/mol
C        1.5575882588    0.3869334375   -0.3255093515
C        0.7858324139   -0.8538325318   -0.0610975159
C       -0.5591607440   -0.6540522657   -0.6636747909
C       -0.9146513476    0.7278678412    0.8881456686
C       -0.5868622435    0.9242036669   -0.5780162927
N        0.8273803769    1.3916573700   -0.6527029756
H        2.6327000747    0.4692298575   -0.1778861373
H        1.2218296858   -1.8462319547   -0.0209172018
H       -1.0976480170   -1.2911259252   -1.3632625581
H       -1.5835931519    1.2449109053    1.5581908162
H       -1.2524001277    1.5211152401   -1.2014609896
C       -0.4457500311   -0.6499623191    0.8987647147
H       -0.5852651472   -1.3707133220    1.6994266139
13   
Frame  34 IRC: Energy =  -286.8567330000 ; +10.5008 kcal/mol
C        1.5578953152    0.3877024020   -0.3305266728
C        0.7880158011   -0.8541761897   -0.0603718210
C       -0.5576493458   -0.6513163982   -0.6566377077
C       -0.9007146419    0.7415411606    0.9044601654
C       -0.5834827159    0.9254406207   -0.5734907132
N        0.8270969727    1.3918031901   -0.6593898981
H        2.6329856940    0.4781995016   -0.1863791207
H        1.2355968297   -1.8439992424   -0.0199683491
H       -1.0923594891   -1.3024125294   -1.3411423371
H       -1.5817999304    1.2585370347    1.5624060994
H       -1.2511467620    1.5118695810   -1.2052130640
C       -0.4608248755   -0.6463242969    0.9005444666
H       -0.6136128521   -1.3968648342    1.6657089521
13   
Frame  35 IRC: Energy =  -286.8569820000 ; +10.3445 kcal/mol
C        1.5579994830    0.3886755851   -0.3306992734
C        0.7902541745   -0.8530238846   -0.0574410506
C       -0.5580823220   -0.6515103755   -0.6514083102
C       -0.8993458317    0.7436549852    0.9037405833
C       -0.5827107473    0.9267330732   -0.5727692487
N        0.8279695136    1.3920087261   -0.6612896583
H        2.6331020387    0.4797908599   -0.1895150226
H        1.2371116749   -1.8412846872   -0.0188717793
H       -1.0926712317   -1.3049313083   -1.3365115801
H       -1.5806134920    1.2622772322    1.5632813352
H       -1.2515412780    1.5099749344   -1.2044986347
C       -0.4584443201   -0.6492679780    0.8966334033
H       -0.6230276621   -1.4030971625    1.6593492361
13   
Frame  36 IRC: Energy =  -286.8575930000 ; +9.9611 kcal/mol
C        1.5606813060    0.3939262013   -0.3316619589
C        0.7928129406   -0.8494377051   -0.0488090001
C       -0.5548549175   -0.6496855125   -0.6451450269
C       -0.8927655925    0.7436650743    0.9109572157
C       -0.5801775251    0.9257146419   -0.5711070222
N        0.8290790571    1.3943910892   -0.6696096596
H        2.6368341732    0.4860149344   -0.2034554521
H        1.2480081223   -1.8360420192   -0.0148714954
H       -1.0930755316   -1.3136482528   -1.3155299995
H       -1.5698044564    1.2735148438    1.5634956716
H       -1.2542187281    1.5058642154   -1.2028275768
C       -0.4619553872   -0.6484422105    0.9009865800
H       -0.6605634609   -1.4258353003    1.6275777241
13   
Frame  37 IRC: Energy =  -286.8576580000 ; +9.9203 kcal/mol
C        1.5599580172    0.3939345649   -0.3318639716
C        0.7946168033   -0.8496026166   -0.0481360862
C       -0.5543822547   -0.6501196155   -0.6444443575
C       -0.8931338191    0.7460996347    0.9092630031
C       -0.5802990347    0.9267410880   -0.5704830940
N        0.8289696827    1.3937237788   -0.6699074931
H        2.6371788324    0.4866617061   -0.2047563295
H        1.2485752908   -1.8347524012   -0.0139767108
H       -1.0929208806   -1.3141263525   -1.3140109269
H       -1.5692077820    1.2748697007    1.5647606375
H       -1.2542218153    1.5050039110   -1.2018847730
C       -0.4616409247   -0.6508843213    0.8985004091
H       -0.6634921154   -1.4275490772    1.6269396928
13   
Frame  38 IRC: Energy =  -286.8578340000 ; +9.8099 kcal/mol
C        1.5609715550    0.3956538963   -0.3323423194
C        0.7988201787   -0.8485823342   -0.0444740284
C       -0.5512240530   -0.6507199585   -0.6428421400
C       -0.8944472348    0.7465349904    0.9089137367
C       -0.5787315864    0.9271266131   -0.5698197509
N        0.8293152464    1.3933977868   -0.6722202524
H        2.6382883045    0.4904767428   -0.2145875360
H        1.2562874191   -1.8318214706   -0.0087249521
H       -1.0922620044   -1.3177800670   -1.3054765353
H       -1.5608083116    1.2828632910    1.5704323438
H       -1.2563291161    1.5033119774   -1.1984912716
C       -0.4663989131   -0.6544199852    0.8947819408
H       -0.6834814844   -1.4360414823    1.6148507648
13   