13   
Frame   0 IRC: Energy =  -286.8734670000 ; +0.0000 kcal/mol
C       -0.0916680000   -0.0306080000   -0.0000000000
C        0.0084200000   -0.0611540000   -0.0000000000
C       -0.2713130000    1.0340320000   -0.0000000000
C       -0.1468230000    0.0488340000    0.0000000000
C        0.0240300000   -0.0897950000   -0.0000000000
N       -0.2028600000    0.0246250000   -0.0000000000
H        0.1373380000   -0.0001330000   -0.0000000000
H        0.1246440000    0.0035040000   -0.0000000000
H        0.1389690000   -0.0259930000   -0.0000000000
H        0.1388950000    0.0005900000    0.0000000000
H        0.1293600000    0.0035860000   -0.0000000000
C       -0.1276280000    0.0923040000    0.0000000000
H        0.1386330000    0.0002090000    0.0000000000
13   
Frame   1 IRC: Energy =  -286.8734650000 ; +0.0013 kcal/mol
C       -0.0916620000   -0.0306150000   -0.0000000000
C        0.0084730000   -0.0611440000   -0.0000000000
C       -0.2714300000    1.0339490000   -0.0000000000
C       -0.1466650000    0.0488530000    0.0000000000
C        0.0240130000   -0.0897940000   -0.0000000000
N       -0.2028390000    0.0246160000   -0.0000000000
H        0.1373290000   -0.0001340000   -0.0000000000
H        0.1246370000    0.0035060000   -0.0000000000
H        0.1389660000   -0.0259690000   -0.0000000000
H        0.1389090000    0.0005910000    0.0000000000
H        0.1293760000    0.0035880000   -0.0000000000
C       -0.1277330000    0.0923470000    0.0000000000
H        0.1386270000    0.0002060000    0.0000000000
13   
Frame   2 IRC: Energy =  -286.8734330000 ; +0.0213 kcal/mol
C       -0.0913030000   -0.0302120000   -0.0000000000
C        0.0077140000   -0.0611250000   -0.0000000000
C       -0.2712040000    1.0336330000   -0.0000000000
C       -0.1465290000    0.0503400000    0.0000000000
C        0.0238980000   -0.0898830000   -0.0000000000
N       -0.2027420000    0.0241110000   -0.0000000000
H        0.1373350000   -0.0001450000   -0.0000000000
H        0.1245600000    0.0035210000   -0.0000000000
H        0.1390060000   -0.0258450000   -0.0000000000
H        0.1389340000    0.0005200000    0.0000000000
H        0.1293430000    0.0035790000   -0.0000000000
C       -0.1277490000    0.0912730000    0.0000000000
H        0.1387350000    0.0002330000    0.0000000000
13   
Frame   3 IRC: Energy =  -286.8734280000 ; +0.0245 kcal/mol
C       -0.0913040000   -0.0302190000   -0.0000000000
C        0.0077900000   -0.0611080000   -0.0000000000
C       -0.2713770000    1.0335000000   -0.0000000000
C       -0.1462510000    0.0504030000    0.0000000000
C        0.0238900000   -0.0898840000   -0.0000000000
N       -0.2027170000    0.0240950000   -0.0000000000
H        0.1373280000   -0.0001470000   -0.0000000000
H        0.1245480000    0.0035250000   -0.0000000000
H        0.1390010000   -0.0258060000   -0.0000000000
H        0.1389530000    0.0005200000    0.0000000000
H        0.1293660000    0.0035810000   -0.0000000000
C       -0.1279490000    0.0913110000    0.0000000000
H        0.1387220000    0.0002270000    0.0000000000
13   
Frame   4 IRC: Energy =  -286.8733890000 ; +0.0489 kcal/mol
C       -0.0910080000   -0.0298660000   -0.0000000000
C        0.0070730000   -0.0611180000   -0.0000000000
C       -0.2711000000    1.0333790000   -0.0000000000
C       -0.1462530000    0.0517080000    0.0000000000
C        0.0238000000   -0.0899910000   -0.0000000000
N       -0.2026210000    0.0236850000   -0.0000000000
H        0.1373340000   -0.0001560000   -0.0000000000
H        0.1244810000    0.0035350000   -0.0000000000
H        0.1390290000   -0.0257340000   -0.0000000000
H        0.1389670000    0.0004550000    0.0000000000
H        0.1293250000    0.0035690000   -0.0000000000
C       -0.1278580000    0.0902780000    0.0000000000
H        0.1388310000    0.0002560000    0.0000000000
13   
Frame   5 IRC: Energy =  -286.8733760000 ; +0.0571 kcal/mol
C       -0.0910080000   -0.0298650000   -0.0000000000
C        0.0071650000   -0.0610990000   -0.0000000000
C       -0.2713270000    1.0332030000   -0.0000000000
C       -0.1458360000    0.0518300000    0.0000000000
C        0.0237930000   -0.0899970000   -0.0000000000
N       -0.2025890000    0.0236560000   -0.0000000000
H        0.1373290000   -0.0001590000   -0.0000000000
H        0.1244620000    0.0035410000   -0.0000000000
H        0.1390220000   -0.0256810000   -0.0000000000
H        0.1389950000    0.0004520000    0.0000000000
H        0.1293540000    0.0035710000   -0.0000000000
C       -0.1281740000    0.0902970000    0.0000000000
H        0.1388130000    0.0002480000    0.0000000000
13   
Frame   6 IRC: Energy =  -286.8733270000 ; +0.0879 kcal/mol
C       -0.0907280000   -0.0295120000   -0.0000000000
C        0.0063970000   -0.0611270000   -0.0000000000
C       -0.2709900000    1.0331940000   -0.0000000000
C       -0.1459600000    0.0531500000    0.0000000000
C        0.0237200000   -0.0901280000   -0.0000000000
N       -0.2024830000    0.0232700000   -0.0000000000
H        0.1373350000   -0.0001680000   -0.0000000000
H        0.1243950000    0.0035470000   -0.0000000000
H        0.1390450000   -0.0256370000   -0.0000000000
H        0.1390010000    0.0003840000    0.0000000000
H        0.1293040000    0.0035570000   -0.0000000000
C       -0.1279700000    0.0891890000    0.0000000000
H        0.1389340000    0.0002820000    0.0000000000
13   
Frame   7 IRC: Energy =  -286.8733040000 ; +0.1023 kcal/mol
C       -0.0907200000   -0.0294960000   -0.0000000000
C        0.0065080000   -0.0611110000   -0.0000000000
C       -0.2712740000    1.0329770000   -0.0000000000
C       -0.1453650000    0.0533510000    0.0000000000
C        0.0236990000   -0.0901430000   -0.0000000000
N       -0.2024410000    0.0232220000   -0.0000000000
H        0.1373330000   -0.0001710000   -0.0000000000
H        0.1243690000    0.0035570000   -0.0000000000
H        0.1390350000   -0.0255700000   -0.0000000000
H        0.1390420000    0.0003770000    0.0000000000
H        0.1293380000    0.0035580000   -0.0000000000
C       -0.1284390000    0.0891770000    0.0000000000
H        0.1389150000    0.0002710000    0.0000000000
13   
Frame   8 IRC: Energy =  -286.8732390000 ; +0.1431 kcal/mol
C       -0.0904450000   -0.0291230000   -0.0000000000
C        0.0056300000   -0.0611550000   -0.0000000000
C       -0.2708650000    1.0330600000   -0.0000000000
C       -0.1456280000    0.0547850000    0.0000000000
C        0.0236560000   -0.0903060000   -0.0000000000
N       -0.2023190000    0.0228340000   -0.0000000000
H        0.1373370000   -0.0001810000   -0.0000000000
H        0.1242970000    0.0035590000   -0.0000000000
H        0.1390540000   -0.0255460000   -0.0000000000
H        0.1390400000    0.0003010000    0.0000000000
H        0.1292800000    0.0035410000   -0.0000000000
C       -0.1280900000    0.0879210000    0.0000000000
H        0.1390550000    0.0003110000    0.0000000000
13   
Frame   9 IRC: Energy =  -286.8731960000 ; +0.1701 kcal/mol
C       -0.0904210000   -0.0290830000   -0.0000000000
C        0.0057660000   -0.0611490000   -0.0000000000
C       -0.2712150000    1.0328060000   -0.0000000000
C       -0.1447970000    0.0550940000    0.0000000000
C        0.0236020000   -0.0903380000   -0.0000000000
N       -0.2022620000    0.0227590000   -0.0000000000
H        0.1373390000   -0.0001850000   -0.0000000000
H        0.1242630000    0.0035730000   -0.0000000000
H        0.1390390000   -0.0254640000   -0.0000000000
H        0.1390980000    0.0002890000    0.0000000000
H        0.1293200000    0.0035400000   -0.0000000000
C       -0.1287690000    0.0878610000    0.0000000000
H        0.1390370000    0.0002970000    0.0000000000
13   
Frame  10 IRC: Energy =  -286.8731100000 ; +0.2240 kcal/mol
C       -0.0901470000   -0.0286770000   -0.0000000000
C        0.0047230000   -0.0612090000   -0.0000000000
C       -0.2707220000    1.0329830000   -0.0000000000
C       -0.1452390000    0.0567160000    0.0000000000
C        0.0236150000   -0.0905440000   -0.0000000000
N       -0.2021170000    0.0223550000   -0.0000000000
H        0.1373400000   -0.0001960000   -0.0000000000
H        0.1241800000    0.0035710000   -0.0000000000
H        0.1390540000   -0.0254590000   -0.0000000000
H        0.1390860000    0.0002000000    0.0000000000
H        0.1292530000    0.0035200000   -0.0000000000
C       -0.1282250000    0.0863960000    0.0000000000
H        0.1392010000    0.0003450000    0.0000000000
13   
Frame  11 IRC: Energy =  -286.8730360000 ; +0.2705 kcal/mol
C       -0.0901010000   -0.0286000000   -0.0000000000
C        0.0048980000   -0.0612240000   -0.0000000000
C       -0.2711510000    1.0326990000   -0.0000000000
C       -0.1440940000    0.0571730000    0.0000000000
C        0.0235010000   -0.0906020000   -0.0000000000
N       -0.2020400000    0.0222440000   -0.0000000000
H        0.1373480000   -0.0002020000   -0.0000000000
H        0.1241380000    0.0035910000   -0.0000000000
H        0.1390330000   -0.0253630000   -0.0000000000
H        0.1391680000    0.0001790000    0.0000000000
H        0.1292980000    0.0035160000   -0.0000000000
C       -0.1291870000    0.0862630000    0.0000000000
H        0.1391900000    0.0003270000    0.0000000000
13   
Frame  12 IRC: Energy =  -286.8729180000 ; +0.3445 kcal/mol
C       -0.0898280000   -0.0281510000   -0.0000000000
C        0.0036230000   -0.0613040000   -0.0000000000
C       -0.2705580000    1.0329800000   -0.0000000000
C       -0.1447720000    0.0590570000    0.0000000000
C        0.0236100000   -0.0908660000   -0.0000000000
N       -0.2018680000    0.0218180000   -0.0000000000
H        0.1373440000   -0.0002140000   -0.0000000000
H        0.1240390000    0.0035830000   -0.0000000000
H        0.1390410000   -0.0253800000   -0.0000000000
H        0.1391450000    0.0000730000    0.0000000000
H        0.1292230000    0.0034930000   -0.0000000000
C       -0.1283820000    0.0845270000    0.0000000000
H        0.1393830000    0.0003850000    0.0000000000
13   
Frame  13 IRC: Energy =  -286.8727900000 ; +0.4248 kcal/mol
C       -0.0897540000   -0.0280190000   -0.0000000000
C        0.0038560000   -0.0613590000   -0.0000000000
C       -0.2710890000    1.0326830000   -0.0000000000
C       -0.1432130000    0.0597270000    0.0000000000
C        0.0234070000   -0.0909690000   -0.0000000000
N       -0.2017630000    0.0216590000   -0.0000000000
H        0.1373580000   -0.0002230000   -0.0000000000
H        0.1239890000    0.0036110000   -0.0000000000
H        0.1390100000   -0.0252730000   -0.0000000000
H        0.1392600000    0.0000390000    0.0000000000
H        0.1292730000    0.0034830000   -0.0000000000
C       -0.1297240000    0.0842800000    0.0000000000
H        0.1393890000    0.0003610000    0.0000000000
13   
Frame  14 IRC: Energy =  -286.8726270000 ; +0.5271 kcal/mol
C       -0.0894830000   -0.0275150000   -0.0000000000
C        0.0022640000   -0.0614640000   -0.0000000000
C       -0.2703770000    1.0330890000   -0.0000000000
C       -0.1441970000    0.0619660000    0.0000000000
C        0.0236680000   -0.0913140000   -0.0000000000
N       -0.2015560000    0.0212040000   -0.0000000000
H        0.1373490000   -0.0002370000   -0.0000000000
H        0.1238670000    0.0035930000   -0.0000000000
H        0.1390070000   -0.0253160000   -0.0000000000
H        0.1392250000   -0.0000900000    0.0000000000
H        0.1291920000    0.0034560000   -0.0000000000
C       -0.1285770000    0.0821960000    0.0000000000
H        0.1396200000    0.0004300000    0.0000000000
13   
Frame  15 IRC: Energy =  -286.8724070000 ; +0.6652 kcal/mol
C       -0.0893810000   -0.0272920000   -0.0000000000
C        0.0025680000   -0.0615940000   -0.0000000000
C       -0.2710420000    1.0328190000   -0.0000000000
C       -0.1420970000    0.0629730000    0.0000000000
C        0.0233540000   -0.0915000000   -0.0000000000
N       -0.2014140000    0.0209780000   -0.0000000000
H        0.1373690000   -0.0002490000   -0.0000000000
H        0.1238130000    0.0036320000   -0.0000000000
H        0.1389600000   -0.0252090000   -0.0000000000
H        0.1393880000   -0.0001490000    0.0000000000
H        0.1292480000    0.0034380000   -0.0000000000
C       -0.1304240000    0.0817560000    0.0000000000
H        0.1396580000    0.0003980000    0.0000000000
13   
Frame  16 IRC: Energy =  -286.8722290000 ; +0.7769 kcal/mol
C       -0.0889470000   -0.0267820000   -0.0000000000
C        0.0007550000   -0.0617450000   -0.0000000000
C       -0.2701220000    1.0332890000   -0.0000000000
C       -0.1435950000    0.0653090000    0.0000000000
C        0.0236870000   -0.0919020000   -0.0000000000
N       -0.2011160000    0.0205350000   -0.0000000000
H        0.1373160000   -0.0002630000   -0.0000000000
H        0.1236800000    0.0036080000   -0.0000000000
H        0.1389530000   -0.0252850000   -0.0000000000
H        0.1392960000   -0.0002790000    0.0000000000
H        0.1291670000    0.0034180000   -0.0000000000
C       -0.1289450000    0.0796200000    0.0000000000
H        0.1398710000    0.0004780000    0.0000000000
13   
Frame  17 IRC: Energy =  -286.8719310000 ; +0.9639 kcal/mol
C       -0.0892170000   -0.0265420000   -0.0000000000
C        0.0010280000   -0.0618700000   -0.0000000000
C       -0.2709910000    1.0332240000   -0.0000000000
C       -0.1412160000    0.0664500000    0.0000000000
C        0.0236030000   -0.0921250000   -0.0000000000
N       -0.2011290000    0.0203350000   -0.0000000000
H        0.1374000000   -0.0002760000   -0.0000000000
H        0.1236280000    0.0036380000   -0.0000000000
H        0.1388840000   -0.0252150000   -0.0000000000
H        0.1395420000   -0.0003680000    0.0000000000
H        0.1292180000    0.0033840000   -0.0000000000
C       -0.1307480000    0.0789280000    0.0000000000
H        0.1399980000    0.0004370000    0.0000000000
13   
Frame  18 IRC: Energy =  -286.8717090000 ; +1.1032 kcal/mol
C       -0.0884900000   -0.0260230000   -0.0000000000
C       -0.0005280000   -0.0621280000   -0.0000000000
C       -0.2701670000    1.0335750000   -0.0000000000
C       -0.1424310000    0.0688140000    0.0000000000
C        0.0237080000   -0.0925870000   -0.0000000000
N       -0.2006830000    0.0198900000   -0.0000000000
H        0.1372890000   -0.0002920000   -0.0000000000
H        0.1235090000    0.0036290000   -0.0000000000
H        0.1388690000   -0.0252840000   -0.0000000000
H        0.1394420000   -0.0004910000    0.0000000000
H        0.1291650000    0.0033710000   -0.0000000000
C       -0.1298430000    0.0770190000    0.0000000000
H        0.1401610000    0.0005070000    0.0000000000
13   
Frame  19 IRC: Energy =  -286.8713080000 ; +1.3548 kcal/mol
C       -0.0890280000   -0.0256980000   -0.0000000000
C       -0.0006410000   -0.0622880000   -0.0000000000
C       -0.2709960000    1.0338160000   -0.0000000000
C       -0.1402880000    0.0703600000    0.0000000000
C        0.0240130000   -0.0929170000   -0.0000000000
N       -0.2007970000    0.0196650000   -0.0000000000
H        0.1374110000   -0.0003050000   -0.0000000000
H        0.1234400000    0.0036430000   -0.0000000000
H        0.1387770000   -0.0252860000   -0.0000000000
H        0.1397190000   -0.0006260000    0.0000000000
H        0.1292000000    0.0033220000   -0.0000000000
C       -0.1311920000    0.0758440000    0.0000000000
H        0.1403840000    0.0004680000    0.0000000000
13   
Frame  20 IRC: Energy =  -286.8710090000 ; +1.5424 kcal/mol
C       -0.0881130000   -0.0251400000   -0.0000000000
C       -0.0020260000   -0.0626610000   -0.0000000000
C       -0.2703480000    1.0341460000   -0.0000000000
C       -0.1412040000    0.0729370000    0.0000000000
C        0.0239860000   -0.0934710000   -0.0000000000
N       -0.2002390000    0.0192070000   -0.0000000000
H        0.1372610000   -0.0003240000   -0.0000000000
H        0.1233290000    0.0036440000   -0.0000000000
H        0.1387440000   -0.0253670000   -0.0000000000
H        0.1396480000   -0.0007580000    0.0000000000
H        0.1291700000    0.0033110000   -0.0000000000
C       -0.1307620000    0.0739410000    0.0000000000
H        0.1405540000    0.0005350000    0.0000000000
13   
Frame  21 IRC: Energy =  -286.8704620000 ; +1.8857 kcal/mol
C       -0.0889150000   -0.0247070000   -0.0000000000
C       -0.0024800000   -0.0629160000   -0.0000000000
C       -0.2711500000    1.0347220000   -0.0000000000
C       -0.1392730000    0.0749060000    0.0000000000
C        0.0247290000   -0.0939550000   -0.0000000000
N       -0.2004260000    0.0189570000   -0.0000000000
H        0.1373980000   -0.0003390000   -0.0000000000
H        0.1232580000    0.0036440000   -0.0000000000
H        0.1386290000   -0.0254650000   -0.0000000000
H        0.1399560000   -0.0009430000    0.0000000000
H        0.1292020000    0.0032480000   -0.0000000000
C       -0.1318020000    0.0723660000    0.0000000000
H        0.1408740000    0.0004810000    0.0000000000
13   
Frame  22 IRC: Energy =  -286.8700420000 ; +2.1492 kcal/mol
C       -0.0880910000   -0.0241290000   -0.0000000000
C       -0.0036620000   -0.0634190000   -0.0000000000
C       -0.2706140000    1.0352910000   -0.0000000000
C       -0.1399840000    0.0774400000    0.0000000000
C        0.0242760000   -0.0946480000   -0.0000000000
N       -0.1995350000    0.0185950000   -0.0000000000
H        0.1372170000   -0.0003560000   -0.0000000000
H        0.1231710000    0.0036410000   -0.0000000000
H        0.1385730000   -0.0254810000   -0.0000000000
H        0.1399080000   -0.0010820000    0.0000000000
H        0.1292090000    0.0032200000   -0.0000000000
C       -0.1315860000    0.0703960000    0.0000000000
H        0.1411180000    0.0005350000    0.0000000000
13   
Frame  23 IRC: Energy =  -286.8682180000 ; +3.2938 kcal/mol
C       -0.0886690000   -0.0219860000   -0.0000000000
C       -0.0065480000   -0.0653180000   -0.0000000000
C       -0.2725090000    1.0382010000   -0.0000000000
C       -0.1377760000    0.0860530000    0.0000000000
C        0.0287860000   -0.0969550000   -0.0000000000
N       -0.2000360000    0.0172790000   -0.0000000000
H        0.1372020000   -0.0004240000   -0.0000000000
H        0.1229430000    0.0035970000   -0.0000000000
H        0.1382330000   -0.0266190000   -0.0000000000
H        0.1407920000   -0.0018290000    0.0000000000
H        0.1291980000    0.0030710000   -0.0000000000
C       -0.1336660000    0.0644710000    0.0000000000
H        0.1420490000    0.0004580000    0.0000000000
13   
Frame  24 IRC: Energy =  -286.8658010000 ; +4.8105 kcal/mol
C       -0.0894060000   -0.0187150000   -0.0000000000
C       -0.0094360000   -0.0682180000   -0.0000000000
C       -0.2760050000    1.0425930000   -0.0000000000
C       -0.1375770000    0.0974230000    0.0000000000
C        0.0346350000   -0.0999440000   -0.0000000000
N       -0.1996210000    0.0153450000   -0.0000000000
H        0.1373120000   -0.0004960000   -0.0000000000
H        0.1229560000    0.0034820000   -0.0000000000
H        0.1382550000   -0.0284540000   -0.0000000000
H        0.1420460000   -0.0027000000    0.0000000000
H        0.1293300000    0.0029260000   -0.0000000000
C       -0.1354940000    0.0562600000    0.0000000000
H        0.1430040000    0.0004970000    0.0000000000
13   
Frame  25 IRC: Energy =  -286.8626960000 ; +6.7589 kcal/mol
C       -0.0839700000   -0.0127720000   -0.0000000000
C       -0.0143500000   -0.0720610000   -0.0000000000
C       -0.2864220000    1.0446430000   -0.0000000000
C       -0.1364750000    0.1307510000    0.0000000000
C        0.0424070000   -0.1045330000   -0.0000000000
N       -0.2001170000    0.0106020000   -0.0000000000
H        0.1376840000   -0.0005970000   -0.0000000000
H        0.1236270000    0.0035220000   -0.0000000000
H        0.1393040000   -0.0335650000   -0.0000000000
H        0.1430360000   -0.0043390000    0.0000000000
H        0.1298710000    0.0031480000   -0.0000000000
C       -0.1372980000    0.0333450000    0.0000000000
H        0.1427030000    0.0018550000    0.0000000000
13   
Frame  26 IRC: Energy =  -286.8580090000 ; +9.7000 kcal/mol
C       -0.0746500000   -0.0032770000   -0.0000000000
C       -0.0184900000   -0.0735580000   -0.0000000000
C       -0.3000800000    1.0324590000   -0.0000000000
C       -0.1357080000    0.2060180000    0.0000000000
C        0.0475990000   -0.1102870000   -0.0000000000
N       -0.2014240000    0.0034310000   -0.0000000000
H        0.1378440000   -0.0006830000   -0.0000000000
H        0.1247310000    0.0036720000   -0.0000000000
H        0.1411140000   -0.0393740000   -0.0000000000
H        0.1434890000   -0.0076040000    0.0000000000
H        0.1304090000    0.0037820000   -0.0000000000
C       -0.1366610000   -0.0197230000    0.0000000000
H        0.1418260000    0.0051440000    0.0000000000
13   
Frame  27 IRC: Energy =  -286.8517780000 ; +13.6101 kcal/mol
C       -0.0662680000    0.0106280000   -0.0000000000
C       -0.0194390000   -0.0680180000   -0.0000000000
C       -0.3091440000    0.9819400000   -0.0000000000
C       -0.1367610000    0.3482970000    0.0000000000
C        0.0457560000   -0.1177650000   -0.0000000000
N       -0.2028790000   -0.0039670000   -0.0000000000
H        0.1375260000   -0.0005980000   -0.0000000000
H        0.1263860000    0.0038340000   -0.0000000000
H        0.1433980000   -0.0423920000   -0.0000000000
H        0.1429520000   -0.0135230000    0.0000000000
H        0.1306750000    0.0049690000   -0.0000000000
C       -0.1331940000   -0.1136600000    0.0000000000
H        0.1409930000    0.0102560000    0.0000000000
13   
Frame  28 IRC: Energy =  -286.8460750000 ; +17.1888 kcal/mol
C       -0.0623920000    0.0280420000   -0.0000000000
C       -0.0178940000   -0.0528700000   -0.0000000000
C       -0.3029910000    0.8536600000   -0.0000000000
C       -0.1383840000    0.5500810000    0.0000000000
C        0.0349230000   -0.1243320000   -0.0000000000
N       -0.2049530000   -0.0072130000   -0.0000000000
H        0.1364740000    0.0000060000   -0.0000000000
H        0.1287340000    0.0038630000   -0.0000000000
H        0.1459620000   -0.0389760000   -0.0000000000
H        0.1410790000   -0.0219320000    0.0000000000
H        0.1305850000    0.0066990000   -0.0000000000
C       -0.1317280000   -0.2111880000    0.0000000000
H        0.1405850000    0.0141610000    0.0000000000
13   
Frame  29 IRC: Energy =  -286.8438160000 ; +18.6063 kcal/mol (Transition State)
C       -0.0638110000    0.0424820000   -0.0000000000
C       -0.0166910000   -0.0325080000   -0.0000000000
C       -0.2784170000    0.6413540000   -0.0000000000
C       -0.1337250000    0.7382730000    0.0000000000
C        0.0164610000   -0.1238900000   -0.0000000000
N       -0.2076470000   -0.0030460000   -0.0000000000
H        0.1349380000    0.0013400000   -0.0000000000
H        0.1315480000    0.0036000000   -0.0000000000
H        0.1473240000   -0.0280870000   -0.0000000000
H        0.1387860000   -0.0302490000    0.0000000000
H        0.1304250000    0.0083090000   -0.0000000000
C       -0.1397290000   -0.2302070000    0.0000000000
H        0.1405380000    0.0126300000    0.0000000000
13   
Frame  30 IRC: Energy =  -286.8457120000 ; +17.4165 kcal/mol
C       -0.0677170000    0.0470150000   -0.0000000000
C       -0.0182580000   -0.0134190000   -0.0000000000
C       -0.2461880000    0.4254380000   -0.0000000000
C       -0.1191910000    0.8625730000    0.0000000000
C       -0.0087850000   -0.1189500000   -0.0000000000
N       -0.2092230000    0.0054670000   -0.0000000000
H        0.1336700000    0.0029330000   -0.0000000000
H        0.1342140000    0.0031060000   -0.0000000000
H        0.1459610000   -0.0149570000   -0.0000000000
H        0.1376070000   -0.0362620000    0.0000000000
H        0.1305280000    0.0091710000   -0.0000000000
C       -0.1528510000   -0.1800060000    0.0000000000
H        0.1402360000    0.0078930000    0.0000000000
13   
Frame  31 IRC: Energy =  -286.8496910000 ; +14.9197 kcal/mol
C       -0.0712650000    0.0430070000   -0.0000000000
C       -0.0257880000    0.0037710000   -0.0000000000
C       -0.2133010000    0.2781920000   -0.0000000000
C       -0.0990060000    0.9375000000    0.0000000000
C       -0.0400540000   -0.1167420000   -0.0000000000
N       -0.2089020000    0.0137800000   -0.0000000000
H        0.1328930000    0.0040840000   -0.0000000000
H        0.1364580000    0.0026190000   -0.0000000000
H        0.1424430000   -0.0051080000   -0.0000000000
H        0.1373310000   -0.0401160000    0.0000000000
H        0.1308790000    0.0094960000   -0.0000000000
C       -0.1611030000   -0.1348410000    0.0000000000
H        0.1394160000    0.0043560000    0.0000000000
13   
Frame  32 IRC: Energy =  -286.8534060000 ; +12.5885 kcal/mol
C       -0.0731020000    0.0355410000   -0.0000000000
C       -0.0397320000    0.0204040000   -0.0000000000
C       -0.1812000000    0.1949240000   -0.0000000000
C       -0.0779010000    0.9855010000    0.0000000000
C       -0.0720570000   -0.1181120000   -0.0000000000
N       -0.2077940000    0.0204420000   -0.0000000000
H        0.1324110000    0.0046370000   -0.0000000000
H        0.1381940000    0.0022370000   -0.0000000000
H        0.1381860000    0.0008310000   -0.0000000000
H        0.1376010000   -0.0426180000    0.0000000000
H        0.1312820000    0.0096340000   -0.0000000000
C       -0.1643790000   -0.1161330000    0.0000000000
H        0.1384910000    0.0027120000    0.0000000000
13   
Frame  33 IRC: Energy =  -286.8555150000 ; +11.2651 kcal/mol
C       -0.0736860000    0.0283300000   -0.0000000000
C       -0.0556140000    0.0350690000   -0.0000000000
C       -0.1528000000    0.1519370000   -0.0000000000
C       -0.0620390000    1.0157040000    0.0000000000
C       -0.0972420000   -0.1213040000   -0.0000000000
N       -0.2068220000    0.0252380000   -0.0000000000
H        0.1320240000    0.0048040000   -0.0000000000
H        0.1393570000    0.0019770000   -0.0000000000
H        0.1351110000    0.0039520000   -0.0000000000
H        0.1381990000   -0.0440770000    0.0000000000
H        0.1316830000    0.0098310000   -0.0000000000
C       -0.1664100000   -0.1135950000    0.0000000000
H        0.1382400000    0.0021360000    0.0000000000
13   
Frame  34 IRC: Energy =  -286.8567330000 ; +10.5008 kcal/mol
C       -0.0740420000    0.0251590000   -0.0000000000
C       -0.0638420000    0.0425230000   -0.0000000000
C       -0.1399220000    0.1454250000   -0.0000000000
C       -0.0570430000    1.0244530000    0.0000000000
C       -0.1007050000   -0.1249520000   -0.0000000000
N       -0.2065310000    0.0263250000   -0.0000000000
H        0.1317480000    0.0046300000   -0.0000000000
H        0.1393400000    0.0019040000   -0.0000000000
H        0.1344990000    0.0045160000   -0.0000000000
H        0.1383750000   -0.0442760000    0.0000000000
H        0.1320630000    0.0102030000   -0.0000000000
C       -0.1727150000   -0.1178090000    0.0000000000
H        0.1387740000    0.0018980000    0.0000000000
13   
Frame  35 IRC: Energy =  -286.8569820000 ; +10.3445 kcal/mol
C       -0.0733890000    0.0239540000   -0.0000000000
C       -0.0678640000    0.0415270000   -0.0000000000
C       -0.1357050000    0.1394880000   -0.0000000000
C       -0.0574280000    1.0309640000    0.0000000000
C       -0.1040680000   -0.1250730000   -0.0000000000
N       -0.2057650000    0.0262940000   -0.0000000000
H        0.1317200000    0.0046710000   -0.0000000000
H        0.1392940000    0.0019860000   -0.0000000000
H        0.1345850000    0.0046230000   -0.0000000000
H        0.1385050000   -0.0445050000    0.0000000000
H        0.1319550000    0.0101730000   -0.0000000000
C       -0.1707450000   -0.1160300000    0.0000000000
H        0.1389060000    0.0019280000    0.0000000000
13   
Frame  36 IRC: Energy =  -286.8575930000 ; +9.9611 kcal/mol
C       -0.0721750000    0.0221950000   -0.0000000000
C       -0.0767970000    0.0443240000   -0.0000000000
C       -0.1229180000    0.1372310000   -0.0000000000
C       -0.0576520000    1.0346740000    0.0000000000
C       -0.1087860000   -0.1268180000   -0.0000000000
N       -0.2044790000    0.0265120000   -0.0000000000
H        0.1318950000    0.0045500000   -0.0000000000
H        0.1388530000    0.0022540000   -0.0000000000
H        0.1350060000    0.0044820000   -0.0000000000
H        0.1381420000   -0.0443720000    0.0000000000
H        0.1321860000    0.0105890000   -0.0000000000
C       -0.1726900000   -0.1176230000    0.0000000000
H        0.1394150000    0.0020010000    0.0000000000
13   
Frame  37 IRC: Energy =  -286.8576580000 ; +9.9203 kcal/mol
C       -0.0718550000    0.0218050000   -0.0000000000
C       -0.0786200000    0.0441080000   -0.0000000000
C       -0.1223790000    0.1342200000   -0.0000000000
C       -0.0577640000    1.0378800000    0.0000000000
C       -0.1091470000   -0.1271040000   -0.0000000000
N       -0.2042000000    0.0266220000   -0.0000000000
H        0.1318680000    0.0046200000   -0.0000000000
H        0.1388220000    0.0022460000   -0.0000000000
H        0.1348620000    0.0044290000   -0.0000000000
H        0.1381520000   -0.0444670000    0.0000000000
H        0.1320910000    0.0106140000   -0.0000000000
C       -0.1712210000   -0.1169820000    0.0000000000
H        0.1393910000    0.0020100000    0.0000000000
13   
Frame  38 IRC: Energy =  -286.8578340000 ; +9.8099 kcal/mol
C       -0.0712160000    0.0209400000   -0.0000000000
C       -0.0847510000    0.0475360000   -0.0000000000
C       -0.1159410000    0.1290770000   -0.0000000000
C       -0.0579540000    1.0426300000    0.0000000000
C       -0.1120770000   -0.1286210000   -0.0000000000
N       -0.2033400000    0.0273430000   -0.0000000000
H        0.1318340000    0.0046300000   -0.0000000000
H        0.1386820000    0.0023450000   -0.0000000000
H        0.1347880000    0.0042270000   -0.0000000000
H        0.1382510000   -0.0444660000    0.0000000000
H        0.1321090000    0.0110050000   -0.0000000000
C       -0.1698000000   -0.1187630000    0.0000000000
H        0.1394120000    0.0021160000    0.0000000000
13   