
Running Job 1 of 1 irc_transition.in
qchem irc_transition.in_28615.0 ./irc_transition.d/ 1
/home/leeping/opt/qchem/5.0.2-openmp/exe/qcprog.exe_s irc_transition.in_28615.0 ./irc_transition.d/
Check license passed

                  Welcome to Q-Chem
     A Quantum Leap Into The Future Of Chemistry


 Q-Chem 5.0, Q-Chem, Inc., Pleasanton, CA (2017)

 Yihan Shao,  Zhengting Gan,  E. Epifanovsky,  A. T. B. Gilbert,  M. Wormit,  
 J. Kussmann,  A. W. Lange,  A. Behn,  Jia Deng,  Xintian Feng,  D. Ghosh,  
 M. Goldey,  P. R. Horn,  L. D. Jacobson,  I. Kaliman,  T. Kus,  A. Landau,  
 Jie Liu,  E. I. Proynov,  R. M. Richard,  R. P. Steele,  E. J. Sundstrom,  
 H. L. Woodcock III,  P. M. Zimmerman,  D. Zuev,  B. Albrecht,  E. Alguire,  
 S. A. Baeppler,  D. Barton,  Z. Benda,  Y. A. Bernard,  E. J. Berquist,  
 K. B. Bravaya,  H. Burton,  D. Casanova,  Chun-Min Chang,  Yunqing Chen,  
 A. Chien,  K. D. Closser,  M. P. Coons,  S. Dasgupta,  A. L. Dempwolff,  
 M. Diedenhofen,  Hainam Do,  R. G. Edgar,  Po-Tung Fang,  S. Fatehi,  
 Qingguo Feng,  J. Fosso-Tande,  Qinghui Ge,  A. Ghysels,  G. Gidofalvi,  
 J. Gomes,  J. Gonthier,  A. Gunina,  M. W. D. Hanson-Heine,  
 P. H. P. Harbach,  A. W. Hauser,  J. E. Herr,  E. G. Hohenstein,  
 Z. C. Holden,  Kerwin Hui,  T.-C. Jagau,  Hyunjun Ji,  B. Kaduk,  
 K. Khistyaev,  Jaehoon Kim,  P. Klunzinger,  K. Koh,  D. Kosenkov,  
 L. Koulias,  T. Kowalczyk,  C. M. Krauter,  A. Kunitsa,  Ka Un Lao,  
 A. Laurent,  K. V. Lawler,  Joonho Lee,  D. Lefrancois,  S. Lehtola,  
 D. S. Levine,  Yi-Pei Li,  You-Sheng Lin,  Fenglai Liu,  E. Livshits,  
 A. Luenser,  P. Manohar,  E. Mansoor,  S. F. Manzer,  Shan-Ping Mao,  
 Yuezhi Mao,  N. Mardirossian,  A. V. Marenich,  T. Markovich,  
 L. A. Martinez-Martinez,  S. A. Maurer,  N. J. Mayhall,  S. C. McKenzie,  
 J.-M. Mewes,  A. F. Morrison,  J. W. Mullinax,  K. Nanda,  
 T. S. Nguyen-Beck,  R. Olivares-Amaya,  J. A. Parkhill,  T. M. Perrine,  
 F. Plasser,  S. Prager,  A. Prociuk,  E. Ramos,  D. R. Rehn,  F. Rob,  
 M. Schneider,  N. Sergueev,  S. M. Sharada,  S. Sharma,  D. W. Small,  
 T. Stauch,  T. Stein,  Yu-Chuan Su,  A. J. W. Thom,  A. Tkatchenko,  
 T. Tsuchimochi,  L. Vogt,  O. Vydrov,  M. A. Watson,  J. Wenzel,  
 M. de Wergifosse,  T. A. Wesolowski,  A. White,  J. Witte,  A. Yamada,  
 Jun Yang,  K. Yao,  S. Yeganeh,  S. R. Yost,  Zhi-Qiang You,  A. Zech,  
 Igor Ying Zhang,  Xing Zhang,  Yan Zhao,  Ying Zhu,  B. R. Brooks,  
 G. K. L. Chan,  C. J. Cramer,  M. S. Gordon,  W. J. Hehre,  A. Klamt,  
 M. W. Schmidt,  C. D. Sherrill,  D. G. Truhlar,  A. Aspuru-Guzik,  R. Baer,  
 A. T. Bell,  N. A. Besley,  Jeng-Da Chai,  R. A. DiStasio Jr.,  A. Dreuw,  
 B. D. Dunietz,  T. R. Furlani,  Chao-Ping Hsu,  Yousung Jung,  Jing Kong,  
 D. S. Lambrecht,  WanZhen Liang,  C. Ochsenfeld,  V. A. Rassolov,  
 L. V. Slipchenko,  J. E. Subotnik,  T. Van Voorhis,  J. M. Herbert,  
 A. I. Krylov,  P. M. W. Gill,  M. Head-Gordon

 Contributors to earlier versions of Q-Chem not listed above: 
 R. D. Adamson,  B. Austin,  J. Baker,  G. J. O. Beran,  K. Brandhorst,  
 S. T. Brown,  E. F. C. Byrd,  A. K. Chakraborty,  C.-L. Cheng,  
 Siu Hung Chien,  D. M. Chipman,  D. L. Crittenden,  H. Dachsel,  
 R. J. Doerksen,  A. D. Dutoi,  L. Fusti-Molnar,  W. A. Goddard III,  
 A. Golubeva-Zadorozhnaya,  S. R. Gwaltney,  G. Hawkins,  A. Heyden,  
 S. Hirata,  G. Kedziora,  F. J. Keil,  C. Kelley,  Jihan Kim,  R. A. King,  
 R. Z. Khaliullin,  P. P. Korambath,  W. Kurlancheek,  A. M. Lee,  M. S. Lee,  
 S. V. Levchenko,  Ching Yeh Lin,  D. Liotard,  R. C. Lochan,  I. Lotan,  
 P. E. Maslen,  N. Nair,  D. P. O'Neill,  D. Neuhauser,  E. Neuscamman,  
 C. M. Oana,  R. Olson,  B. Peters,  R. Peverati,  P. A. Pieniazek,  
 Y. M. Rhee,  J. Ritchie,  M. A. Rohrdanz,  E. Rosta,  N. J. Russ,  
 H. F. Schaefer III,  N. E. Schultz,  N. Shenvi,  A. C. Simmonett,  A. Sodt,  
 D. Stuck,  K. S. Thanthiriwatte,  V. Vanovschi,  Tao Wang,  A. Warshel,  
 C. F. Williams,  Q. Wu,  X. Xu,  W. Zhang

 Please cite Q-Chem as follows:
 Y. Shao et al., Mol. Phys. 113, 184-215 (2015)
 DOI: 10.1080/00268976.2014.952696

 Q-Chem 5.0.2 for Intel X86 EM64T Linux

 Parts of Q-Chem use Armadillo 5.200.1 (Boston Tea Smuggler).
 http://arma.sourceforge.net/

 Q-Chem begins on Thu Mar  3 21:20:28 2022  

Host: 
0

     Scratch files written to ./irc_transition.d//
 Dec517 15110_ 26548  26544 5633   
Processing $rem in /home/leeping/opt/qchem/5.0.2-openmp/config/preferences.
 MEM_STATIC 2000
 MEM_TOTAL  8000
 SYMMETRY   OFF
 SYM_IGNORE TRUE 

Checking the input file for inconsistencies... 	...done.

--------------------------------------------------------------
User input:
--------------------------------------------------------------
$molecule
0 2
C        1.5457992283    0.3774224907   -0.3086425081
C        0.7249138119   -0.8603742445   -0.0388726522
C       -0.5045775321   -0.6125758033   -0.8533084980
C       -0.9460110504    0.6627811287    0.8696319591
C       -0.5902378376    0.9107932180   -0.5922754108
N        0.8320473775    1.3855477849   -0.6511709590
H        2.6234328709    0.4480084360   -0.1770437603
H        1.1908190780   -1.8424687306   -0.0163016944
H       -1.1425522131   -1.2915475993   -1.4001203484
H       -1.5831698292    1.2191190555    1.5416950899
H       -1.2561626157    1.5333337904   -1.1868344908
C       -0.3571729096   -0.6014339320    1.0171971211
H       -0.5571442820   -1.3405819753    1.7883103155
$end

$rem
method                b3lyp
basis                 6-31+g(d,p)
unrestricted          true
symmetry              off
sym_ignore            true
incdft                false
incfock               0
scf_convergence       6
thresh                14
jobtype               sp
scf_guess             read
scf_algorithm         diis
max_scf_cycles        100
stability_analysis    true
max_cis_cycles        100
cis_n_roots           4
$end

--------------------------------------------------------------
 ----------------------------------------------------------------
             Standard Nuclear Orientation (Angstroms)
    I     Atom           X                Y                Z
 ----------------------------------------------------------------
    1      C       1.5457992283     0.3774224907    -0.3086425081
    2      C       0.7249138119    -0.8603742445    -0.0388726522
    3      C      -0.5045775321    -0.6125758033    -0.8533084980
    4      C      -0.9460110504     0.6627811287     0.8696319591
    5      C      -0.5902378376     0.9107932180    -0.5922754108
    6      N       0.8320473775     1.3855477849    -0.6511709590
    7      H       2.6234328709     0.4480084360    -0.1770437603
    8      H       1.1908190780    -1.8424687306    -0.0163016944
    9      H      -1.1425522131    -1.2915475993    -1.4001203484
   10      H      -1.5831698292     1.2191190555     1.5416950899
   11      H      -1.2561626157     1.5333337904    -1.1868344908
   12      C      -0.3571729096    -0.6014339320     1.0171971211
   13      H      -0.5571442820    -1.3405819753     1.7883103155
 ----------------------------------------------------------------
 Nuclear Repulsion Energy =   280.5565623776 hartrees
 There are       25 alpha and       24 beta electrons
 Requested basis set is 6-31+G(d,p)
 There are 53 shells and 163 basis functions

 Total QAlloc Memory Limit   8000 MB
 Mega-Array Size      1956 MB
 MEM_STATIC part      2000 MB

                       Distance Matrix (Angstroms)
             C (  1)   C (  2)   C (  3)   C (  4)   C (  5)   N (  6)
   C (  2)  1.509559
   C (  3)  2.341111  1.495446
   C (  4)  2.771079  2.436672  2.188589
   C (  5)  2.219817  2.274404  1.547944  1.524880
   N (  6)  1.281828  2.330355  2.412452  2.448821  1.500585
   H (  7)  1.087931  2.309834  3.371442  3.725934  3.273265  2.076737
   H (  8)  2.267023  1.087238  2.255568  3.409868  3.329318  3.309360
   H (  9)  3.347240  2.350816  1.080286  3.001634  2.409973  3.409811
   H ( 10)  3.731307  3.485647  3.202266  1.080348  2.373775  3.266441
   H ( 11)  3.155684  3.312449  2.298053  2.254575  1.088353  2.160879
   C ( 12)  2.517402  1.534029  1.876338  1.402407  2.220710  2.854084
   H ( 13)  3.430907  2.283171  2.740603  2.238002  3.276732  3.913145
             H (  7)   H (  8)   H (  9)   H ( 10)   H ( 11)   C ( 12)
   H (  8)  2.706382
   H (  9)  4.324883  2.768229
   H ( 10)  4.609141  4.415392  3.892540
   H ( 11)  4.153176  4.330578  2.835199  2.765961
   C ( 12)  3.378099  2.237089  2.633724  2.256674  3.197369
   H ( 13)  4.144604  2.562009  3.242098  2.768685  4.195176  1.086712

 
 A cutoff of  1.0D-14 yielded   1404 shell pairs
 There are     13506 function pairs
 Smallest overlap matrix eigenvalue = 2.30E-05

 Scale SEOQF with 1.000000e-01/1.000000e-01/1.000000e-01

 Standard Electronic Orientation quadrupole field applied
 Nucleus-field energy     =     0.0000000014 hartrees
 Guess MOs from SCF MO coefficient file
 Reading MOs from coefficient file
 Reading MOs from coefficient file
 An unrestricted hybrid HF-DFT SCF calculation will be
 performed using Pulay DIIS extrapolation
 Exchange:     0.2000 Hartree-Fock + 0.0800 Slater + 0.7200 B88
 Correlation:  0.1900 VWN1RPA + 0.8100 LYP
 Using SG-1 standard quadrature grid
 SCF converges when DIIS error is below 1.0E-06
Using Q-Chem read-in guess as SCF_GUESS READ specified.

 -------------------------------------------------------
 OpenMP BLAS3 based DFT computing Module                
 -------------------------------------------------------
 ---------------------------------------
  Cycle       Energy         DIIS Error
 ---------------------------------------
    1    -286.8438158204      3.02E-09
    2    -286.8438158204      4.32E-09 Convergence criterion met
 ---------------------------------------
 <S^2> = 0.7809
 SCF time:  CPU 6.38 s  wall 6.56 s
 SCF   energy in the final basis set = -286.84381582
 Total energy in the final basis set = -286.84381582
 
 Direct TDDFT/TDA calculation will be performed
 Exchange:     0.2000 Hartree-Fock + 0.0800 Slater + 0.7200 B88
 Correlation:  0.1900 VWN1RPA + 0.8100 LYP
 Using SG-1 standard quadrature grid
 CIS energy converged when residual is below 10e- 6
 ---------------------------------------------------
 Iter    Rts Conv    Rts Left    Ttl Dev     Max Dev
 ---------------------------------------------------
   1         0           4      0.002668    0.001325
   2         0           4      0.000716    0.000275
   3         0           4      0.000324    0.000149
   4         0           4      0.000146    0.000057
   5         0           4      0.000062    0.000030
   6         1           3      0.000028    0.000021
   7         2           2      0.000017    0.000014
   8         3           1      0.000006    0.000004
   9         3           1      0.000003    0.000001
  10         4           0      0.000002    0.000001    Roots Converged
 ---------------------------------------------------
 
 ---------------------------------------------------
         TDDFT/TDA Excitation Energies              
 ---------------------------------------------------

 Excited state   1: excitation energy (eV) =    2.2555
 Total energy for state  1:                  -286.76092656 au
    <S**2>     :  0.7812
    Trans. Mom.:  0.1523 X   0.2935 Y   0.2223 Z
    Strength   :     0.0087753269
    S(  1) --> V(  1) amplitude =  0.9559 alpha
    S(  1) --> V(  2) amplitude = -0.2058 alpha

 Excited state   2: excitation energy (eV) =    2.6894
 Total energy for state  2:                  -286.74498382 au
    <S**2>     :  0.7831
    Trans. Mom.:  0.3097 X  -0.0403 Y  -0.3263 Z
    Strength   :     0.0134444653
    S(  1) --> V(  1) amplitude =  0.2368 alpha
    S(  1) --> V(  2) amplitude =  0.9403 alpha

 Excited state   3: excitation energy (eV) =    3.2416
 Total energy for state  3:                  -286.72468796 au
    <S**2>     :  0.7879
    Trans. Mom.: -0.0712 X   0.0007 Y  -0.2580 Z
    Strength   :     0.0056910217
    S(  1) --> V(  3) amplitude =  0.9830 alpha

 Excited state   4: excitation energy (eV) =    3.8690
 Total energy for state  4:                  -286.70163395 au
    <S**2>     :  0.7877
    Trans. Mom.: -0.0289 X  -0.1033 Y  -0.0573 Z
    Strength   :     0.0014012268
    S(  1) --> V(  4) amplitude =  0.9552 alpha
    S(  1) --> V(  5) amplitude = -0.2438 alpha
 
 ---------------------------------------------------

 Stability analysis will be performed
 ---------------------------------------------------
 Iter    Rts Conv    Rts Left    Ttl Dev     Max Dev
 ---------------------------------------------------
   1         0           8      0.002808    0.000598
   2         0           8      0.001030    0.000364
   3         0           8      0.000731    0.000262
   4         2           6      0.001412    0.001004
   5         3           5      0.000818    0.000515
   6         3           5      0.000414    0.000297
   7         4           4      0.000164    0.000121
   8         5           3      0.000048    0.000035
   9         5           3      0.000015    0.000010
  10         7           1      0.000006    0.000003
  11         8           0      0.000003    0.000001    Roots Converged
 UKS-> UKS   stable,    smallest eigenvalue:      0.0732423
 UKS->CUKS   stable,    smallest eigenvalue:      0.0823366
 ---------------------------------------------------
  SETman timing summary (seconds)
  CPU time               189.55s
  System time              0.00s
  Wall time              191.05s
 
 --------------------------------------------------------------
 
                    Orbital Energies (a.u.)
 --------------------------------------------------------------
 
 Alpha MOs
 -- Occupied --
-14.334 -10.234 -10.231 -10.228 -10.225 -10.222 -10.199  -0.969
 -0.850  -0.750  -0.690  -0.601  -0.587  -0.546  -0.524  -0.474
 -0.436  -0.418  -0.409  -0.387  -0.351  -0.307  -0.286  -0.266
 -0.152
 -- Virtual --
 -0.025  -0.009   0.000   0.020   0.026   0.031   0.048   0.048
  0.068   0.071   0.074   0.091   0.103   0.106   0.109   0.115
  0.123   0.129   0.143   0.154   0.167   0.177   0.183   0.185
  0.190   0.199   0.208   0.211   0.228   0.233   0.241   0.246
  0.258   0.268   0.281   0.289   0.301   0.318   0.330   0.353
  0.373   0.385   0.414   0.459   0.617   0.655   0.691   0.698
  0.699   0.715   0.725   0.739   0.752   0.758   0.787   0.795
  0.799   0.816   0.863   0.899   0.913   0.934   0.972   0.986
  1.009   1.015   1.036   1.063   1.088   1.117   1.133   1.162
  1.187   1.255   1.289   1.299   1.383   1.419   1.436   1.517
  1.530   1.610   1.616   1.712   1.717   1.775   1.801   1.832
  1.887   1.916   1.945   1.991   1.999   2.077   2.115   2.137
  2.150   2.221   2.231   2.262   2.278   2.359   2.370   2.379
  2.403   2.420   2.472   2.488   2.500   2.517   2.524   2.554
  2.579   2.595   2.627   2.648   2.684   2.745   2.760   2.774
  2.825   2.875   2.956   3.059   3.110   3.294   3.311   3.337
  3.476   3.626   3.692   4.154   4.388   4.473   4.575   4.639
  4.713   4.851
 
 Beta MOs
 -- Occupied --
-14.334 -10.236 -10.232 -10.228 -10.225 -10.214 -10.189  -0.965
 -0.844  -0.743  -0.680  -0.597  -0.577  -0.544  -0.516  -0.469
 -0.432  -0.413  -0.407  -0.385  -0.346  -0.291  -0.277  -0.262
 -- Virtual --
 -0.043  -0.019  -0.001   0.002   0.020   0.027   0.035   0.048
  0.049   0.070   0.072   0.078   0.093   0.103   0.106   0.110
  0.116   0.128   0.130   0.144   0.155   0.167   0.177   0.184
  0.190   0.191   0.202   0.210   0.216   0.232   0.235   0.243
  0.247   0.261   0.272   0.281   0.291   0.304   0.322   0.332
  0.357   0.376   0.388   0.420   0.462   0.620   0.661   0.692
  0.703   0.708   0.734   0.742   0.745   0.753   0.768   0.791
  0.797   0.804   0.819   0.864   0.903   0.914   0.936   0.974
  0.988   1.010   1.020   1.039   1.067   1.091   1.122   1.140
  1.168   1.192   1.259   1.297   1.300   1.386   1.422   1.445
  1.521   1.537   1.618   1.621   1.719   1.722   1.781   1.806
  1.850   1.891   1.925   1.946   1.999   2.002   2.082   2.125
  2.138   2.158   2.229   2.235   2.270   2.285   2.362   2.374
  2.383   2.408   2.427   2.476   2.497   2.502   2.524   2.530
  2.558   2.589   2.601   2.631   2.655   2.690   2.749   2.763
  2.779   2.827   2.877   2.959   3.062   3.111   3.295   3.312
  3.338   3.477   3.629   3.695   4.154   4.394   4.479   4.588
  4.645   4.716   4.855
 --------------------------------------------------------------
 
          Ground-State Mulliken Net Atomic Charges

     Atom                 Charge (a.u.)    Spin (a.u.)
  --------------------------------------------------------
      1 C                    -0.063811       0.042476
      2 C                    -0.016692      -0.032507
      3 C                    -0.278418       0.641354
      4 C                    -0.133725       0.738276
      5 C                     0.016461      -0.123891
      6 N                    -0.207647      -0.003041
      7 H                     0.134938       0.001340
      8 H                     0.131548       0.003599
      9 H                     0.147324      -0.028087
     10 H                     0.138786      -0.030249
     11 H                     0.130425       0.008309
     12 C                    -0.139729      -0.230210
     13 H                     0.140538       0.012630
  --------------------------------------------------------
  Sum of atomic charges =    -0.000000
  Sum of spin   charges =     1.000000

 -----------------------------------------------------------------
                    Cartesian Multipole Moments
 -----------------------------------------------------------------
    Charge (ESU x 10^10)
                -0.0000
    Dipole Moment (Debye)
         X      -0.6839      Y      -2.7630      Z       0.7513
       Tot       2.9438
    Quadrupole Moments (Debye-Ang)
        XX     -39.2280     XY      -3.9297     YY     -44.1025
        XZ       1.4193     YZ       0.7251     ZZ     -42.0501
    Octopole Moments (Debye-Ang^2)
       XXX      -0.7464    XXY      -6.6729    XYY     -11.0069
       YYY     -33.4581    XXZ       2.4831    XYZ       1.1706
       YYZ       6.2168    XZZ      -9.6863    YZZ      -9.6124
       ZZZ      11.6353
    Hexadecapole Moments (Debye-Ang^3)
      XXXX    -255.9522   XXXY      -7.0040   XXYY     -88.3580
      XYYY     -22.9671   YYYY    -272.3977   XXXZ      28.0744
      XXYZ      10.9495   XYYZ      14.1746   YYYZ      22.9601
      XXZZ     -76.5751   XYZZ      -4.3490   YYZZ     -74.7767
      XZZZ      26.4621   YZZZ      14.8174   ZZZZ    -202.5524
 -----------------------------------------------------------------
Archival summary:
1\1\c8-66\SP\ProcedureUnspecified\6-31+G**\166(2)\hpark21\ThuMar321:23:462022ThuMar321:23:462022\0\\#,ProcedureUnspecified,6-31+G**,\\0,2\N\C,1,1.28183\H,2,1.08793,1,122.198\C,1,1.50059,2,105.572,3,-174.639,0\H,4,1.08835,1,112.181,2,-159.441,0\C,2,1.50956,1,112.945,3,176.688,0\H,6,1.08724,2,120.754,1,162.615,0\C,6,1.49545,2,102.35,1,24.7363,0\H,8,1.08029,6,131.076,2,145.312,0\C,4,1.52488,1,108.073,2,68.3765,0\H,10,1.08035,4,130.559,1,107.632,0\C,10,1.40241,4,98.5998,1,-80.5073,0\H,12,1.08671,10,127.629,4,-161.484,0\\\@

 Total job time:  198.77s(wall), 196.14s(cpu) 
 Thu Mar  3 21:23:46 2022

        *************************************************************
        *                                                           *
        *  Thank you very much for using Q-Chem.  Have a nice day.  *
        *                                                           *
        *************************************************************


