
Running Job 1 of 1 irc_reactant.in
qchem irc_reactant.in_27929.0 ./irc_reactant.d/ 1
/home/leeping/opt/qchem/5.0.2-openmp/exe/qcprog.exe_s irc_reactant.in_27929.0 ./irc_reactant.d/
Check license passed

                  Welcome to Q-Chem
     A Quantum Leap Into The Future Of Chemistry


 Q-Chem 5.0, Q-Chem, Inc., Pleasanton, CA (2017)

 Yihan Shao,  Zhengting Gan,  E. Epifanovsky,  A. T. B. Gilbert,  M. Wormit,  
 J. Kussmann,  A. W. Lange,  A. Behn,  Jia Deng,  Xintian Feng,  D. Ghosh,  
 M. Goldey,  P. R. Horn,  L. D. Jacobson,  I. Kaliman,  T. Kus,  A. Landau,  
 Jie Liu,  E. I. Proynov,  R. M. Richard,  R. P. Steele,  E. J. Sundstrom,  
 H. L. Woodcock III,  P. M. Zimmerman,  D. Zuev,  B. Albrecht,  E. Alguire,  
 S. A. Baeppler,  D. Barton,  Z. Benda,  Y. A. Bernard,  E. J. Berquist,  
 K. B. Bravaya,  H. Burton,  D. Casanova,  Chun-Min Chang,  Yunqing Chen,  
 A. Chien,  K. D. Closser,  M. P. Coons,  S. Dasgupta,  A. L. Dempwolff,  
 M. Diedenhofen,  Hainam Do,  R. G. Edgar,  Po-Tung Fang,  S. Fatehi,  
 Qingguo Feng,  J. Fosso-Tande,  Qinghui Ge,  A. Ghysels,  G. Gidofalvi,  
 J. Gomes,  J. Gonthier,  A. Gunina,  M. W. D. Hanson-Heine,  
 P. H. P. Harbach,  A. W. Hauser,  J. E. Herr,  E. G. Hohenstein,  
 Z. C. Holden,  Kerwin Hui,  T.-C. Jagau,  Hyunjun Ji,  B. Kaduk,  
 K. Khistyaev,  Jaehoon Kim,  P. Klunzinger,  K. Koh,  D. Kosenkov,  
 L. Koulias,  T. Kowalczyk,  C. M. Krauter,  A. Kunitsa,  Ka Un Lao,  
 A. Laurent,  K. V. Lawler,  Joonho Lee,  D. Lefrancois,  S. Lehtola,  
 D. S. Levine,  Yi-Pei Li,  You-Sheng Lin,  Fenglai Liu,  E. Livshits,  
 A. Luenser,  P. Manohar,  E. Mansoor,  S. F. Manzer,  Shan-Ping Mao,  
 Yuezhi Mao,  N. Mardirossian,  A. V. Marenich,  T. Markovich,  
 L. A. Martinez-Martinez,  S. A. Maurer,  N. J. Mayhall,  S. C. McKenzie,  
 J.-M. Mewes,  A. F. Morrison,  J. W. Mullinax,  K. Nanda,  
 T. S. Nguyen-Beck,  R. Olivares-Amaya,  J. A. Parkhill,  T. M. Perrine,  
 F. Plasser,  S. Prager,  A. Prociuk,  E. Ramos,  D. R. Rehn,  F. Rob,  
 M. Schneider,  N. Sergueev,  S. M. Sharada,  S. Sharma,  D. W. Small,  
 T. Stauch,  T. Stein,  Yu-Chuan Su,  A. J. W. Thom,  A. Tkatchenko,  
 T. Tsuchimochi,  L. Vogt,  O. Vydrov,  M. A. Watson,  J. Wenzel,  
 M. de Wergifosse,  T. A. Wesolowski,  A. White,  J. Witte,  A. Yamada,  
 Jun Yang,  K. Yao,  S. Yeganeh,  S. R. Yost,  Zhi-Qiang You,  A. Zech,  
 Igor Ying Zhang,  Xing Zhang,  Yan Zhao,  Ying Zhu,  B. R. Brooks,  
 G. K. L. Chan,  C. J. Cramer,  M. S. Gordon,  W. J. Hehre,  A. Klamt,  
 M. W. Schmidt,  C. D. Sherrill,  D. G. Truhlar,  A. Aspuru-Guzik,  R. Baer,  
 A. T. Bell,  N. A. Besley,  Jeng-Da Chai,  R. A. DiStasio Jr.,  A. Dreuw,  
 B. D. Dunietz,  T. R. Furlani,  Chao-Ping Hsu,  Yousung Jung,  Jing Kong,  
 D. S. Lambrecht,  WanZhen Liang,  C. Ochsenfeld,  V. A. Rassolov,  
 L. V. Slipchenko,  J. E. Subotnik,  T. Van Voorhis,  J. M. Herbert,  
 A. I. Krylov,  P. M. W. Gill,  M. Head-Gordon

 Contributors to earlier versions of Q-Chem not listed above: 
 R. D. Adamson,  B. Austin,  J. Baker,  G. J. O. Beran,  K. Brandhorst,  
 S. T. Brown,  E. F. C. Byrd,  A. K. Chakraborty,  C.-L. Cheng,  
 Siu Hung Chien,  D. M. Chipman,  D. L. Crittenden,  H. Dachsel,  
 R. J. Doerksen,  A. D. Dutoi,  L. Fusti-Molnar,  W. A. Goddard III,  
 A. Golubeva-Zadorozhnaya,  S. R. Gwaltney,  G. Hawkins,  A. Heyden,  
 S. Hirata,  G. Kedziora,  F. J. Keil,  C. Kelley,  Jihan Kim,  R. A. King,  
 R. Z. Khaliullin,  P. P. Korambath,  W. Kurlancheek,  A. M. Lee,  M. S. Lee,  
 S. V. Levchenko,  Ching Yeh Lin,  D. Liotard,  R. C. Lochan,  I. Lotan,  
 P. E. Maslen,  N. Nair,  D. P. O'Neill,  D. Neuhauser,  E. Neuscamman,  
 C. M. Oana,  R. Olson,  B. Peters,  R. Peverati,  P. A. Pieniazek,  
 Y. M. Rhee,  J. Ritchie,  M. A. Rohrdanz,  E. Rosta,  N. J. Russ,  
 H. F. Schaefer III,  N. E. Schultz,  N. Shenvi,  A. C. Simmonett,  A. Sodt,  
 D. Stuck,  K. S. Thanthiriwatte,  V. Vanovschi,  Tao Wang,  A. Warshel,  
 C. F. Williams,  Q. Wu,  X. Xu,  W. Zhang

 Please cite Q-Chem as follows:
 Y. Shao et al., Mol. Phys. 113, 184-215 (2015)
 DOI: 10.1080/00268976.2014.952696

 Q-Chem 5.0.2 for Intel X86 EM64T Linux

 Parts of Q-Chem use Armadillo 5.200.1 (Boston Tea Smuggler).
 http://arma.sourceforge.net/

 Q-Chem begins on Thu Mar  3 21:12:05 2022  

Host: 
0

     Scratch files written to ./irc_reactant.d//
 Dec517 15110_ 26548  26544 5633   
Processing $rem in /home/leeping/opt/qchem/5.0.2-openmp/config/preferences.
 MEM_STATIC 2000
 MEM_TOTAL  8000
 SYMMETRY   OFF
 SYM_IGNORE TRUE 

Checking the input file for inconsistencies... 	...done.

--------------------------------------------------------------
User input:
--------------------------------------------------------------
$molecule
0 2
C        1.5220644764    0.3458674627   -0.2659712780
C        0.6261616804   -0.8923488114   -0.0628850116
C       -0.3976347031   -0.5227046610   -1.1413023795
C       -1.0009161738    0.5126632266    0.8106095797
C       -0.5872680970    0.8966071085   -0.6198986006
N        0.8501497357    1.3862781438   -0.5796611249
H        2.6024981005    0.3634926294   -0.1406525372
H        1.1087402191   -1.8690053058   -0.0747627544
H       -1.2181857219   -1.1794632011   -1.4229654464
H       -1.7239916303    1.0481435509    1.4148404578
H       -1.2349965784    1.5908292639   -1.1511280598
C       -0.2716181759   -0.5662072313    1.1492455630
H       -0.2750031321   -1.1141521746    2.0845315917
$end

$rem
method                b3lyp
basis                 6-31+g(d,p)
unrestricted          true
symmetry              off
sym_ignore            true
incdft                false
incfock               0
scf_convergence       6
thresh                14
jobtype               sp
scf_guess             read
scf_algorithm         diis
max_scf_cycles        100
stability_analysis    true
max_cis_cycles        100
cis_n_roots           4
$end

--------------------------------------------------------------
 ----------------------------------------------------------------
             Standard Nuclear Orientation (Angstroms)
    I     Atom           X                Y                Z
 ----------------------------------------------------------------
    1      C       1.5220644764     0.3458674627    -0.2659712780
    2      C       0.6261616804    -0.8923488114    -0.0628850116
    3      C      -0.3976347031    -0.5227046610    -1.1413023795
    4      C      -1.0009161738     0.5126632266     0.8106095797
    5      C      -0.5872680970     0.8966071085    -0.6198986006
    6      N       0.8501497357     1.3862781438    -0.5796611249
    7      H       2.6024981005     0.3634926294    -0.1406525372
    8      H       1.1087402191    -1.8690053058    -0.0747627544
    9      H      -1.2181857219    -1.1794632011    -1.4229654464
   10      H      -1.7239916303     1.0481435509     1.4148404578
   11      H      -1.2349965784     1.5908292639    -1.1511280598
   12      C      -0.2716181759    -0.5662072313     1.1492455630
   13      H      -0.2750031321    -1.1141521746     2.0845315917
 ----------------------------------------------------------------
 Nuclear Repulsion Energy =   279.0237319888 hartrees
 There are       25 alpha and       24 beta electrons
 Requested basis set is 6-31+G(d,p)
 There are 53 shells and 163 basis functions

 Total QAlloc Memory Limit   8000 MB
 Mega-Array Size      1956 MB
 MEM_STATIC part      2000 MB

                       Distance Matrix (Angstroms)
             C (  1)   C (  2)   C (  3)   C (  4)   C (  5)   N (  6)
   C (  2)  1.541773
   C (  3)  2.281637  1.532247
   C (  4)  2.748141  2.320438  2.290392
   C (  5)  2.208588  2.232272  1.523899  1.537814
   N (  6)  1.277625  2.347205  2.348749  2.474369  1.519068
   H (  7)  1.087820  2.342881  3.284424  3.729845  3.269327  2.075944
   H (  8)  2.261207  1.089441  2.284556  3.302556  3.289716  3.304340
   H (  9)  3.342789  2.309517  1.088104  2.810579  2.313664  3.401794
   H ( 10)  3.722257  3.387094  3.280343  1.083823  2.335651  3.273924
   H ( 11)  3.151955  3.288519  2.273389  2.250700  1.087980  2.171693
   C ( 12)  2.460085  1.543255  2.294424  1.345552  2.317182  2.838958
   H ( 13)  3.299390  2.339379  3.281898  2.190058  3.384465  3.823093
             H (  7)   H (  8)   H (  9)   H ( 10)   H ( 11)   C ( 12)
   H (  8)  2.686950
   H (  9)  4.315398  2.776275
   H ( 10)  4.648314  4.330479  3.642968
   H ( 11)  4.153767  4.315335  2.783648  2.667924
   C ( 12)  3.284619  2.258510  2.808619  2.187706  3.297366
   H ( 13)  3.926180  2.673406  3.632684  2.687671  4.325275  1.083981

 
 A cutoff of  1.0D-14 yielded   1410 shell pairs
 There are     13528 function pairs
 Smallest overlap matrix eigenvalue = 2.22E-05

 Scale SEOQF with 1.000000e-01/1.000000e-01/1.000000e-01

 Standard Electronic Orientation quadrupole field applied
 Nucleus-field energy     =     0.0000000007 hartrees
 Guess MOs from SCF MO coefficient file
 Reading MOs from coefficient file
 Reading MOs from coefficient file
 An unrestricted hybrid HF-DFT SCF calculation will be
 performed using Pulay DIIS extrapolation
 Exchange:     0.2000 Hartree-Fock + 0.0800 Slater + 0.7200 B88
 Correlation:  0.1900 VWN1RPA + 0.8100 LYP
 Using SG-1 standard quadrature grid
 SCF converges when DIIS error is below 1.0E-06
Using Q-Chem read-in guess as SCF_GUESS READ specified.

 -------------------------------------------------------
 OpenMP BLAS3 based DFT computing Module                
 -------------------------------------------------------
 ---------------------------------------
  Cycle       Energy         DIIS Error
 ---------------------------------------
    1    -286.8734672520      1.66E-09
    2    -286.8734672520      2.12E-09 Convergence criterion met
 ---------------------------------------
 <S^2> = 0.7539
 SCF time:  CPU 6.32 s  wall 6.56 s
 SCF   energy in the final basis set = -286.87346725
 Total energy in the final basis set = -286.87346725
 
 Direct TDDFT/TDA calculation will be performed
 Exchange:     0.2000 Hartree-Fock + 0.0800 Slater + 0.7200 B88
 Correlation:  0.1900 VWN1RPA + 0.8100 LYP
 Using SG-1 standard quadrature grid
 CIS energy converged when residual is below 10e- 6
 ---------------------------------------------------
 Iter    Rts Conv    Rts Left    Ttl Dev     Max Dev
 ---------------------------------------------------
   1         0           4      0.002882    0.001040
   2         0           4      0.001049    0.000335
   3         0           4      0.000952    0.000398
   4         0           4      0.001224    0.000614
   5         0           4      0.000690    0.000461
   6         0           4      0.000236    0.000139
   7         0           4      0.000066    0.000035
   8         1           3      0.000025    0.000014
   9         1           3      0.000010    0.000006
  10         3           1      0.000004    0.000002
  11         4           0      0.000002    0.000001    Roots Converged
 ---------------------------------------------------
 
 ---------------------------------------------------
         TDDFT/TDA Excitation Energies              
 ---------------------------------------------------

 Excited state   1: excitation energy (eV) =    3.0998
 Total energy for state  1:                  -286.75955202 au
    <S**2>     :  1.1520
    Trans. Mom.:  0.0989 X  -0.0489 Y   0.0378 Z
    Strength   :     0.0010330398
    S(  1) --> V(  1) amplitude =  0.9403 alpha
    D( 23) --> V(  1) amplitude =  0.1771 beta
    D( 24) --> V(  1) amplitude = -0.1567 beta

 Excited state   2: excitation energy (eV) =    4.1387
 Total energy for state  2:                  -286.72137310 au
    <S**2>     :  1.7054
    Trans. Mom.: -0.0085 X  -0.0210 Y  -0.0604 Z
    Strength   :     0.0004220629
    D( 22) --> V(  1) amplitude =  0.2025 alpha
    D( 24) --> V(  1) amplitude =  0.2994 alpha
    S(  1) --> V(  1) amplitude = -0.1767 alpha
    S(  1) --> V(  2) amplitude =  0.5108 alpha
    S(  1) --> V(  3) amplitude =  0.2462 alpha
    D( 22) --> V(  1) amplitude = -0.1846 beta
    D( 23) --> S(  1) amplitude = -0.2228 beta
    D( 23) --> V(  3) amplitude = -0.2027 beta
    D( 24) --> S(  1) amplitude = -0.4199 beta
    D( 24) --> V(  1) amplitude = -0.3392 beta

 Excited state   3: excitation energy (eV) =    4.2597
 Total energy for state  3:                  -286.71692514 au
    <S**2>     :  1.7053
    Trans. Mom.: -0.0329 X  -0.0209 Y   0.1337 Z
    Strength   :     0.0020246685
    D( 22) --> V(  1) amplitude =  0.1569 alpha
    D( 24) --> V(  1) amplitude = -0.3373 alpha
    S(  1) --> V(  2) amplitude =  0.4414 alpha
    S(  1) --> V(  3) amplitude =  0.2055 alpha
    D( 22) --> V(  1) amplitude = -0.1668 beta
    D( 23) --> S(  1) amplitude =  0.2258 beta
    D( 23) --> V(  1) amplitude =  0.2920 beta
    D( 24) --> S(  1) amplitude =  0.5502 beta
    D( 24) --> V(  3) amplitude =  0.2258 beta

 Excited state   4: excitation energy (eV) =    4.3722
 Total energy for state  4:                  -286.71279003 au
    <S**2>     :  2.2277
    Trans. Mom.: -0.0506 X  -0.0273 Y  -0.2020 Z
    Strength   :     0.0047245968
    D( 22) --> V(  1) amplitude = -0.2056 alpha
    D( 22) --> V(  2) amplitude =  0.1560 alpha
    D( 23) --> V(  1) amplitude =  0.5346 alpha
    S(  1) --> V(  1) amplitude = -0.2080 alpha
    D( 22) --> S(  1) amplitude =  0.1587 beta
    D( 22) --> V(  1) amplitude =  0.2706 beta
    D( 22) --> V(  3) amplitude =  0.1679 beta
    D( 23) --> S(  1) amplitude =  0.3768 beta
    D( 23) --> V(  1) amplitude =  0.4032 beta
    D( 24) --> S(  1) amplitude = -0.2413 beta
    D( 24) --> V(  1) amplitude = -0.2039 beta
 
 ---------------------------------------------------

 Stability analysis will be performed
 ---------------------------------------------------
 Iter    Rts Conv    Rts Left    Ttl Dev     Max Dev
 ---------------------------------------------------
   1         0           8      0.004529    0.000693
   2         0           8      0.002830    0.000786
   3         0           8      0.000915    0.000257
   4         0           8      0.000435    0.000113
   5         1           7      0.000180    0.000048
   6         1           7      0.000050    0.000015
   7         4           4      0.000016    0.000005
   8         5           3      0.000005    0.000001
   9         8           0      0.000002    0.000000    Roots Converged
 UKS-> UKS   stable,    smallest eigenvalue:      0.0843282
 UKS->CUKS   stable,    smallest eigenvalue:      0.1183271
 ---------------------------------------------------
  SETman timing summary (seconds)
  CPU time               202.30s
  System time              0.00s
  Wall time              204.16s
 
 --------------------------------------------------------------
 
                    Orbital Energies (a.u.)
 --------------------------------------------------------------
 
 Alpha MOs
 -- Occupied --
-14.337 -10.234 -10.231 -10.221 -10.216 -10.213 -10.209  -0.965
 -0.833  -0.737  -0.715  -0.589  -0.583  -0.539  -0.520  -0.481
 -0.429  -0.420  -0.391  -0.383  -0.358  -0.305  -0.283  -0.271
 -0.206
 -- Virtual --
 -0.041   0.002   0.002   0.020   0.026   0.032   0.048   0.049
  0.065   0.072   0.075   0.094   0.104   0.107   0.109   0.120
  0.121   0.131   0.138   0.150   0.169   0.171   0.185   0.190
  0.193   0.199   0.204   0.219   0.230   0.234   0.239   0.248
  0.257   0.268   0.280   0.287   0.303   0.325   0.337   0.342
  0.354   0.392   0.420   0.455   0.616   0.668   0.681   0.702
  0.707   0.717   0.727   0.737   0.746   0.765   0.777   0.789
  0.805   0.832   0.859   0.892   0.898   0.951   0.959   0.994
  1.011   1.026   1.053   1.070   1.083   1.107   1.122   1.144
  1.210   1.288   1.310   1.329   1.359   1.407   1.430   1.481
  1.500   1.576   1.623   1.685   1.744   1.754   1.810   1.829
  1.890   1.898   1.972   1.988   2.032   2.048   2.092   2.113
  2.123   2.172   2.215   2.265   2.290   2.325   2.354   2.396
  2.403   2.449   2.453   2.477   2.496   2.513   2.516   2.558
  2.590   2.605   2.626   2.636   2.686   2.742   2.776   2.791
  2.817   2.866   2.917   3.044   3.109   3.285   3.329   3.388
  3.447   3.541   3.716   4.141   4.375   4.473   4.555   4.613
  4.763   4.826
 
 Beta MOs
 -- Occupied --
-14.336 -10.234 -10.231 -10.221 -10.212 -10.208 -10.202  -0.961
 -0.827  -0.735  -0.700  -0.587  -0.571  -0.536  -0.517  -0.472
 -0.425  -0.416  -0.389  -0.380  -0.352  -0.298  -0.273  -0.268
 -- Virtual --
 -0.064  -0.036   0.003   0.003   0.021   0.029   0.032   0.048
  0.050   0.068   0.073   0.076   0.094   0.105   0.107   0.109
  0.120   0.127   0.132   0.140   0.152   0.170   0.171   0.185
  0.191   0.197   0.200   0.208   0.222   0.233   0.238   0.241
  0.250   0.261   0.270   0.280   0.292   0.308   0.327   0.340
  0.344   0.362   0.393   0.422   0.457   0.619   0.682   0.687
  0.710   0.714   0.725   0.733   0.740   0.750   0.770   0.791
  0.795   0.807   0.835   0.861   0.899   0.905   0.953   0.967
  0.999   1.013   1.029   1.058   1.077   1.084   1.109   1.127
  1.147   1.213   1.292   1.313   1.333   1.363   1.409   1.435
  1.486   1.509   1.584   1.630   1.692   1.747   1.760   1.818
  1.839   1.895   1.911   1.975   1.991   2.047   2.057   2.096
  2.123   2.132   2.174   2.221   2.271   2.305   2.327   2.360
  2.398   2.407   2.453   2.456   2.479   2.498   2.518   2.520
  2.565   2.601   2.611   2.636   2.638   2.689   2.745   2.779
  2.796   2.821   2.870   2.919   3.045   3.111   3.286   3.330
  3.397   3.450   3.542   3.718   4.142   4.385   4.477   4.570
  4.621   4.766   4.827
 --------------------------------------------------------------
 
          Ground-State Mulliken Net Atomic Charges

     Atom                 Charge (a.u.)    Spin (a.u.)
  --------------------------------------------------------
      1 C                    -0.091668      -0.030611
      2 C                     0.008420      -0.061153
      3 C                    -0.271313       1.034031
      4 C                    -0.146823       0.048834
      5 C                     0.024030      -0.089795
      6 N                    -0.202860       0.024627
      7 H                     0.137338      -0.000133
      8 H                     0.124644       0.003504
      9 H                     0.138969      -0.025993
     10 H                     0.138895       0.000589
     11 H                     0.129360       0.003586
     12 C                    -0.127628       0.092304
     13 H                     0.138633       0.000209
  --------------------------------------------------------
  Sum of atomic charges =     0.000000
  Sum of spin   charges =     1.000000

 -----------------------------------------------------------------
                    Cartesian Multipole Moments
 -----------------------------------------------------------------
    Charge (ESU x 10^10)
                 0.0000
    Dipole Moment (Debye)
         X      -0.7528      Y      -2.1349      Z       1.2734
       Tot       2.5973
    Quadrupole Moments (Debye-Ang)
        XX     -38.4775     XY      -4.5588     YY     -44.4169
        XZ       1.3460     YZ       0.6264     ZZ     -42.5946
    Octopole Moments (Debye-Ang^2)
       XXX      -3.3400    XXY      -5.5514    XYY     -11.1000
       YYY     -29.1782    XXZ       3.7749    XYZ       0.5236
       YYZ       6.7481    XZZ      -8.6429    YZZ      -7.9990
       ZZZ      18.9077
    Hexadecapole Moments (Debye-Ang^3)
      XXXX    -243.1457   XXXY      -8.0630   XXYY     -85.8665
      XYYY     -22.4991   YYYY    -256.7066   XXXZ      22.0839
      XXYZ      11.8999   XYYZ      12.9494   YYYZ      24.1422
      XXZZ     -80.3948   XYZZ      -4.9427   YYZZ     -76.2563
      XZZZ      21.8976   YZZZ      12.4186   ZZZZ    -231.0046
 -----------------------------------------------------------------
Archival summary:
1\1\c8-66\SP\ProcedureUnspecified\6-31+G**\166(2)\hpark21\ThuMar321:15:372022ThuMar321:15:372022\0\\#,ProcedureUnspecified,6-31+G**,\\0,2\N\C,1,1.27762\H,2,1.08782,1,122.509\C,1,1.51907,2,103.984,3,-179.173,0\H,4,1.08798,1,111.752,2,-163.253,0\C,4,1.5239,1,101.043,2,-34.3651,0\H,6,1.0881,4,123.841,1,-172.552,0\C,6,1.53225,4,93.843,1,53.2469,0\H,8,1.08944,6,120.303,4,-176.678,0\C,4,1.53781,1,108.081,2,66.6746,0\H,10,1.08382,4,125.079,1,111.008,0\C,10,1.34555,4,106.768,1,-67.3429,0\H,12,1.08398,10,128.372,4,179.112,0\\\@

 Total job time:  211.55s(wall), 208.82s(cpu) 
 Thu Mar  3 21:15:37 2022

        *************************************************************
        *                                                           *
        *  Thank you very much for using Q-Chem.  Have a nice day.  *
        *                                                           *
        *************************************************************


