
Running Job 1 of 1 qcfsm.in
qchem qcfsm.in_18398.0 ./qcfsm.d/ 1
/home/leeping/opt/qchem/5.0.2-openmp/exe/qcprog.exe_s qcfsm.in_18398.0 ./qcfsm.d/
Check license passed

                  Welcome to Q-Chem
     A Quantum Leap Into The Future Of Chemistry


 Q-Chem 5.0, Q-Chem, Inc., Pleasanton, CA (2017)

 Yihan Shao,  Zhengting Gan,  E. Epifanovsky,  A. T. B. Gilbert,  M. Wormit,  
 J. Kussmann,  A. W. Lange,  A. Behn,  Jia Deng,  Xintian Feng,  D. Ghosh,  
 M. Goldey,  P. R. Horn,  L. D. Jacobson,  I. Kaliman,  T. Kus,  A. Landau,  
 Jie Liu,  E. I. Proynov,  R. M. Richard,  R. P. Steele,  E. J. Sundstrom,  
 H. L. Woodcock III,  P. M. Zimmerman,  D. Zuev,  B. Albrecht,  E. Alguire,  
 S. A. Baeppler,  D. Barton,  Z. Benda,  Y. A. Bernard,  E. J. Berquist,  
 K. B. Bravaya,  H. Burton,  D. Casanova,  Chun-Min Chang,  Yunqing Chen,  
 A. Chien,  K. D. Closser,  M. P. Coons,  S. Dasgupta,  A. L. Dempwolff,  
 M. Diedenhofen,  Hainam Do,  R. G. Edgar,  Po-Tung Fang,  S. Fatehi,  
 Qingguo Feng,  J. Fosso-Tande,  Qinghui Ge,  A. Ghysels,  G. Gidofalvi,  
 J. Gomes,  J. Gonthier,  A. Gunina,  M. W. D. Hanson-Heine,  
 P. H. P. Harbach,  A. W. Hauser,  J. E. Herr,  E. G. Hohenstein,  
 Z. C. Holden,  Kerwin Hui,  T.-C. Jagau,  Hyunjun Ji,  B. Kaduk,  
 K. Khistyaev,  Jaehoon Kim,  P. Klunzinger,  K. Koh,  D. Kosenkov,  
 L. Koulias,  T. Kowalczyk,  C. M. Krauter,  A. Kunitsa,  Ka Un Lao,  
 A. Laurent,  K. V. Lawler,  Joonho Lee,  D. Lefrancois,  S. Lehtola,  
 D. S. Levine,  Yi-Pei Li,  You-Sheng Lin,  Fenglai Liu,  E. Livshits,  
 A. Luenser,  P. Manohar,  E. Mansoor,  S. F. Manzer,  Shan-Ping Mao,  
 Yuezhi Mao,  N. Mardirossian,  A. V. Marenich,  T. Markovich,  
 L. A. Martinez-Martinez,  S. A. Maurer,  N. J. Mayhall,  S. C. McKenzie,  
 J.-M. Mewes,  A. F. Morrison,  J. W. Mullinax,  K. Nanda,  
 T. S. Nguyen-Beck,  R. Olivares-Amaya,  J. A. Parkhill,  T. M. Perrine,  
 F. Plasser,  S. Prager,  A. Prociuk,  E. Ramos,  D. R. Rehn,  F. Rob,  
 M. Schneider,  N. Sergueev,  S. M. Sharada,  S. Sharma,  D. W. Small,  
 T. Stauch,  T. Stein,  Yu-Chuan Su,  A. J. W. Thom,  A. Tkatchenko,  
 T. Tsuchimochi,  L. Vogt,  O. Vydrov,  M. A. Watson,  J. Wenzel,  
 M. de Wergifosse,  T. A. Wesolowski,  A. White,  J. Witte,  A. Yamada,  
 Jun Yang,  K. Yao,  S. Yeganeh,  S. R. Yost,  Zhi-Qiang You,  A. Zech,  
 Igor Ying Zhang,  Xing Zhang,  Yan Zhao,  Ying Zhu,  B. R. Brooks,  
 G. K. L. Chan,  C. J. Cramer,  M. S. Gordon,  W. J. Hehre,  A. Klamt,  
 M. W. Schmidt,  C. D. Sherrill,  D. G. Truhlar,  A. Aspuru-Guzik,  R. Baer,  
 A. T. Bell,  N. A. Besley,  Jeng-Da Chai,  R. A. DiStasio Jr.,  A. Dreuw,  
 B. D. Dunietz,  T. R. Furlani,  Chao-Ping Hsu,  Yousung Jung,  Jing Kong,  
 D. S. Lambrecht,  WanZhen Liang,  C. Ochsenfeld,  V. A. Rassolov,  
 L. V. Slipchenko,  J. E. Subotnik,  T. Van Voorhis,  J. M. Herbert,  
 A. I. Krylov,  P. M. W. Gill,  M. Head-Gordon

 Contributors to earlier versions of Q-Chem not listed above: 
 R. D. Adamson,  B. Austin,  J. Baker,  G. J. O. Beran,  K. Brandhorst,  
 S. T. Brown,  E. F. C. Byrd,  A. K. Chakraborty,  C.-L. Cheng,  
 Siu Hung Chien,  D. M. Chipman,  D. L. Crittenden,  H. Dachsel,  
 R. J. Doerksen,  A. D. Dutoi,  L. Fusti-Molnar,  W. A. Goddard III,  
 A. Golubeva-Zadorozhnaya,  S. R. Gwaltney,  G. Hawkins,  A. Heyden,  
 S. Hirata,  G. Kedziora,  F. J. Keil,  C. Kelley,  Jihan Kim,  R. A. King,  
 R. Z. Khaliullin,  P. P. Korambath,  W. Kurlancheek,  A. M. Lee,  M. S. Lee,  
 S. V. Levchenko,  Ching Yeh Lin,  D. Liotard,  R. C. Lochan,  I. Lotan,  
 P. E. Maslen,  N. Nair,  D. P. O'Neill,  D. Neuhauser,  E. Neuscamman,  
 C. M. Oana,  R. Olson,  B. Peters,  R. Peverati,  P. A. Pieniazek,  
 Y. M. Rhee,  J. Ritchie,  M. A. Rohrdanz,  E. Rosta,  N. J. Russ,  
 H. F. Schaefer III,  N. E. Schultz,  N. Shenvi,  A. C. Simmonett,  A. Sodt,  
 D. Stuck,  K. S. Thanthiriwatte,  V. Vanovschi,  Tao Wang,  A. Warshel,  
 C. F. Williams,  Q. Wu,  X. Xu,  W. Zhang

 Please cite Q-Chem as follows:
 Y. Shao et al., Mol. Phys. 113, 184-215 (2015)
 DOI: 10.1080/00268976.2014.952696

 Q-Chem 5.0.2 for Intel X86 EM64T Linux

 Parts of Q-Chem use Armadillo 5.200.1 (Boston Tea Smuggler).
 http://arma.sourceforge.net/

 Q-Chem begins on Thu Mar  3 17:18:15 2022  

Host: 
0

     Scratch files written to ./qcfsm.d//
 Dec517 15110_ 26548  26544 5633   
Processing $rem in /home/leeping/opt/qchem/5.0.2-openmp/config/preferences.
 MEM_STATIC 2000
 MEM_TOTAL  8000
 SYMMETRY   OFF
 SYM_IGNORE TRUE 
 Now reading second FSM geometry

Checking the input file for inconsistencies... 	...done.

--------------------------------------------------------------
User input:
--------------------------------------------------------------
$molecule
0 2
C        1.5196817895    0.3440739078   -0.2649461972
C        0.6224748319   -0.8939218341   -0.0647136388
C       -0.3953703744   -0.5206731519   -1.1472882853
C       -1.0023286462    0.5091940545    0.8086810719
C       -0.5861713701    0.8954094682   -0.6198733192
N        0.8530895815    1.3865087220   -0.5766345126
H        2.6004622616    0.3578332345   -0.1344527725
H        1.1022922546   -1.8726626952   -0.0767669264
H       -1.2213134024   -1.1742516431   -1.4232003148
H       -1.7271370039    1.0439991456    1.4125314193
H       -1.2321738086    1.5929355166   -1.1508801546
C       -0.2722119407   -0.5659090966    1.1475628476
H       -0.2612941731   -1.1025356283    2.0899807822
****
C        1.5752232761    0.3862015484   -0.3519328588
C        0.7979074500   -0.8454910326   -0.0269989389
C       -0.5582847917   -0.6278443232   -0.6149038824
C       -0.8369160272    0.7823840404    0.9479916968
C       -0.5514564849    0.9466617470   -0.5501150078
N        0.8572729289    1.3903281001   -0.6922240316
H        2.6597371001    0.4591219410   -0.2779753897
H        1.2479093777   -1.8332529072   -0.0005100662
H       -1.1140808412   -1.2927537139   -1.2698257331
H       -1.7130670795    1.1632599089    1.4603718003
H       -1.2383617506    1.5310555612   -1.1619888561
C       -0.4362711353   -0.6374050982    0.9165334039
H       -0.6896120224   -1.4222657720    1.6215778637
$end

$rem
method                b3lyp
basis                 6-31g(d)
unrestricted          true
symmetry              off
sym_ignore            true
incdft                false
incfock               0
scf_convergence       8
thresh                14
jobtype               fsm
scf_guess             core
scf_guess_mix         5
scf_algorithm         diis
max_scf_cycles        100
fsm_nnode             21
fsm_ngrad             6
fsm_mode              2
fsm_opt_mode          2
$end

--------------------------------------------------------------
 ----------------------------------------------------------------
             Standard Nuclear Orientation (Angstroms)
    I     Atom           X                Y                Z
 ----------------------------------------------------------------
    1      C       1.5196817895     0.3440739078    -0.2649461972
    2      C       0.6224748319    -0.8939218341    -0.0647136388
    3      C      -0.3953703744    -0.5206731519    -1.1472882853
    4      C      -1.0023286462     0.5091940545     0.8086810719
    5      C      -0.5861713701     0.8954094682    -0.6198733192
    6      N       0.8530895815     1.3865087220    -0.5766345126
    7      H       2.6004622616     0.3578332345    -0.1344527725
    8      H       1.1022922546    -1.8726626952    -0.0767669264
    9      H      -1.2213134024    -1.1742516431    -1.4232003148
   10      H      -1.7271370039     1.0439991456     1.4125314193
   11      H      -1.2321738086     1.5929355166    -1.1508801546
   12      C      -0.2722119407    -0.5659090966     1.1475628476
   13      H      -0.2612941731    -1.1025356283     2.0899807822
 ----------------------------------------------------------------
 Nuclear Repulsion Energy =   279.1132855028 hartrees
 There are       25 alpha and       24 beta electrons
 Requested basis set is 6-31G(d)
 There are 40 shells and 117 basis functions

 Total QAlloc Memory Limit   8000 MB
 Mega-Array Size      1956 MB
 MEM_STATIC part      2000 MB
 beginning FSman 

*******************************************
*******************************************
******** Starting FSM Calculation *********
*******************************************
*******************************************
-FSM parameters:
 Maximum displacement of each coordinate during optimization (Angstrom)      0.05
 Maximum optimization steps for each new node                                6
 The scaling factor for optimization (hartrees/Angstrom^2)                   1.75
 The number of LST interpolations used for reparameterization                100
-Aligning product structure to maximum coincidence with the reactant structure
 Total R --> P Distance 1.111360
 New node interpolation distace (Angstroms): 0.05
-Performing force calculation on reactant structure in state:0
 ----------------------------------------------------------------
             Standard Nuclear Orientation (Angstroms)
    I     Atom           X                Y                Z
 ----------------------------------------------------------------
    1      C       1.5196817895     0.3440739078    -0.2649461972
    2      C       0.6224748319    -0.8939218341    -0.0647136388
    3      C      -0.3953703744    -0.5206731519    -1.1472882853
    4      C      -1.0023286462     0.5091940545     0.8086810719
    5      C      -0.5861713701     0.8954094682    -0.6198733192
    6      N       0.8530895815     1.3865087220    -0.5766345126
    7      H       2.6004622616     0.3578332345    -0.1344527725
    8      H       1.1022922546    -1.8726626952    -0.0767669264
    9      H      -1.2213134024    -1.1742516431    -1.4232003148
   10      H      -1.7271370039     1.0439991456     1.4125314193
   11      H      -1.2321738086     1.5929355166    -1.1508801546
   12      C      -0.2722119407    -0.5659090966     1.1475628476
   13      H      -0.2612941731    -1.1025356283     2.0899807822
 ----------------------------------------------------------------
 Nuclear Repulsion Energy =   279.1132855028 hartrees
 There are       25 alpha and       24 beta electrons

                       Distance Matrix (Angstroms)
             C (  1)   C (  2)   C (  3)   C (  4)   C (  5)   N (  6)
   C (  2)  1.541981
   C (  3)  2.278978  1.532087
   C (  4)  2.745993  2.317658  2.292344
   C (  5)  2.205575  2.229514  1.523109  1.537243
   N (  6)  1.275996  2.348534  2.349817  2.476158  1.521355
   H (  7)  1.088717  2.341834  3.282167  3.727266  3.267913  2.075334
   H (  8)  2.263525  1.090093  2.284050  3.299498  3.287567  3.306685
   H (  9)  3.340647  2.307298  1.088795  2.804147  2.309164  3.402545
   H ( 10)  3.720976  3.385036  3.282450  1.084435  2.335498  3.275922
   H ( 11)  3.149166  3.286935  2.273234  2.251045  1.088958  2.172716
   C ( 12)  2.456447  1.541970  2.298599  1.343041  2.314704  2.837445
   H ( 13)  3.287892  2.338221  3.291877  2.188272  3.382401  3.814188
             H (  7)   H (  8)   H (  9)   H ( 10)   H ( 11)   C ( 12)
   H (  8)  2.687555
   H (  9)  4.314409  2.774852
   H ( 10)  4.646730  4.327886  3.635639
   H ( 11)  4.153035  4.314374  2.780576  2.667845
   C ( 12)  3.278585  2.257399  2.807080  2.186051  3.296206
   H ( 13)  3.907740  2.673436  3.642694  2.686121  4.325662  1.084545

 
 Requested basis set is 6-31G(d)
 There are 40 shells and 117 basis functions
 A cutoff of  1.0D-14 yielded    814 shell pairs
 There are      7086 function pairs
 
 -------------------------------------------------------
 OpenMP Integral Computing Module                       
 Release: version 1.0, May 2013, Q-Chem Inc. Pittsburgh 
 -------------------------------------------------------
 Integral Job Info:
 Integral job number is                      11
 Integral operator is                         1
 short-range coefficients                     0
 long-range coefficients              100000000
 Omega coefficients                           0
 if combine SR and LR in K                    0
 Integral screening is                        0
 Integral computing path is                   2
 max size of driver memory is            800000
 size of driver memory is                593474
 size of scratch memory is              2361544
 max col of scratch BK array               1296
 max len of scratch array in speh3          155
 max len of scratch index in speh4           18
 max int batch size is                      520
 min int batch size is                       52
 fixed nKL is                                52
 max L of basis functions is                  2
 order of int derivative is                   0
 number of shells is                         40
 number of basis is                         117
 number of cartesian basis is               117
 number of contracted shell pairs           814
 number of primitive shell pairs           3589
 maxK2 (contraction) of shell pair           36
 max number of K2 of shell pair               1
 max number of CS2 of shell pair             85
 max number of PS2 of shell pair            390
 mem total for path MDJ                  535308
 -------------------------------------------------------
 Smallest overlap matrix eigenvalue = 1.11E-03

 Scale SEOQF with 1.000000e-01/1.000000e-01/1.000000e-01

 Standard Electronic Orientation quadrupole field applied
 Nucleus-field energy     =     0.0000000007 hartrees
 Guess MOs from core Hamiltonian diagonalization
 Mixing HOMO and LUMO in initial guess
 Adding  50% of the LUMO to the HOMO
 An unrestricted hybrid HF-DFT SCF calculation will be
 performed using Pulay DIIS extrapolation
 Exchange:     0.2000 Hartree-Fock + 0.0800 Slater + 0.7200 B88
 Correlation:  0.1900 VWN1RPA + 0.8100 LYP
 Using SG-1 standard quadrature grid
 SCF converges when DIIS error is below 1.0E-08
 using 4 threads for integral computing
 -------------------------------------------------------
 OpenMP Integral computing Module                
 Release: version 1.0, May 2013, Q-Chem Inc. Pittsburgh 
 -------------------------------------------------------
 -------------------------------------------------------
 OpenMP BLAS3 based DFT computing Module                
 Release: version 1.0, May 2013, Q-Chem Inc. Pittsburgh 
 -------------------------------------------------------
 ---------------------------------------
  Cycle       Energy         DIIS Error
 ---------------------------------------
    1    -235.0576941010      1.38E-01
    2    -230.1599903776      1.00E-01
    3    -251.0296327101      1.10E-01
    4    -282.7601552779      4.18E-02
    5    -282.6523427296      4.16E-02
    6    -286.2723079598      1.59E-02
    7    -286.5140818891      1.13E-02
    8    -286.7803898684      5.38E-03
    9    -286.8419043105      1.93E-03
   10    -286.8491956468      1.11E-03
   11    -286.8511961860      3.15E-04
   12    -286.8515632107      1.01E-04
   13    -286.8516205242      4.96E-05
   14    -286.8516333387      1.27E-05
   15    -286.8516353601      5.52E-06
   16    -286.8516359111      1.45E-06
   17    -286.8516362084      6.27E-07
   18    -286.8516363586      4.42E-07
   19    -286.8516364931      1.75E-07
   20    -286.8516365108      2.21E-08
   21    -286.8516365108      6.29E-09 Convergence criterion met
 ---------------------------------------
 <S^2> = 0.7537
 SCF time:  CPU 50.70 s  wall 13.56 s
 SCF   energy in the final basis set = -286.85163651
 Total energy in the final basis set = -286.85163651
 
 --------------------------------------------------------------
 
                    Orbital Energies (a.u.)
 --------------------------------------------------------------
 
 Alpha MOs
 -- Occupied --
-14.322 -10.223 -10.220 -10.210 -10.204 -10.201 -10.197  -0.952
 -0.821  -0.726  -0.705  -0.579  -0.573  -0.531  -0.512  -0.472
 -0.418  -0.410  -0.381  -0.373  -0.348  -0.294  -0.271  -0.258
 -0.196
 -- Virtual --
 -0.021   0.029   0.103   0.140   0.150   0.154   0.159   0.163
  0.172   0.210   0.215   0.255   0.288   0.322   0.346   0.366
  0.495   0.510   0.532   0.540   0.570   0.599   0.606   0.622
  0.635   0.641   0.655   0.689   0.700   0.729   0.778   0.791
  0.800   0.817   0.825   0.846   0.858   0.876   0.891   0.940
  0.965   1.005   1.059   1.092   1.201   1.264   1.334   1.339
  1.396   1.407   1.487   1.510   1.563   1.611   1.659   1.725
  1.784   1.796   1.827   1.892   1.954   1.986   2.000   2.049
  2.097   2.138   2.172   2.208   2.235   2.276   2.315   2.335
  2.425   2.476   2.515   2.533   2.548   2.618   2.629   2.645
  2.722   2.835   2.856   2.904   2.939   3.922   4.188   4.267
  4.279   4.396   4.543   4.678
 
 Beta MOs
 -- Occupied --
-14.321 -10.224 -10.221 -10.210 -10.200 -10.196 -10.190  -0.949
 -0.815  -0.725  -0.690  -0.577  -0.561  -0.527  -0.509  -0.463
 -0.414  -0.406  -0.379  -0.369  -0.342  -0.287  -0.261  -0.255
 -- Virtual --
 -0.045  -0.016   0.031   0.105   0.143   0.153   0.158   0.160
  0.166   0.176   0.216   0.223   0.267   0.290   0.324   0.349
  0.369   0.497   0.529   0.540   0.544   0.577   0.603   0.611
  0.624   0.641   0.658   0.662   0.693   0.708   0.742   0.782
  0.793   0.810   0.819   0.827   0.848   0.860   0.879   0.894
  0.942   0.973   1.013   1.060   1.099   1.204   1.265   1.338
  1.345   1.401   1.411   1.489   1.513   1.578   1.619   1.665
  1.728   1.793   1.799   1.837   1.910   1.966   1.998   2.003
  2.054   2.119   2.144   2.179   2.224   2.249   2.281   2.317
  2.339   2.428   2.493   2.517   2.542   2.553   2.630   2.636
  2.648   2.729   2.837   2.859   2.906   2.942   3.923   4.190
  4.269   4.307   4.399   4.549   4.679
 --------------------------------------------------------------
 
          Ground-State Mulliken Net Atomic Charges

     Atom                 Charge (a.u.)    Spin (a.u.)
  --------------------------------------------------------
      1 C                     0.092159      -0.008835
      2 C                    -0.245794      -0.043951
      3 C                    -0.096669       0.975962
      4 C                    -0.088110       0.040454
      5 C                    -0.094677      -0.045174
      6 N                    -0.324968       0.022050
      7 H                     0.149647      -0.000174
      8 H                     0.133887       0.002856
      9 H                     0.138918      -0.026655
     10 H                     0.146065       0.000872
     11 H                     0.139817       0.003027
     12 C                    -0.095880       0.079260
     13 H                     0.145606       0.000306
  --------------------------------------------------------
  Sum of atomic charges =     0.000000
  Sum of spin   charges =     1.000000

 -----------------------------------------------------------------
                    Cartesian Multipole Moments
 -----------------------------------------------------------------
    Charge (ESU x 10^10)
                 0.0000
    Dipole Moment (Debye)
         X      -0.7019      Y      -1.9435      Z       1.1715
       Tot       2.3753
    Quadrupole Moments (Debye-Ang)
        XX     -37.5367     XY      -3.9693     YY     -43.0237
        XZ       1.0747     YZ       0.6229     ZZ     -40.9161
    Octopole Moments (Debye-Ang^2)
       XXX      -4.1236    XXY      -5.2798    XYY     -10.0516
       YYY     -26.4765    XXZ       3.8099    XYZ       0.5338
       YYZ       6.4009    XZZ      -7.6016    YZZ      -7.3446
       ZZZ      17.1454
    Hexadecapole Moments (Debye-Ang^3)
      XXXX    -231.9031   XXXY      -5.2923   XXYY     -80.9209
      XYYY     -17.8038   YYYY    -239.6484   XXXZ      19.9933
      XXYZ      10.8974   XYYZ      11.5484   YYYZ      22.9006
      XXZZ     -75.6981   XYZZ      -3.7509   YYZZ     -71.1268
      XZZZ      19.8472   YZZZ      13.1790   ZZZZ    -211.0820
 -----------------------------------------------------------------
 Calculating analytic gradient of the SCF energy
 Gradient of SCF Energy
            1           2           3           4           5           6
    1  -0.0000008  -0.0000289   0.0000078  -0.0000143  -0.0000524   0.0000720
    2   0.0000267  -0.0000323   0.0000054   0.0000511  -0.0000548  -0.0000085
    3  -0.0000094   0.0000199   0.0000215  -0.0000233   0.0000005  -0.0000072
            7           8           9          10          11          12
    1  -0.0000008  -0.0000062   0.0000278  -0.0000180   0.0000339   0.0000105
    2  -0.0000199  -0.0000079   0.0000118   0.0000046   0.0000064   0.0000057
    3   0.0000405   0.0000363  -0.0000143  -0.0000310  -0.0000323  -0.0000142
           13
    1  -0.0000305
    2   0.0000117
    3   0.0000129
 Max gradient component =       7.201E-05
 RMS gradient           =       2.667E-05
 Gradient time:  CPU 7.88 s  wall 2.00 s
-Performing force calculation on product structure in state0
 ----------------------------------------------------------------
             Standard Nuclear Orientation (Angstroms)
    I     Atom           X                Y                Z
 ----------------------------------------------------------------
    1      C       1.5752329370     0.3861994238    -0.3518919464
    2      C       0.7979096418    -0.8454900726    -0.0269642018
    3      C      -0.5582657508    -0.6278535257    -0.6149117736
    4      C      -0.8369450741     0.7823954124     0.9479566667
    5      C      -0.5514419511     0.9466534277    -0.5501438922
    6      N       0.8572908863     1.3903202043    -0.6922176509
    7      H       2.6597444747     0.4591226105    -0.2779037126
    8      H       1.2479124317    -1.8332508443    -0.0004488611
    9      H      -1.1140415264    -1.2927726534    -1.2698409436
   10      H      -1.7131117562     1.1632767245     1.4603059963
   11      H      -1.2383302745     1.5310378668    -1.1620457136
   12      C      -0.4362969074    -0.6373934850     0.9165292123
   13      H      -0.6896571314    -1.4222450889     1.6215768201
 ----------------------------------------------------------------
 Nuclear Repulsion Energy =   281.7707318659 hartrees
 There are       25 alpha and       24 beta electrons

                       Distance Matrix (Angstroms)
             C (  1)   C (  2)   C (  3)   C (  4)   C (  5)   N (  6)
   C (  2)  1.492270
   C (  3)  2.376826  1.494075
   C (  4)  2.768606  2.504642  2.123446
   C (  5)  2.208203  2.303529  1.575853  1.533883
   N (  6)  1.280438  2.333439  2.466334  2.435196  1.483763
   H (  7)  1.089476  2.287228  3.413309  3.719419  3.259374  2.070658
   H (  8)  2.270817  1.085761  2.256729  3.476738  3.356741  3.320021
   H (  9)  3.300572  2.323868  1.086249  3.049874  2.418576  3.379170
   H ( 10)  3.834204  3.542929  2.974617  1.084085  2.332019  3.360339
   H ( 11)  3.143747  3.329049  2.328660  2.274574  1.089837  2.152247
   C ( 12)  2.588993  1.567402  1.536320  1.475570  2.161849  2.893624
   H ( 13)  3.506391  2.294164  2.377016  2.309956  3.216699  3.956920
             H (  7)   H (  8)   H (  9)   H ( 10)   H ( 11)   C ( 12)
   H (  8)  2.706516
   H (  9)  4.277211  2.735379
   H ( 10)  4.758054  4.458772  3.720856
   H ( 11)  4.138320  4.341561  2.828599  2.690241
   C ( 12)  3.494923  2.259974  2.380982  2.273403  3.108991
   H ( 13)  4.285564  2.560092  2.925263  2.785389  4.095299  1.085023

 
 Applying Cartesian multipole field
    Component          Value
    ---------          -----
     (2,0,0)        1.00000E-11
     (0,2,0)        2.00000E-11
     (0,0,2)       -3.00000E-11
 Nucleus-field energy     =     0.0000000020 hartrees
 Requested basis set is 6-31G(d)
 There are 40 shells and 117 basis functions
 A cutoff of  1.0D-14 yielded    811 shell pairs
 There are      7083 function pairs
 Smallest overlap matrix eigenvalue = 1.32E-03
 Guess MOs from core Hamiltonian diagonalization
 Mixing HOMO and LUMO in initial guess
 Adding  50% of the LUMO to the HOMO
 An unrestricted hybrid HF-DFT SCF calculation will be
 performed using Pulay DIIS extrapolation
 Exchange:     0.2000 Hartree-Fock + 0.0800 Slater + 0.7200 B88
 Correlation:  0.1900 VWN1RPA + 0.8100 LYP
 Using SG-1 standard quadrature grid
 SCF converges when DIIS error is below 1.0E-08
 using 4 threads for integral computing
 -------------------------------------------------------
 OpenMP Integral computing Module                
 Release: version 1.0, May 2013, Q-Chem Inc. Pittsburgh 
 -------------------------------------------------------
 -------------------------------------------------------
 OpenMP BLAS3 based DFT computing Module                
 Release: version 1.0, May 2013, Q-Chem Inc. Pittsburgh 
 -------------------------------------------------------
 ---------------------------------------
  Cycle       Energy         DIIS Error
 ---------------------------------------
    1    -236.8039285306      1.34E-01
    2    -233.5711007629      1.04E-01
    3    -266.7815444995      8.38E-02
    4    -270.6720877116      8.40E-02
    5    -283.1084592624      4.02E-02
    6    -285.8711356301      2.32E-02
    7    -286.3779002032      1.33E-02
    8    -286.7233582709      7.90E-03
    9    -286.8205337657      2.70E-03
   10    -286.8339264994      1.16E-03
   11    -286.8363018695      1.60E-04
   12    -286.8364506417      7.78E-05
   13    -286.8364740229      3.47E-05
   14    -286.8364788194      8.67E-06
   15    -286.8364796397      3.44E-06
   16    -286.8364797513      1.10E-06
   17    -286.8364797600      5.35E-07
   18    -286.8364797631      1.11E-07
   19    -286.8364797641      2.44E-08
   20    -286.8364797646      9.41E-09 Convergence criterion met
 ---------------------------------------
 <S^2> = 0.7545
 SCF time:  CPU 47.49 s  wall 12.11 s
 SCF   energy in the final basis set = -286.83647976
 Total energy in the final basis set = -286.83647976
 
 --------------------------------------------------------------
 
                    Orbital Energies (a.u.)
 --------------------------------------------------------------
 
 Alpha MOs
 -- Occupied --
-14.317 -10.220 -10.220 -10.215 -10.212 -10.211 -10.194  -0.964
 -0.858  -0.746  -0.657  -0.608  -0.574  -0.540  -0.512  -0.463
 -0.429  -0.412  -0.388  -0.366  -0.329  -0.315  -0.266  -0.256
 -0.174
 -- Virtual --
 -0.002   0.090   0.109   0.136   0.145   0.151   0.156   0.167
  0.183   0.200   0.214   0.244   0.277   0.326   0.369   0.378
  0.485   0.517   0.527   0.550   0.557   0.573   0.587   0.601
  0.617   0.620   0.668   0.677   0.704   0.754   0.776   0.791
  0.816   0.830   0.837   0.842   0.853   0.881   0.905   0.935
  0.946   1.018   1.072   1.099   1.154   1.245   1.280   1.366
  1.438   1.454   1.504   1.544   1.613   1.652   1.671   1.707
  1.796   1.810   1.872   1.886   1.914   1.937   2.002   2.021
  2.060   2.152   2.181   2.228   2.257   2.291   2.368   2.420
  2.474   2.485   2.510   2.523   2.580   2.616   2.619   2.683
  2.734   2.789   2.832   2.929   2.959   3.951   4.131   4.240
  4.356   4.475   4.518   4.656
 
 Beta MOs
 -- Occupied --
-14.317 -10.221 -10.220 -10.216 -10.211 -10.210 -10.181  -0.961
 -0.854  -0.737  -0.646  -0.602  -0.571  -0.538  -0.501  -0.461
 -0.425  -0.406  -0.384  -0.362  -0.317  -0.303  -0.262  -0.254
 -- Virtual --
 -0.036   0.004   0.092   0.114   0.139   0.149   0.155   0.158
  0.171   0.187   0.202   0.218   0.247   0.284   0.329   0.374
  0.387   0.487   0.524   0.542   0.553   0.562   0.576   0.592
  0.613   0.620   0.642   0.671   0.688   0.707   0.758   0.779
  0.795   0.817   0.836   0.838   0.843   0.856   0.884   0.908
  0.943   0.948   1.025   1.080   1.111   1.156   1.252   1.285
  1.369   1.445   1.458   1.511   1.548   1.616   1.656   1.681
  1.713   1.799   1.824   1.881   1.894   1.929   1.942   2.009
  2.029   2.074   2.160   2.195   2.234   2.268   2.298   2.382
  2.432   2.482   2.489   2.518   2.528   2.586   2.620   2.625
  2.687   2.741   2.793   2.840   2.931   2.960   3.954   4.137
  4.253   4.365   4.479   4.522   4.659
 --------------------------------------------------------------
 
          Ground-State Mulliken Net Atomic Charges

     Atom                 Charge (a.u.)    Spin (a.u.)
  --------------------------------------------------------
      1 C                     0.096710       0.006815
      2 C                    -0.192782       0.036913
      3 C                    -0.106639       0.107563
      4 C                    -0.071145       0.952535
      5 C                    -0.099588      -0.043516
      6 N                    -0.337405       0.012572
      7 H                     0.143774       0.003955
      8 H                     0.148717       0.001432
      9 H                     0.149506       0.008560
     10 H                     0.139521      -0.039501
     11 H                     0.141841       0.005463
     12 C                    -0.162104      -0.053170
     13 H                     0.149594       0.000379
  --------------------------------------------------------
  Sum of atomic charges =    -0.000000
  Sum of spin   charges =     1.000000

 -----------------------------------------------------------------
                    Cartesian Multipole Moments
 -----------------------------------------------------------------
    Charge (ESU x 10^10)
                -0.0000
    Dipole Moment (Debye)
         X      -0.9317      Y      -2.6583      Z       0.3127
       Tot       2.8341
    Quadrupole Moments (Debye-Ang)
        XX     -37.3012     XY      -3.2023     YY     -42.7870
        XZ       0.7476     YZ       0.7441     ZZ     -41.1774
    Octopole Moments (Debye-Ang^2)
       XXX      -5.0131    XXY      -6.9104    XYY     -10.4892
       YYY     -33.1987    XXZ       2.1278    XYZ       1.6604
       YYZ       4.5833    XZZ      -9.1224    YZZ      -9.9416
       ZZZ       5.8372
    Hexadecapole Moments (Debye-Ang^3)
      XXXX    -244.5238   XXXY      -7.0729   XXYY     -85.9927
      XYYY     -19.5072   YYYY    -262.3189   XXXZ      28.0111
      XXYZ      10.0490   XYYZ      14.9950   YYYZ      22.5761
      XXZZ     -70.7942   XYZZ      -3.4596   YYZZ     -70.0771
      XZZZ      30.7730   YZZZ      17.5179   ZZZZ    -169.3074
 -----------------------------------------------------------------
 Calculating analytic gradient of the SCF energy
 Gradient of SCF Energy
            1           2           3           4           5           6
    1   0.0000139  -0.0000061   0.0000768   0.0001580  -0.0001364  -0.0000465
    2  -0.0000399   0.0000719  -0.0000575   0.0000953   0.0000399  -0.0000340
    3  -0.0001276   0.0000797  -0.0000089   0.0001047  -0.0000145   0.0000109
            7           8           9          10          11          12
    1  -0.0000026  -0.0000288  -0.0000031  -0.0000531   0.0000018   0.0000390
    2  -0.0000021  -0.0000165   0.0000335  -0.0000351   0.0000020  -0.0000931
    3   0.0000186   0.0000445  -0.0000306  -0.0000591   0.0000006  -0.0000471
           13
    1  -0.0000127
    2   0.0000355
    3   0.0000288
 Max gradient component =       1.580E-04
 RMS gradient           =       5.894E-05
 Gradient time:  CPU 7.87 s  wall 2.00 s

STARTING FREEZING STRING ITERATION # 1
 The distance between the innermost nodes (Angstroms): 1.111
-Adding two new nodes
 The distance between the previous and current R_nodes (Angstroms): 0.0552
 The distance between the previous and current P_nodes (Angstroms): 0.0547
-Optimizing new reactant side node
 Using BFGS, step: 2 E_tol 0.0152
 max_steps 6, node_spacing 0.0529, sigma 0.7000
 ----------------------------------------------------------------
             Standard Nuclear Orientation (Angstroms)
    I     Atom           X                Y                Z
 ----------------------------------------------------------------
    1      C       1.5228908523     0.3467205901    -0.2692040574
    2      C       0.6335063007    -0.8921209865    -0.0631469436
    3      C      -0.4034464910    -0.5263321545    -1.1232695976
    4      C      -0.9954986128     0.5252432336     0.8145270707
    5      C      -0.5843201068     0.8993483765    -0.6166329137
    6      N       0.8539109000     1.3874491617    -0.5823376216
    7      H       2.6040014070     0.3632011968    -0.1415951243
    8      H       1.1109339293    -1.8716597684    -0.0736766646
    9      H      -1.2199709949    -1.1830783121    -1.4153369470
   10      H      -1.7276274713     1.0517126327     1.4160285991
   11      H      -1.2329404850     1.5909022263    -1.1521569454
   12      C      -0.2804021956    -0.5716390108     1.1358724784
   13      H      -0.2827868126    -1.1211869604     2.0708493150
 ----------------------------------------------------------------
 Nuclear Repulsion Energy =   279.2163547642 hartrees
 There are       25 alpha and       24 beta electrons

                       Distance Matrix (Angstroms)
             C (  1)   C (  2)   C (  3)   C (  4)   C (  5)   N (  6)
   C (  2)  1.538893
   C (  3)  2.280882  1.527394
   C (  4)  2.747477  2.330856  2.282847
   C (  5)  2.206001  2.235802  1.523798  1.535331
   N (  6)  1.276206  2.348314  2.352895  2.472842  1.519186
   H (  7)  1.088740  2.337699  3.286289  3.727845  3.267799  2.075128
   H (  8)  2.264763  1.089745  2.281425  3.312266  3.293505  3.308563
   H (  9)  3.343231  2.312672  1.087810  2.817986  2.319155  3.406242
   H ( 10)  3.728658  3.397264  3.269819  1.083968  2.337109  3.281848
   H ( 11)  3.149952  3.291652  2.274110  2.249412  1.088917  2.172794
   C ( 12)  2.463634  1.541293  2.262944  1.348249  2.308126  2.841996
   H ( 13)  3.300163  2.333668  3.251278  2.190214  3.375803  3.824230
             H (  7)   H (  8)   H (  9)   H ( 10)   H ( 11)   C ( 12)
   H (  8)  2.688581
   H (  9)  4.316962  2.776205
   H ( 10)  4.654379  4.338520  3.642614
   H ( 11)  4.153385  4.318125  2.786467  2.670397
   C ( 12)  3.290233  2.255854  2.786632  2.192765  3.289224
   H ( 13)  3.928341  2.665457  3.610490  2.690325  4.318100  1.084523

 
 Applying Cartesian multipole field
    Component          Value
    ---------          -----
     (2,0,0)        1.00000E-11
     (0,2,0)        2.00000E-11
     (0,0,2)       -3.00000E-11
 Nucleus-field energy     =     0.0000000007 hartrees
 Requested basis set is 6-31G(d)
 There are 40 shells and 117 basis functions
 A cutoff of  1.0D-14 yielded    814 shell pairs
 There are      7086 function pairs
 Smallest overlap matrix eigenvalue = 1.10E-03
 Guess MOs from core Hamiltonian diagonalization
 Mixing HOMO and LUMO in initial guess
 Adding  50% of the LUMO to the HOMO
 An unrestricted hybrid HF-DFT SCF calculation will be
 performed using Pulay DIIS extrapolation
 Exchange:     0.2000 Hartree-Fock + 0.0800 Slater + 0.7200 B88
 Correlation:  0.1900 VWN1RPA + 0.8100 LYP
 Using SG-1 standard quadrature grid
 SCF converges when DIIS error is below 1.0E-08
 using 4 threads for integral computing
 -------------------------------------------------------
 OpenMP Integral computing Module                
 Release: version 1.0, May 2013, Q-Chem Inc. Pittsburgh 
 -------------------------------------------------------
 -------------------------------------------------------
 OpenMP BLAS3 based DFT computing Module                
 Release: version 1.0, May 2013, Q-Chem Inc. Pittsburgh 
 -------------------------------------------------------
 ---------------------------------------
  Cycle       Energy         DIIS Error
 ---------------------------------------
    1    -235.4750634973      1.38E-01
    2    -229.1089869034      1.01E-01
    3    -251.7903171117      1.07E-01
    4    -283.4499725618      4.06E-02
    5    -283.2638573030      3.71E-02
    6    -286.5747211018      1.16E-02
    7    -286.6302539707      1.09E-02
    8    -286.8249841313      4.04E-03
    9    -286.8462760106      1.66E-03
   10    -286.8508750329      3.95E-04
   11    -286.8510933809      1.93E-04
   12    -286.8511593408      2.70E-05
   13    -286.8511618399      1.26E-05
   14    -286.8511623962      3.04E-06
   15    -286.8511626223      1.02E-06
   16    -286.8511627291      5.53E-07
   17    -286.8511627667      3.70E-07
   18    -286.8511627910      1.94E-07
   19    -286.8511628031      6.10E-08
   20    -286.8511628054      1.22E-08
   21    -286.8511628055      2.49E-09 Convergence criterion met
 ---------------------------------------
 <S^2> = 0.7537
 SCF time:  CPU 50.35 s  wall 13.47 s
 SCF   energy in the final basis set = -286.85116281
 Total energy in the final basis set = -286.85116281
 
 --------------------------------------------------------------
 
                    Orbital Energies (a.u.)
 --------------------------------------------------------------
 
 Alpha MOs
 -- Occupied --
-14.321 -10.224 -10.220 -10.210 -10.202 -10.202 -10.198  -0.953
 -0.822  -0.727  -0.702  -0.580  -0.573  -0.531  -0.512  -0.471
 -0.418  -0.410  -0.381  -0.376  -0.347  -0.294  -0.272  -0.258
 -0.190
 -- Virtual --
 -0.021   0.028   0.103   0.140   0.150   0.154   0.158   0.164
  0.173   0.211   0.215   0.257   0.289   0.320   0.347   0.366
  0.494   0.507   0.532   0.539   0.572   0.597   0.607   0.622
  0.636   0.643   0.655   0.689   0.701   0.731   0.778   0.791
  0.803   0.819   0.824   0.847   0.858   0.875   0.890   0.939
  0.969   1.005   1.054   1.093   1.198   1.261   1.331   1.338
  1.397   1.402   1.488   1.507   1.570   1.615   1.657   1.727
  1.781   1.797   1.831   1.892   1.965   1.986   2.002   2.047
  2.100   2.135   2.167   2.209   2.236   2.277   2.315   2.339
  2.420   2.473   2.517   2.541   2.555   2.621   2.631   2.644
  2.722   2.832   2.855   2.905   2.941   3.923   4.185   4.267
  4.286   4.398   4.539   4.681
 
 Beta MOs
 -- Occupied --
-14.321 -10.224 -10.221 -10.210 -10.200 -10.197 -10.188  -0.949
 -0.816  -0.726  -0.688  -0.578  -0.561  -0.527  -0.509  -0.462
 -0.414  -0.406  -0.379  -0.373  -0.342  -0.286  -0.261  -0.255
 -- Virtual --
 -0.040  -0.016   0.030   0.104   0.143   0.154   0.158   0.160
  0.166   0.176   0.216   0.224   0.269   0.291   0.323   0.350
  0.369   0.496   0.528   0.538   0.545   0.579   0.601   0.612
  0.624   0.641   0.658   0.667   0.693   0.708   0.745   0.782
  0.793   0.813   0.821   0.826   0.850   0.860   0.878   0.893
  0.941   0.976   1.014   1.056   1.100   1.202   1.263   1.335
  1.344   1.403   1.405   1.491   1.510   1.584   1.623   1.664
  1.731   1.790   1.799   1.839   1.912   1.972   1.999   2.008
  2.054   2.122   2.140   2.173   2.226   2.251   2.282   2.317
  2.343   2.424   2.491   2.519   2.547   2.562   2.631   2.640
  2.647   2.729   2.834   2.858   2.906   2.943   3.924   4.187
  4.270   4.313   4.400   4.545   4.682
 --------------------------------------------------------------
 
          Ground-State Mulliken Net Atomic Charges

     Atom                 Charge (a.u.)    Spin (a.u.)
  --------------------------------------------------------
      1 C                     0.094071      -0.006927
      2 C                    -0.243653      -0.044587
      3 C                    -0.099444       0.976619
      4 C                    -0.085251       0.049797
      5 C                    -0.095874      -0.045930
      6 N                    -0.325531       0.019085
      7 H                     0.149776      -0.000267
      8 H                     0.134785       0.003035
      9 H                     0.139206      -0.029378
     10 H                     0.147094       0.000214
     11 H                     0.140044       0.003136
     12 C                    -0.099932       0.073908
     13 H                     0.144710       0.001295
  --------------------------------------------------------
  Sum of atomic charges =     0.000000
  Sum of spin   charges =     1.000000

 -----------------------------------------------------------------
                    Cartesian Multipole Moments
 -----------------------------------------------------------------
    Charge (ESU x 10^10)
                -0.0000
    Dipole Moment (Debye)
         X      -0.7146      Y      -1.9513      Z       1.1708
       Tot       2.3852
    Quadrupole Moments (Debye-Ang)
        XX     -37.4655     XY      -3.9776     YY     -42.9360
        XZ       1.0340     YZ       0.6456     ZZ     -41.0143
    Octopole Moments (Debye-Ang^2)
       XXX      -4.2110    XXY      -5.3326    XYY     -10.1214
       YYY     -26.7903    XXZ       3.7582    XYZ       0.5453
       YYZ       6.3844    XZZ      -7.7333    YZZ      -7.3754
       ZZZ      16.6962
    Hexadecapole Moments (Debye-Ang^3)
      XXXX    -232.3158   XXXY      -5.4112   XXYY     -81.1264
      XYYY     -17.9039   YYYY    -240.8307   XXXZ      20.3354
      XXYZ      10.9780   XYYZ      11.7093   YYYZ      23.0409
      XXZZ     -75.2746   XYZZ      -3.7368   YYZZ     -70.9085
      XZZZ      20.2897   YZZZ      13.4665   ZZZZ    -209.2286
 -----------------------------------------------------------------
 Calculating analytic gradient of the SCF energy
 Gradient of SCF Energy
            1           2           3           4           5           6
    1  -0.0000610   0.0052340  -0.0023501  -0.0018605  -0.0001773  -0.0002793
    2  -0.0005366  -0.0001662  -0.0014195   0.0072309   0.0007093   0.0000241
    3  -0.0001772  -0.0008041   0.0087019   0.0003160  -0.0002571  -0.0000245
            7           8           9          10          11          12
    1   0.0000248  -0.0000721   0.0005339  -0.0003354  -0.0001491  -0.0005431
    2  -0.0000177  -0.0000109  -0.0002278  -0.0000581  -0.0000511  -0.0054235
    3   0.0001013   0.0000992  -0.0013342  -0.0004563   0.0001059  -0.0057860
           13
    1   0.0000352
    2  -0.0000530
    3  -0.0004848
 Max gradient component =       8.702E-03
 RMS gradient           =       2.450E-03
 Gradient time:  CPU 7.85 s  wall 2.00 s
 ----------------------------------------------------------------
             Standard Nuclear Orientation (Angstroms)
    I     Atom           X                Y                Z
 ----------------------------------------------------------------
    1      C       1.5261322303     0.3518843135    -0.2716222516
    2      C       0.6158965369    -0.8896426624    -0.0575657417
    3      C      -0.3978920810    -0.5237344340    -1.1482695976
    4      C      -0.9799755849     0.5015111167     0.8177466213
    5      C      -0.5815467429     0.8991409849    -0.6127789565
    6      N       0.8563011448     1.3882106431    -0.5869162304
    7      H       2.6070564986     0.3679276535    -0.1477512536
    8      H       1.1187778348    -1.8707232027    -0.0714973368
    9      H      -1.2214070154    -1.1893496411    -1.4016894790
   10      H      -1.7264639998     1.0586991154     1.4210170115
   11      H      -1.2324704434     1.5895641857    -1.1540890575
   12      C      -0.2847664126    -0.5482827970     1.1561603416
   13      H      -0.3013917588    -1.1366450227     2.0571763547
 ----------------------------------------------------------------
 Nuclear Repulsion Energy =   279.2593365366 hartrees
 There are       25 alpha and       24 beta electrons

                       Distance Matrix (Angstroms)
             C (  1)   C (  2)   C (  3)   C (  4)   C (  5)   N (  6)
   C (  2)  1.554265
   C (  3)  2.288469  1.533392
   C (  4)  2.736730  2.290914  2.292416
   C (  5)  2.204130  2.223034  1.531357  1.537289
   N (  6)  1.273600  2.350877  2.354496  2.476131  1.518968
   H (  7)  1.088117  2.356764  3.290261  3.717100  3.265827  2.073400
   H (  8)  2.268473  1.102544  2.296542  3.289835  3.294880  3.309864
   H (  9)  3.346853  2.296122  1.088780  2.800571  2.322411  3.409479
   H ( 10)  3.734166  3.386576  3.297034  1.109792  2.339363  3.288016
   H ( 11)  3.149681  3.281050  2.272132  2.266219  1.092430  2.173751
   C ( 12)  2.475524  1.549468  2.307336  1.303805  2.304834  2.844355
   H ( 13)  3.313437  2.318310  3.264943  2.163381  3.369210  3.834889
             H (  7)   H (  8)   H (  9)   H ( 10)   H ( 11)   C ( 12)
   H (  8)  2.689302
   H (  9)  4.319098  2.776715
   H ( 10)  4.660214  4.347932  3.643690
   H ( 11)  4.152960  4.321338  2.789945  2.675260
   C ( 12)  3.301858  2.286029  2.798367  2.175094  3.287215
   H ( 13)  3.947723  2.662143  3.579519  2.693523  4.314087  1.076232

 
 Applying Cartesian multipole field
    Component          Value
    ---------          -----
     (2,0,0)        1.00000E-11
     (0,2,0)        2.00000E-11
     (0,0,2)       -3.00000E-11
 Nucleus-field energy     =     0.0000000007 hartrees
 Requested basis set is 6-31G(d)
 There are 40 shells and 117 basis functions
 A cutoff of  1.0D-14 yielded    814 shell pairs
 There are      7086 function pairs
 Smallest overlap matrix eigenvalue = 1.04E-03
 Guess MOs from core Hamiltonian diagonalization
 Mixing HOMO and LUMO in initial guess
 Adding  50% of the LUMO to the HOMO
 An unrestricted hybrid HF-DFT SCF calculation will be
 performed using Pulay DIIS extrapolation
 Exchange:     0.2000 Hartree-Fock + 0.0800 Slater + 0.7200 B88
 Correlation:  0.1900 VWN1RPA + 0.8100 LYP
 Using SG-1 standard quadrature grid
 SCF converges when DIIS error is below 1.0E-08
 using 4 threads for integral computing
 -------------------------------------------------------
 OpenMP Integral computing Module                
 Release: version 1.0, May 2013, Q-Chem Inc. Pittsburgh 
 -------------------------------------------------------
 -------------------------------------------------------
 OpenMP BLAS3 based DFT computing Module                
 Release: version 1.0, May 2013, Q-Chem Inc. Pittsburgh 
 -------------------------------------------------------
 ---------------------------------------
  Cycle       Energy         DIIS Error
 ---------------------------------------
    1    -234.9597303586      1.38E-01
    2    -230.4204250669      1.00E-01
    3    -250.1880375568      1.12E-01
    4    -282.5069566384      4.29E-02
    5    -282.5566418423      4.25E-02
    6    -286.3098946331      1.53E-02
    7    -286.5765406550      1.07E-02
    8    -286.8181649579      3.63E-03
    9    -286.8421900658      1.77E-03
   10    -286.8485030238      2.55E-04
   11    -286.8487192690      1.63E-04
   12    -286.8487899514      8.25E-05
   13    -286.8488086430      4.26E-05
   14    -286.8488151352      8.26E-06
   15    -286.8488163140      3.15E-06
   16    -286.8488165921      1.06E-06
   17    -286.8488167343      3.88E-07
   18    -286.8488168012      2.70E-07
   19    -286.8488168530      1.14E-07
   20    -286.8488168602      1.30E-08
   21    -286.8488168602      4.35E-09 Convergence criterion met
 ---------------------------------------
 <S^2> = 0.7536
 SCF time:  CPU 50.80 s  wall 14.07 s
 SCF   energy in the final basis set = -286.84881686
 Total energy in the final basis set = -286.84881686
 
 --------------------------------------------------------------
 
                    Orbital Energies (a.u.)
 --------------------------------------------------------------
 
 Alpha MOs
 -- Occupied --
-14.321 -10.223 -10.221 -10.211 -10.205 -10.197 -10.196  -0.953
 -0.825  -0.723  -0.708  -0.577  -0.573  -0.532  -0.507  -0.470
 -0.423  -0.410  -0.384  -0.369  -0.343  -0.295  -0.276  -0.257
 -0.199
 -- Virtual --
 -0.017   0.032   0.099   0.139   0.149   0.152   0.158   0.163
  0.172   0.208   0.215   0.252   0.288   0.329   0.345   0.373
  0.487   0.510   0.531   0.539   0.568   0.602   0.608   0.622
  0.638   0.643   0.655   0.687   0.700   0.729   0.781   0.790
  0.801   0.816   0.828   0.840   0.863   0.876   0.891   0.934
  0.965   1.004   1.072   1.090   1.200   1.264   1.325   1.346
  1.395   1.411   1.494   1.519   1.570   1.609   1.657   1.723
  1.784   1.791   1.821   1.889   1.947   1.987   2.006   2.045
  2.094   2.153   2.181   2.211   2.235   2.286   2.316   2.333
  2.454   2.470   2.514   2.524   2.555   2.614   2.627   2.651
  2.731   2.840   2.872   2.921   2.946   3.921   4.187   4.265
  4.276   4.395   4.542   4.678
 
 Beta MOs
 -- Occupied --
-14.321 -10.223 -10.221 -10.211 -10.196 -10.195 -10.191  -0.949
 -0.820  -0.721  -0.693  -0.576  -0.560  -0.528  -0.504  -0.461
 -0.419  -0.406  -0.382  -0.365  -0.337  -0.288  -0.266  -0.255
 -- Virtual --
 -0.046  -0.011   0.034   0.101   0.142   0.152   0.158   0.159
  0.165   0.175   0.214   0.223   0.265   0.290   0.331   0.348
  0.376   0.489   0.530   0.538   0.546   0.574   0.608   0.612
  0.626   0.643   0.658   0.662   0.692   0.707   0.742   0.785
  0.792   0.812   0.818   0.829   0.843   0.866   0.879   0.894
  0.936   0.973   1.013   1.074   1.097   1.203   1.265   1.329
  1.351   1.400   1.415   1.497   1.522   1.585   1.616   1.663
  1.727   1.791   1.794   1.831   1.908   1.959   2.001   2.010
  2.051   2.118   2.161   2.185   2.227   2.250   2.291   2.318
  2.337   2.458   2.485   2.516   2.537   2.560   2.624   2.635
  2.654   2.739   2.841   2.875   2.923   2.949   3.922   4.189
  4.271   4.300   4.397   4.548   4.679
 --------------------------------------------------------------
 
          Ground-State Mulliken Net Atomic Charges

     Atom                 Charge (a.u.)    Spin (a.u.)
  --------------------------------------------------------
      1 C                     0.089190      -0.007748
      2 C                    -0.248914      -0.043539
      3 C                    -0.096826       0.979425
      4 C                    -0.086832       0.039536
      5 C                    -0.094040      -0.043798
      6 N                    -0.324359       0.020516
      7 H                     0.149414      -0.000179
      8 H                     0.130844       0.002626
      9 H                     0.138895      -0.025705
     10 H                     0.143520       0.000189
     11 H                     0.139526       0.002542
     12 C                    -0.086021       0.077012
     13 H                     0.145601      -0.000878
  --------------------------------------------------------
  Sum of atomic charges =    -0.000000
  Sum of spin   charges =     1.000000

 -----------------------------------------------------------------
                    Cartesian Multipole Moments
 -----------------------------------------------------------------
    Charge (ESU x 10^10)
                -0.0000
    Dipole Moment (Debye)
         X      -0.7352      Y      -1.9634      Z       1.1809
       Tot       2.4062
    Quadrupole Moments (Debye-Ang)
        XX     -37.5217     XY      -3.8094     YY     -42.9865
        XZ       1.0283     YZ       0.5614     ZZ     -41.0157
    Octopole Moments (Debye-Ang^2)
       XXX      -4.2085    XXY      -5.4735    XYY     -10.2604
       YYY     -26.9519    XXZ       3.7417    XYZ       0.7204
       YYZ       6.6181    XZZ      -7.6876    YZZ      -7.5349
       ZZZ      16.7995
    Hexadecapole Moments (Debye-Ang^3)
      XXXX    -231.6181   XXXY      -5.6573   XXYY     -80.8853
      XYYY     -18.2424   YYYY    -240.2551   XXXZ      20.6609
      XXYZ      10.7295   XYYZ      11.7493   YYYZ      22.7728
      XXZZ     -75.8911   XYZZ      -3.8874   YYZZ     -71.0871
      XZZZ      20.5203   YZZZ      13.0621   ZZZZ    -212.6256
 -----------------------------------------------------------------
 Calculating analytic gradient of the SCF energy
 Gradient of SCF Energy
            1           2           3           4           5           6
    1   0.0040736  -0.0102546  -0.0022549   0.0394120  -0.0006414   0.0022288
    2   0.0065451   0.0034253  -0.0012900  -0.0477405   0.0021973  -0.0031540
    3  -0.0019410   0.0030287  -0.0049254   0.0008337   0.0060554   0.0002309
            7           8           9          10          11          12
    1  -0.0003725   0.0053464   0.0010278  -0.0104769  -0.0007842  -0.0272425
    2   0.0004249  -0.0060994  -0.0011151   0.0085187   0.0005010   0.0376460
    3  -0.0000980  -0.0012629   0.0008474   0.0079926  -0.0033142  -0.0007894
           13
    1  -0.0000616
    2   0.0001406
    3  -0.0066579
 Max gradient component =       4.774E-02
 RMS gradient           =       1.305E-02
 Gradient time:  CPU 7.76 s  wall 1.99 s
WARNING!!!!! energy has increased from optimization step!
 ----------------------------------------------------------------
             Standard Nuclear Orientation (Angstroms)
    I     Atom           X                Y                Z
 ----------------------------------------------------------------
    1      C       1.5233003429     0.3474894103    -0.2700967456
    2      C       0.6217058555    -0.8919693979    -0.0595952496
    3      C      -0.3959118085    -0.5225440094    -1.1467013468
    4      C      -1.0056867857     0.5310183933     0.8168081636
    5      C      -0.5812646678     0.8974575448    -0.6168758516
    6      N       0.8548203842     1.3901463835    -0.5866974856
    7      H       2.6070497852     0.3672673048    -0.1472085828
    8      H       1.1147515274    -1.8668964372    -0.0708596181
    9      H      -1.2221577268    -1.1880562519    -1.4027659994
   10      H      -1.7197226095     1.0527493753     1.4156515128
   11      H      -1.2319129186     1.5893652705    -1.1518970842
   12      C      -0.2667768830    -0.5719988734     1.1574345875
   13      H      -0.2999442984    -1.1354684484     2.0627241320
 ----------------------------------------------------------------
 Nuclear Repulsion Energy =   278.4052103032 hartrees
 There are       25 alpha and       24 beta electrons

                       Distance Matrix (Angstroms)
             C (  1)   C (  2)   C (  3)   C (  4)   C (  5)   N (  6)
   C (  2)  1.547075
   C (  3)  2.282273  1.534217
   C (  4)  2.758772  2.332677  2.310236
   C (  5)  2.202706  2.227049  1.526917  1.539435
   N (  6)  1.278372  2.353770  2.352939  2.483831  1.518550
   H (  7)  1.090874  2.352646  3.287633  3.742727  3.266043  2.075991
   H (  8)  2.260556  1.092567  2.290594  3.321778  3.288808  3.307867
   H (  9)  3.343408  2.300350  1.091402  2.815775  2.318994  3.409829
   H ( 10)  3.722410  3.382391  3.286286  1.068019  2.334817  3.278950
   H ( 11)  3.148178  3.284212  2.271362  2.246570  1.090104  2.171081
   C ( 12)  2.467323  1.540436  2.308282  1.370643  2.325163  2.854819
   H ( 13)  3.311410  2.326579  3.268837  2.197170  3.375231  3.838183
             H (  7)   H (  8)   H (  9)   H ( 10)   H ( 11)   C ( 12)
   H (  8)  2.687800
   H (  9)  4.319524  2.774156
   H ( 10)  4.651169  4.332239  3.634867
   H ( 11)  4.152175  4.315231  2.788745  2.667999
   C ( 12)  3.292901  2.257008  2.801233  2.194888  3.306962
   H ( 13)  3.948751  2.662429  3.586484  2.687521  4.315909  1.066840

 
 Applying Cartesian multipole field
    Component          Value
    ---------          -----
     (2,0,0)        1.00000E-11
     (0,2,0)        2.00000E-11
     (0,0,2)       -3.00000E-11
 Nucleus-field energy     =     0.0000000007 hartrees
 Requested basis set is 6-31G(d)
 There are 40 shells and 117 basis functions
 A cutoff of  1.0D-14 yielded    814 shell pairs
 There are      7086 function pairs
 Smallest overlap matrix eigenvalue = 1.14E-03
 Guess MOs from core Hamiltonian diagonalization
 Mixing HOMO and LUMO in initial guess
 Adding  50% of the LUMO to the HOMO
 An unrestricted hybrid HF-DFT SCF calculation will be
 performed using Pulay DIIS extrapolation
 Exchange:     0.2000 Hartree-Fock + 0.0800 Slater + 0.7200 B88
 Correlation:  0.1900 VWN1RPA + 0.8100 LYP
 Using SG-1 standard quadrature grid
 SCF converges when DIIS error is below 1.0E-08
 using 4 threads for integral computing
 -------------------------------------------------------
 OpenMP Integral computing Module                
 Release: version 1.0, May 2013, Q-Chem Inc. Pittsburgh 
 -------------------------------------------------------
 -------------------------------------------------------
 OpenMP BLAS3 based DFT computing Module                
 Release: version 1.0, May 2013, Q-Chem Inc. Pittsburgh 
 -------------------------------------------------------
 ---------------------------------------
  Cycle       Energy         DIIS Error
 ---------------------------------------
    1    -234.7227535239      1.38E-01
    2    -229.1868661958      1.01E-01
    3    -251.5262215568      1.07E-01
    4    -283.3582744555      4.07E-02
    5    -283.2258375139      3.75E-02
    6    -286.4301017843      1.40E-02
    7    -286.6751966327      9.65E-03
    8    -286.8221231644      4.22E-03
    9    -286.8454067588      1.61E-03
   10    -286.8499092349      3.79E-04
   11    -286.8501677617      1.48E-04
   12    -286.8502104354      3.38E-05
   13    -286.8502140442      1.68E-05
   14    -286.8502151585      4.12E-06
   15    -286.8502156621      1.45E-06
   16    -286.8502158829      8.17E-07
   17    -286.8502159939      5.73E-07
   18    -286.8502160647      2.76E-07
   19    -286.8502160977      6.74E-08
   20    -286.8502161010      1.31E-08
   21    -286.8502161011      3.28E-09 Convergence criterion met
 ---------------------------------------
 <S^2> = 0.7536
 SCF time:  CPU 51.80 s  wall 15.17 s
 SCF   energy in the final basis set = -286.85021610
 Total energy in the final basis set = -286.85021610
 
 --------------------------------------------------------------
 
                    Orbital Energies (a.u.)
 --------------------------------------------------------------
 
 Alpha MOs
 -- Occupied --
-14.322 -10.224 -10.221 -10.211 -10.205 -10.203 -10.200  -0.951
 -0.818  -0.726  -0.703  -0.582  -0.572  -0.531  -0.513  -0.472
 -0.416  -0.407  -0.380  -0.373  -0.350  -0.293  -0.270  -0.259
 -0.196
 -- Virtual --
 -0.024   0.024   0.105   0.142   0.150   0.154   0.160   0.165
  0.173   0.211   0.214   0.254   0.286   0.315   0.345   0.362
  0.499   0.511   0.532   0.542   0.570   0.594   0.605   0.620
  0.631   0.639   0.654   0.687   0.698   0.727   0.776   0.791
  0.799   0.818   0.824   0.849   0.867   0.874   0.893   0.938
  0.963   1.004   1.048   1.090   1.195   1.261   1.326   1.342
  1.392   1.409   1.489   1.508   1.571   1.615   1.663   1.729
  1.785   1.793   1.824   1.881   1.941   1.981   1.998   2.048
  2.092   2.125   2.166   2.199   2.237   2.269   2.313   2.332
  2.405   2.472   2.510   2.524   2.549   2.619   2.629   2.642
  2.713   2.826   2.844   2.893   2.937   3.920   4.184   4.262
  4.273   4.400   4.543   4.678
 
 Beta MOs
 -- Occupied --
-14.322 -10.224 -10.221 -10.211 -10.202 -10.199 -10.191  -0.948
 -0.812  -0.724  -0.688  -0.580  -0.560  -0.528  -0.510  -0.463
 -0.412  -0.403  -0.379  -0.370  -0.344  -0.286  -0.260  -0.254
 -- Virtual --
 -0.046  -0.018   0.026   0.106   0.145   0.153   0.158   0.160
  0.167   0.177   0.217   0.221   0.266   0.288   0.317   0.347
  0.364   0.501   0.529   0.542   0.547   0.577   0.597   0.611
  0.622   0.637   0.657   0.661   0.691   0.706   0.740   0.780
  0.792   0.809   0.821   0.826   0.851   0.869   0.877   0.896
  0.940   0.971   1.013   1.050   1.096   1.198   1.262   1.330
  1.348   1.398   1.413   1.492   1.511   1.585   1.623   1.669
  1.733   1.793   1.796   1.835   1.899   1.956   1.990   2.001
  2.054   2.112   2.132   2.174   2.215   2.252   2.274   2.316
  2.335   2.408   2.489   2.512   2.535   2.553   2.631   2.634
  2.645   2.720   2.828   2.848   2.895   2.939   3.921   4.186
  4.264   4.301   4.403   4.548   4.679
 --------------------------------------------------------------
 
          Ground-State Mulliken Net Atomic Charges

     Atom                 Charge (a.u.)    Spin (a.u.)
  --------------------------------------------------------
      1 C                     0.090507      -0.009062
      2 C                    -0.243794      -0.043071
      3 C                    -0.096354       0.971963
      4 C                    -0.090888       0.044788
      5 C                    -0.094031      -0.044474
      6 N                    -0.323574       0.021542
      7 H                     0.150161      -0.000179
      8 H                     0.133232       0.002906
      9 H                     0.138507      -0.025438
     10 H                     0.147705       0.000534
     11 H                     0.139321       0.002954
     12 C                    -0.097780       0.077688
     13 H                     0.146988      -0.000151
  --------------------------------------------------------
  Sum of atomic charges =     0.000000
  Sum of spin   charges =     1.000000

 -----------------------------------------------------------------
                    Cartesian Multipole Moments
 -----------------------------------------------------------------
    Charge (ESU x 10^10)
                -0.0000
    Dipole Moment (Debye)
         X      -0.7182      Y      -1.9619      Z       1.2031
       Tot       2.4109
    Quadrupole Moments (Debye-Ang)
        XX     -37.5076     XY      -3.9067     YY     -42.9821
        XZ       0.9379     YZ       0.5985     ZZ     -41.0255
    Octopole Moments (Debye-Ang^2)
       XXX      -4.1730    XXY      -5.3502    XYY     -10.2066
       YYY     -26.9498    XXZ       3.8727    XYZ       0.5943
       YYZ       6.6546    XZZ      -7.8273    YZZ      -7.5330
       ZZZ      17.0414
    Hexadecapole Moments (Debye-Ang^3)
      XXXX    -232.1400   XXXY      -5.2539   XXYY     -81.1923
      XYYY     -17.7041   YYYY    -241.4888   XXXZ      20.2654
      XXYZ      10.9919   XYYZ      11.5821   YYYZ      23.1014
      XXZZ     -75.8298   XYZZ      -3.7286   YYZZ     -71.3914
      XZZZ      19.9198   YZZZ      13.3564   ZZZZ    -212.3699
 -----------------------------------------------------------------
 Calculating analytic gradient of the SCF energy
 Gradient of SCF Energy
            1           2           3           4           5           6
    1   0.0015982  -0.0037976   0.0004703  -0.0246698   0.0040192  -0.0017368
    2  -0.0022092   0.0002618   0.0007632   0.0295179  -0.0018814   0.0033432
    3   0.0001114  -0.0001836  -0.0042338   0.0028301   0.0006204  -0.0016265
            7           8           9          10          11          12
    1   0.0015149   0.0014810  -0.0004923   0.0080721  -0.0006399   0.0155402
    2   0.0007857  -0.0008813  -0.0019626  -0.0059458  -0.0000840  -0.0272473
    3   0.0000446   0.0002358   0.0001807  -0.0058245  -0.0001373   0.0195305
           13
    1  -0.0013595
    2   0.0055398
    3  -0.0115478
 Max gradient component =       2.952E-02
 RMS gradient           =       9.117E-03
 Gradient time:  CPU 7.64 s  wall 1.98 s
 FSM gradient convergence criteria satisfied
done with opt_step_by_gradient, Reactant, iter1
-Optimizing new product side node
 Using BFGS, step: 2 E_tol 0.0151567
 max_steps 6, node_spacing 0.0529219, sigma 0.7000000
 ----------------------------------------------------------------
             Standard Nuclear Orientation (Angstroms)
    I     Atom           X                Y                Z
 ----------------------------------------------------------------
    1      C       1.5728347972     0.3846283868    -0.3476059024
    2      C       0.7916247413    -0.8483247762    -0.0289493222
    3      C      -0.5515684417    -0.6227883448    -0.6416218815
    4      C      -0.8451113731     0.7717182427     0.9412219334
    5      C      -0.5530950157     0.9454005480    -0.5539606673
    6      N       0.8576653337     1.3908043058    -0.6866331357
    7      H       2.6573020034     0.4543183071    -0.2706473639
    8      H       1.2419561435    -1.8360863985    -0.0048935809
    9      H      -1.1215783874    -1.2898430216    -1.2803621435
   10      H      -1.7154949860     1.1583684375     1.4585006824
   11      H      -1.2385158530     1.5350441802    -1.1621784544
   12      C      -0.4284793160    -0.6352585439     0.9276283193
   13      H      -0.6695429998    -1.4094145214     1.6484239300
 ----------------------------------------------------------------
 Nuclear Repulsion Energy =   281.5869841862 hartrees
 There are       25 alpha and       24 beta electrons

                       Distance Matrix (Angstroms)
             C (  1)   C (  2)   C (  3)   C (  4)   C (  5)   N (  6)
   C (  2)  1.493990
   C (  3)  2.369477  1.493453
   C (  4)  2.767197  2.498935  2.129838
   C (  5)  2.208308  2.302468  1.570638  1.533300
   N (  6)  1.280155  2.334654  2.458154  2.435699  1.485339
   H (  7)  1.089426  2.288241  3.405089  3.719714  3.260073  2.070928
   H (  8)  2.271235  1.085841  2.257044  3.471546  3.355645  3.320432
   H (  9)  3.306622  2.328373  1.085294  3.043338  2.418087  3.384640
   H ( 10)  3.830641  3.539064  2.989609  1.083810  2.333780  3.358092
   H ( 11)  3.144945  3.329584  2.323600  2.271943  1.089684  2.154280
   C ( 12)  2.582954  1.564957  1.574120  1.467430  2.170050  2.892220
   H ( 13)  3.497282  2.294213  2.424254  2.299630  3.226331  3.952984
             H (  7)   H (  8)   H (  9)   H ( 10)   H ( 11)   C ( 12)
   H (  8)  2.705510
   H (  9)  4.282705  2.740711
   H ( 10)  4.754681  4.455872  3.721269
   H ( 11)  4.140072  4.342415  2.829776  2.690233
   C ( 12)  3.484980  2.258747  2.405013  2.270536  3.119882
   H ( 13)  4.268985  2.563072  2.965876  2.779136  4.110116  1.084885

 
 Applying Cartesian multipole field
    Component          Value
    ---------          -----
     (2,0,0)        1.00000E-11
     (0,2,0)        2.00000E-11
     (0,0,2)       -3.00000E-11
 Nucleus-field energy     =     0.0000000019 hartrees
 Requested basis set is 6-31G(d)
 There are 40 shells and 117 basis functions
 A cutoff of  1.0D-14 yielded    811 shell pairs
 There are      7083 function pairs
 Smallest overlap matrix eigenvalue = 1.31E-03
 Guess MOs from core Hamiltonian diagonalization
 Mixing HOMO and LUMO in initial guess
 Adding  50% of the LUMO to the HOMO
 An unrestricted hybrid HF-DFT SCF calculation will be
 performed using Pulay DIIS extrapolation
 Exchange:     0.2000 Hartree-Fock + 0.0800 Slater + 0.7200 B88
 Correlation:  0.1900 VWN1RPA + 0.8100 LYP
 Using SG-1 standard quadrature grid
 SCF converges when DIIS error is below 1.0E-08
 using 4 threads for integral computing
 -------------------------------------------------------
 OpenMP Integral computing Module                
 Release: version 1.0, May 2013, Q-Chem Inc. Pittsburgh 
 -------------------------------------------------------
 -------------------------------------------------------
 OpenMP BLAS3 based DFT computing Module                
 Release: version 1.0, May 2013, Q-Chem Inc. Pittsburgh 
 -------------------------------------------------------
 ---------------------------------------
  Cycle       Energy         DIIS Error
 ---------------------------------------
    1    -236.3511250446      1.35E-01
    2    -230.4734756598      1.05E-01
    3    -259.5709972986      9.47E-02
    4    -270.6761087531      8.46E-02
    5    -281.3900286420      4.98E-02
    6    -285.5793403710      2.27E-02
    7    -286.0387984774      1.87E-02
    8    -286.7102806536      5.88E-03
    9    -286.7847215838      4.81E-03
   10    -286.8279987367      1.61E-03
   11    -286.8332216606      9.58E-04
   12    -286.8352866023      3.91E-04
   13    -286.8358222044      1.14E-04
   14    -286.8358740733      5.19E-05
   15    -286.8358882782      3.95E-06
   16    -286.8358932241      1.92E-06
   17    -286.8358952695      1.44E-06
   18    -286.8358963369      6.27E-07
   19    -286.8358969268      2.66E-07
   20    -286.8358971940      9.69E-08
   21    -286.8358972391      3.25E-08
   22    -286.8358972413      7.54E-09 Convergence criterion met
 ---------------------------------------
 <S^2> = 0.7549
 SCF time:  CPU 54.54 s  wall 16.43 s
 SCF   energy in the final basis set = -286.83589724
 Total energy in the final basis set = -286.83589724
 
 --------------------------------------------------------------
 
                    Orbital Energies (a.u.)
 --------------------------------------------------------------
 
 Alpha MOs
 -- Occupied --
-14.317 -10.220 -10.220 -10.216 -10.214 -10.212 -10.192  -0.963
 -0.855  -0.745  -0.659  -0.605  -0.575  -0.540  -0.512  -0.463
 -0.429  -0.412  -0.389  -0.367  -0.326  -0.316  -0.268  -0.256
 -0.168
 -- Virtual --
 -0.002   0.089   0.100   0.137   0.145   0.152   0.155   0.167
  0.184   0.199   0.213   0.245   0.279   0.325   0.368   0.377
  0.486   0.515   0.525   0.550   0.556   0.576   0.588   0.602
  0.614   0.621   0.668   0.677   0.702   0.754   0.775   0.791
  0.816   0.831   0.838   0.841   0.854   0.880   0.907   0.935
  0.946   1.026   1.071   1.103   1.148   1.241   1.277   1.363
  1.436   1.454   1.498   1.547   1.616   1.647   1.664   1.712
  1.791   1.814   1.874   1.882   1.909   1.935   2.004   2.025
  2.055   2.152   2.185   2.224   2.258   2.288   2.369   2.412
  2.471   2.483   2.514   2.522   2.582   2.613   2.621   2.681
  2.728   2.785   2.832   2.928   2.958   3.951   4.134   4.240
  4.349   4.479   4.511   4.657
 
 Beta MOs
 -- Occupied --
-14.317 -10.221 -10.220 -10.217 -10.212 -10.211 -10.179  -0.960
 -0.851  -0.736  -0.649  -0.600  -0.571  -0.538  -0.501  -0.460
 -0.425  -0.406  -0.386  -0.363  -0.318  -0.299  -0.264  -0.254
 -- Virtual --
 -0.034   0.005   0.092   0.105   0.141   0.149   0.155   0.157
  0.171   0.188   0.201   0.218   0.248   0.286   0.328   0.373
  0.385   0.488   0.522   0.537   0.552   0.563   0.579   0.594
  0.614   0.619   0.644   0.671   0.688   0.705   0.758   0.779
  0.794   0.817   0.836   0.839   0.843   0.858   0.883   0.909
  0.942   0.949   1.033   1.081   1.115   1.150   1.248   1.281
  1.366   1.443   1.459   1.504   1.551   1.619   1.651   1.676
  1.718   1.794   1.828   1.884   1.889   1.926   1.939   2.010
  2.033   2.071   2.158   2.200   2.230   2.270   2.294   2.383
  2.424   2.479   2.487   2.522   2.528   2.588   2.618   2.625
  2.685   2.735   2.790   2.840   2.930   2.959   3.953   4.139
  4.252   4.359   4.483   4.514   4.661
 --------------------------------------------------------------
 
          Ground-State Mulliken Net Atomic Charges

     Atom                 Charge (a.u.)    Spin (a.u.)
  --------------------------------------------------------
      1 C                     0.096710       0.009363
      2 C                    -0.190800       0.035232
      3 C                    -0.109773       0.128573
      4 C                    -0.070512       0.941152
      5 C                    -0.099929      -0.045454
      6 N                    -0.336626       0.011055
      7 H                     0.143518       0.003985
      8 H                     0.148903       0.001457
      9 H                     0.151105       0.006622
     10 H                     0.138852      -0.040304
     11 H                     0.141936       0.005622
     12 C                    -0.163284      -0.057847
     13 H                     0.149900       0.000544
  --------------------------------------------------------
  Sum of atomic charges =     0.000000
  Sum of spin   charges =     1.000000

 -----------------------------------------------------------------
                    Cartesian Multipole Moments
 -----------------------------------------------------------------
    Charge (ESU x 10^10)
                -0.0000
    Dipole Moment (Debye)
         X      -0.9044      Y      -2.6868      Z       0.3035
       Tot       2.8511
    Quadrupole Moments (Debye-Ang)
        XX     -37.3858     XY      -3.2487     YY     -42.7978
        XZ       0.8123     YZ       0.6953     ZZ     -41.0737
    Octopole Moments (Debye-Ang^2)
       XXX      -4.9633    XXY      -6.9006    XYY     -10.4348
       YYY     -33.0273    XXZ       2.1545    XYZ       1.6083
       YYZ       4.5914    XZZ      -9.1280    YZZ      -9.9951
       ZZZ       6.2642
    Hexadecapole Moments (Debye-Ang^3)
      XXXX    -244.4321   XXXY      -7.0062   XXYY     -85.7915
      XYYY     -19.4528   YYYY    -261.4594   XXXZ      27.8116
      XXYZ      10.1500   XYYZ      14.9386   YYYZ      22.5204
      XXZZ     -70.8736   XYZZ      -3.3169   YYZZ     -69.9855
      XZZZ      30.2397   YZZZ      17.1925   ZZZZ    -170.3509
 -----------------------------------------------------------------
 Calculating analytic gradient of the SCF energy
 Gradient of SCF Energy
            1           2           3           4           5           6
    1  -0.0012429   0.0001413   0.0013743  -0.0002056  -0.0000734   0.0002188
    2   0.0000859  -0.0016224   0.0031558  -0.0033232  -0.0002824  -0.0000106
    3   0.0000507   0.0007666  -0.0129116   0.0002283  -0.0008845  -0.0000198
            7           8           9          10          11          12
    1  -0.0000551  -0.0000512  -0.0004924  -0.0001081  -0.0001304  -0.0001461
    2  -0.0002505   0.0000218   0.0000894   0.0002068   0.0000868   0.0008333
    3  -0.0001771   0.0000532   0.0008012   0.0000982   0.0002445   0.0103401
           13
    1   0.0007708
    2   0.0010094
    3   0.0014101
 Max gradient component =       1.291E-02
 RMS gradient           =       2.809E-03
 Gradient time:  CPU 7.63 s  wall 1.98 s
 ----------------------------------------------------------------
             Standard Nuclear Orientation (Angstroms)
    I     Atom           X                Y                Z
 ----------------------------------------------------------------
    1      C       1.5754240510     0.3835441009    -0.3451078243
    2      C       0.7875462100    -0.8450334632    -0.0325415294
    3      C      -0.5518951341    -0.6295624030    -0.6179289397
    4      C      -0.8492241160     0.7759736772     0.9365038372
    5      C      -0.5537233813     0.9457679550    -0.5535371743
    6      N       0.8574075975     1.3912299623    -0.6831550260
    7      H       2.6561772506     0.4521725871    -0.2656294157
    8      H       1.2386016934    -1.8380018141    -0.0080094522
    9      H      -1.1248734882    -1.2884241510    -1.2892952581
   10      H      -1.7166467686     1.1548657341     1.4570593381
   11      H      -1.2380906025     1.5374273537    -1.1630693295
   12      C      -0.4232746443    -0.6366986121     0.9026283193
   13      H      -0.6594321283    -1.4046940618     1.6610049823
 ----------------------------------------------------------------
 Nuclear Repulsion Energy =   282.3002293839 hartrees
 There are       25 alpha and       24 beta electrons

                       Distance Matrix (Angstroms)
             C (  1)   C (  2)   C (  3)   C (  4)   C (  5)   N (  6)
   C (  2)  1.492599
   C (  3)  2.371983  1.477569
   C (  4)  2.770460  2.499146  2.116648
   C (  5)  2.211969  2.297261  1.576647  1.528520
   N (  6)  1.282675  2.330033  2.464547  2.431959  1.485439
   H (  7)  1.085843  2.286669  3.403820  3.719921  3.260366  2.071649
   H (  8)  2.272081  1.090889  2.244595  3.476203  3.355504  3.321004
   H (  9)  3.313393  2.330960  1.101424  3.048262  2.420572  3.387830
   H ( 10)  3.831511  3.534047  2.974291  1.080259  2.332083  3.355911
   H ( 11)  3.149027  3.325269  2.337496  2.266988  1.090848  2.154717
   C ( 12)  2.567594  1.544031  1.526004  1.475881  2.154445  2.875300
   H ( 13)  3.495263  2.296751  2.409550  2.305696  3.231106  3.951339
             H (  7)   H (  8)   H (  9)   H ( 10)   H ( 11)   C ( 12)
   H (  8)  2.705695
   H (  9)  4.286480  2.744038
   H ( 10)  4.752160  4.453894  3.723214
   H ( 11)  4.141075  4.343005  2.830934  2.690807
   C ( 12)  3.468932  2.243708  2.391969  2.278137  3.107709
   H ( 13)  4.260650  2.564351  2.989051  2.776804  4.119019  1.104863

 
 Applying Cartesian multipole field
    Component          Value
    ---------          -----
     (2,0,0)        1.00000E-11
     (0,2,0)        2.00000E-11
     (0,0,2)       -3.00000E-11
 Nucleus-field energy     =     0.0000000020 hartrees
 Requested basis set is 6-31G(d)
 There are 40 shells and 117 basis functions
 A cutoff of  1.0D-14 yielded    811 shell pairs
 There are      7083 function pairs
 Smallest overlap matrix eigenvalue = 1.30E-03
 Guess MOs from core Hamiltonian diagonalization
 Mixing HOMO and LUMO in initial guess
 Adding  50% of the LUMO to the HOMO
 An unrestricted hybrid HF-DFT SCF calculation will be
 performed using Pulay DIIS extrapolation
 Exchange:     0.2000 Hartree-Fock + 0.0800 Slater + 0.7200 B88
 Correlation:  0.1900 VWN1RPA + 0.8100 LYP
 Using SG-1 standard quadrature grid
 SCF converges when DIIS error is below 1.0E-08
 using 4 threads for integral computing
 -------------------------------------------------------
 OpenMP Integral computing Module                
 Release: version 1.0, May 2013, Q-Chem Inc. Pittsburgh 
 -------------------------------------------------------
 -------------------------------------------------------
 OpenMP BLAS3 based DFT computing Module                
 Release: version 1.0, May 2013, Q-Chem Inc. Pittsburgh 
 -------------------------------------------------------
 ---------------------------------------
  Cycle       Energy         DIIS Error
 ---------------------------------------
    1    -236.4890619039      1.35E-01
    2    -233.7024860172      1.04E-01
    3    -267.1092383932      8.36E-02
    4    -270.3441499504      8.46E-02
    5    -283.2050428619      3.96E-02
    6    -285.8492741698      2.35E-02
    7    -286.4773852097      1.19E-02
    8    -286.7293444894      7.70E-03
    9    -286.8222060452      2.41E-03
   10    -286.8330264949      1.12E-03
   11    -286.8352093923      1.39E-04
   12    -286.8353292876      7.28E-05
   13    -286.8353501405      3.21E-05
   14    -286.8353546596      8.63E-06
   15    -286.8353554198      3.41E-06
   16    -286.8353555423      1.07E-06
   17    -286.8353555564      4.10E-07
   18    -286.8353555637      8.54E-08
   19    -286.8353555668      2.33E-08
   20    -286.8353555686      1.46E-08
   21    -286.8353555695      6.14E-09 Convergence criterion met
 ---------------------------------------
 <S^2> = 0.7545
 SCF time:  CPU 50.61 s  wall 13.57 s
 SCF   energy in the final basis set = -286.83535557
 Total energy in the final basis set = -286.83535557
 
 --------------------------------------------------------------
 
                    Orbital Energies (a.u.)
 --------------------------------------------------------------
 
 Alpha MOs
 -- Occupied --
-14.318 -10.220 -10.220 -10.215 -10.213 -10.211 -10.193  -0.967
 -0.860  -0.748  -0.656  -0.606  -0.574  -0.540  -0.512  -0.464
 -0.430  -0.412  -0.388  -0.362  -0.329  -0.317  -0.267  -0.256
 -0.172
 -- Virtual --
 -0.002   0.086   0.111   0.136   0.145   0.152   0.157   0.166
  0.182   0.202   0.217   0.243   0.280   0.327   0.368   0.379
  0.485   0.518   0.528   0.548   0.561   0.575   0.590   0.602
  0.619   0.621   0.669   0.677   0.705   0.754   0.774   0.789
  0.812   0.827   0.835   0.838   0.851   0.879   0.907   0.937
  0.944   1.022   1.071   1.102   1.149   1.245   1.286   1.361
  1.438   1.454   1.501   1.546   1.621   1.649   1.672   1.709
  1.801   1.812   1.869   1.885   1.916   1.946   2.005   2.020
  2.064   2.158   2.182   2.229   2.268   2.293   2.372   2.429
  2.476   2.494   2.512   2.524   2.576   2.618   2.628   2.687
  2.736   2.800   2.833   2.933   2.958   3.951   4.136   4.243
  4.358   4.478   4.521   4.654
 
 Beta MOs
 -- Occupied --
-14.317 -10.220 -10.220 -10.216 -10.211 -10.210 -10.179  -0.964
 -0.856  -0.738  -0.645  -0.601  -0.570  -0.537  -0.501  -0.462
 -0.426  -0.405  -0.385  -0.358  -0.318  -0.304  -0.264  -0.254
 -- Virtual --
 -0.035   0.005   0.088   0.115   0.140   0.148   0.155   0.159
  0.170   0.186   0.205   0.221   0.247   0.287   0.330   0.374
  0.386   0.488   0.524   0.543   0.552   0.566   0.578   0.597
  0.614   0.622   0.645   0.671   0.688   0.708   0.758   0.777
  0.793   0.813   0.831   0.837   0.839   0.855   0.882   0.910
  0.943   0.948   1.029   1.081   1.114   1.151   1.253   1.290
  1.364   1.444   1.459   1.507   1.550   1.625   1.652   1.684
  1.715   1.804   1.825   1.881   1.890   1.932   1.951   2.012
  2.029   2.078   2.163   2.199   2.234   2.279   2.301   2.385
  2.440   2.484   2.499   2.521   2.528   2.582   2.622   2.634
  2.691   2.743   2.804   2.841   2.935   2.959   3.953   4.141
  4.256   4.367   4.483   4.524   4.658
 --------------------------------------------------------------
 
[...]

     Atom                 Charge (a.u.)    Spin (a.u.)
  --------------------------------------------------------
      1 C                     0.104131       0.031105
      2 C                    -0.206715      -0.005286
      3 C                    -0.133878       0.642842
      4 C                    -0.078372       0.669411
      5 C                    -0.101995      -0.065551
      6 N                    -0.334819      -0.002260
      7 H                     0.145652       0.001038
      8 H                     0.142397       0.002961
      9 H                     0.157274      -0.033477
     10 H                     0.140130      -0.034452
     11 H                     0.142685       0.005712
     12 C                    -0.127016      -0.225297
     13 H                     0.150525       0.013255
  --------------------------------------------------------
  Sum of atomic charges =    -0.000000
  Sum of spin   charges =     1.000000

 -----------------------------------------------------------------
                    Cartesian Multipole Moments
 -----------------------------------------------------------------
    Charge (ESU x 10^10)
                -0.0000
    Dipole Moment (Debye)
         X      -0.8399      Y      -2.5870      Z       0.6826
       Tot       2.8043
    Quadrupole Moments (Debye-Ang)
        XX     -37.5216     XY      -3.3305     YY     -42.5752
        XZ       1.0965     YZ       0.3894     ZZ     -40.9493
    Octopole Moments (Debye-Ang^2)
       XXX      -4.9703    XXY      -6.6556    XYY     -10.8162
       YYY     -31.1073    XXZ       2.6539    XYZ       1.2702
       YYZ       5.4861    XZZ      -9.1111    YZZ      -9.1885
       ZZZ      10.3354
    Hexadecapole Moments (Debye-Ang^3)
      XXXX    -240.9805   XXXY      -5.7149   XXYY     -83.1858
      XYYY     -18.2515   YYYY    -250.8687   XXXZ      25.1380
      XXYZ      10.6746   XYYZ      13.7672   YYYZ      22.0232
      XXZZ     -71.9764   XYZZ      -3.0222   YYZZ     -69.4620
      XZZZ      25.7027   YZZZ      14.8691   ZZZZ    -185.2415
 -----------------------------------------------------------------
 Calculating analytic gradient of the SCF energy
 Gradient of SCF Energy
            1           2           3           4           5           6
    1   0.0036569   0.0017744   0.0039988   0.0069500  -0.0121230   0.0083720
    2   0.0088561   0.0071455   0.0037025  -0.0052137   0.0083352  -0.0125332
    3  -0.0023800  -0.0027361   0.0094165  -0.0013351  -0.0079223   0.0046197
            7           8           9          10          11          12
    1  -0.0062433   0.0018214  -0.0043555  -0.0037566   0.0048139  -0.0066115
    2  -0.0005950  -0.0040879  -0.0035179   0.0009954  -0.0042601  -0.0030768
    3  -0.0006376  -0.0005945  -0.0021360   0.0002555   0.0037486   0.0044309
           13
    1   0.0017024
    2   0.0042500
    3  -0.0047296
 Max gradient component =       1.253E-02
 RMS gradient           =       5.466E-03
 Gradient time:  CPU 7.89 s  wall 2.01 s
 ----------------------------------------------------------------
             Standard Nuclear Orientation (Angstroms)
    I     Atom           X                Y                Z
 ----------------------------------------------------------------
    1      C       1.5638638046     0.3750313028    -0.3208372448
    2      C       0.7314941963    -0.8523734733    -0.0386890274
    3      C      -0.4966965884    -0.5942561779    -0.8576052910
    4      C      -0.9085476837     0.6749816139     0.8862034981
    5      C      -0.5759296673     0.9273639525    -0.5859756878
    6      N       0.8621843806     1.3806593207    -0.6517359185
    7      H       2.6358462936     0.4284865669    -0.2026397318
    8      H       1.1916348991    -1.8459930000    -0.0270196034
    9      H      -1.2066628485    -1.2771769392    -1.3196014562
   10      H      -1.7169568402     1.1217646516     1.4569333661
   11      H      -1.2280314817     1.5581407710    -1.1679871825
   12      C      -0.3321386932    -0.5824127280     1.0352678503
   13      H      -0.5399896396    -1.3261459633     1.7859174487
 ----------------------------------------------------------------
 Nuclear Repulsion Energy =   280.6582200319 hartrees
 There are       25 alpha and       24 beta electrons

                       Distance Matrix (Angstroms)
             C (  1)   C (  2)   C (  3)   C (  4)   C (  5)   N (  6)
   C (  2)  1.509626
   C (  3)  2.339561  1.498566
   C (  4)  2.767623  2.424454  2.195781
   C (  5)  2.225778  2.275158  1.547704  1.530243
   N (  6)  1.270093  2.319341  2.406082  2.449231  1.509296
   H (  7)  1.079803  2.300878  3.359733  3.716055  3.272817  2.062570
   H (  8)  2.271086  1.095055  2.259907  3.405886  3.335899  3.303043
   H (  9)  3.376854  2.361704  1.088059  2.960637  2.407495  3.433696
   H ( 10)  3.805504  3.482674  3.129034  1.085759  2.348023  3.341479
   H ( 11)  3.148347  3.305395  2.294341  2.258703  1.077893  2.160328
   C ( 12)  2.520029  1.535440  1.900050  1.391225  2.228742  2.850621
   H ( 13)  3.429084  2.273834  2.743310  2.224822  3.271922  3.903209
             H (  7)   H (  8)   H (  9)   H ( 10)   H ( 11)   C ( 12)
   H (  8)  2.699972
   H (  9)  4.349916  2.783191
   H ( 10)  4.709747  4.412438  3.704655
   H ( 11)  4.139754  4.329517  2.839449  2.705491
   C ( 12)  3.370945  2.246548  2.606319  2.236011  3.199832
   H ( 13)  4.137515  2.560372  3.176649  2.736010  4.185459  1.076948

 
 Applying Cartesian multipole field
    Component          Value
    ---------          -----
     (2,0,0)        1.00000E-11
     (0,2,0)        2.00000E-11
     (0,0,2)       -3.00000E-11
 Nucleus-field energy     =     0.0000000014 hartrees
 Requested basis set is 6-31G(d)
 There are 40 shells and 117 basis functions
 A cutoff of  1.0D-14 yielded    813 shell pairs
 There are      7085 function pairs
 Smallest overlap matrix eigenvalue = 1.18E-03
 Guess MOs from core Hamiltonian diagonalization
 Mixing HOMO and LUMO in initial guess
 Adding  50% of the LUMO to the HOMO
 An unrestricted hybrid HF-DFT SCF calculation will be
 performed using Pulay DIIS extrapolation
 Exchange:     0.2000 Hartree-Fock + 0.0800 Slater + 0.7200 B88
 Correlation:  0.1900 VWN1RPA + 0.8100 LYP
 Using SG-1 standard quadrature grid
 SCF converges when DIIS error is below 1.0E-08
 using 4 threads for integral computing
 -------------------------------------------------------
 OpenMP Integral computing Module                
 Release: version 1.0, May 2013, Q-Chem Inc. Pittsburgh 
 -------------------------------------------------------
 -------------------------------------------------------
 OpenMP BLAS3 based DFT computing Module                
 Release: version 1.0, May 2013, Q-Chem Inc. Pittsburgh 
 -------------------------------------------------------
 ---------------------------------------
  Cycle       Energy         DIIS Error
 ---------------------------------------
    1    -236.5486401063      1.34E-01
    2    -226.2301732234      1.04E-01
    3    -255.5933461118      9.78E-02
    4    -280.6461006896      5.51E-02
    5    -281.6397664274      4.78E-02
    6    -285.7362683484      2.08E-02
    7    -286.1557616551      1.69E-02
    8    -286.7336450434      5.22E-03
    9    -286.8087789094      1.90E-03
   10    -286.8156701390      1.18E-03
   11    -286.8185121199      5.66E-04
   12    -286.8193421594      3.42E-04
   13    -286.8198672714      1.12E-04
   14    -286.8199474320      4.21E-05
   15    -286.8199610777      1.04E-05
   16    -286.8199675327      3.90E-06
   17    -286.8199703843      1.41E-06
   18    -286.8199708331      7.94E-07
   19    -286.8199710281      2.19E-07
   20    -286.8199710909      8.78E-08
   21    -286.8199711034      6.02E-08
   22    -286.8199711080      1.22E-08
   23    -286.8199711083      6.95E-09 Convergence criterion met
 ---------------------------------------
 <S^2> = 0.7863
 SCF time:  CPU 55.33 s  wall 14.46 s
 SCF   energy in the final basis set = -286.81997111
 Total energy in the final basis set = -286.81997111
 
 --------------------------------------------------------------
 
                    Orbital Energies (a.u.)
 --------------------------------------------------------------
 
 Alpha MOs
 -- Occupied --
-14.317 -10.220 -10.220 -10.216 -10.214 -10.207 -10.186  -0.956
 -0.837  -0.738  -0.681  -0.591  -0.576  -0.537  -0.512  -0.463
 -0.427  -0.404  -0.398  -0.381  -0.338  -0.298  -0.277  -0.251
 -0.137
 -- Virtual --
 -0.000   0.012   0.093   0.138   0.145   0.155   0.157   0.166
  0.179   0.208   0.214   0.260   0.304   0.309   0.361   0.369
  0.486   0.492   0.522   0.541   0.576   0.587   0.604   0.613
  0.619   0.643   0.668   0.682   0.705   0.745   0.769   0.789
  0.820   0.833   0.843   0.856   0.860   0.878   0.904   0.929
  0.965   1.034   1.108   1.130   1.152   1.199   1.274   1.332
  1.375   1.448   1.469   1.521   1.577   1.659   1.661   1.747
  1.768   1.813   1.828   1.899   1.936   1.973   2.023   2.060
  2.070   2.162   2.185   2.215   2.281   2.299   2.332   2.397
  2.409   2.452   2.520   2.536   2.585   2.630   2.633   2.665
  2.721   2.793   2.850   2.926   2.956   3.944   4.166   4.263
  4.301   4.439   4.514   4.664
 
 Beta MOs
 -- Occupied --
-14.317 -10.223 -10.220 -10.215 -10.214 -10.196 -10.177  -0.952
 -0.832  -0.731  -0.670  -0.587  -0.566  -0.536  -0.504  -0.457
 -0.423  -0.400  -0.395  -0.379  -0.333  -0.281  -0.265  -0.248
 -- Virtual --
 -0.018   0.008   0.026   0.096   0.147   0.148   0.157   0.158
  0.168   0.182   0.213   0.220   0.264   0.308   0.313   0.364
  0.375   0.491   0.506   0.526   0.546   0.581   0.597   0.608
  0.621   0.636   0.653   0.682   0.686   0.710   0.750   0.773
  0.789   0.822   0.835   0.846   0.857   0.865   0.880   0.907
  0.931   0.968   1.044   1.115   1.135   1.162   1.203   1.277
  1.342   1.379   1.451   1.479   1.524   1.584   1.662   1.670
  1.759   1.771   1.819   1.832   1.919   1.944   1.974   2.039
  2.069   2.077   2.166   2.196   2.226   2.289   2.309   2.349
  2.407   2.416   2.466   2.522   2.541   2.589   2.634   2.640
  2.673   2.728   2.797   2.854   2.927   2.957   3.945   4.168
  4.273   4.320   4.441   4.518   4.667
 --------------------------------------------------------------
 
          Ground-State Mulliken Net Atomic Charges

     Atom                 Charge (a.u.)    Spin (a.u.)
  --------------------------------------------------------
      1 C                     0.104317       0.030371
      2 C                    -0.208964      -0.007514
      3 C                    -0.134524       0.676199
      4 C                    -0.078889       0.643239
      5 C                    -0.101932      -0.065766
      6 N                    -0.334414      -0.002870
      7 H                     0.145960       0.000804
      8 H                     0.141859       0.003016
      9 H                     0.156390      -0.035461
     10 H                     0.140746      -0.033081
     11 H                     0.142684       0.005594
     12 C                    -0.123685      -0.228343
     13 H                     0.150450       0.013812
  --------------------------------------------------------
  Sum of atomic charges =    -0.000000
  Sum of spin   charges =     1.000000

 -----------------------------------------------------------------
                    Cartesian Multipole Moments
 -----------------------------------------------------------------
    Charge (ESU x 10^10)
                 0.0000
    Dipole Moment (Debye)
         X      -0.8409      Y      -2.5583      Z       0.7268
       Tot       2.7893
    Quadrupole Moments (Debye-Ang)
        XX     -37.4917     XY      -3.3369     YY     -42.5471
        XZ       1.0700     YZ       0.3897     ZZ     -41.0082
    Octopole Moments (Debye-Ang^2)
       XXX      -4.9873    XXY      -6.6294    XYY     -10.8583
       YYY     -31.0459    XXZ       2.6920    XYZ       1.2670
       YYZ       5.5757    XZZ      -9.0999    YZZ      -9.1072
       ZZZ      10.4923
    Hexadecapole Moments (Debye-Ang^3)
      XXXX    -240.5933   XXXY      -5.7224   XXYY     -83.0616
      XYYY     -18.2212   YYYY    -250.4509   XXXZ      25.0134
      XXYZ      10.6812   XYYZ      13.6912   YYYZ      22.0752
      XXZZ     -72.0672   XYZZ      -3.0682   YYZZ     -69.5037
      XZZZ      25.5974   YZZZ      14.8493   ZZZZ    -186.4718
 -----------------------------------------------------------------
 Calculating analytic gradient of the SCF energy
 Gradient of SCF Energy
            1           2           3           4           5           6
    1   0.0042940   0.0028687   0.0026541   0.0074287  -0.0120042   0.0080789
    2   0.0088366   0.0070763   0.0030110  -0.0034391   0.0083707  -0.0124496
    3  -0.0025622  -0.0029977   0.0133177  -0.0013058  -0.0073994   0.0044983
            7           8           9          10          11          12
    1  -0.0062841   0.0020415  -0.0038224  -0.0040087   0.0047387  -0.0075081
    2  -0.0004598  -0.0041158  -0.0036317   0.0011358  -0.0042775  -0.0041393
    3  -0.0005840  -0.0006666  -0.0023559   0.0002935   0.0034394   0.0021475
           13
    1   0.0015230
    2   0.0040825
    3  -0.0058247
 Max gradient component =       1.332E-02
 RMS gradient           =       5.634E-03
 Gradient time:  CPU 7.83 s  wall 1.99 s
 E1 = -286.8197736, E2 = -286.8199711, Emax = -286.8198568
 Iteration 5, Curvature = -0.8783015
 Curvature, final (in Hartree/Bohr^2) = -0.2459495
 ----------------------------------------------------------------
             Standard Nuclear Orientation (Angstroms)
    I     Atom           X                Y                Z
 ----------------------------------------------------------------
    1      C       1.5640078931     0.3751010745    -0.3210393798
    2      C       0.7327236491    -0.8522158424    -0.0391205719
    3      C      -0.4979028325    -0.5951546207    -0.8534822009
    4      C      -0.9080996671     0.6765767076     0.8862880567
    5      C      -0.5760120730     0.9278001787    -0.5858668661
    6      N       0.8621633981     1.3806918315    -0.6516665207
    7      H       2.6360058147     0.4286066498    -0.2025749572
    8      H       1.1918436995    -1.8461730880    -0.0271183542
    9      H      -1.2062532268    -1.2772240040    -1.3195969109
   10      H      -1.7171751955     1.1218283809     1.4568174982
   11      H      -1.2280219484     1.5581209666    -1.1682048019
   12      C      -0.3332826133    -0.5837311506     1.0325471022
   13      H      -0.5400128009    -1.3262034647     1.7852820700
 ----------------------------------------------------------------
 Nuclear Repulsion Energy =   280.6927660550 hartrees
 There are       25 alpha and       24 beta electrons
 Requested basis set is 6-31G(d)
 There are 40 shells and 117 basis functions
 Geometry Optimization Parameters
   NAtoms,    NIC,     NZ,  NCons,   NDum,   NFix, NCnnct, MaxDiis
       13     128       0       0       0       0       0       0


** GEOMETRY OPTIMIZATION IN DELOCALIZED INTERNAL COORDINATES **
   Searching for a Minimum

   Optimization Cycle:   1

                       Coordinates (Angstroms)
     ATOM                X               Y               Z
      1  C         1.5640078931    0.3751010745   -0.3210393798
      2  C         0.7327236491   -0.8522158424   -0.0391205719
      3  C        -0.4979028325   -0.5951546207   -0.8534822009
      4  C        -0.9080996671    0.6765767076    0.8862880567
      5  C        -0.5760120730    0.9278001787   -0.5858668661
      6  N         0.8621633981    1.3806918315   -0.6516665207
      7  H         2.6360058147    0.4286066498   -0.2025749572
      8  H         1.1918436995   -1.8461730880   -0.0271183542
      9  H        -1.2062532268   -1.2772240040   -1.3195969109
     10  H        -1.7171751955    1.1218283809    1.4568174982
     11  H        -1.2280219484    1.5581209666   -1.1682048019
     12  C        -0.3332826133   -0.5837311506    1.0325471022
     13  H        -0.5400128009   -1.3262034647    1.7852820700
   Point Group: c1    Number of degrees of freedom:    33


   Energy is   -286.819971108


 Attempting to Generate Delocalized Internal Coordinates

 33 Hessian modes will be used to form the next step
  Hessian Eigenvalues:
     0.011635    0.014004    0.015815    0.016458    0.019197    0.023496
     0.029021    0.043240    0.052126    0.054861    0.058516    0.062202
     0.079266    0.088618    0.109783    0.120084    0.140799    0.159672
     0.167622    0.214122    0.228072    0.247434    0.262365    0.286232
     0.309563    0.342483    0.350181    0.353354    0.360124    0.362679
     0.363204    0.408362    0.671184

 Minimum Search - Taking Simple RFO Step
 Searching for Lamda that Minimizes Along All modes
 Value Taken    Lamda =  -0.00176852
 Step Taken.  Stepsize is  0.127908

                             Maximum     Tolerance    Cnvgd?
         Gradient           0.009088      0.000300      NO
         Displacement       0.061373      0.001200      NO
         Energy change     *********      0.000001      NO


 New Cartesian Coordinates Obtained by Inverse Iteration

 Displacement from previous Coordinates is:  0.102590
 ----------------------------------------------------------------
             Standard Nuclear Orientation (Angstroms)
    I     Atom           X                Y                Z
 ----------------------------------------------------------------
    1      C       1.5523330072     0.3737772416    -0.3186074806
    2      C       0.7245203547    -0.8589642689    -0.0388355789
    3      C      -0.4909236383    -0.5978229204    -0.8741633086
    4      C      -0.9087389334     0.6749641817     0.8862959705
    5      C      -0.5735878410     0.9211522076    -0.5868072956
    6      N       0.8531451505     1.3885744343    -0.6577684955
    7      H       2.6332477702     0.4278751644    -0.1967590579
    8      H       1.1818481117    -1.8457950373    -0.0157083932
    9      H      -1.1921336474    -1.2724344272    -1.3417660392
   10      H      -1.6973822192     1.1291502945     1.4680765607
   11      H      -1.2371155934     1.5585351725    -1.1679678655
   12      C      -0.3304703623    -0.5844399236     1.0338703198
   13      H      -0.5347580622    -1.3265485000     1.8024048276
 ----------------------------------------------------------------
 Nuclear Repulsion Energy =   280.5308966491 hartrees
 There are       25 alpha and       24 beta electrons

































 Eigenvalues after right structure
 -0.2617195 0.0000000 0.0000000 0.0000000 0.0000000 0.0000000 0.0000956 0.0147274 0.0197782 0.0426725 0.0521633 0.0548880 0.0585318 0.0650338 0.0703594 0.0804654 0.0862111 0.1044898 0.1141884 0.1389112 0.1626514 0.1905103 0.2248014 0.2565908 0.2914171 0.3035120 0.4118111 0.4293928 0.5533867 0.6893669 0.7073371 0.8825968 1.0461223 1.0764482 1.1402703 1.1876659 1.2685786 1.4213449 1.8117440
Archival summary:
1\1\c8-66\JobtypUnspecified\ProcedureUnspecified\6-31G*\166(2)\hpark21\ThuMar317:42:292022ThuMar317:42:292022\0\\#,JobtypUnspecified,ProcedureUnspecified,6-31G*,\\0,2\N\C,1,1.27817\H,2,1.08911,1,122.219\C,1,1.50303,2,105.06,3,-174.912,0\H,4,1.08824,1,111.803,2,-160.234,0\C,2,1.51103,1,113.401,3,176.907,0\H,6,1.0879,2,120.909,1,162.696,0\C,6,1.49776,2,101.483,1,25.8469,0\H,8,1.07956,6,131.279,2,152.646,0\C,6,1.5294,2,111.182,1,-56.1026,0\H,10,1.08771,6,120.177,2,-139.038,0\C,10,1.39365,6,111.972,2,39.7602,0\H,12,1.08014,10,128.748,6,177.787,0\\\@

 Total job time:  1453.72s(wall), 5355.05s(cpu) 
 Thu Mar  3 17:42:29 2022

        *************************************************************
        *                                                           *
        *  Thank you very much for using Q-Chem.  Have a nice day.  *
        *                                                           *
        *************************************************************


