
Running Job 1 of 1 qcopt_rct.in
qchem qcopt_rct.in_18243.0 ./qcopt_rct.d/ 1
/home/leeping/opt/qchem/5.0.2-openmp/exe/qcprog.exe_s qcopt_rct.in_18243.0 ./qcopt_rct.d/
Check license passed

                  Welcome to Q-Chem
     A Quantum Leap Into The Future Of Chemistry


 Q-Chem 5.0, Q-Chem, Inc., Pleasanton, CA (2017)

 Yihan Shao,  Zhengting Gan,  E. Epifanovsky,  A. T. B. Gilbert,  M. Wormit,  
 J. Kussmann,  A. W. Lange,  A. Behn,  Jia Deng,  Xintian Feng,  D. Ghosh,  
 M. Goldey,  P. R. Horn,  L. D. Jacobson,  I. Kaliman,  T. Kus,  A. Landau,  
 Jie Liu,  E. I. Proynov,  R. M. Richard,  R. P. Steele,  E. J. Sundstrom,  
 H. L. Woodcock III,  P. M. Zimmerman,  D. Zuev,  B. Albrecht,  E. Alguire,  
 S. A. Baeppler,  D. Barton,  Z. Benda,  Y. A. Bernard,  E. J. Berquist,  
 K. B. Bravaya,  H. Burton,  D. Casanova,  Chun-Min Chang,  Yunqing Chen,  
 A. Chien,  K. D. Closser,  M. P. Coons,  S. Dasgupta,  A. L. Dempwolff,  
 M. Diedenhofen,  Hainam Do,  R. G. Edgar,  Po-Tung Fang,  S. Fatehi,  
 Qingguo Feng,  J. Fosso-Tande,  Qinghui Ge,  A. Ghysels,  G. Gidofalvi,  
 J. Gomes,  J. Gonthier,  A. Gunina,  M. W. D. Hanson-Heine,  
 P. H. P. Harbach,  A. W. Hauser,  J. E. Herr,  E. G. Hohenstein,  
 Z. C. Holden,  Kerwin Hui,  T.-C. Jagau,  Hyunjun Ji,  B. Kaduk,  
 K. Khistyaev,  Jaehoon Kim,  P. Klunzinger,  K. Koh,  D. Kosenkov,  
 L. Koulias,  T. Kowalczyk,  C. M. Krauter,  A. Kunitsa,  Ka Un Lao,  
 A. Laurent,  K. V. Lawler,  Joonho Lee,  D. Lefrancois,  S. Lehtola,  
 D. S. Levine,  Yi-Pei Li,  You-Sheng Lin,  Fenglai Liu,  E. Livshits,  
 A. Luenser,  P. Manohar,  E. Mansoor,  S. F. Manzer,  Shan-Ping Mao,  
 Yuezhi Mao,  N. Mardirossian,  A. V. Marenich,  T. Markovich,  
 L. A. Martinez-Martinez,  S. A. Maurer,  N. J. Mayhall,  S. C. McKenzie,  
 J.-M. Mewes,  A. F. Morrison,  J. W. Mullinax,  K. Nanda,  
 T. S. Nguyen-Beck,  R. Olivares-Amaya,  J. A. Parkhill,  T. M. Perrine,  
 F. Plasser,  S. Prager,  A. Prociuk,  E. Ramos,  D. R. Rehn,  F. Rob,  
 M. Schneider,  N. Sergueev,  S. M. Sharada,  S. Sharma,  D. W. Small,  
 T. Stauch,  T. Stein,  Yu-Chuan Su,  A. J. W. Thom,  A. Tkatchenko,  
 T. Tsuchimochi,  L. Vogt,  O. Vydrov,  M. A. Watson,  J. Wenzel,  
 M. de Wergifosse,  T. A. Wesolowski,  A. White,  J. Witte,  A. Yamada,  
 Jun Yang,  K. Yao,  S. Yeganeh,  S. R. Yost,  Zhi-Qiang You,  A. Zech,  
 Igor Ying Zhang,  Xing Zhang,  Yan Zhao,  Ying Zhu,  B. R. Brooks,  
 G. K. L. Chan,  C. J. Cramer,  M. S. Gordon,  W. J. Hehre,  A. Klamt,  
 M. W. Schmidt,  C. D. Sherrill,  D. G. Truhlar,  A. Aspuru-Guzik,  R. Baer,  
 A. T. Bell,  N. A. Besley,  Jeng-Da Chai,  R. A. DiStasio Jr.,  A. Dreuw,  
 B. D. Dunietz,  T. R. Furlani,  Chao-Ping Hsu,  Yousung Jung,  Jing Kong,  
 D. S. Lambrecht,  WanZhen Liang,  C. Ochsenfeld,  V. A. Rassolov,  
 L. V. Slipchenko,  J. E. Subotnik,  T. Van Voorhis,  J. M. Herbert,  
 A. I. Krylov,  P. M. W. Gill,  M. Head-Gordon

 Contributors to earlier versions of Q-Chem not listed above: 
 R. D. Adamson,  B. Austin,  J. Baker,  G. J. O. Beran,  K. Brandhorst,  
 S. T. Brown,  E. F. C. Byrd,  A. K. Chakraborty,  C.-L. Cheng,  
 Siu Hung Chien,  D. M. Chipman,  D. L. Crittenden,  H. Dachsel,  
 R. J. Doerksen,  A. D. Dutoi,  L. Fusti-Molnar,  W. A. Goddard III,  
 A. Golubeva-Zadorozhnaya,  S. R. Gwaltney,  G. Hawkins,  A. Heyden,  
 S. Hirata,  G. Kedziora,  F. J. Keil,  C. Kelley,  Jihan Kim,  R. A. King,  
 R. Z. Khaliullin,  P. P. Korambath,  W. Kurlancheek,  A. M. Lee,  M. S. Lee,  
 S. V. Levchenko,  Ching Yeh Lin,  D. Liotard,  R. C. Lochan,  I. Lotan,  
 P. E. Maslen,  N. Nair,  D. P. O'Neill,  D. Neuhauser,  E. Neuscamman,  
 C. M. Oana,  R. Olson,  B. Peters,  R. Peverati,  P. A. Pieniazek,  
 Y. M. Rhee,  J. Ritchie,  M. A. Rohrdanz,  E. Rosta,  N. J. Russ,  
 H. F. Schaefer III,  N. E. Schultz,  N. Shenvi,  A. C. Simmonett,  A. Sodt,  
 D. Stuck,  K. S. Thanthiriwatte,  V. Vanovschi,  Tao Wang,  A. Warshel,  
 C. F. Williams,  Q. Wu,  X. Xu,  W. Zhang

 Please cite Q-Chem as follows:
 Y. Shao et al., Mol. Phys. 113, 184-215 (2015)
 DOI: 10.1080/00268976.2014.952696

 Q-Chem 5.0.2 for Intel X86 EM64T Linux

 Parts of Q-Chem use Armadillo 5.200.1 (Boston Tea Smuggler).
 http://arma.sourceforge.net/

 Q-Chem begins on Thu Mar  3 17:16:59 2022  

Host: 
0

     Scratch files written to ./qcopt_rct.d//
 Dec517 15110_ 26548  26544 5633   
Processing $rem in /home/leeping/opt/qchem/5.0.2-openmp/config/preferences.
 MEM_STATIC 2000
 MEM_TOTAL  8000
 SYMMETRY   OFF
 SYM_IGNORE TRUE 

Checking the input file for inconsistencies... 	...done.

--------------------------------------------------------------
User input:
--------------------------------------------------------------
$molecule
0 2
C        1.5189874062    0.3441588063   -0.2644252994
C        0.6216192586   -0.8944701024   -0.0647318007
C       -0.3948716278   -0.5208172525   -1.1474916430
C       -1.0026577606    0.5083552418    0.8086557238
C       -0.5872412418    0.8947648274   -0.6197781154
N        0.8524697132    1.3865955360   -0.5761305058
H        2.5997530457    0.3578848315   -0.1336547130
H        1.1020933072   -1.8728860788   -0.0775504506
H       -1.2194040131   -1.1747379185   -1.4269638383
H       -1.7237658678    1.0470917705    1.4134949852
H       -1.2335871503    1.5920977564   -1.1505755036
C       -0.2723898965   -0.5664110507    1.1480186723
H       -0.2610051735   -1.1016263668    2.0911324881
$end

$rem
method                b3lyp
basis                 6-31g(d)
unrestricted          true
symmetry              off
sym_ignore            true
incdft                false
incfock               0
scf_convergence       8
thresh                14
jobtype               opt
scf_guess             core
scf_guess_mix         5
scf_algorithm         diis
max_scf_cycles        100
geom_opt_max_cycles   300
$end

--------------------------------------------------------------
 ----------------------------------------------------------------
             Standard Nuclear Orientation (Angstroms)
    I     Atom           X                Y                Z
 ----------------------------------------------------------------
    1      C       1.5189874062     0.3441588063    -0.2644252994
    2      C       0.6216192586    -0.8944701024    -0.0647318007
    3      C      -0.3948716278    -0.5208172525    -1.1474916430
    4      C      -1.0026577606     0.5083552418     0.8086557238
    5      C      -0.5872412418     0.8947648274    -0.6197781154
    6      N       0.8524697132     1.3865955360    -0.5761305058
    7      H       2.5997530457     0.3578848315    -0.1336547130
    8      H       1.1020933072    -1.8728860788    -0.0775504506
    9      H      -1.2194040131    -1.1747379185    -1.4269638383
   10      H      -1.7237658678     1.0470917705     1.4134949852
   11      H      -1.2335871503     1.5920977564    -1.1505755036
   12      C      -0.2723898965    -0.5664110507     1.1480186723
   13      H      -0.2610051735    -1.1016263668     2.0911324881
 ----------------------------------------------------------------
 Nuclear Repulsion Energy =   279.1120695354 hartrees
 There are       25 alpha and       24 beta electrons
 Requested basis set is 6-31G(d)
 There are 40 shells and 117 basis functions

 Total QAlloc Memory Limit   8000 MB
 Mega-Array Size      1956 MB
 MEM_STATIC part      2000 MB
 A cutoff of  1.0D-14 yielded    814 shell pairs
 There are      7086 function pairs
 
 -------------------------------------------------------
 OpenMP Integral Computing Module                       
 Release: version 1.0, May 2013, Q-Chem Inc. Pittsburgh 
 -------------------------------------------------------
 Integral Job Info:
 Integral job number is                      11
 Integral operator is                         1
 short-range coefficients                     0
 long-range coefficients              100000000
 Omega coefficients                           0
 if combine SR and LR in K                    0
 Integral screening is                        0
 Integral computing path is                   2
 max size of driver memory is            800000
 size of driver memory is                593474
 size of scratch memory is              2361544
 max col of scratch BK array               1296
 max len of scratch array in speh3          155
 max len of scratch index in speh4           18
 max int batch size is                      520
 min int batch size is                       52
 fixed nKL is                                52
 max L of basis functions is                  2
 order of int derivative is                   0
 number of shells is                         40
 number of basis is                         117
 number of cartesian basis is               117
 number of contracted shell pairs           814
 number of primitive shell pairs           3589
 maxK2 (contraction) of shell pair           36
 max number of K2 of shell pair               1
 max number of CS2 of shell pair             85
 max number of PS2 of shell pair            390
 mem total for path MDJ                  535308
 -------------------------------------------------------
 Smallest overlap matrix eigenvalue = 1.11E-03

 Scale SEOQF with 1.000000e-01/1.000000e-01/1.000000e-01

 Standard Electronic Orientation quadrupole field applied
 Nucleus-field energy     =     0.0000000007 hartrees
 Guess MOs from core Hamiltonian diagonalization
 Mixing HOMO and LUMO in initial guess
 Adding  50% of the LUMO to the HOMO
 An unrestricted hybrid HF-DFT SCF calculation will be
 performed using Pulay DIIS extrapolation
 Exchange:     0.2000 Hartree-Fock + 0.0800 Slater + 0.7200 B88
 Correlation:  0.1900 VWN1RPA + 0.8100 LYP
 Using SG-1 standard quadrature grid
 SCF converges when DIIS error is below 1.0E-08
 using 4 threads for integral computing
 -------------------------------------------------------
 OpenMP Integral computing Module                
 Release: version 1.0, May 2013, Q-Chem Inc. Pittsburgh 
 -------------------------------------------------------
 -------------------------------------------------------
 OpenMP BLAS3 based DFT computing Module                
 Release: version 1.0, May 2013, Q-Chem Inc. Pittsburgh 
 -------------------------------------------------------
 ---------------------------------------
  Cycle       Energy         DIIS Error
 ---------------------------------------
    1    -235.0785976788      1.38E-01
    2    -230.1400558027      1.00E-01
    3    -251.1126132063      1.10E-01
    4    -282.7783771623      4.17E-02
    5    -282.6677265870      4.15E-02
    6    -286.2682517350      1.59E-02
    7    -286.5137051663      1.13E-02
    8    -286.7799936800      5.40E-03
    9    -286.8418649197      1.93E-03
   10    -286.8491349307      1.12E-03
   11    -286.8511948269      3.12E-04
   12    -286.8515604418      1.02E-04
   13    -286.8516184946      4.97E-05
   14    -286.8516314121      1.28E-05
   15    -286.8516334050      5.55E-06
   16    -286.8516339502      1.44E-06
   17    -286.8516342429      6.13E-07
   18    -286.8516343910      4.32E-07
   19    -286.8516345221      1.74E-07
   20    -286.8516345402      2.19E-08
   21    -286.8516345402      6.30E-09 Convergence criterion met
 ---------------------------------------
 <S^2> = 0.7537
 SCF time:  CPU 50.47 s  wall 13.15 s
 SCF   energy in the final basis set = -286.85163454
 Total energy in the final basis set = -286.85163454
 
 --------------------------------------------------------------
 
                    Orbital Energies (a.u.)
 --------------------------------------------------------------
 
 Alpha MOs
 -- Occupied --
-14.322 -10.224 -10.220 -10.210 -10.204 -10.201 -10.197  -0.952
 -0.821  -0.726  -0.705  -0.579  -0.573  -0.531  -0.512  -0.472
 -0.418  -0.410  -0.381  -0.373  -0.348  -0.294  -0.271  -0.258
 -0.196
 -- Virtual --
 -0.021   0.029   0.103   0.140   0.150   0.154   0.159   0.163
  0.172   0.210   0.215   0.255   0.288   0.322   0.346   0.366
  0.495   0.510   0.532   0.539   0.570   0.599   0.606   0.622
  0.635   0.640   0.655   0.690   0.701   0.729   0.779   0.791
  0.799   0.817   0.825   0.846   0.858   0.876   0.891   0.941
  0.965   1.005   1.059   1.092   1.201   1.264   1.334   1.339
  1.396   1.407   1.486   1.510   1.563   1.610   1.658   1.725
  1.784   1.796   1.827   1.892   1.954   1.986   2.000   2.048
  2.097   2.138   2.173   2.208   2.235   2.276   2.315   2.335
  2.425   2.477   2.515   2.533   2.547   2.619   2.629   2.645
  2.722   2.835   2.856   2.904   2.939   3.922   4.188   4.267
  4.279   4.396   4.543   4.678
 
 Beta MOs
 -- Occupied --
-14.321 -10.224 -10.221 -10.210 -10.200 -10.196 -10.190  -0.949
 -0.815  -0.725  -0.690  -0.577  -0.561  -0.527  -0.509  -0.463
 -0.414  -0.406  -0.380  -0.369  -0.342  -0.287  -0.261  -0.255
 -- Virtual --
 -0.045  -0.016   0.031   0.105   0.143   0.153   0.158   0.160
  0.166   0.176   0.216   0.224   0.267   0.290   0.324   0.349
  0.369   0.497   0.529   0.540   0.544   0.577   0.604   0.611
  0.625   0.641   0.658   0.662   0.693   0.708   0.742   0.782
  0.793   0.810   0.819   0.827   0.848   0.860   0.879   0.894
  0.943   0.973   1.013   1.060   1.098   1.204   1.266   1.338
  1.345   1.401   1.411   1.489   1.512   1.578   1.619   1.665
  1.728   1.793   1.799   1.837   1.910   1.966   1.998   2.003
  2.054   2.120   2.144   2.179   2.224   2.249   2.281   2.317
  2.339   2.428   2.494   2.517   2.542   2.553   2.630   2.636
  2.648   2.729   2.837   2.859   2.906   2.942   3.923   4.190
  4.269   4.307   4.399   4.549   4.679
 --------------------------------------------------------------
 
          Ground-State Mulliken Net Atomic Charges

     Atom                 Charge (a.u.)    Spin (a.u.)
  --------------------------------------------------------
      1 C                     0.092035      -0.008882
      2 C                    -0.245887      -0.044106
      3 C                    -0.096576       0.976325
      4 C                    -0.088241       0.040149
      5 C                    -0.094632      -0.045292
      6 N                    -0.324950       0.022360
      7 H                     0.149659      -0.000170
      8 H                     0.133894       0.002858
      9 H                     0.138953      -0.026745
     10 H                     0.146014       0.000915
     11 H                     0.139819       0.003019
     12 C                    -0.095683       0.079253
     13 H                     0.145593       0.000317
  --------------------------------------------------------
  Sum of atomic charges =    -0.000000
  Sum of spin   charges =     1.000000

 -----------------------------------------------------------------
                    Cartesian Multipole Moments
 -----------------------------------------------------------------
    Charge (ESU x 10^10)
                 0.0000
    Dipole Moment (Debye)
         X      -0.6981      Y      -1.9418      Z       1.1682
       Tot       2.3712
    Quadrupole Moments (Debye-Ang)
        XX     -37.5484     XY      -3.9707     YY     -43.0201
        XZ       1.0826     YZ       0.6327     ZZ     -40.9022
    Octopole Moments (Debye-Ang^2)
       XXX      -4.0523    XXY      -5.2624    XYY     -10.0395
       YYY     -26.4341    XXZ       3.7858    XYZ       0.5269
       YYZ       6.3916    XZZ      -7.5905    YZZ      -7.3380
       ZZZ      17.1222
    Hexadecapole Moments (Debye-Ang^3)
      XXXX    -231.8527   XXXY      -5.2688   XXYY     -80.8824
      XYYY     -17.7954   YYYY    -239.6601   XXXZ      20.0094
      XXYZ      10.8823   XYYZ      11.5256   YYYZ      22.9012
      XXZZ     -75.6968   XYZZ      -3.7388   YYZZ     -71.1164
      XZZZ      19.8351   YZZZ      13.1784   ZZZZ    -211.0853
 -----------------------------------------------------------------
 Calculating analytic gradient of the SCF energy
 Gradient of SCF Energy
            1           2           3           4           5           6
    1  -0.0000091  -0.0003248   0.0002682  -0.0000194  -0.0002892   0.0001914
    2   0.0000849  -0.0000979   0.0000377  -0.0003194   0.0000177   0.0000479
    3  -0.0000092  -0.0000841   0.0002081  -0.0001275  -0.0000297   0.0000043
            7           8           9          10          11          12
    1   0.0000084   0.0000216   0.0000076   0.0000962   0.0000104   0.0001367
    2  -0.0000183   0.0000026  -0.0000206   0.0001910  -0.0000018   0.0000120
    3   0.0000473  -0.0000021  -0.0000635  -0.0000557  -0.0000148   0.0001440
           13
    1  -0.0000981
    2   0.0000641
    3  -0.0000171
 Max gradient component =       3.248E-04
 RMS gradient           =       1.239E-04
 Gradient time:  CPU 7.50 s  wall 1.98 s
 Geometry Optimization Parameters
   NAtoms,    NIC,     NZ,  NCons,   NDum,   NFix, NCnnct, MaxDiis
       13     104       0       0       0       0       0       0


** GEOMETRY OPTIMIZATION IN DELOCALIZED INTERNAL COORDINATES **
   Searching for a Minimum

   Optimization Cycle:   1

                       Coordinates (Angstroms)
     ATOM                X               Y               Z
      1  C         1.5189874062    0.3441588063   -0.2644252994
      2  C         0.6216192586   -0.8944701024   -0.0647318007
      3  C        -0.3948716278   -0.5208172525   -1.1474916430
      4  C        -1.0026577606    0.5083552418    0.8086557238
      5  C        -0.5872412418    0.8947648274   -0.6197781154
      6  N         0.8524697132    1.3865955360   -0.5761305058
      7  H         2.5997530457    0.3578848315   -0.1336547130
      8  H         1.1020933072   -1.8728860788   -0.0775504506
      9  H        -1.2194040131   -1.1747379185   -1.4269638383
     10  H        -1.7237658678    1.0470917705    1.4134949852
     11  H        -1.2335871503    1.5920977564   -1.1505755036
     12  C        -0.2723898965   -0.5664110507    1.1480186723
     13  H        -0.2610051735   -1.1016263668    2.0911324881
   Point Group: c1    Number of degrees of freedom:    33


   Energy is   -286.851634540


 Attempting to Generate Delocalized Internal Coordinates

 33 Hessian modes will be used to form the next step
  Hessian Eigenvalues:
     0.009886    0.010782    0.012024    0.014538    0.016780    0.021813
     0.046730    0.047648    0.055665    0.062825    0.065754    0.081976
     0.108088    0.131006    0.141993    0.159716    0.159860    0.159943
     0.185976    0.253245    0.254366    0.263147    0.268656    0.283777
     0.293240    0.348011    0.349359    0.349471    0.349592    0.354602
     0.354610    0.507249    0.664564

 Minimum Search - Taking Simple RFO Step
 Searching for Lamda that Minimizes Along All modes
 Value Taken    Lamda =  -0.00000253
 Step Taken.  Stepsize is  0.011015

                             Maximum     Tolerance    Cnvgd?
         Gradient           0.000188      0.000300     YES
         Displacement       0.006236      0.001200      NO
         Energy change     *********      0.000001      NO


 New Cartesian Coordinates Obtained by Inverse Iteration

 Displacement from previous Coordinates is:  0.009084
 ----------------------------------------------------------------
             Standard Nuclear Orientation (Angstroms)
    I     Atom           X                Y                Z
 ----------------------------------------------------------------
    1      C       1.5196064083     0.3442176359    -0.2647498113
    2      C       0.6221910759    -0.8940405312    -0.0646369957
    3      C      -0.3952253894    -0.5208002580    -1.1471709512
    4      C      -1.0024397321     0.5090488337     0.8088329712
    5      C      -0.5865611275     0.8950915377    -0.6196965598
    6      N       0.8529936719     1.3866026078    -0.5763721742
    7      H       2.6004537052     0.3578173006    -0.1347298327
    8      H       1.1022839515    -1.8726391545    -0.0770508911
    9      H      -1.2205006449    -1.1745351807    -1.4247171051
   10      H      -1.7260969450     1.0452223798     1.4129090688
   11      H      -1.2326903086     1.5924616930    -1.1507044867
   12      C      -0.2723699907    -0.5660417208     1.1477718905
   13      H      -0.2616446750    -1.1024051431     2.0903148770
 ----------------------------------------------------------------
 Nuclear Repulsion Energy =   279.1080848496 hartrees
 There are       25 alpha and       24 beta electrons
 Applying Cartesian multipole field
    Component          Value
    ---------          -----
     (2,0,0)        1.00000E-11
     (0,2,0)        2.00000E-11
     (0,0,2)       -3.00000E-11
 Nucleus-field energy     =     0.0000000007 hartrees
 Requested basis set is 6-31G(d)
 There are 40 shells and 117 basis functions
 A cutoff of  1.0D-14 yielded    814 shell pairs
 There are      7086 function pairs
 Smallest overlap matrix eigenvalue = 1.11E-03
 Guess MOs from SCF MO coefficient file
 Reading MOs from coefficient file
 Mixing HOMO and LUMO in initial guess
 Adding  50% of the LUMO to the HOMO
 Reading MOs from coefficient file
 An unrestricted hybrid HF-DFT SCF calculation will be
 performed using Pulay DIIS extrapolation
 Exchange:     0.2000 Hartree-Fock + 0.0800 Slater + 0.7200 B88
 Correlation:  0.1900 VWN1RPA + 0.8100 LYP
 Using SG-1 standard quadrature grid
 SCF converges when DIIS error is below 1.0E-08
 Geometry optimization detected.  Setting ReadMinima to 0
 Setting SaveMinima to 0
 using 4 threads for integral computing
 -------------------------------------------------------
 OpenMP Integral computing Module                
 Release: version 1.0, May 2013, Q-Chem Inc. Pittsburgh 
 -------------------------------------------------------
 -------------------------------------------------------
 OpenMP BLAS3 based DFT computing Module                
 Release: version 1.0, May 2013, Q-Chem Inc. Pittsburgh 
 -------------------------------------------------------
 ---------------------------------------
  Cycle       Energy         DIIS Error
 ---------------------------------------
    1    -286.8205757085      1.81E-03
    2    -286.8199709529      4.09E-03
    3    -286.8491153560      8.19E-04
    4    -286.8508235164      4.74E-04
    5    -286.8514624554      9.09E-05
    6    -286.8515610400      9.33E-05
    7    -286.8515966344      2.54E-05
    8    -286.8516182514      1.07E-05
    9    -286.8516266320      3.24E-06
   10    -286.8516327125      1.75E-06
   11    -286.8516351667      1.12E-06
   12    -286.8516360005      5.98E-07
   13    -286.8516361572      1.45E-07
   14    -286.8516361591      5.38E-08
   15    -286.8516361591      1.52E-08
   16    -286.8516361591      4.04E-09 Convergence criterion met
 ---------------------------------------
 <S^2> = 0.7537
 SCF time:  CPU 37.96 s  wall 9.70 s
 SCF   energy in the final basis set = -286.85163616
 Total energy in the final basis set = -286.85163616
 
 --------------------------------------------------------------
 
                    Orbital Energies (a.u.)
 --------------------------------------------------------------
 
 Alpha MOs
 -- Occupied --
-14.322 -10.224 -10.220 -10.210 -10.204 -10.201 -10.197  -0.952
 -0.821  -0.726  -0.705  -0.579  -0.573  -0.531  -0.512  -0.472
 -0.418  -0.410  -0.381  -0.373  -0.348  -0.294  -0.271  -0.258
 -0.196
 -- Virtual --
 -0.021   0.029   0.103   0.140   0.150   0.154   0.159   0.163
  0.172   0.210   0.215   0.255   0.288   0.322   0.346   0.366
  0.495   0.510   0.532   0.539   0.570   0.599   0.606   0.622
  0.635   0.640   0.655   0.689   0.701   0.729   0.779   0.791
  0.799   0.817   0.825   0.846   0.858   0.876   0.891   0.940
  0.965   1.005   1.059   1.092   1.201   1.264   1.334   1.339
  1.396   1.407   1.487   1.510   1.563   1.611   1.659   1.725
  1.784   1.796   1.827   1.892   1.954   1.986   2.000   2.048
  2.097   2.138   2.172   2.208   2.235   2.276   2.315   2.335
  2.425   2.476   2.515   2.533   2.548   2.619   2.629   2.645
  2.722   2.835   2.856   2.904   2.939   3.922   4.187   4.267
  4.279   4.396   4.543   4.678
 
 Beta MOs
 -- Occupied --
-14.321 -10.224 -10.221 -10.210 -10.200 -10.196 -10.190  -0.949
 -0.815  -0.725  -0.690  -0.577  -0.561  -0.527  -0.509  -0.463
 -0.414  -0.406  -0.379  -0.369  -0.342  -0.287  -0.261  -0.255
 -- Virtual --
 -0.045  -0.016   0.031   0.105   0.143   0.153   0.158   0.160
  0.166   0.176   0.216   0.223   0.267   0.290   0.324   0.349
  0.369   0.497   0.529   0.540   0.544   0.577   0.604   0.611
  0.624   0.641   0.658   0.662   0.693   0.708   0.742   0.782
  0.793   0.810   0.819   0.827   0.848   0.860   0.879   0.894
  0.942   0.973   1.013   1.060   1.099   1.204   1.265   1.338
  1.345   1.401   1.411   1.489   1.513   1.578   1.619   1.665
  1.728   1.793   1.799   1.837   1.910   1.966   1.998   2.003
  2.054   2.119   2.144   2.179   2.224   2.249   2.281   2.318
  2.339   2.428   2.494   2.517   2.542   2.553   2.630   2.636
  2.648   2.729   2.837   2.859   2.906   2.942   3.923   4.190
  4.269   4.307   4.399   4.549   4.679
 --------------------------------------------------------------
 
          Ground-State Mulliken Net Atomic Charges

     Atom                 Charge (a.u.)    Spin (a.u.)
  --------------------------------------------------------
      1 C                     0.092119      -0.008819
      2 C                    -0.245813      -0.044022
      3 C                    -0.096643       0.976118
      4 C                    -0.088107       0.040425
      5 C                    -0.094689      -0.045226
      6 N                    -0.324975       0.022135
      7 H                     0.149667      -0.000174
      8 H                     0.133872       0.002856
      9 H                     0.138953      -0.026712
     10 H                     0.146058       0.000877
     11 H                     0.139808       0.003024
     12 C                    -0.095837       0.079208
     13 H                     0.145588       0.000311
  --------------------------------------------------------
  Sum of atomic charges =     0.000000
  Sum of spin   charges =     1.000000

 -----------------------------------------------------------------
                    Cartesian Multipole Moments
 -----------------------------------------------------------------
    Charge (ESU x 10^10)
                 0.0000
    Dipole Moment (Debye)
         X      -0.7008      Y      -1.9432      Z       1.1696
       Tot       2.3738
    Quadrupole Moments (Debye-Ang)
        XX     -37.5387     XY      -3.9690     YY     -43.0229
        XZ       1.0758     YZ       0.6273     ZZ     -40.9112
    Octopole Moments (Debye-Ang^2)
       XXX      -4.0978    XXY      -5.2745    XYY     -10.0500
       YYY     -26.4675    XXZ       3.7955    XYZ       0.5307
       YYZ       6.3946    XZZ      -7.6012    YZZ      -7.3452
       ZZZ      17.1227
    Hexadecapole Moments (Debye-Ang^3)
      XXXX    -231.8985   XXXY      -5.2924   XXYY     -80.9132
      XYYY     -17.8065   YYYY    -239.6640   XXXZ      20.0001
      XXYZ      10.8908   XYYZ      11.5423   YYYZ      22.8980
      XXZZ     -75.6975   XYZZ      -3.7459   YYZZ     -71.1206
      XZZZ      19.8535   YZZZ      13.1760   ZZZZ    -211.0744
 -----------------------------------------------------------------
 Calculating analytic gradient of the SCF energy
 Gradient of SCF Energy
            1           2           3           4           5           6
    1   0.0000570  -0.0001596   0.0000540  -0.0000116  -0.0001571   0.0001805
    2   0.0001151  -0.0000396  -0.0000259  -0.0000537  -0.0000933   0.0000017
    3   0.0000058  -0.0000370   0.0001164  -0.0000319  -0.0000016   0.0000235
            7           8           9          10          11          12
    1   0.0000079   0.0000077   0.0000253   0.0000029   0.0000252   0.0000391
    2  -0.0000213   0.0000040  -0.0000012   0.0000811  -0.0000140   0.0000226
    3   0.0000191   0.0000061  -0.0000480  -0.0000372  -0.0000221   0.0000046
           13
    1  -0.0000712
    2   0.0000246
    3   0.0000022
 Max gradient component =       1.805E-04
 RMS gradient           =       6.276E-05
 Gradient time:  CPU 7.82 s  wall 2.00 s
 Geometry Optimization Parameters
   NAtoms,    NIC,     NZ,  NCons,   NDum,   NFix, NCnnct, MaxDiis
       13     104       0       0       0       0       0       0

 Cartesian Hessian Update
 Hessian Updated using BFGS Update


** GEOMETRY OPTIMIZATION IN DELOCALIZED INTERNAL COORDINATES **
   Searching for a Minimum

   Optimization Cycle:   2

                       Coordinates (Angstroms)
     ATOM                X               Y               Z
      1  C         1.5196064083    0.3442176359   -0.2647498113
      2  C         0.6221910759   -0.8940405312   -0.0646369957
      3  C        -0.3952253894   -0.5208002580   -1.1471709512
      4  C        -1.0024397321    0.5090488337    0.8088329712
      5  C        -0.5865611275    0.8950915377   -0.6196965598
      6  N         0.8529936719    1.3866026078   -0.5763721742
      7  H         2.6004537052    0.3578173006   -0.1347298327
      8  H         1.1022839515   -1.8726391545   -0.0770508911
      9  H        -1.2205006449   -1.1745351807   -1.4247171051
     10  H        -1.7260969450    1.0452223798    1.4129090688
     11  H        -1.2326903086    1.5924616930   -1.1507044867
     12  C        -0.2723699907   -0.5660417208    1.1477718905
     13  H        -0.2616446750   -1.1024051431    2.0903148770
   Point Group: c1    Number of degrees of freedom:    33


   Energy is   -286.851636159

 Hessian Updated using BFGS Update

 33 Hessian modes will be used to form the next step
  Hessian Eigenvalues:
     0.009258    0.010302    0.012044    0.013256    0.015995    0.021989
     0.046979    0.047410    0.054285    0.063005    0.066292    0.081946
     0.105736    0.133726    0.141117    0.152063    0.159913    0.159947
     0.193812    0.243740    0.253759    0.261061    0.268867    0.279983
     0.293850    0.348028    0.349345    0.349587    0.349810    0.354439
     0.355180    0.507270    0.663645

 Minimum Search - Taking Simple RFO Step
 Searching for Lamda that Minimizes Along All modes
 Value Taken    Lamda =   0.00000000
 Step Taken.  Stepsize is  0.006341

                             Maximum     Tolerance    Cnvgd?
         Gradient           0.000089      0.000300     YES
         Displacement       0.002631      0.001200      NO
         Energy change     -0.000002      0.000001      NO


 New Cartesian Coordinates Obtained by Inverse Iteration

 Displacement from previous Coordinates is:  0.005149
 ----------------------------------------------------------------
             Standard Nuclear Orientation (Angstroms)
    I     Atom           X                Y                Z
 ----------------------------------------------------------------
    1      C       1.5196817895     0.3440739078    -0.2649461972
    2      C       0.6224748319    -0.8939218341    -0.0647136388
    3      C      -0.3953703744    -0.5206731519    -1.1472882853
    4      C      -1.0023286462     0.5091940545     0.8086810719
    5      C      -0.5861713701     0.8954094682    -0.6198733192
    6      N       0.8530895815     1.3865087220    -0.5766345126
    7      H       2.6004622616     0.3578332345    -0.1344527725
    8      H       1.1022922546    -1.8726626952    -0.0767669264
    9      H      -1.2213134024    -1.1742516431    -1.4232003148
   10      H      -1.7271370039     1.0439991456     1.4125314193
   11      H      -1.2321738086     1.5929355166    -1.1508801546
   12      C      -0.2722119407    -0.5659090966     1.1475628476
   13      H      -0.2612941731    -1.1025356283     2.0899807822
 ----------------------------------------------------------------
 Nuclear Repulsion Energy =   279.1132855040 hartrees
 There are       25 alpha and       24 beta electrons
 Applying Cartesian multipole field
    Component          Value
    ---------          -----
     (2,0,0)        1.00000E-11
     (0,2,0)        2.00000E-11
     (0,0,2)       -3.00000E-11
 Nucleus-field energy     =     0.0000000007 hartrees
 Requested basis set is 6-31G(d)
 There are 40 shells and 117 basis functions
 A cutoff of  1.0D-14 yielded    814 shell pairs
 There are      7086 function pairs
 Smallest overlap matrix eigenvalue = 1.11E-03
 Guess MOs from SCF MO coefficient file
 Reading MOs from coefficient file
 Mixing HOMO and LUMO in initial guess
 Adding  50% of the LUMO to the HOMO
 Reading MOs from coefficient file
 An unrestricted hybrid HF-DFT SCF calculation will be
 performed using Pulay DIIS extrapolation
 Exchange:     0.2000 Hartree-Fock + 0.0800 Slater + 0.7200 B88
 Correlation:  0.1900 VWN1RPA + 0.8100 LYP
 Using SG-1 standard quadrature grid
 SCF converges when DIIS error is below 1.0E-08
 Geometry optimization detected.  Setting ReadMinima to 0
 Setting SaveMinima to 0
 using 4 threads for integral computing
 -------------------------------------------------------
 OpenMP Integral computing Module                
 Release: version 1.0, May 2013, Q-Chem Inc. Pittsburgh 
 -------------------------------------------------------
 -------------------------------------------------------
 OpenMP BLAS3 based DFT computing Module                
 Release: version 1.0, May 2013, Q-Chem Inc. Pittsburgh 
 -------------------------------------------------------
 ---------------------------------------
  Cycle       Energy         DIIS Error
 ---------------------------------------
    1    -286.8206097371      1.81E-03
    2    -286.8199751504      4.09E-03
    3    -286.8491171873      8.19E-04
    4    -286.8508232872      4.73E-04
    5    -286.8514623019      9.24E-05
    6    -286.8515603428      9.53E-05
    7    -286.8515969693      2.53E-05
    8    -286.8516186329      1.06E-05
    9    -286.8516269996      3.24E-06
   10    -286.8516330685      1.76E-06
   11    -286.8516355165      1.12E-06
   12    -286.8516363524      5.98E-07
   13    -286.8516365089      1.45E-07
   14    -286.8516365108      5.39E-08
   15    -286.8516365108      1.52E-08
   16    -286.8516365108      4.04E-09 Convergence criterion met
 ---------------------------------------
 <S^2> = 0.7537
 SCF time:  CPU 39.78 s  wall 12.34 s
 SCF   energy in the final basis set = -286.85163651
 Total energy in the final basis set = -286.85163651
 
 --------------------------------------------------------------
 
                    Orbital Energies (a.u.)
 --------------------------------------------------------------
 
 Alpha MOs
 -- Occupied --
-14.322 -10.223 -10.220 -10.210 -10.204 -10.201 -10.197  -0.952
 -0.821  -0.726  -0.705  -0.579  -0.573  -0.531  -0.512  -0.472
 -0.418  -0.410  -0.381  -0.373  -0.348  -0.294  -0.271  -0.258
 -0.196
 -- Virtual --
 -0.021   0.029   0.103   0.140   0.150   0.154   0.159   0.163
  0.172   0.210   0.215   0.255   0.288   0.322   0.346   0.366
  0.495   0.510   0.532   0.540   0.570   0.599   0.606   0.622
  0.635   0.641   0.655   0.689   0.700   0.729   0.778   0.791
  0.800   0.817   0.825   0.846   0.858   0.876   0.891   0.940
  0.965   1.005   1.059   1.092   1.201   1.264   1.334   1.339
  1.396   1.407   1.487   1.510   1.563   1.611   1.659   1.725
  1.784   1.796   1.827   1.892   1.954   1.986   2.000   2.049
  2.097   2.138   2.172   2.208   2.235   2.276   2.315   2.335
  2.425   2.476   2.515   2.533   2.548   2.618   2.629   2.645
  2.722   2.835   2.856   2.904   2.939   3.922   4.188   4.267
  4.279   4.396   4.543   4.678
 
 Beta MOs
 -- Occupied --
-14.321 -10.224 -10.221 -10.210 -10.200 -10.196 -10.190  -0.949
 -0.815  -0.725  -0.690  -0.577  -0.561  -0.527  -0.509  -0.463
 -0.414  -0.406  -0.379  -0.369  -0.342  -0.287  -0.261  -0.255
 -- Virtual --
 -0.045  -0.016   0.031   0.105   0.143   0.153   0.158   0.160
  0.166   0.176   0.216   0.223   0.267   0.290   0.324   0.349
  0.369   0.497   0.529   0.540   0.544   0.577   0.603   0.611
  0.624   0.641   0.658   0.662   0.693   0.708   0.742   0.782
  0.793   0.810   0.819   0.827   0.848   0.860   0.879   0.894
  0.942   0.973   1.013   1.060   1.099   1.204   1.265   1.338
  1.345   1.401   1.411   1.489   1.513   1.578   1.619   1.665
  1.728   1.793   1.799   1.837   1.910   1.966   1.998   2.003
  2.054   2.119   2.144   2.179   2.224   2.249   2.281   2.317
  2.339   2.428   2.493   2.517   2.542   2.553   2.630   2.636
  2.648   2.729   2.837   2.859   2.906   2.942   3.923   4.190
  4.269   4.307   4.399   4.549   4.679
 --------------------------------------------------------------
 
          Ground-State Mulliken Net Atomic Charges

     Atom                 Charge (a.u.)    Spin (a.u.)
  --------------------------------------------------------
      1 C                     0.092159      -0.008831
      2 C                    -0.245794      -0.043950
      3 C                    -0.096669       0.975960
      4 C                    -0.088110       0.040458
      5 C                    -0.094677      -0.045172
      6 N                    -0.324968       0.022046
      7 H                     0.149647      -0.000174
      8 H                     0.133887       0.002856
      9 H                     0.138918      -0.026654
     10 H                     0.146065       0.000872
     11 H                     0.139817       0.003026
     12 C                    -0.095880       0.079256
     13 H                     0.145606       0.000306
  --------------------------------------------------------
  Sum of atomic charges =     0.000000
  Sum of spin   charges =     1.000000

 -----------------------------------------------------------------
                    Cartesian Multipole Moments
 -----------------------------------------------------------------
    Charge (ESU x 10^10)
                 0.0000
    Dipole Moment (Debye)
         X      -0.7019      Y      -1.9435      Z       1.1715
       Tot       2.3753
    Quadrupole Moments (Debye-Ang)
        XX     -37.5367     XY      -3.9693     YY     -43.0237
        XZ       1.0747     YZ       0.6229     ZZ     -40.9161
    Octopole Moments (Debye-Ang^2)
       XXX      -4.1236    XXY      -5.2798    XYY     -10.0516
       YYY     -26.4765    XXZ       3.8099    XYZ       0.5338
       YYZ       6.4009    XZZ      -7.6016    YZZ      -7.3446
       ZZZ      17.1454
    Hexadecapole Moments (Debye-Ang^3)
      XXXX    -231.9031   XXXY      -5.2923   XXYY     -80.9209
      XYYY     -17.8038   YYYY    -239.6484   XXXZ      19.9933
      XXYZ      10.8974   XYYZ      11.5484   YYYZ      22.9006
      XXZZ     -75.6981   XYZZ      -3.7509   YYZZ     -71.1268
      XZZZ      19.8472   YZZZ      13.1790   ZZZZ    -211.0820
 -----------------------------------------------------------------
 Calculating analytic gradient of the SCF energy
 Gradient of SCF Energy
            1           2           3           4           5           6
    1  -0.0000008  -0.0000290   0.0000078  -0.0000142  -0.0000524   0.0000720
    2   0.0000266  -0.0000323   0.0000054   0.0000511  -0.0000548  -0.0000085
    3  -0.0000094   0.0000199   0.0000215  -0.0000233   0.0000005  -0.0000072
            7           8           9          10          11          12
    1  -0.0000008  -0.0000062   0.0000278  -0.0000180   0.0000339   0.0000105
    2  -0.0000199  -0.0000079   0.0000118   0.0000046   0.0000064   0.0000057
    3   0.0000405   0.0000363  -0.0000143  -0.0000310  -0.0000323  -0.0000141
           13
    1  -0.0000305
    2   0.0000117
    3   0.0000129
 Max gradient component =       7.199E-05
 RMS gradient           =       2.667E-05
 Gradient time:  CPU 7.78 s  wall 2.15 s
 Geometry Optimization Parameters
   NAtoms,    NIC,     NZ,  NCons,   NDum,   NFix, NCnnct, MaxDiis
       13     104       0       0       0       0       0       0

 Cartesian Hessian Update
 Hessian Updated using BFGS Update


** GEOMETRY OPTIMIZATION IN DELOCALIZED INTERNAL COORDINATES **
   Searching for a Minimum

   Optimization Cycle:   3

                       Coordinates (Angstroms)
     ATOM                X               Y               Z
      1  C         1.5196817895    0.3440739078   -0.2649461972
      2  C         0.6224748319   -0.8939218341   -0.0647136388
      3  C        -0.3953703744   -0.5206731519   -1.1472882853
      4  C        -1.0023286462    0.5091940545    0.8086810719
      5  C        -0.5861713701    0.8954094682   -0.6198733192
      6  N         0.8530895815    1.3865087220   -0.5766345126
      7  H         2.6004622616    0.3578332345   -0.1344527725
      8  H         1.1022922546   -1.8726626952   -0.0767669264
      9  H        -1.2213134024   -1.1742516431   -1.4232003148
     10  H        -1.7271370039    1.0439991456    1.4125314193
     11  H        -1.2321738086    1.5929355166   -1.1508801546
     12  C        -0.2722119407   -0.5659090966    1.1475628476
     13  H        -0.2612941731   -1.1025356283    2.0899807822
   Point Group: c1    Number of degrees of freedom:    33


   Energy is   -286.851636511

 Hessian Updated using BFGS Update

 33 Hessian modes will be used to form the next step
  Hessian Eigenvalues:
     0.009390    0.010381    0.012014    0.012288    0.016871    0.021942
     0.046980    0.047774    0.053321    0.062850    0.066257    0.082348
     0.106271    0.134908    0.142111    0.153065    0.159911    0.160649
     0.194086    0.233003    0.253762    0.262333    0.269846    0.273961
     0.290388    0.348049    0.349481    0.349583    0.350289    0.355027
     0.355192    0.508722    0.659740

 Minimum Search - Taking Simple RFO Step
 Searching for Lamda that Minimizes Along All modes
 Value Taken    Lamda =   0.00000000
 Step Taken.  Stepsize is  0.001668

                             Maximum     Tolerance    Cnvgd?
         Gradient           0.000042      0.000300     YES
         Displacement       0.001034      0.001200     YES
         Energy change     -0.000000      0.000001     YES


                       Distance Matrix (Angstroms)
             C (  1)   C (  2)   C (  3)   C (  4)   C (  5)   N (  6)
   C (  2)  1.541981
   C (  3)  2.278978  1.532087
   C (  4)  2.745993  2.317658  2.292344
   C (  5)  2.205575  2.229514  1.523109  1.537243
   N (  6)  1.275996  2.348534  2.349817  2.476158  1.521355
   H (  7)  1.088717  2.341834  3.282167  3.727266  3.267913  2.075334
   H (  8)  2.263525  1.090093  2.284050  3.299498  3.287567  3.306685
   H (  9)  3.340647  2.307298  1.088795  2.804147  2.309164  3.402545
   H ( 10)  3.720976  3.385036  3.282450  1.084435  2.335498  3.275922
   H ( 11)  3.149166  3.286935  2.273234  2.251045  1.088958  2.172716
   C ( 12)  2.456447  1.541970  2.298599  1.343041  2.314704  2.837445
   H ( 13)  3.287892  2.338221  3.291877  2.188272  3.382401  3.814188
             H (  7)   H (  8)   H (  9)   H ( 10)   H ( 11)   C ( 12)
   H (  8)  2.687555
   H (  9)  4.314409  2.774852
   H ( 10)  4.646730  4.327886  3.635639
   H ( 11)  4.153035  4.314374  2.780576  2.667845
   C ( 12)  3.278585  2.257399  2.807080  2.186051  3.296206
   H ( 13)  3.907740  2.673436  3.642694  2.686121  4.325662  1.084545

 
 Final energy is   -286.851636510825     


 ******************************
 **  OPTIMIZATION CONVERGED  **
 ******************************

                       Coordinates (Angstroms)
     ATOM                X               Y               Z
      1  C         1.5196817895    0.3440739078   -0.2649461972
      2  C         0.6224748319   -0.8939218341   -0.0647136388
      3  C        -0.3953703744   -0.5206731519   -1.1472882853
      4  C        -1.0023286462    0.5091940545    0.8086810719
      5  C        -0.5861713701    0.8954094682   -0.6198733192
      6  N         0.8530895815    1.3865087220   -0.5766345126
      7  H         2.6004622616    0.3578332345   -0.1344527725
      8  H         1.1022922546   -1.8726626952   -0.0767669264
      9  H        -1.2213134024   -1.1742516431   -1.4232003148
     10  H        -1.7271370039    1.0439991456    1.4125314193
     11  H        -1.2321738086    1.5929355166   -1.1508801546
     12  C        -0.2722119407   -0.5659090966    1.1475628476
     13  H        -0.2612941731   -1.1025356283    2.0899807822

Z-matrix Print:
$molecule
0 2
N 
C  1 1.275996
H  2 1.088717 1 122.517331
C  1 1.521355 2 103.735790 3 -179.002786 0
H  4 1.088958 1 111.611262 2 -163.265339 0
C  4 1.523109 1 101.037507 2 -34.487252 0
H  6 1.088795 4 123.423134 1 -173.051369 0
C  6 1.532087 4 93.729583 1 53.513558 0
H  8 1.090093 6 120.221525 4 -176.891041 0
C  4 1.537243 1 108.107306 2 66.739228 0
H  10 1.084435 4 125.064742 1 110.994808 0
C  10 1.343041 4 106.764050 1 -67.197619 0
H  12 1.084545 10 128.375492 4 177.703636 0
$end

 
 --------------------------------------------------------------
 
                    Orbital Energies (a.u.)
 --------------------------------------------------------------
 
 Alpha MOs
 -- Occupied --
-14.322 -10.223 -10.220 -10.210 -10.204 -10.201 -10.197  -0.952
 -0.821  -0.726  -0.705  -0.579  -0.573  -0.531  -0.512  -0.472
 -0.418  -0.410  -0.381  -0.373  -0.348  -0.294  -0.271  -0.258
 -0.196
 -- Virtual --
 -0.021   0.029   0.103   0.140   0.150   0.154   0.159   0.163
  0.172   0.210   0.215   0.255   0.288   0.322   0.346   0.366
  0.495   0.510   0.532   0.540   0.570   0.599   0.606   0.622
  0.635   0.641   0.655   0.689   0.700   0.729   0.778   0.791
  0.800   0.817   0.825   0.846   0.858   0.876   0.891   0.940
  0.965   1.005   1.059   1.092   1.201   1.264   1.334   1.339
  1.396   1.407   1.487   1.510   1.563   1.611   1.659   1.725
  1.784   1.796   1.827   1.892   1.954   1.986   2.000   2.049
  2.097   2.138   2.172   2.208   2.235   2.276   2.315   2.335
  2.425   2.476   2.515   2.533   2.548   2.618   2.629   2.645
  2.722   2.835   2.856   2.904   2.939   3.922   4.188   4.267
  4.279   4.396   4.543   4.678
 
 Beta MOs
 -- Occupied --
-14.321 -10.224 -10.221 -10.210 -10.200 -10.196 -10.190  -0.949
 -0.815  -0.725  -0.690  -0.577  -0.561  -0.527  -0.509  -0.463
 -0.414  -0.406  -0.379  -0.369  -0.342  -0.287  -0.261  -0.255
 -- Virtual --
 -0.045  -0.016   0.031   0.105   0.143   0.153   0.158   0.160
  0.166   0.176   0.216   0.223   0.267   0.290   0.324   0.349
  0.369   0.497   0.529   0.540   0.544   0.577   0.603   0.611
  0.624   0.641   0.658   0.662   0.693   0.708   0.742   0.782
  0.793   0.810   0.819   0.827   0.848   0.860   0.879   0.894
  0.942   0.973   1.013   1.060   1.099   1.204   1.265   1.338
  1.345   1.401   1.411   1.489   1.513   1.578   1.619   1.665
  1.728   1.793   1.799   1.837   1.910   1.966   1.998   2.003
  2.054   2.119   2.144   2.179   2.224   2.249   2.281   2.317
  2.339   2.428   2.493   2.517   2.542   2.553   2.630   2.636
  2.648   2.729   2.837   2.859   2.906   2.942   3.923   4.190
  4.269   4.307   4.399   4.549   4.679
 --------------------------------------------------------------
 
          Ground-State Mulliken Net Atomic Charges

     Atom                 Charge (a.u.)    Spin (a.u.)
  --------------------------------------------------------
      1 C                     0.092159      -0.008831
      2 C                    -0.245794      -0.043950
      3 C                    -0.096669       0.975960
      4 C                    -0.088110       0.040458
      5 C                    -0.094677      -0.045172
      6 N                    -0.324968       0.022046
      7 H                     0.149647      -0.000174
      8 H                     0.133887       0.002856
      9 H                     0.138918      -0.026654
     10 H                     0.146065       0.000872
     11 H                     0.139817       0.003026
     12 C                    -0.095880       0.079256
     13 H                     0.145606       0.000306
  --------------------------------------------------------
  Sum of atomic charges =     0.000000
  Sum of spin   charges =     1.000000

 -----------------------------------------------------------------
                    Cartesian Multipole Moments
 -----------------------------------------------------------------
    Charge (ESU x 10^10)
                 0.0000
    Dipole Moment (Debye)
         X      -0.7019      Y      -1.9435      Z       1.1715
       Tot       2.3753
    Quadrupole Moments (Debye-Ang)
        XX     -37.5367     XY      -3.9693     YY     -43.0237
        XZ       1.0747     YZ       0.6229     ZZ     -40.9161
    Octopole Moments (Debye-Ang^2)
       XXX      -4.1236    XXY      -5.2798    XYY     -10.0516
       YYY     -26.4765    XXZ       3.8099    XYZ       0.5338
       YYZ       6.4009    XZZ      -7.6016    YZZ      -7.3446
       ZZZ      17.1454
    Hexadecapole Moments (Debye-Ang^3)
      XXXX    -231.9031   XXXY      -5.2923   XXYY     -80.9209
      XYYY     -17.8038   YYYY    -239.6484   XXXZ      19.9933
      XXYZ      10.8974   XYYZ      11.5484   YYYZ      22.9006
      XXZZ     -75.6981   XYZZ      -3.7509   YYZZ     -71.1268
      XZZZ      19.8472   YZZZ      13.1790   ZZZZ    -211.0820
 -----------------------------------------------------------------
Archival summary:
1\1\c8-66\OPT\ProcedureUnspecified\6-31G*\166(2)\hpark21\ThuMar317:17:432022ThuMar317:17:432022\0\\#,OPT,ProcedureUnspecified,6-31G*,\\0,2\N\C,1,1.276\H,2,1.08872,1,122.517\C,1,1.52135,2,103.736,3,-179.003,0\H,4,1.08896,1,111.611,2,-163.265,0\C,4,1.52311,1,101.038,2,-34.4873,0\H,6,1.08879,4,123.423,1,-173.051,0\C,6,1.53209,4,93.7296,1,53.5136,0\H,8,1.09009,6,120.222,4,-176.891,0\C,4,1.53724,1,108.107,2,66.7392,0\H,10,1.08443,4,125.065,1,110.995,0\C,10,1.34304,4,106.764,1,-67.1976,0\H,12,1.08455,10,128.375,4,177.704,0\\\@

 Total job time:  43.23s(wall), 155.21s(cpu) 
 Thu Mar  3 17:17:43 2022

        *************************************************************
        *                                                           *
        *  Thank you very much for using Q-Chem.  Have a nice day.  *
        *                                                           *
        *************************************************************


