
Running Job 1 of 1 qcts2.in
qchem qcts2.in_20285.0 ./qcts2.d/ 1
/home/leeping/opt/qchem/5.0.2-openmp/exe/qcprog.exe_s qcts2.in_20285.0 ./qcts2.d/
Check license passed

                  Welcome to Q-Chem
     A Quantum Leap Into The Future Of Chemistry


 Q-Chem 5.0, Q-Chem, Inc., Pleasanton, CA (2017)

 Yihan Shao,  Zhengting Gan,  E. Epifanovsky,  A. T. B. Gilbert,  M. Wormit,  
 J. Kussmann,  A. W. Lange,  A. Behn,  Jia Deng,  Xintian Feng,  D. Ghosh,  
 M. Goldey,  P. R. Horn,  L. D. Jacobson,  I. Kaliman,  T. Kus,  A. Landau,  
 Jie Liu,  E. I. Proynov,  R. M. Richard,  R. P. Steele,  E. J. Sundstrom,  
 H. L. Woodcock III,  P. M. Zimmerman,  D. Zuev,  B. Albrecht,  E. Alguire,  
 S. A. Baeppler,  D. Barton,  Z. Benda,  Y. A. Bernard,  E. J. Berquist,  
 K. B. Bravaya,  H. Burton,  D. Casanova,  Chun-Min Chang,  Yunqing Chen,  
 A. Chien,  K. D. Closser,  M. P. Coons,  S. Dasgupta,  A. L. Dempwolff,  
 M. Diedenhofen,  Hainam Do,  R. G. Edgar,  Po-Tung Fang,  S. Fatehi,  
 Qingguo Feng,  J. Fosso-Tande,  Qinghui Ge,  A. Ghysels,  G. Gidofalvi,  
 J. Gomes,  J. Gonthier,  A. Gunina,  M. W. D. Hanson-Heine,  
 P. H. P. Harbach,  A. W. Hauser,  J. E. Herr,  E. G. Hohenstein,  
 Z. C. Holden,  Kerwin Hui,  T.-C. Jagau,  Hyunjun Ji,  B. Kaduk,  
 K. Khistyaev,  Jaehoon Kim,  P. Klunzinger,  K. Koh,  D. Kosenkov,  
 L. Koulias,  T. Kowalczyk,  C. M. Krauter,  A. Kunitsa,  Ka Un Lao,  
 A. Laurent,  K. V. Lawler,  Joonho Lee,  D. Lefrancois,  S. Lehtola,  
 D. S. Levine,  Yi-Pei Li,  You-Sheng Lin,  Fenglai Liu,  E. Livshits,  
 A. Luenser,  P. Manohar,  E. Mansoor,  S. F. Manzer,  Shan-Ping Mao,  
 Yuezhi Mao,  N. Mardirossian,  A. V. Marenich,  T. Markovich,  
 L. A. Martinez-Martinez,  S. A. Maurer,  N. J. Mayhall,  S. C. McKenzie,  
 J.-M. Mewes,  A. F. Morrison,  J. W. Mullinax,  K. Nanda,  
 T. S. Nguyen-Beck,  R. Olivares-Amaya,  J. A. Parkhill,  T. M. Perrine,  
 F. Plasser,  S. Prager,  A. Prociuk,  E. Ramos,  D. R. Rehn,  F. Rob,  
 M. Schneider,  N. Sergueev,  S. M. Sharada,  S. Sharma,  D. W. Small,  
 T. Stauch,  T. Stein,  Yu-Chuan Su,  A. J. W. Thom,  A. Tkatchenko,  
 T. Tsuchimochi,  L. Vogt,  O. Vydrov,  M. A. Watson,  J. Wenzel,  
 M. de Wergifosse,  T. A. Wesolowski,  A. White,  J. Witte,  A. Yamada,  
 Jun Yang,  K. Yao,  S. Yeganeh,  S. R. Yost,  Zhi-Qiang You,  A. Zech,  
 Igor Ying Zhang,  Xing Zhang,  Yan Zhao,  Ying Zhu,  B. R. Brooks,  
 G. K. L. Chan,  C. J. Cramer,  M. S. Gordon,  W. J. Hehre,  A. Klamt,  
 M. W. Schmidt,  C. D. Sherrill,  D. G. Truhlar,  A. Aspuru-Guzik,  R. Baer,  
 A. T. Bell,  N. A. Besley,  Jeng-Da Chai,  R. A. DiStasio Jr.,  A. Dreuw,  
 B. D. Dunietz,  T. R. Furlani,  Chao-Ping Hsu,  Yousung Jung,  Jing Kong,  
 D. S. Lambrecht,  WanZhen Liang,  C. Ochsenfeld,  V. A. Rassolov,  
 L. V. Slipchenko,  J. E. Subotnik,  T. Van Voorhis,  J. M. Herbert,  
 A. I. Krylov,  P. M. W. Gill,  M. Head-Gordon

 Contributors to earlier versions of Q-Chem not listed above: 
 R. D. Adamson,  B. Austin,  J. Baker,  G. J. O. Beran,  K. Brandhorst,  
 S. T. Brown,  E. F. C. Byrd,  A. K. Chakraborty,  C.-L. Cheng,  
 Siu Hung Chien,  D. M. Chipman,  D. L. Crittenden,  H. Dachsel,  
 R. J. Doerksen,  A. D. Dutoi,  L. Fusti-Molnar,  W. A. Goddard III,  
 A. Golubeva-Zadorozhnaya,  S. R. Gwaltney,  G. Hawkins,  A. Heyden,  
 S. Hirata,  G. Kedziora,  F. J. Keil,  C. Kelley,  Jihan Kim,  R. A. King,  
 R. Z. Khaliullin,  P. P. Korambath,  W. Kurlancheek,  A. M. Lee,  M. S. Lee,  
 S. V. Levchenko,  Ching Yeh Lin,  D. Liotard,  R. C. Lochan,  I. Lotan,  
 P. E. Maslen,  N. Nair,  D. P. O'Neill,  D. Neuhauser,  E. Neuscamman,  
 C. M. Oana,  R. Olson,  B. Peters,  R. Peverati,  P. A. Pieniazek,  
 Y. M. Rhee,  J. Ritchie,  M. A. Rohrdanz,  E. Rosta,  N. J. Russ,  
 H. F. Schaefer III,  N. E. Schultz,  N. Shenvi,  A. C. Simmonett,  A. Sodt,  
 D. Stuck,  K. S. Thanthiriwatte,  V. Vanovschi,  Tao Wang,  A. Warshel,  
 C. F. Williams,  Q. Wu,  X. Xu,  W. Zhang

 Please cite Q-Chem as follows:
 Y. Shao et al., Mol. Phys. 113, 184-215 (2015)
 DOI: 10.1080/00268976.2014.952696

 Q-Chem 5.0.2 for Intel X86 EM64T Linux

 Parts of Q-Chem use Armadillo 5.200.1 (Boston Tea Smuggler).
 http://arma.sourceforge.net/

 Q-Chem begins on Thu Mar  3 18:11:47 2022  

Host: 
0

     Scratch files written to ./qcts2.d//
 Dec517 15110_ 26548  26544 5633   
Processing $rem in /home/leeping/opt/qchem/5.0.2-openmp/config/preferences.
 MEM_STATIC 2000
 MEM_TOTAL  8000
 SYMMETRY   OFF
 SYM_IGNORE TRUE 

Checking the input file for inconsistencies... 	...done.

--------------------------------------------------------------
User input:
--------------------------------------------------------------
$molecule
0 2
C        1.5457992283    0.3774224907   -0.3086425081
C        0.7249138119   -0.8603742445   -0.0388726522
C       -0.5045775321   -0.6125758033   -0.8533084980
C       -0.9460110504    0.6627811287    0.8696319591
C       -0.5902378376    0.9107932180   -0.5922754108
N        0.8320473775    1.3855477849   -0.6511709590
H        2.6234328709    0.4480084360   -0.1770437603
H        1.1908190780   -1.8424687306   -0.0163016944
H       -1.1425522131   -1.2915475993   -1.4001203484
H       -1.5831698292    1.2191190555    1.5416950899
H       -1.2561626157    1.5333337904   -1.1868344908
C       -0.3571729096   -0.6014339320    1.0171971211
H       -0.5571442820   -1.3405819753    1.7883103155
$end

$rem
method                b3lyp
basis                 6-31+g(d,p)
unrestricted          true
symmetry              off
sym_ignore            true
incdft                false
incfock               0
scf_convergence       8
thresh                14
jobtype               freq
scf_guess             read
scf_algorithm         diis
max_scf_cycles        100
$end

--------------------------------------------------------------
 ----------------------------------------------------------------
             Standard Nuclear Orientation (Angstroms)
    I     Atom           X                Y                Z
 ----------------------------------------------------------------
    1      C       1.5457992283     0.3774224907    -0.3086425081
    2      C       0.7249138119    -0.8603742445    -0.0388726522
    3      C      -0.5045775321    -0.6125758033    -0.8533084980
    4      C      -0.9460110504     0.6627811287     0.8696319591
    5      C      -0.5902378376     0.9107932180    -0.5922754108
    6      N       0.8320473775     1.3855477849    -0.6511709590
    7      H       2.6234328709     0.4480084360    -0.1770437603
    8      H       1.1908190780    -1.8424687306    -0.0163016944
    9      H      -1.1425522131    -1.2915475993    -1.4001203484
   10      H      -1.5831698292     1.2191190555     1.5416950899
   11      H      -1.2561626157     1.5333337904    -1.1868344908
   12      C      -0.3571729096    -0.6014339320     1.0171971211
   13      H      -0.5571442820    -1.3405819753     1.7883103155
 ----------------------------------------------------------------
 Nuclear Repulsion Energy =   280.5565623776 hartrees
 There are       25 alpha and       24 beta electrons
 Requested basis set is 6-31+G(d,p)
 There are 53 shells and 163 basis functions

 Total QAlloc Memory Limit   8000 MB
 Mega-Array Size      1956 MB
 MEM_STATIC part      2000 MB

                       Distance Matrix (Angstroms)
             C (  1)   C (  2)   C (  3)   C (  4)   C (  5)   N (  6)
   C (  2)  1.509559
   C (  3)  2.341111  1.495446
   C (  4)  2.771079  2.436672  2.188589
   C (  5)  2.219817  2.274404  1.547944  1.524880
   N (  6)  1.281828  2.330355  2.412452  2.448821  1.500585
   H (  7)  1.087931  2.309834  3.371442  3.725934  3.273265  2.076737
   H (  8)  2.267023  1.087238  2.255568  3.409868  3.329318  3.309360
   H (  9)  3.347240  2.350816  1.080286  3.001634  2.409973  3.409811
   H ( 10)  3.731307  3.485647  3.202266  1.080348  2.373775  3.266441
   H ( 11)  3.155684  3.312449  2.298053  2.254575  1.088353  2.160879
   C ( 12)  2.517402  1.534029  1.876338  1.402407  2.220710  2.854084
   H ( 13)  3.430907  2.283171  2.740603  2.238002  3.276732  3.913145
             H (  7)   H (  8)   H (  9)   H ( 10)   H ( 11)   C ( 12)
   H (  8)  2.706382
   H (  9)  4.324883  2.768229
   H ( 10)  4.609141  4.415392  3.892540
   H ( 11)  4.153176  4.330578  2.835199  2.765961
   C ( 12)  3.378099  2.237089  2.633724  2.256674  3.197369
   H ( 13)  4.144604  2.562009  3.242098  2.768685  4.195176  1.086712

 
 A cutoff of  1.0D-14 yielded   1404 shell pairs
 There are     13506 function pairs
 Smallest overlap matrix eigenvalue = 2.30E-05
 Guess MOs from SCF MO coefficient file
 Reading MOs from coefficient file
 Reading MOs from coefficient file
 An unrestricted hybrid HF-DFT SCF calculation will be
 performed using Pulay DIIS extrapolation
 Exchange:     0.2000 Hartree-Fock + 0.0800 Slater + 0.7200 B88
 Correlation:  0.1900 VWN1RPA + 0.8100 LYP
 Using SG-1 standard quadrature grid
 SCF converges when DIIS error is below 1.0E-08
Using Q-Chem read-in guess as SCF_GUESS READ specified.

 -------------------------------------------------------
 OpenMP BLAS3 based DFT computing Module                
 -------------------------------------------------------
 ---------------------------------------
  Cycle       Energy         DIIS Error
 ---------------------------------------
    1    -286.8438158204      2.67E-10
    2    -286.8438158204      3.19E-10 Convergence criterion met
 ---------------------------------------
 <S^2> = 0.7809
 SCF time:  CPU 6.45 s  wall 7.25 s
 SCF   energy in the final basis set = -286.84381582
 Total energy in the final basis set = -286.84381582
 
 --------------------------------------------------------------
 
                    Orbital Energies (a.u.)
 --------------------------------------------------------------
 
 Alpha MOs
 -- Occupied --
-14.334 -10.234 -10.231 -10.228 -10.225 -10.222 -10.199  -0.969
 -0.850  -0.750  -0.690  -0.601  -0.587  -0.546  -0.524  -0.474
 -0.436  -0.418  -0.409  -0.387  -0.351  -0.307  -0.286  -0.266
 -0.152
 -- Virtual --
 -0.025  -0.009   0.000   0.020   0.026   0.031   0.048   0.048
  0.068   0.071   0.074   0.091   0.103   0.106   0.109   0.115
  0.123   0.129   0.143   0.154   0.167   0.177   0.183   0.185
  0.190   0.199   0.208   0.211   0.228   0.233   0.241   0.246
  0.258   0.268   0.281   0.289   0.301   0.318   0.330   0.353
  0.373   0.385   0.414   0.459   0.617   0.655   0.691   0.698
  0.699   0.715   0.725   0.739   0.752   0.758   0.787   0.795
  0.799   0.816   0.863   0.899   0.913   0.934   0.972   0.986
  1.009   1.015   1.036   1.063   1.088   1.117   1.133   1.162
  1.187   1.255   1.289   1.299   1.383   1.419   1.436   1.517
  1.530   1.610   1.616   1.712   1.717   1.775   1.801   1.832
  1.887   1.916   1.945   1.991   1.999   2.077   2.115   2.137
  2.150   2.221   2.231   2.262   2.278   2.359   2.370   2.379
  2.403   2.420   2.472   2.488   2.500   2.517   2.524   2.554
  2.579   2.595   2.627   2.648   2.684   2.745   2.760   2.774
  2.825   2.875   2.956   3.059   3.110   3.294   3.311   3.337
  3.476   3.626   3.692   4.154   4.388   4.473   4.575   4.639
  4.713   4.851
 
 Beta MOs
 -- Occupied --
-14.334 -10.236 -10.232 -10.228 -10.225 -10.214 -10.189  -0.965
 -0.844  -0.743  -0.680  -0.597  -0.577  -0.544  -0.516  -0.469
 -0.432  -0.413  -0.407  -0.385  -0.346  -0.291  -0.277  -0.262
 -- Virtual --
 -0.043  -0.019  -0.001   0.002   0.020   0.027   0.035   0.048
  0.049   0.070   0.072   0.078   0.093   0.103   0.106   0.110
  0.116   0.128   0.130   0.144   0.155   0.167   0.177   0.184
  0.190   0.191   0.202   0.210   0.216   0.232   0.235   0.243
  0.247   0.261   0.272   0.281   0.291   0.304   0.322   0.332
  0.357   0.376   0.388   0.420   0.462   0.620   0.661   0.692
  0.703   0.708   0.734   0.742   0.745   0.753   0.768   0.791
  0.797   0.804   0.819   0.864   0.903   0.914   0.936   0.974
  0.988   1.010   1.020   1.039   1.067   1.091   1.122   1.140
  1.168   1.192   1.259   1.297   1.300   1.386   1.422   1.445
  1.521   1.537   1.618   1.621   1.719   1.722   1.781   1.806
  1.850   1.891   1.925   1.946   1.999   2.002   2.082   2.125
  2.138   2.158   2.229   2.235   2.270   2.285   2.362   2.374
  2.383   2.408   2.427   2.476   2.497   2.502   2.524   2.530
  2.558   2.589   2.601   2.631   2.655   2.690   2.749   2.763
  2.779   2.827   2.877   2.959   3.062   3.111   3.295   3.312
  3.338   3.477   3.629   3.695   4.154   4.394   4.479   4.588
  4.645   4.716   4.855
 --------------------------------------------------------------
 
          Ground-State Mulliken Net Atomic Charges

     Atom                 Charge (a.u.)    Spin (a.u.)
  --------------------------------------------------------
      1 C                    -0.063811       0.042469
      2 C                    -0.016692      -0.032506
      3 C                    -0.278418       0.641355
      4 C                    -0.133725       0.738278
      5 C                     0.016461      -0.123893
      6 N                    -0.207647      -0.003034
      7 H                     0.134938       0.001341
      8 H                     0.131548       0.003599
      9 H                     0.147324      -0.028087
     10 H                     0.138786      -0.030249
     11 H                     0.130425       0.008309
     12 C                    -0.139729      -0.230212
     13 H                     0.140538       0.012630
  --------------------------------------------------------
  Sum of atomic charges =    -0.000000
  Sum of spin   charges =     1.000000

 -----------------------------------------------------------------
                    Cartesian Multipole Moments
 -----------------------------------------------------------------
    Charge (ESU x 10^10)
                -0.0000
    Dipole Moment (Debye)
         X      -0.6839      Y      -2.7630      Z       0.7513
       Tot       2.9438
    Quadrupole Moments (Debye-Ang)
        XX     -39.2280     XY      -3.9297     YY     -44.1025
        XZ       1.4193     YZ       0.7251     ZZ     -42.0501
    Octopole Moments (Debye-Ang^2)
       XXX      -0.7464    XXY      -6.6729    XYY     -11.0069
       YYY     -33.4581    XXZ       2.4831    XYZ       1.1706
       YYZ       6.2168    XZZ      -9.6863    YZZ      -9.6124
       ZZZ      11.6353
    Hexadecapole Moments (Debye-Ang^3)
      XXXX    -255.9522   XXXY      -7.0040   XXYY     -88.3580
      XYYY     -22.9671   YYYY    -272.3977   XXXZ      28.0744
      XXYZ      10.9495   XYYZ      14.1746   YYYZ      22.9601
      XXZZ     -76.5751   XYZZ      -4.3490   YYZZ     -74.7767
      XZZZ      26.4621   YZZZ      14.8174   ZZZZ    -202.5524
 -----------------------------------------------------------------
 Calculating MO derivatives via CPSCF
   1         3          39      0.293765    0.059746
   2         3          39      0.037867    0.007189
   3         3          39      0.004498    0.000846
   4         3          39      0.000686    0.000143
   5        25          17      0.000062    0.000016
   6        40           2      0.000003    0.000001
   7        42           0      0.000000    0.000000    Roots Converged
 Time for AOints: 19.4 s (CPU) 19.4 s (wall)
 ------------------------------------------------------------------------------
                     AOints        : Timing summary (seconds)
 ------------------------------------------------------------------------------
     job step          cpu (% of tot)      sys (% of tot)     wall (% of tot)
 ------------------------------------------------------------------------------
  cpscf_lag         0.1173E+03 (27.9)   0.3800E-04 (34.9)   0.1186E+03 (28.1)
  iterzp            0.2829E+03 (67.4)   0.6700E-04 (61.5)   0.2835E+03 (67.2)
  make_fx           0.0000E+00 ( 0.0)   0.0000E+00 ( 0.0)   0.0000E+00 ( 0.0)
  AOints            0.1938E+02 ( 4.6)   0.2000E-05 ( 1.8)   0.1942E+02 ( 4.6)
 ------------------------------------------------------------------------------
   Grand Totals     0.4198E+03          0.1090E-03          0.4219E+03
 ------------------------------------------------------------------------------
 Calculating analytic Hessian of the SCF energy
 Polarizability Matrix (a.u.)
            1           2           3
    1 -70.7582612   2.7565204   4.0182263
    2   2.7565204 -72.3648522  -1.0560317
    3   4.0182263  -1.0560317 -71.3710128
 
 Direct stationary perturbation theory relativistic correction:
 
 rels  =       0.069330611819
 relv  =      -0.341289055411
 rel2e =       0.158941310099
 E_rel =      -0.113017133493
 
 Hessian of the SCF Energy
            1           2           3           4           5           6
    1   0.8082832  -0.1207048   0.1082072  -0.1173156  -0.0424121   0.0158725
    2  -0.1207048   0.5879650  -0.1297181  -0.0268288  -0.1394456  -0.0009149
    3   0.1082072  -0.1297181   0.2105754   0.0061842   0.0112242  -0.0649618
    4  -0.1173156  -0.0268288   0.0061842   0.4732013  -0.1360616   0.0223715
    5  -0.0424121  -0.1394456   0.0112242  -0.1360616   0.6627109  -0.0404799
    6   0.0158725  -0.0009149  -0.0649618   0.0223715  -0.0404799   0.2562996
    7  -0.0394067  -0.0253565  -0.0196009  -0.1529989   0.0187044  -0.0764185
    8  -0.0115705  -0.0040350  -0.0181598   0.0299146  -0.0698104  -0.0034134
    9  -0.0223772   0.0052474   0.0054649  -0.1553874  -0.0156620  -0.0454764
   10  -0.0060853   0.0037008   0.0064718  -0.0070943   0.0247151   0.0064050
   11  -0.0029386  -0.0066862   0.0047754  -0.0074919  -0.0160945  -0.0055753
   12   0.0029878   0.0042383   0.0005720   0.0109368  -0.0125799   0.0054907
   13  -0.0625448   0.0218733  -0.0087014  -0.0236779   0.0243127  -0.0006142
   14   0.0256175   0.0063872   0.0001285   0.0127466  -0.0348249   0.0117657
   15  -0.0103128  -0.0063894   0.0004649  -0.0018516   0.0104145  -0.0129354
   16  -0.2449563   0.2134633  -0.0837329   0.0267792   0.0107141  -0.0157762
   17   0.1787041  -0.3864974   0.1093356  -0.0081220  -0.0589328   0.0243572
   18  -0.0708788   0.1130363  -0.0937828  -0.0051780   0.0238315   0.0170931
   19  -0.3280373  -0.0277066  -0.0313952  -0.0036335   0.0029105  -0.0027248
   20  -0.0348668  -0.0555108   0.0030919  -0.0173924   0.0040572  -0.0016436
   21  -0.0344119   0.0042003  -0.0423537   0.0037678   0.0006917   0.0084927
   22   0.0152134  -0.0133674  -0.0013996  -0.1030311   0.1056079  -0.0022797
   23   0.0140892  -0.0092097  -0.0011906   0.1091384  -0.2857058   0.0058696
   24  -0.0031346   0.0025147  -0.0027612  -0.0035632   0.0050029  -0.0398067
   25  -0.0026758  -0.0001563  -0.0025894  -0.0038359  -0.0155247  -0.0022489
   26   0.0006531  -0.0038394   0.0030056   0.0095618   0.0081949   0.0066989
   27   0.0029707   0.0016286  -0.0005675  -0.0015997  -0.0025962  -0.0066230
   28  -0.0006448   0.0016228  -0.0002584  -0.0012988   0.0028630   0.0034741
   29  -0.0016114   0.0007117   0.0001256  -0.0017478  -0.0022804   0.0029570
   30   0.0000702   0.0010323  -0.0005956  -0.0019280   0.0034574   0.0009279
   31  -0.0063845  -0.0026519  -0.0007499  -0.0003886  -0.0008628  -0.0008060
   32  -0.0030626  -0.0009305   0.0004700  -0.0000407  -0.0053937  -0.0003460
   33   0.0009662   0.0000537   0.0007581   0.0011795  -0.0030074   0.0003659
   34  -0.0153355  -0.0268682   0.0254089  -0.0823528   0.0208022   0.0392288
   35  -0.0013262   0.0119992   0.0181388   0.0318693  -0.0676274   0.0095010
   36   0.0104097   0.0085914  -0.0114603   0.1182446   0.0096321  -0.1064894
   37  -0.0001100   0.0029804   0.0021557  -0.0043530  -0.0157686   0.0135165
   38  -0.0005709  -0.0009085  -0.0012268   0.0044544   0.0051526  -0.0087764
   39  -0.0003692  -0.0035207  -0.0013523   0.0068235   0.0100711  -0.0123771
            7           8           9          10          11          12
    1  -0.0394067  -0.0115705  -0.0223772  -0.0060853  -0.0029386   0.0029878
    2  -0.0253565  -0.0040350   0.0052474   0.0037008  -0.0066862   0.0042383
    3  -0.0196009  -0.0181598   0.0054649   0.0064718   0.0047754   0.0005720
    4  -0.1529989   0.0299146  -0.1553874  -0.0070943  -0.0074919   0.0109368
    5   0.0187044  -0.0698104  -0.0156620   0.0247151  -0.0160945  -0.0125799
    6  -0.0764185  -0.0034134  -0.0454764   0.0064050  -0.0055753   0.0054907
    7   0.4201665   0.1006741   0.2431619   0.0092634   0.0221556   0.0152323
    8   0.1006741   0.4554496   0.1809179   0.0112020  -0.0033535  -0.0326969
    9   0.2431619   0.1809179   0.1256663   0.0383913  -0.1447910  -0.0266812
   10   0.0092634   0.0112020   0.0383913   0.3155391  -0.2501576  -0.2005610
   11   0.0221556  -0.0033535  -0.1447910  -0.2501576   0.4550725   0.0686471
   12   0.0152323  -0.0326969  -0.0266812  -0.2005610   0.0686471   0.4514259
   13  -0.0631512   0.0095005  -0.0144208  -0.0664852   0.0272706   0.0048225
   14   0.0251064  -0.1379631  -0.0250563   0.0109898  -0.0651732   0.0132047
   15  -0.0145450  -0.0222947  -0.0597836   0.0179500   0.0192473  -0.1614471
   16  -0.0181935  -0.0302694   0.0071202  -0.0188627  -0.0153343   0.0260342
   17  -0.0191418  -0.0267708   0.0001423  -0.0022846  -0.0003870   0.0031453
   18  -0.0067899   0.0001583   0.0021865   0.0235968   0.0076955  -0.0062281
   19  -0.0006444   0.0004508  -0.0005390   0.0008599  -0.0004781  -0.0002448
   20  -0.0028333  -0.0017226  -0.0031805   0.0000302  -0.0011336   0.0003030
   21  -0.0002122   0.0021892  -0.0047474  -0.0009305  -0.0009497   0.0011576
   22  -0.0055379   0.0176773   0.0038037  -0.0009165   0.0003099   0.0018577
   23  -0.0013972   0.0019708   0.0003728   0.0001886   0.0002842  -0.0004857
   24  -0.0034501   0.0208086   0.0007893   0.0041688  -0.0007071  -0.0040622
   25  -0.1437932  -0.1144726  -0.1218552  -0.0009462  -0.0008546  -0.0002470
   26  -0.1212136  -0.1795470  -0.1025377  -0.0003736  -0.0004647  -0.0000876
   27  -0.1172366  -0.1046727  -0.0945090   0.0033761   0.0021197   0.0005426
   28  -0.0007228  -0.0017526  -0.0072801  -0.1300566   0.1098178   0.1305146
   29   0.0002634  -0.0018706  -0.0053885   0.1142983  -0.1267293  -0.0854697
   30  -0.0005643  -0.0034037  -0.0047898   0.1339027  -0.0899267  -0.1632002
   31   0.0018789  -0.0004435   0.0019282   0.0080209  -0.0070758   0.0052470
   32   0.0154771  -0.0060726   0.0148884  -0.0011454   0.0010717   0.0010511
   33   0.0083592  -0.0042835   0.0083044  -0.0173419   0.0191716  -0.0110280
   34  -0.0081765  -0.0144174   0.0213660  -0.1050915   0.1100888   0.0166522
   35  -0.0168064  -0.0266445   0.0880942   0.0987565  -0.2373071   0.0240163
   36  -0.0318443  -0.0145001   0.0800683  -0.0121642   0.1090487  -0.0895666
   37   0.0013162   0.0035067   0.0060884   0.0018549   0.0146881  -0.0132325
   38   0.0043679   0.0003695   0.0069528  -0.0099202   0.0009006   0.0167139
   39   0.0039082  -0.0006492   0.0135076  -0.0032649   0.0112445   0.0030247
           13          14          15          16          17          18
    1  -0.0625448   0.0256175  -0.0103128  -0.2449563   0.1787041  -0.0708788
    2   0.0218733   0.0063872  -0.0063894   0.2134633  -0.3864974   0.1130363
    3  -0.0087014   0.0001285   0.0004649  -0.0837329   0.1093356  -0.0937828
    4  -0.0236779   0.0127466  -0.0018516   0.0267792  -0.0081220  -0.0051780
    5   0.0243127  -0.0348249   0.0104145   0.0107141  -0.0589328   0.0238315
    6  -0.0006142   0.0117657  -0.0129354  -0.0157762   0.0243572   0.0170931
    7  -0.0631512   0.0251064  -0.0145450  -0.0181935  -0.0191418  -0.0067899
    8   0.0095005  -0.1379631  -0.0222947  -0.0302694  -0.0267708   0.0001583
    9  -0.0144208  -0.0250563  -0.0597836   0.0071202   0.0001423   0.0021865
   10  -0.0664852   0.0109898   0.0179500  -0.0188627  -0.0022846   0.0235968
   11   0.0272706  -0.0651732   0.0192473  -0.0153343  -0.0003870   0.0076955
   12   0.0048225   0.0132047  -0.1614471   0.0260342   0.0031453  -0.0062281
   13   0.4555608  -0.1547447   0.1208112  -0.1113829   0.0036446  -0.0071647
   14  -0.1547447   0.4812990  -0.1383868  -0.0330954  -0.0795290   0.0037817
   15   0.1208112  -0.1383868   0.4535643  -0.0106984   0.0051564  -0.0651601
   16  -0.1113829  -0.0330954  -0.0106984   0.4209490  -0.1749627   0.0837837
   17   0.0036446  -0.0795290   0.0051564  -0.1749627   0.5557834  -0.1425080
   18  -0.0071647   0.0037817  -0.0651601   0.0837837  -0.1425080   0.1411800
   19  -0.0001441   0.0015862  -0.0037785  -0.0168919   0.0040675  -0.0023358
   20   0.0015512  -0.0036713   0.0045610   0.0328664   0.0029751   0.0016713
   21  -0.0010981   0.0030842   0.0105957  -0.0083287  -0.0026980  -0.0048308
   22  -0.0049074   0.0000384  -0.0021339  -0.0018372  -0.0057129   0.0028882
   23  -0.0017607  -0.0007249   0.0001342  -0.0006671  -0.0050666   0.0022024
   24  -0.0035582   0.0027550  -0.0016491  -0.0006924   0.0014443   0.0010666
   25   0.0032138   0.0044191   0.0061041  -0.0013580  -0.0008616   0.0000229
   26  -0.0124355   0.0031127  -0.0082011  -0.0035290  -0.0022677  -0.0021092
   27   0.0031764   0.0010439   0.0009881   0.0010601   0.0011463   0.0007538
   28  -0.0001509   0.0018122  -0.0027602   0.0001872  -0.0008131   0.0003979
   29  -0.0077073   0.0061722   0.0035211   0.0005837   0.0000175   0.0010576
   30   0.0098292  -0.0109693  -0.0026730  -0.0001011  -0.0010456  -0.0010293
   31  -0.1463868   0.0960408  -0.0934497  -0.0206666   0.0168564  -0.0143135
   32   0.1014033  -0.1471697   0.0876636  -0.0094974   0.0086159  -0.0080291
   33  -0.0976396   0.0882826  -0.1344084   0.0018489  -0.0027793   0.0029885
   34   0.0186249   0.0032611  -0.0065860  -0.0146822   0.0099588  -0.0035219
   35  -0.0174687  -0.0250340   0.0421737   0.0092220  -0.0096558  -0.0012778
   36  -0.0092754   0.0470821  -0.0283970   0.0010837   0.0021286   0.0044880
   37   0.0014317   0.0062219   0.0012508   0.0009157  -0.0013328  -0.0005072
   38   0.0045607  -0.0028811   0.0024002   0.0005057   0.0017152   0.0004896
   39   0.0038331   0.0032841   0.0008408  -0.0016011   0.0021750   0.0012746
           19          20          21          22          23          24
    1  -0.3280373  -0.0348668  -0.0344119   0.0152134   0.0140892  -0.0031346
    2  -0.0277066  -0.0555108   0.0042003  -0.0133674  -0.0092097   0.0025147
    3  -0.0313952   0.0030919  -0.0423537  -0.0013996  -0.0011906  -0.0027612
    4  -0.0036335  -0.0173924   0.0037678  -0.1030311   0.1091384  -0.0035632
    5   0.0029105   0.0040572   0.0006917   0.1056079  -0.2857058   0.0050029
    6  -0.0027248  -0.0016436   0.0084927  -0.0022797   0.0058696  -0.0398067
    7  -0.0006444  -0.0028333  -0.0002122  -0.0055379  -0.0013972  -0.0034501
    8   0.0004508  -0.0017226   0.0021892   0.0176773   0.0019708   0.0208086
    9  -0.0005390  -0.0031805  -0.0047474   0.0038037   0.0003728   0.0007893
   10   0.0008599   0.0000302  -0.0009305  -0.0009165   0.0001886   0.0041688
   11  -0.0004781  -0.0011336  -0.0009497   0.0003099   0.0002842  -0.0007071
   12  -0.0002448   0.0003030   0.0011576   0.0018577  -0.0004857  -0.0040622
   13  -0.0001441   0.0015512  -0.0010981  -0.0049074  -0.0017607  -0.0035582
   14   0.0015862  -0.0036713   0.0030842   0.0000384  -0.0007249   0.0027550
   15  -0.0037785   0.0045610   0.0105957  -0.0021339   0.0001342  -0.0016491
   16  -0.0168919   0.0328664  -0.0083287  -0.0018372  -0.0006671  -0.0006924
   17   0.0040675   0.0029751  -0.0026980  -0.0057129  -0.0050666   0.0014443
   18  -0.0023358   0.0016713  -0.0048308   0.0028882   0.0022024   0.0010666
   19   0.3504782   0.0197922   0.0394190  -0.0001535  -0.0006623   0.0001037
   20   0.0197922   0.0533321  -0.0059143   0.0009047   0.0001016  -0.0001597
   21   0.0394190  -0.0059143   0.0301510  -0.0000556  -0.0000463  -0.0001897
   22  -0.0001535   0.0009047  -0.0000556   0.1058829  -0.1188185   0.0007255
   23  -0.0006623   0.0001016  -0.0000463  -0.1188185   0.2984478  -0.0075047
   24   0.0001037  -0.0001597  -0.0001897   0.0007255  -0.0075047   0.0412319
   25  -0.0002840  -0.0010902   0.0001667   0.0008432   0.0003491   0.0009090
   26   0.0001086   0.0004893  -0.0003162  -0.0005400   0.0001874  -0.0007266
   27   0.0003605   0.0004592  -0.0000723  -0.0002379   0.0001856   0.0002709
   28  -0.0000167   0.0000770  -0.0000745  -0.0000688   0.0001039   0.0005719
   29   0.0000333   0.0000937  -0.0003239   0.0003637   0.0001611  -0.0007828
   30   0.0000542  -0.0000318   0.0002298  -0.0004904   0.0001123   0.0007941
   31  -0.0010221   0.0014372   0.0003107   0.0002691   0.0001915  -0.0000702
   32  -0.0002573   0.0007588   0.0003088   0.0008016   0.0002636   0.0011320
   33   0.0003297  -0.0001579  -0.0000272   0.0005836  -0.0000801   0.0006895
   34  -0.0003633  -0.0000597   0.0013877  -0.0062646  -0.0008352   0.0095046
   35   0.0001343   0.0000996  -0.0002652   0.0130332  -0.0012461  -0.0243943
   36   0.0006052   0.0006961   0.0012025  -0.0030788   0.0006677   0.0028836
   37  -0.0001472  -0.0004165   0.0000594   0.0005085   0.0000803  -0.0015148
   38   0.0000209   0.0001310   0.0000394  -0.0002979   0.0005366   0.0006177
   39   0.0001458   0.0003055   0.0003917  -0.0001828  -0.0002372   0.0007428
           25          26          27          28          29          30
    1  -0.0026758   0.0006531   0.0029707  -0.0006448  -0.0016114   0.0000702
    2  -0.0001563  -0.0038394   0.0016286   0.0016228   0.0007117   0.0010323
    3  -0.0025894   0.0030056  -0.0005675  -0.0002584   0.0001256  -0.0005956
    4  -0.0038359   0.0095618  -0.0015997  -0.0012988  -0.0017478  -0.0019280
    5  -0.0155247   0.0081949  -0.0025962   0.0028630  -0.0022804   0.0034574
    6  -0.0022489   0.0066989  -0.0066230   0.0034741   0.0029570   0.0009279
    7  -0.1437932  -0.1212136  -0.1172366  -0.0007228   0.0002634  -0.0005643
    8  -0.1144726  -0.1795470  -0.1046727  -0.0017526  -0.0018706  -0.0034037
    9  -0.1218552  -0.1025377  -0.0945090  -0.0072801  -0.0053885  -0.0047898
   10  -0.0009462  -0.0003736   0.0033761  -0.1300566   0.1142983   0.1339027
   11  -0.0008546  -0.0004647   0.0021197   0.1098178  -0.1267293  -0.0899267
   12  -0.0002470  -0.0000876   0.0005426   0.1305146  -0.0854697  -0.1632002
   13   0.0032138  -0.0124355   0.0031764  -0.0001509  -0.0077073   0.0098292
   14   0.0044191   0.0031127   0.0010439   0.0018122   0.0061722  -0.0109693
   15   0.0061041  -0.0082011   0.0009881  -0.0027602   0.0035211  -0.0026730
   16  -0.0013580  -0.0035290   0.0010601   0.0001872   0.0005837  -0.0001011
   17  -0.0008616  -0.0022677   0.0011463  -0.0008131   0.0000175  -0.0010456
   18   0.0000229  -0.0021092   0.0007538   0.0003979   0.0010576  -0.0010293
   19  -0.0002840   0.0001086   0.0003605  -0.0000167   0.0000333   0.0000542
   20  -0.0010902   0.0004893   0.0004592   0.0000770   0.0000937  -0.0000318
   21   0.0001667  -0.0003162  -0.0000723  -0.0000745  -0.0003239   0.0002298
   22   0.0008432  -0.0005400  -0.0002379  -0.0000688   0.0003637  -0.0004904
   23   0.0003491   0.0001874   0.0001856   0.0001039   0.0001611   0.0001123
   24   0.0009090  -0.0007266   0.0002709   0.0005719  -0.0007828   0.0007941
   25   0.1465323   0.1238232   0.1171556  -0.0000190   0.0001209   0.0006588
   26   0.1238232   0.1725596   0.1071841   0.0002217   0.0004930  -0.0006224
   27   0.1171556   0.1071841   0.1015789  -0.0005197  -0.0006082  -0.0007280
   28  -0.0000190   0.0002217  -0.0005197   0.1359226  -0.1166704  -0.1333276
   29   0.0001209   0.0004930  -0.0006082  -0.1166704   0.1226768   0.0979311
   30   0.0006588  -0.0006224  -0.0007280  -0.1333276   0.0979311   0.1633510
   31   0.0000823   0.0004602  -0.0000280   0.0001058   0.0005203  -0.0006108
   32  -0.0003390   0.0003451  -0.0003264  -0.0003653  -0.0001131   0.0001721
   33  -0.0004084   0.0004945   0.0001586   0.0002470  -0.0006932   0.0008135
   34   0.0022665   0.0036571  -0.0095051  -0.0020492   0.0129080  -0.0073550
   35   0.0052241   0.0008162  -0.0065904   0.0034004   0.0007133   0.0039867
   36   0.0028312  -0.0020993  -0.0026061   0.0101992  -0.0119207   0.0074830
   37  -0.0000260  -0.0003941   0.0010275  -0.0011881  -0.0013547  -0.0001379
   38  -0.0006376  -0.0000794   0.0010264  -0.0003175  -0.0000459  -0.0006923
   39  -0.0004993  -0.0006830   0.0008129  -0.0011844  -0.0004055  -0.0005836
           31          32          33          34          35          36
    1  -0.0063845  -0.0030626   0.0009662  -0.0153355  -0.0013262   0.0104097
    2  -0.0026519  -0.0009305   0.0000537  -0.0268682   0.0119992   0.0085914
    3  -0.0007499   0.0004700   0.0007581   0.0254089   0.0181388  -0.0114603
    4  -0.0003886  -0.0000407   0.0011795  -0.0823528   0.0318693   0.1182446
    5  -0.0008628  -0.0053937  -0.0030074   0.0208022  -0.0676274   0.0096321
    6  -0.0008060  -0.0003460   0.0003659   0.0392288   0.0095010  -0.1064894
    7   0.0018789   0.0154771   0.0083592  -0.0081765  -0.0168064  -0.0318443
    8  -0.0004435  -0.0060726  -0.0042835  -0.0144174  -0.0266445  -0.0145001
    9   0.0019282   0.0148884   0.0083044   0.0213660   0.0880942   0.0800683
   10   0.0080209  -0.0011454  -0.0173419  -0.1050915   0.0987565  -0.0121642
   11  -0.0070758   0.0010717   0.0191716   0.1100888  -0.2373071   0.1090487
   12   0.0052470   0.0010511  -0.0110280   0.0166522   0.0240163  -0.0895666
   13  -0.1463868   0.1014033  -0.0976396   0.0186249  -0.0174687  -0.0092754
   14   0.0960408  -0.1471697   0.0882826   0.0032611  -0.0250340   0.0470821
   15  -0.0934497   0.0876636  -0.1344084  -0.0065860   0.0421737  -0.0283970
   16  -0.0206666  -0.0094974   0.0018489  -0.0146822   0.0092220   0.0010837
   17   0.0168564   0.0086159  -0.0027793   0.0099588  -0.0096558   0.0021286
   18  -0.0143135  -0.0080291   0.0029885  -0.0035219  -0.0012778   0.0044880
   19  -0.0010221  -0.0002573   0.0003297  -0.0003633   0.0001343   0.0006052
   20   0.0014372   0.0007588  -0.0001579  -0.0000597   0.0000996   0.0006961
   21   0.0003107   0.0003088  -0.0000272   0.0013877  -0.0002652   0.0012025
   22   0.0002691   0.0008016   0.0005836  -0.0062646   0.0130332  -0.0030788
   23   0.0001915   0.0002636  -0.0000801  -0.0008352  -0.0012461   0.0006677
   24  -0.0000702   0.0011320   0.0006895   0.0095046  -0.0243943   0.0028836
   25   0.0000823  -0.0003390  -0.0004084   0.0022665   0.0052241   0.0028312
   26   0.0004602   0.0003451   0.0004945   0.0036571   0.0008162  -0.0020993
   27  -0.0000280  -0.0003264   0.0001586  -0.0095051  -0.0065904  -0.0026061
   28   0.0001058  -0.0003653   0.0002470  -0.0020492   0.0034004   0.0101992
   29   0.0005203  -0.0001131  -0.0006932   0.0129080   0.0007133  -0.0119207
   30  -0.0006108   0.0001721   0.0008135  -0.0073550   0.0039867   0.0074830
   31   0.1653969  -0.1040931   0.1002192  -0.0010118   0.0004345   0.0023147
   32  -0.1040931   0.1490745  -0.0971158   0.0007224  -0.0005945  -0.0000923
   33   0.1002192  -0.0971158   0.1382274   0.0021271  -0.0011473  -0.0073329
   34  -0.0010118   0.0007224   0.0021271   0.2603707  -0.0870522  -0.1313312
   35   0.0004345  -0.0005945  -0.0011473  -0.0870522   0.5489196  -0.2860978
   36   0.0023147  -0.0000923  -0.0073329  -0.1313312  -0.2860978   0.3498466
   37   0.0001064   0.0003962  -0.0004705  -0.0459348  -0.0394208   0.0420057
   38  -0.0008137   0.0001446   0.0012622  -0.0321656  -0.1944387   0.1368635
   39   0.0000084   0.0002235   0.0004905   0.0426237   0.1338621  -0.2001198
           37          38          39
    1  -0.0001100  -0.0005709  -0.0003692
    2   0.0029804  -0.0009085  -0.0035207
    3   0.0021557  -0.0012268  -0.0013523
    4  -0.0043530   0.0044544   0.0068235
    5  -0.0157686   0.0051526   0.0100711
    6   0.0135165  -0.0087764  -0.0123771
    7   0.0013162   0.0043679   0.0039082
    8   0.0035067   0.0003695  -0.0006492
    9   0.0060884   0.0069528   0.0135076
   10   0.0018549  -0.0099202  -0.0032649
   11   0.0146881   0.0009006   0.0112445
   12  -0.0132325   0.0167139   0.0030247
   13   0.0014317   0.0045607   0.0038331
   14   0.0062219  -0.0028811   0.0032841
   15   0.0012508   0.0024002   0.0008408
   16   0.0009157   0.0005057  -0.0016011
   17  -0.0013328   0.0017152   0.0021750
   18  -0.0005072   0.0004896   0.0012746
   19  -0.0001472   0.0000209   0.0001458
   20  -0.0004165   0.0001310   0.0003055
   21   0.0000594   0.0000394   0.0003917
   22   0.0005085  -0.0002979  -0.0001828
   23   0.0000803   0.0005366  -0.0002372
   24  -0.0015148   0.0006177   0.0007428
   25  -0.0000260  -0.0006376  -0.0004993
   26  -0.0003941  -0.0000794  -0.0006830
   27   0.0010275   0.0010264   0.0008129
   28  -0.0011881  -0.0003175  -0.0011844
   29  -0.0013547  -0.0000459  -0.0004055
   30  -0.0001379  -0.0006923  -0.0005836
   31   0.0001064  -0.0008137   0.0000084
   32   0.0003962   0.0001446   0.0002235
   33  -0.0004705   0.0012622   0.0004905
   34  -0.0459348  -0.0321656   0.0426237
   35  -0.0394208  -0.1944387   0.1338621
   36   0.0420057   0.1368635  -0.2001198
   37   0.0456258   0.0308138  -0.0502411
   38   0.0308138   0.1894036  -0.1556702
   39  -0.0502411  -0.1556702   0.1933471
 Gradient time:  CPU 552.10 s  wall 554.52 s
 **********************************************************************
 **                                                                  **
 **                       VIBRATIONAL ANALYSIS                       **
 **                       --------------------                       **
 **                                                                  **
 **        VIBRATIONAL FREQUENCIES (CM**-1) AND NORMAL MODES         **
 **     FORCE CONSTANTS (mDYN/ANGSTROM) AND REDUCED MASSES (AMU)     **
 **                  INFRARED INTENSITIES (KM/MOL)                   **
 **                                                                  **
 **********************************************************************
 

 Mode:                 1                      2                      3
 Frequency:      -745.47                 264.85                 350.70
 Force Cnst:      1.7906                 0.0490                 0.0765
 Red. Mass:       5.4686                 1.1849                 1.0560
 IR Active:          YES                    YES                    YES
 IR Intens:       59.619                 16.466                 36.416
 Raman Active:       YES                    YES                    YES
               X      Y      Z        X      Y      Z        X      Y      Z
 C          0.039  0.020 -0.018   -0.004 -0.002  0.023    0.010 -0.007 -0.023
 C          0.161  0.024 -0.051    0.023 -0.016 -0.021    0.023  0.000  0.012
 C         -0.090 -0.091  0.435    0.027  0.006 -0.016    0.011  0.009  0.012
 C         -0.002  0.158 -0.016   -0.071 -0.026 -0.055   -0.008  0.005  0.004
 C          0.005  0.033  0.012   -0.009 -0.003 -0.022    0.016  0.027  0.015
 N         -0.008  0.008  0.002   -0.011  0.004  0.045    0.016  0.001 -0.004
 H          0.026  0.093  0.053   -0.010  0.008  0.067    0.016 -0.027 -0.062
 H          0.105  0.004 -0.027    0.028 -0.013 -0.018    0.030  0.004  0.022
 H          0.278 -0.066 -0.055   -0.389 -0.050  0.549   -0.415 -0.036  0.575
 H          0.177  0.202  0.105    0.574  0.341  0.265   -0.528 -0.325 -0.222
 H          0.021 -0.060 -0.106    0.020 -0.010 -0.065    0.025  0.027  0.004
 C         -0.133 -0.144 -0.321    0.024  0.011 -0.026    0.013  0.001 -0.029
 H         -0.253 -0.286 -0.492    0.047  0.013 -0.016   -0.126 -0.095 -0.158
 TransDip   0.018 -0.139 -0.203    0.055  0.042  0.110   -0.161 -0.104  0.019

 Mode:                 4                      5                      6
 Frequency:       449.54                 475.62                 590.41
 Force Cnst:      0.5614                 0.5280                 0.7578
 Red. Mass:       4.7146                 3.9616                 3.6898
 IR Active:          YES                    YES                    YES
 IR Intens:        6.991                 10.458                  3.706
 Raman Active:       YES                    YES                    YES
               X      Y      Z        X      Y      Z        X      Y      Z
 C         -0.039 -0.045  0.059   -0.110  0.097  0.249   -0.034 -0.014 -0.173
 C         -0.000 -0.072 -0.201   -0.050 -0.023  0.019    0.017 -0.041  0.101
 C         -0.129 -0.127  0.025   -0.005  0.001 -0.097    0.182 -0.079 -0.150
 C          0.145  0.145 -0.084    0.324  0.070  0.067    0.158  0.148  0.057
 C         -0.039 -0.062 -0.117   -0.012 -0.026 -0.051    0.003 -0.064  0.040
 N         -0.093  0.002  0.308   -0.054 -0.006 -0.172   -0.124  0.042  0.170
 H         -0.094  0.067  0.434   -0.165  0.196  0.626    0.020 -0.036 -0.618
 H         -0.044 -0.089 -0.126    0.063  0.030 -0.064    0.060 -0.017  0.251
 H         -0.041 -0.145 -0.063   -0.251 -0.030  0.232    0.036 -0.111  0.061
 H         -0.304 -0.098 -0.321    0.189  0.002 -0.010    0.142  0.230 -0.033
 H          0.026 -0.064 -0.191   -0.155 -0.047  0.087   -0.047 -0.114  0.038
 C          0.183  0.163 -0.028   -0.038 -0.112 -0.049   -0.165  0.010 -0.034
 H          0.301  0.281  0.110   -0.209 -0.149 -0.131   -0.412 -0.071 -0.177
 TransDip  -0.050 -0.026 -0.063   -0.064 -0.002  0.081   -0.042  0.028 -0.036

 Mode:                 7                      8                      9
 Frequency:       716.66                 783.22                 810.03
 Force Cnst:      2.0607                 1.8175                 0.8896
 Red. Mass:       6.8100                 5.0287                 2.3011
 IR Active:          YES                    YES                    YES
 IR Intens:        0.647                  5.858                  5.714
 Raman Active:       YES                    YES                    YES
               X      Y      Z        X      Y      Z        X      Y      Z
 C         -0.036  0.145 -0.101   -0.174 -0.086  0.045    0.005  0.029 -0.089
 C         -0.162  0.028  0.088    0.034 -0.051  0.271    0.010 -0.116 -0.061
 C         -0.235 -0.204  0.076   -0.001  0.172  0.084    0.077  0.138  0.108
 C          0.135 -0.153 -0.171    0.117 -0.088 -0.243   -0.005 -0.008 -0.042
 C          0.151 -0.022 -0.105   -0.041  0.206 -0.084    0.092 -0.046 -0.054
 N          0.184  0.351  0.074   -0.133 -0.067  0.051   -0.081  0.015  0.005
 H          0.014 -0.187 -0.283   -0.101 -0.167 -0.586   -0.060  0.303  0.296
 H          0.082  0.138  0.025    0.027 -0.058 -0.008   -0.119 -0.187 -0.414
 H         -0.273 -0.192  0.101    0.193  0.145 -0.110   -0.040  0.367 -0.019
 H          0.198  0.061 -0.296    0.166 -0.212 -0.104   -0.036  0.141 -0.191
 H          0.095  0.018  0.003   -0.004  0.289 -0.046   -0.001 -0.223 -0.137
 C         -0.074 -0.188  0.138    0.205 -0.080 -0.058   -0.025 -0.037  0.173
 H         -0.057 -0.020  0.308   -0.105  0.048 -0.018   -0.446 -0.134 -0.022
 TransDip   0.024 -0.005 -0.007    0.043 -0.009 -0.064   -0.034 -0.010 -0.068

 Mode:                10                     11                     12
 Frequency:       857.19                 873.92                 896.66
 Force Cnst:      1.2917                 1.1368                 0.8739
 Red. Mass:       2.9838                 2.5263                 1.8448
 IR Active:          YES                    YES                    YES
 IR Intens:        5.044                 25.457                  4.691
 Raman Active:       YES                    YES                    YES
               X      Y      Z        X      Y      Z        X      Y      Z
 C          0.224  0.082  0.032   -0.015  0.026 -0.028   -0.116 -0.058 -0.037
 C         -0.001  0.095  0.066    0.060 -0.024 -0.019    0.009 -0.062  0.029
 C         -0.104  0.146 -0.005   -0.034 -0.065 -0.017    0.094  0.079  0.047
 C          0.077 -0.004 -0.035   -0.002 -0.044 -0.002    0.005  0.013  0.072
 C         -0.081 -0.164 -0.042    0.238  0.125  0.043   -0.012 -0.037 -0.060
 N         -0.031 -0.108  0.057   -0.153 -0.080 -0.015    0.051  0.098 -0.004
 H          0.271  0.203 -0.382   -0.057  0.327  0.117   -0.129 -0.193  0.127
 H         -0.231 -0.018 -0.063    0.178  0.036  0.202    0.032 -0.049  0.072
 H         -0.307  0.321  0.025   -0.192  0.086 -0.032   -0.070  0.259  0.033
 H         -0.027  0.046 -0.182   -0.036  0.022 -0.090   -0.095 -0.195  0.154
 H         -0.023 -0.150 -0.088    0.251  0.270  0.178   -0.075 -0.322 -0.287
 C         -0.081 -0.078 -0.052   -0.116 -0.012 -0.027   -0.059 -0.027 -0.084
 H          0.344  0.173  0.303    0.436  0.295  0.412    0.575  0.247  0.346
 TransDip   0.007  0.067 -0.025    0.083  0.119  0.071   -0.011 -0.068  0.002

 Mode:                13                     14                     15
 Frequency:       908.72                 919.90                 939.96
 Force Cnst:      0.8876                 1.1397                 1.1136
 Red. Mass:       1.8243                 2.2860                 2.1393
 IR Active:          YES                    YES                    YES
 IR Intens:       10.988                  9.546                  2.760
 Raman Active:       YES                    YES                    YES
               X      Y      Z        X      Y      Z        X      Y      Z
 C          0.061 -0.034 -0.162   -0.075 -0.001  0.078   -0.027 -0.103 -0.045
 C         -0.040  0.064  0.126   -0.031  0.117 -0.035    0.004  0.206 -0.042
 C         -0.051  0.016 -0.026   -0.052  0.024  0.005    0.066  0.031  0.022
 C          0.014 -0.045  0.053   -0.035 -0.006  0.127    0.049 -0.014  0.010
 C          0.000  0.011 -0.085    0.185 -0.073 -0.137   -0.032  0.046 -0.079
 N         -0.012 -0.014  0.042   -0.059 -0.037  0.015   -0.008 -0.063  0.040
 H         -0.060  0.273  0.692   -0.003 -0.239 -0.448   -0.056 -0.189  0.198
 H         -0.139  0.026  0.397    0.141  0.209  0.087    0.055  0.227 -0.476
 H         -0.019  0.010 -0.059   -0.087  0.143 -0.097    0.324 -0.445  0.326
 H          0.089 -0.182  0.239    0.009 -0.040  0.206   -0.026  0.091 -0.147
 H          0.037  0.052 -0.084    0.266 -0.214 -0.371    0.007  0.172  0.009
 C          0.044  0.002 -0.036    0.051  0.021  0.024   -0.094 -0.076  0.081
 H         -0.063 -0.159 -0.221   -0.024 -0.328 -0.334    0.193 -0.063  0.169
 TransDip  -0.032  0.039  0.094    0.059 -0.039 -0.069   -0.048 -0.016 -0.015

 Mode:                16                     17                     18
 Frequency:       961.35                1023.66                1083.48
 Force Cnst:      0.8948                 1.0801                 1.1642
 Red. Mass:       1.6434                 1.7494                 1.6831
 IR Active:          YES                    YES                    YES
 IR Intens:        7.242                  6.079                  5.558
 Raman Active:       YES                    YES                    YES
               X      Y      Z        X      Y      Z        X      Y      Z
 C         -0.077 -0.066 -0.031    0.009 -0.038 -0.005    0.017  0.007  0.007
 C          0.028  0.093  0.003    0.171 -0.014 -0.019    0.035 -0.088  0.015
 C         -0.014  0.043 -0.005   -0.081 -0.004 -0.036   -0.014 -0.009 -0.041
 C          0.002  0.002 -0.087    0.011  0.004  0.018   -0.049  0.077  0.071
 C          0.023 -0.102  0.124   -0.097  0.034 -0.067   -0.070  0.087 -0.079
 N          0.010 -0.002 -0.001    0.037 -0.013  0.015    0.016  0.011  0.001
 H         -0.107 -0.212  0.263    0.009 -0.072  0.035    0.022  0.134 -0.075
 H          0.270  0.219  0.248    0.670  0.218  0.044    0.040 -0.089  0.221
 H         -0.180  0.316 -0.142   -0.242  0.245 -0.179   -0.039  0.004 -0.045
 H         -0.018  0.364 -0.417    0.033 -0.168  0.193   -0.140  0.486 -0.336
 H         -0.127 -0.125  0.277   -0.021  0.089 -0.106    0.048  0.177 -0.135
 C          0.031  0.000 -0.009   -0.062 -0.006  0.080    0.030 -0.109  0.069
 H          0.121 -0.168 -0.152   -0.381  0.149  0.155    0.458 -0.452 -0.137
 TransDip  -0.046 -0.032  0.066   -0.068  0.024  0.033    0.033  0.031 -0.060

 Mode:                19                     20                     21
 Frequency:      1137.89                1181.67                1217.35
 Force Cnst:      1.3216                 1.7885                 1.1843
 Red. Mass:       1.7324                 2.1739                 1.3564
 IR Active:          YES                    YES                    YES
 IR Intens:        4.902                  5.270                  1.711
 Raman Active:       YES                    YES                    YES
               X      Y      Z        X      Y      Z        X      Y      Z
 C          0.026 -0.010  0.036   -0.039 -0.027  0.014    0.010 -0.003  0.012
 C         -0.021  0.015 -0.159    0.136 -0.064  0.035    0.005  0.033  0.028
 C          0.061  0.036  0.075   -0.105  0.113 -0.017    0.076 -0.106  0.037
 C          0.066 -0.086 -0.034   -0.024 -0.057  0.085   -0.002  0.017 -0.018
 C         -0.037  0.051 -0.054    0.067 -0.110 -0.124   -0.012 -0.001 -0.084
 N         -0.010 -0.006  0.003    0.014  0.057  0.002   -0.007  0.003  0.003
 H          0.047 -0.061 -0.130   -0.036  0.038 -0.080    0.020 -0.134 -0.014
 H         -0.170 -0.027  0.871   -0.103 -0.185 -0.006   -0.207 -0.073 -0.281
 H          0.071  0.034  0.088    0.245 -0.345  0.142   -0.315  0.441 -0.184
 H          0.069 -0.115 -0.020   -0.042  0.174 -0.120    0.029 -0.168  0.167
 H         -0.266 -0.030  0.112   -0.296  0.244  0.660   -0.197  0.309  0.438
 C         -0.059  0.023  0.058   -0.029  0.079 -0.042   -0.029  0.042  0.025
 H         -0.026 -0.067 -0.022   -0.056  0.082 -0.051    0.217 -0.204 -0.153
 TransDip  -0.042 -0.020  0.053   -0.043 -0.021  0.056   -0.039  0.007 -0.013

 Mode:                22                     23                     24
 Frequency:      1261.25                1280.57                1305.93
 Force Cnst:      1.1497                 1.3898                 2.0039
 Red. Mass:       1.2267                 1.4385                 1.9942
 IR Active:          YES                    YES                    YES
 IR Intens:        1.133                  3.648                 14.709
 Raman Active:       YES                    YES                    YES
               X      Y      Z        X      Y      Z        X      Y      Z
 C         -0.023  0.048 -0.015   -0.054 -0.018 -0.003   -0.049 -0.040  0.018
 C          0.014 -0.006 -0.025   -0.041 -0.033 -0.017    0.205  0.055  0.009
 C          0.032  0.022  0.024   -0.004  0.056  0.011   -0.084 -0.011 -0.062
 C          0.008 -0.000  0.012    0.006  0.067 -0.092    0.039 -0.005 -0.068
 C         -0.049 -0.096  0.004   -0.005 -0.086  0.028   -0.000  0.015  0.088
 N         -0.024  0.018 -0.018    0.057 -0.013  0.007   -0.007  0.041 -0.023
 H         -0.014 -0.323  0.105   -0.076  0.575 -0.158   -0.058 -0.052  0.028
 H         -0.131 -0.072  0.170    0.278  0.121  0.043   -0.640 -0.352 -0.013
 H          0.013  0.060  0.015    0.126 -0.112  0.084   -0.046 -0.088 -0.047
 H         -0.013  0.021 -0.027    0.049 -0.339  0.282    0.073 -0.184  0.101
 H          0.652  0.594 -0.047    0.206  0.205  0.114    0.174 -0.213 -0.341
 C          0.012 -0.021 -0.004   -0.043  0.015  0.045   -0.074  0.035  0.077
 H         -0.108  0.097  0.081    0.290 -0.270 -0.142    0.169 -0.260 -0.145
 TransDip   0.022 -0.013  0.022    0.021 -0.038  0.043   -0.060 -0.100  0.038

 Mode:                25                     26                     27
 Frequency:      1320.48                1403.13                1643.37
 Force Cnst:      1.6124                 3.0423                12.5112
 Red. Mass:       1.5695                 2.6228                 7.8628
 IR Active:          YES                    YES                    YES
 IR Intens:       20.265                  1.967                 26.717
 Raman Active:       YES                    YES                    YES
               X      Y      Z        X      Y      Z        X      Y      Z
 C         -0.100 -0.067  0.014    0.040  0.022 -0.000   -0.279  0.489 -0.163
 C          0.015  0.083 -0.019   -0.038 -0.083  0.043    0.063 -0.035 -0.001
 C          0.040 -0.057  0.020    0.001  0.003  0.053   -0.010  0.007  0.000
 C          0.014 -0.074  0.067    0.101 -0.213  0.041    0.006 -0.018  0.007
 C         -0.039 -0.001 -0.012   -0.071  0.030  0.023    0.002  0.041 -0.021
 N          0.089 -0.012  0.010   -0.008  0.004 -0.008    0.262 -0.378  0.132
 H         -0.135  0.706 -0.221    0.052 -0.058  0.028   -0.297 -0.381  0.100
 H         -0.250 -0.030 -0.018    0.360  0.092 -0.294   -0.172 -0.158  0.030
 H         -0.158  0.207 -0.075    0.035  0.022 -0.008    0.039 -0.045  0.012
 H         -0.015  0.231 -0.219    0.090  0.164 -0.334    0.021  0.008 -0.003
 H          0.127  0.099 -0.097    0.243  0.035 -0.328   -0.265 -0.186  0.046
 C          0.023  0.011 -0.037   -0.114  0.232 -0.037   -0.035  0.026  0.011
 H         -0.241  0.215  0.083    0.285 -0.222 -0.419    0.054 -0.058 -0.040
 TransDip  -0.122  0.067 -0.038   -0.036  0.024  0.012    0.027  0.145 -0.076

 Mode:                28                     29                     30
 Frequency:      3161.74                3171.13                3183.59
 Force Cnst:      6.4230                 6.4571                 6.5335
 Red. Mass:       1.0905                 1.0898                 1.0941
 IR Active:          YES                    YES                    YES
 IR Intens:       23.055                  6.809                 16.590
 Raman Active:       YES                    YES                    YES
               X      Y      Z        X      Y      Z        X      Y      Z
 C         -0.005 -0.001 -0.001   -0.038 -0.000 -0.005   -0.075 -0.004 -0.009
 C          0.001 -0.001  0.000    0.033 -0.067  0.002   -0.011  0.028 -0.002
 C          0.003  0.001  0.002    0.001  0.002  0.001   -0.001 -0.001 -0.001
 C          0.002 -0.002 -0.001   -0.001  0.000  0.001    0.001  0.000 -0.002
 C         -0.052  0.050 -0.047    0.002 -0.001  0.001    0.005 -0.004  0.003
 N         -0.000 -0.000  0.000    0.001 -0.001  0.000    0.001 -0.002  0.001
 H          0.070  0.004  0.008    0.436  0.026  0.053    0.843  0.058  0.100
 H         -0.002  0.006  0.000   -0.373  0.780 -0.020    0.138 -0.305  0.010
 H         -0.025 -0.021 -0.020   -0.022 -0.026 -0.020    0.015  0.017  0.015
 H         -0.021  0.022  0.021    0.013 -0.011 -0.014   -0.015  0.013  0.018
 H          0.604 -0.570  0.542   -0.019  0.019 -0.017   -0.043  0.039 -0.036
 C         -0.001 -0.002  0.002    0.003  0.014 -0.013   -0.005 -0.024  0.023
 H          0.004  0.018 -0.020   -0.038 -0.152  0.156    0.069  0.267 -0.272
 TransDip  -0.103  0.087 -0.074    0.001 -0.083 -0.006   -0.129  0.003  0.021

 Mode:                31                     32                     33
 Frequency:      3190.75                3266.52                3273.64
 Force Cnst:      6.5571                 6.8821                 6.9226
 Red. Mass:       1.0931                 1.0947                 1.0964
 IR Active:          YES                    YES                    YES
 IR Intens:       17.796                  0.488                  0.724
 Raman Active:       YES                    YES                    YES
               X      Y      Z        X      Y      Z        X      Y      Z
 C         -0.023 -0.002 -0.002   -0.000 -0.000  0.000    0.002 -0.000  0.001
 C         -0.014  0.029 -0.001    0.001 -0.000  0.001    0.006 -0.005  0.001
 C         -0.001 -0.003 -0.001   -0.015 -0.015 -0.010   -0.051 -0.054 -0.043
 C         -0.003  0.001  0.005    0.051 -0.044 -0.051   -0.015  0.014  0.015
 C         -0.000  0.000 -0.000    0.000 -0.001  0.004   -0.002  0.005 -0.002
 N          0.000 -0.001  0.000   -0.000 -0.000  0.000   -0.000  0.000 -0.000
 H          0.260  0.019  0.031    0.006  0.001  0.001   -0.014 -0.001 -0.002
 H          0.154 -0.325  0.005   -0.005  0.009 -0.001   -0.025  0.049 -0.003
 H          0.024  0.026  0.019    0.162  0.169  0.134    0.569  0.602  0.479
 H          0.056 -0.047 -0.060   -0.568  0.492  0.588    0.158 -0.135 -0.163
 H          0.009 -0.008  0.007   -0.012  0.011 -0.015    0.026 -0.028  0.023
 C          0.013  0.054 -0.055   -0.001  0.009 -0.007   -0.000 -0.004  0.003
 H         -0.162 -0.606  0.624   -0.015 -0.063  0.057    0.007  0.028 -0.031
 TransDip  -0.047  0.103 -0.074    0.011 -0.011 -0.016   -0.020  0.008  0.016

 STANDARD THERMODYNAMIC QUANTITIES AT   298.15 K  AND     1.00 ATM

   This Molecule has  1 Imaginary Frequencies
   Zero point vibrational energy:       62.765 kcal/mol

   Atom    1 Element C  Has Mass   12.00000
   Atom    2 Element C  Has Mass   12.00000
   Atom    3 Element C  Has Mass   12.00000
   Atom    4 Element C  Has Mass   12.00000
   Atom    5 Element C  Has Mass   12.00000
   Atom    6 Element N  Has Mass   14.00307
   Atom    7 Element H  Has Mass    1.00783
   Atom    8 Element H  Has Mass    1.00783
   Atom    9 Element H  Has Mass    1.00783
   Atom   10 Element H  Has Mass    1.00783
   Atom   11 Element H  Has Mass    1.00783
   Atom   12 Element C  Has Mass   12.00000
   Atom   13 Element H  Has Mass    1.00783
   Molecular Mass:    92.050050 amu
   Principal axes and moments of inertia in amu*Bohr^2:
                             1           2           3
    Eigenvalues --      377.30279   457.88650   570.62584
          X               0.76244    -0.52854     0.37327
          Y               0.42873     0.84472     0.32037
          Z              -0.48464    -0.08423     0.87065
   Rotational Symmetry Number is   1
   The Molecule is an Asymmetric Top
   Translational Enthalpy:        0.889 kcal/mol
   Rotational Enthalpy:           0.889 kcal/mol
   Vibrational Enthalpy:         64.211 kcal/mol
   gas constant (RT):             0.592 kcal/mol
   Translational Entropy:        39.471  cal/mol.K
   Rotational Entropy:           26.091  cal/mol.K
   Vibrational Entropy:           6.866  cal/mol.K

   Total Enthalpy:               66.581 kcal/mol
   Total Entropy:                72.428  cal/mol.K
Archival summary:
1\1\c8-66\FREQ\ProcedureUnspecified\6-31+G**\166(2)\hpark21\ThuMar318:21:102022ThuMar318:21:102022\0\\#,FREQ,ProcedureUnspecified,6-31+G**,\\0,2\N\C,1,1.28183\H,2,1.08793,1,122.198\C,1,1.50059,2,105.572,3,-174.639,0\H,4,1.08835,1,112.181,2,-159.441,0\C,2,1.50956,1,112.945,3,176.688,0\H,6,1.08724,2,120.754,1,162.615,0\C,6,1.49545,2,102.35,1,24.7363,0\H,8,1.08029,6,131.076,2,145.312,0\C,4,1.52488,1,108.073,2,68.3765,0\H,10,1.08035,4,130.559,1,107.632,0\C,10,1.40241,4,98.5998,1,-80.5073,0\H,12,1.08671,10,127.629,4,-161.484,0\\\@

 Total job time:  562.72s(wall), 558.78s(cpu) 
 Thu Mar  3 18:21:10 2022

        *************************************************************
        *                                                           *
        *  Thank you very much for using Q-Chem.  Have a nice day.  *
        *                                                           *
        *************************************************************


