
Running Job 1 of 1 qcts1.in
qchem qcts1.in_19062.0 ./qcts1.d/ 1
/home/leeping/opt/qchem/5.0.2-openmp/exe/qcprog.exe_s qcts1.in_19062.0 ./qcts1.d/
Check license passed

                  Welcome to Q-Chem
     A Quantum Leap Into The Future Of Chemistry


 Q-Chem 5.0, Q-Chem, Inc., Pleasanton, CA (2017)

 Yihan Shao,  Zhengting Gan,  E. Epifanovsky,  A. T. B. Gilbert,  M. Wormit,  
 J. Kussmann,  A. W. Lange,  A. Behn,  Jia Deng,  Xintian Feng,  D. Ghosh,  
 M. Goldey,  P. R. Horn,  L. D. Jacobson,  I. Kaliman,  T. Kus,  A. Landau,  
 Jie Liu,  E. I. Proynov,  R. M. Richard,  R. P. Steele,  E. J. Sundstrom,  
 H. L. Woodcock III,  P. M. Zimmerman,  D. Zuev,  B. Albrecht,  E. Alguire,  
 S. A. Baeppler,  D. Barton,  Z. Benda,  Y. A. Bernard,  E. J. Berquist,  
 K. B. Bravaya,  H. Burton,  D. Casanova,  Chun-Min Chang,  Yunqing Chen,  
 A. Chien,  K. D. Closser,  M. P. Coons,  S. Dasgupta,  A. L. Dempwolff,  
 M. Diedenhofen,  Hainam Do,  R. G. Edgar,  Po-Tung Fang,  S. Fatehi,  
 Qingguo Feng,  J. Fosso-Tande,  Qinghui Ge,  A. Ghysels,  G. Gidofalvi,  
 J. Gomes,  J. Gonthier,  A. Gunina,  M. W. D. Hanson-Heine,  
 P. H. P. Harbach,  A. W. Hauser,  J. E. Herr,  E. G. Hohenstein,  
 Z. C. Holden,  Kerwin Hui,  T.-C. Jagau,  Hyunjun Ji,  B. Kaduk,  
 K. Khistyaev,  Jaehoon Kim,  P. Klunzinger,  K. Koh,  D. Kosenkov,  
 L. Koulias,  T. Kowalczyk,  C. M. Krauter,  A. Kunitsa,  Ka Un Lao,  
 A. Laurent,  K. V. Lawler,  Joonho Lee,  D. Lefrancois,  S. Lehtola,  
 D. S. Levine,  Yi-Pei Li,  You-Sheng Lin,  Fenglai Liu,  E. Livshits,  
 A. Luenser,  P. Manohar,  E. Mansoor,  S. F. Manzer,  Shan-Ping Mao,  
 Yuezhi Mao,  N. Mardirossian,  A. V. Marenich,  T. Markovich,  
 L. A. Martinez-Martinez,  S. A. Maurer,  N. J. Mayhall,  S. C. McKenzie,  
 J.-M. Mewes,  A. F. Morrison,  J. W. Mullinax,  K. Nanda,  
 T. S. Nguyen-Beck,  R. Olivares-Amaya,  J. A. Parkhill,  T. M. Perrine,  
 F. Plasser,  S. Prager,  A. Prociuk,  E. Ramos,  D. R. Rehn,  F. Rob,  
 M. Schneider,  N. Sergueev,  S. M. Sharada,  S. Sharma,  D. W. Small,  
 T. Stauch,  T. Stein,  Yu-Chuan Su,  A. J. W. Thom,  A. Tkatchenko,  
 T. Tsuchimochi,  L. Vogt,  O. Vydrov,  M. A. Watson,  J. Wenzel,  
 M. de Wergifosse,  T. A. Wesolowski,  A. White,  J. Witte,  A. Yamada,  
 Jun Yang,  K. Yao,  S. Yeganeh,  S. R. Yost,  Zhi-Qiang You,  A. Zech,  
 Igor Ying Zhang,  Xing Zhang,  Yan Zhao,  Ying Zhu,  B. R. Brooks,  
 G. K. L. Chan,  C. J. Cramer,  M. S. Gordon,  W. J. Hehre,  A. Klamt,  
 M. W. Schmidt,  C. D. Sherrill,  D. G. Truhlar,  A. Aspuru-Guzik,  R. Baer,  
 A. T. Bell,  N. A. Besley,  Jeng-Da Chai,  R. A. DiStasio Jr.,  A. Dreuw,  
 B. D. Dunietz,  T. R. Furlani,  Chao-Ping Hsu,  Yousung Jung,  Jing Kong,  
 D. S. Lambrecht,  WanZhen Liang,  C. Ochsenfeld,  V. A. Rassolov,  
 L. V. Slipchenko,  J. E. Subotnik,  T. Van Voorhis,  J. M. Herbert,  
 A. I. Krylov,  P. M. W. Gill,  M. Head-Gordon

 Contributors to earlier versions of Q-Chem not listed above: 
 R. D. Adamson,  B. Austin,  J. Baker,  G. J. O. Beran,  K. Brandhorst,  
 S. T. Brown,  E. F. C. Byrd,  A. K. Chakraborty,  C.-L. Cheng,  
 Siu Hung Chien,  D. M. Chipman,  D. L. Crittenden,  H. Dachsel,  
 R. J. Doerksen,  A. D. Dutoi,  L. Fusti-Molnar,  W. A. Goddard III,  
 A. Golubeva-Zadorozhnaya,  S. R. Gwaltney,  G. Hawkins,  A. Heyden,  
 S. Hirata,  G. Kedziora,  F. J. Keil,  C. Kelley,  Jihan Kim,  R. A. King,  
 R. Z. Khaliullin,  P. P. Korambath,  W. Kurlancheek,  A. M. Lee,  M. S. Lee,  
 S. V. Levchenko,  Ching Yeh Lin,  D. Liotard,  R. C. Lochan,  I. Lotan,  
 P. E. Maslen,  N. Nair,  D. P. O'Neill,  D. Neuhauser,  E. Neuscamman,  
 C. M. Oana,  R. Olson,  B. Peters,  R. Peverati,  P. A. Pieniazek,  
 Y. M. Rhee,  J. Ritchie,  M. A. Rohrdanz,  E. Rosta,  N. J. Russ,  
 H. F. Schaefer III,  N. E. Schultz,  N. Shenvi,  A. C. Simmonett,  A. Sodt,  
 D. Stuck,  K. S. Thanthiriwatte,  V. Vanovschi,  Tao Wang,  A. Warshel,  
 C. F. Williams,  Q. Wu,  X. Xu,  W. Zhang

 Please cite Q-Chem as follows:
 Y. Shao et al., Mol. Phys. 113, 184-215 (2015)
 DOI: 10.1080/00268976.2014.952696

 Q-Chem 5.0.2 for Intel X86 EM64T Linux

 Parts of Q-Chem use Armadillo 5.200.1 (Boston Tea Smuggler).
 http://arma.sourceforge.net/

 Q-Chem begins on Thu Mar  3 17:44:32 2022  

Host: 
0

     Scratch files written to ./qcts1.d//
 Dec517 15110_ 26548  26544 5633   
Processing $rem in /home/leeping/opt/qchem/5.0.2-openmp/config/preferences.
 MEM_STATIC 2000
 MEM_TOTAL  8000
 SYMMETRY   OFF
 SYM_IGNORE TRUE 

Checking the input file for inconsistencies... 	...done.

--------------------------------------------------------------
User input:
--------------------------------------------------------------
$molecule
0 2
C        1.5523330072    0.3737772416   -0.3186074806
C        0.7245203547   -0.8589642689   -0.0388355789
C       -0.4909236383   -0.5978229204   -0.8741633086
C       -0.9087389334    0.6749641817    0.8862959705
C       -0.5735878410    0.9211522076   -0.5868072956
N        0.8531451505    1.3885744343   -0.6577684955
H        2.6332477702    0.4278751644   -0.1967590579
H        1.1818481117   -1.8457950373   -0.0157083932
H       -1.1921336474   -1.2724344272   -1.3417660392
H       -1.6973822192    1.1291502945    1.4680765607
H       -1.2371155934    1.5585351725   -1.1679678655
C       -0.3304703623   -0.5844399236    1.0338703198
H       -0.5347580622   -1.3265485000    1.8024048276
$end

$rem
method                b3lyp
basis                 6-31g(d)
unrestricted          true
symmetry              off
sym_ignore            true
incdft                false
incfock               0
scf_convergence       8
thresh                14
jobtype               freq
scf_guess             read
scf_algorithm         diis
max_scf_cycles        100
$end

--------------------------------------------------------------
 ----------------------------------------------------------------
             Standard Nuclear Orientation (Angstroms)
    I     Atom           X                Y                Z
 ----------------------------------------------------------------
    1      C       1.5523330072     0.3737772416    -0.3186074806
    2      C       0.7245203547    -0.8589642689    -0.0388355789
    3      C      -0.4909236383    -0.5978229204    -0.8741633086
    4      C      -0.9087389334     0.6749641817     0.8862959705
    5      C      -0.5735878410     0.9211522076    -0.5868072956
    6      N       0.8531451505     1.3885744343    -0.6577684955
    7      H       2.6332477702     0.4278751644    -0.1967590579
    8      H       1.1818481117    -1.8457950373    -0.0157083932
    9      H      -1.1921336474    -1.2724344272    -1.3417660392
   10      H      -1.6973822192     1.1291502945     1.4680765607
   11      H      -1.2371155934     1.5585351725    -1.1679678655
   12      C      -0.3304703623    -0.5844399236     1.0338703198
   13      H      -0.5347580622    -1.3265485000     1.8024048276
 ----------------------------------------------------------------
 Nuclear Repulsion Energy =   280.5308966512 hartrees
 There are       25 alpha and       24 beta electrons
 Requested basis set is 6-31G(d)
 There are 40 shells and 117 basis functions

 Total QAlloc Memory Limit   8000 MB
 Mega-Array Size      1956 MB
 MEM_STATIC part      2000 MB

                       Distance Matrix (Angstroms)
             C (  1)   C (  2)   C (  3)   C (  4)   C (  5)   N (  6)
   C (  2)  1.511025
   C (  3)  2.329710  1.497755
   C (  4)  2.756697  2.424116  2.212187
   C (  5)  2.211581  2.270280  1.548125  1.530676
   N (  6)  1.278166  2.334749  2.408137  2.449002  1.503026
   H (  7)  1.089105  2.307409  3.357288  3.712106  3.267913  2.074666
   H (  8)  2.270574  1.087896  2.256667  3.396821  3.326215  3.313824
   H (  9)  3.359905  2.354177  1.079559  2.972698  2.400913  3.425199
   H ( 10)  3.784637  3.476923  3.150249  1.080144  2.351324  3.330422
   H ( 11)  3.147394  3.311685  2.300653  2.260205  1.088243  2.158328
   C ( 12)  2.508451  1.529401  1.914815  1.393654  2.225423  2.855761
   H ( 13)  3.427207  2.279163  2.774343  2.232749  3.280549  3.917987
             H (  7)   H (  8)   H (  9)   H ( 10)   H ( 11)   C ( 12)
   H (  8)  2.703501
   H (  9)  4.340004  2.779022
   H ( 10)  4.692315  4.397941  3.730697
   H ( 11)  4.147451  4.332269  2.836656  2.710156
   C ( 12)  3.364945  2.231533  2.619055  2.234586  3.203504
   H ( 13)  4.136535  2.553799  3.212613  2.737504  4.200015  1.087706

 
 A cutoff of  1.0D-14 yielded    813 shell pairs
 There are      7085 function pairs
 Smallest overlap matrix eigenvalue = 1.18E-03
 Guess MOs from SCF MO coefficient file
 Reading MOs from coefficient file
 Reading MOs from coefficient file
 An unrestricted hybrid HF-DFT SCF calculation will be
 performed using Pulay DIIS extrapolation
 Exchange:     0.2000 Hartree-Fock + 0.0800 Slater + 0.7200 B88
 Correlation:  0.1900 VWN1RPA + 0.8100 LYP
 Using SG-1 standard quadrature grid
 SCF converges when DIIS error is below 1.0E-08
Using Q-Chem read-in guess as SCF_GUESS READ specified.

 -------------------------------------------------------
 OpenMP BLAS3 based DFT computing Module                
 -------------------------------------------------------
 ---------------------------------------
  Cycle       Energy         DIIS Error
 ---------------------------------------
    1    -286.8210282474      3.71E-10
    2    -286.8210282474      4.40E-10 Convergence criterion met
 ---------------------------------------
 <S^2> = 0.7880
 SCF time:  CPU 3.25 s  wall 4.10 s
 SCF   energy in the final basis set = -286.82102825
 Total energy in the final basis set = -286.82102825
 
 --------------------------------------------------------------
 
                    Orbital Energies (a.u.)
 --------------------------------------------------------------
 
 Alpha MOs
 -- Occupied --
-14.319 -10.221 -10.220 -10.218 -10.214 -10.205 -10.187  -0.955
 -0.836  -0.738  -0.681  -0.590  -0.577  -0.536  -0.512  -0.463
 -0.427  -0.404  -0.397  -0.378  -0.340  -0.297  -0.275  -0.253
 -0.139
 -- Virtual --
 -0.004   0.012   0.093   0.140   0.145   0.155   0.157   0.167
  0.179   0.207   0.216   0.260   0.302   0.310   0.361   0.368
  0.486   0.493   0.522   0.542   0.577   0.587   0.605   0.612
  0.619   0.644   0.666   0.682   0.704   0.747   0.769   0.787
  0.817   0.830   0.846   0.853   0.861   0.877   0.901   0.926
  0.965   1.030   1.105   1.126   1.150   1.206   1.276   1.329
  1.374   1.446   1.471   1.520   1.578   1.657   1.666   1.749
  1.766   1.811   1.829   1.896   1.940   1.976   2.022   2.059
  2.071   2.161   2.183   2.209   2.279   2.297   2.330   2.396
  2.408   2.453   2.516   2.535   2.588   2.631   2.633   2.660
  2.721   2.792   2.848   2.921   2.951   3.941   4.167   4.260
  4.303   4.437   4.518   4.666
 
 Beta MOs
 -- Occupied --
-14.319 -10.224 -10.221 -10.217 -10.214 -10.194 -10.178  -0.952
 -0.830  -0.731  -0.670  -0.586  -0.566  -0.534  -0.506  -0.457
 -0.423  -0.400  -0.394  -0.376  -0.335  -0.280  -0.265  -0.250
 -- Virtual --
 -0.019   0.005   0.025   0.096   0.146   0.150   0.157   0.158
  0.169   0.181   0.213   0.221   0.264   0.306   0.314   0.363
  0.373   0.492   0.506   0.526   0.547   0.582   0.597   0.610
  0.621   0.636   0.653   0.680   0.687   0.709   0.752   0.773
  0.788   0.819   0.831   0.849   0.854   0.867   0.880   0.904
  0.928   0.968   1.040   1.111   1.132   1.159   1.210   1.279
  1.339   1.378   1.449   1.481   1.524   1.585   1.662   1.675
  1.760   1.770   1.816   1.833   1.917   1.947   1.977   2.037
  2.068   2.078   2.166   2.192   2.222   2.288   2.305   2.347
  2.406   2.416   2.467   2.518   2.541   2.591   2.634   2.640
  2.668   2.728   2.797   2.852   2.923   2.952   3.942   4.169
  4.270   4.322   4.439   4.522   4.668
 --------------------------------------------------------------
 
          Ground-State Mulliken Net Atomic Charges

     Atom                 Charge (a.u.)    Spin (a.u.)
  --------------------------------------------------------
      1 C                     0.101479       0.031077
      2 C                    -0.206980      -0.009594
      3 C                    -0.133388       0.707775
      4 C                    -0.076440       0.620027
      5 C                    -0.104867      -0.066833
      6 N                    -0.332749      -0.004733
      7 H                     0.145486       0.000570
      8 H                     0.142921       0.002954
      9 H                     0.155492      -0.037053
     10 H                     0.142011      -0.031620
     11 H                     0.141091       0.005697
     12 C                    -0.123584      -0.232711
     13 H                     0.149529       0.014444
  --------------------------------------------------------
  Sum of atomic charges =    -0.000000
  Sum of spin   charges =     1.000000

 -----------------------------------------------------------------
                    Cartesian Multipole Moments
 -----------------------------------------------------------------
    Charge (ESU x 10^10)
                -0.0000
    Dipole Moment (Debye)
         X      -0.8147      Y      -2.5462      Z       0.7912
       Tot       2.7880
    Quadrupole Moments (Debye-Ang)
        XX     -37.6141     XY      -3.3795     YY     -42.5176
        XZ       1.0592     YZ       0.5012     ZZ     -41.0109
    Octopole Moments (Debye-Ang^2)
       XXX      -4.8105    XXY      -6.5589    XYY     -10.7193
       YYY     -30.9806    XXZ       2.8898    XYZ       1.1308
       YYZ       5.8614    XZZ      -9.1063    YZZ      -9.0557
       ZZZ      11.0044
    Hexadecapole Moments (Debye-Ang^3)
      XXXX    -238.9962   XXXY      -5.6934   XXYY     -82.8535
      XYYY     -18.2175   YYYY    -251.2665   XXXZ      24.8133
      XXYZ      10.7661   XYYZ      13.4932   YYYZ      22.5048
      XXZZ     -71.9835   XYZZ      -3.1304   YYZZ     -69.8208
      XZZZ      25.2164   YZZZ      15.3272   ZZZZ    -188.2805
 -----------------------------------------------------------------
 Calculating MO derivatives via CPSCF
   1         3          39      0.266926    0.056866
   2         3          39      0.029328    0.005984
   3         3          39      0.003040    0.000559
   4         3          39      0.000459    0.000086
   5        31          11      0.000031    0.000008
   6        42           0      0.000000    0.000000    Roots Converged
 Time for AOints: 5.7 s (CPU) 5.7 s (wall)
 ------------------------------------------------------------------------------
                     AOints        : Timing summary (seconds)
 ------------------------------------------------------------------------------
     job step          cpu (% of tot)      sys (% of tot)     wall (% of tot)
 ------------------------------------------------------------------------------
  cpscf_lag         0.5541E+02 (29.1)   0.2700E-04 (40.9)   0.5548E+02 (29.1)
  iterzp            0.1290E+03 (67.8)   0.3500E-04 (53.0)   0.1296E+03 (67.9)
  make_fx           0.0000E+00 ( 0.0)   0.0000E+00 ( 0.0)   0.0000E+00 ( 0.0)
  AOints            0.5705E+01 ( 3.0)   0.1000E-05 ( 1.5)   0.5715E+01 ( 3.0)
 ------------------------------------------------------------------------------
   Grand Totals     0.1903E+03          0.6600E-04          0.1910E+03
 ------------------------------------------------------------------------------
 Calculating analytic Hessian of the SCF energy
 Polarizability Matrix (a.u.)
            1           2           3
    1 -60.0420184   5.4809985   2.9701101
    2   5.4809985 -60.3080231   1.9547264
    3   2.9701101   1.9547264 -55.0664047
 
 Direct stationary perturbation theory relativistic correction:
 
 rels  =       0.069227473570
 relv  =      -0.341205728287
 rel2e =       0.159017194437
 E_rel =      -0.112961060280
 
 Hessian of the SCF Energy
            1           2           3           4           5           6
    1   0.8131038  -0.1314255   0.1038815  -0.1195425  -0.0424510   0.0159925
    2  -0.1314255   0.6072641  -0.1364985  -0.0272450  -0.1382984   0.0019070
    3   0.1038815  -0.1364985   0.2113065   0.0077003   0.0116812  -0.0645031
    4  -0.1195425  -0.0272450   0.0077003   0.4713341  -0.1359981   0.0144105
    5  -0.0424510  -0.1382984   0.0116812  -0.1359981   0.6690299  -0.0405901
    6   0.0159925   0.0019070  -0.0645031   0.0144105  -0.0405901   0.2709275
    7  -0.0382475  -0.0272258  -0.0198077  -0.1437555   0.0184693  -0.0840809
    8  -0.0106980  -0.0051277  -0.0180643   0.0319923  -0.0700346  -0.0001616
    9  -0.0238091   0.0044337   0.0045641  -0.1546402  -0.0131109  -0.0532256
   10  -0.0058829   0.0026832   0.0066679  -0.0080216   0.0255740   0.0083780
   11  -0.0041839  -0.0058143   0.0042003  -0.0169019  -0.0161876  -0.0063268
   12   0.0023228   0.0044538  -0.0000807   0.0095433  -0.0131146   0.0087343
   13  -0.0632343   0.0235581  -0.0090900  -0.0227119   0.0242539   0.0009503
   14   0.0273021   0.0060216   0.0003307   0.0128778  -0.0366387   0.0096074
   15  -0.0108740  -0.0062872   0.0008947  -0.0024822   0.0101791  -0.0156982
   16  -0.2473023   0.2213266  -0.0843963   0.0270833   0.0102315  -0.0139540
   17   0.1838374  -0.4042713   0.1137270  -0.0069739  -0.0578024   0.0233463
   18  -0.0706027   0.1173213  -0.0937882  -0.0062298   0.0235730   0.0174291
   19  -0.3284993  -0.0244750  -0.0285198  -0.0043741   0.0027797  -0.0022666
   20  -0.0311559  -0.0560228   0.0040806  -0.0180176   0.0041898  -0.0010994
   21  -0.0308391   0.0049420  -0.0417161   0.0037984   0.0005536   0.0078590
   22   0.0158867  -0.0135109  -0.0015861  -0.1020849   0.1035351  -0.0017998
   23   0.0141533  -0.0096038  -0.0011489   0.1071696  -0.2878171   0.0056057
   24  -0.0034960   0.0025012  -0.0029949  -0.0032237   0.0054446  -0.0416261
   25  -0.0031250  -0.0002607  -0.0027522  -0.0052629  -0.0146367   0.0014049
   26   0.0004615  -0.0041270   0.0031856   0.0099614   0.0086124   0.0063631
   27   0.0035090   0.0013906  -0.0004435  -0.0006885  -0.0036534  -0.0080076
   28  -0.0001826   0.0015543  -0.0000502   0.0001888   0.0030132   0.0017983
   29  -0.0015793   0.0004519   0.0004213   0.0005981  -0.0026165   0.0029483
   30   0.0003808   0.0013290  -0.0006988  -0.0003810   0.0037985   0.0003092
   31  -0.0065749  -0.0025613  -0.0006604  -0.0004309  -0.0009303  -0.0008791
   32  -0.0032045  -0.0008848   0.0004238   0.0001441  -0.0056697  -0.0004013
   33   0.0012227   0.0000621   0.0007029   0.0012117  -0.0028355   0.0004205
   34  -0.0163828  -0.0249521   0.0264614  -0.0887712   0.0218920   0.0475343
   35  -0.0006782   0.0117469   0.0189339   0.0368991  -0.0727038   0.0077218
   36   0.0126619   0.0084740  -0.0117129   0.1232264   0.0069069  -0.1102255
   37  -0.0000165   0.0025340   0.0021515  -0.0036508  -0.0157327   0.0125115
   38  -0.0003779  -0.0013343  -0.0012728   0.0054940   0.0059366  -0.0089205
   39  -0.0003501  -0.0040289  -0.0015299   0.0077546   0.0111676  -0.0123936
            7           8           9          10          11          12
    1  -0.0382475  -0.0106980  -0.0238091  -0.0058829  -0.0041839   0.0023228
    2  -0.0272258  -0.0051277   0.0044337   0.0026832  -0.0058143   0.0044538
    3  -0.0198077  -0.0180643   0.0045641   0.0066679   0.0042003  -0.0000807
    4  -0.1437555   0.0319923  -0.1546402  -0.0080216  -0.0169019   0.0095433
    5   0.0184693  -0.0700346  -0.0131109   0.0255740  -0.0161876  -0.0131146
    6  -0.0840809  -0.0001616  -0.0532256   0.0083780  -0.0063268   0.0087343
    7   0.4386072   0.1094744   0.2551246   0.0089096   0.0283936   0.0148799
    8   0.1094744   0.4473611   0.1728133   0.0095972   0.0040764  -0.0340224
    9   0.2551246   0.1728133   0.0972354   0.0283074  -0.1673370  -0.0381970
   10   0.0089096   0.0095972   0.0283074   0.4020095  -0.2599357  -0.2035599
   11   0.0283936   0.0040764  -0.1673370  -0.2599357   0.4080261   0.0309567
   12   0.0148799  -0.0340224  -0.0381970  -0.2035599   0.0309567   0.4174945
   13  -0.0657668   0.0114589  -0.0114446  -0.0722267   0.0309951  -0.0008870
   14   0.0258091  -0.1363682  -0.0248554   0.0115070  -0.0660959   0.0105556
   15  -0.0133232  -0.0262264  -0.0594591   0.0187443   0.0184572  -0.1551754
   16  -0.0207499  -0.0309104   0.0059366  -0.0188696  -0.0130328   0.0271088
   17  -0.0192671  -0.0262429   0.0014053  -0.0012560   0.0012996   0.0031865
   18  -0.0071767  -0.0006204   0.0020516   0.0248201   0.0079539  -0.0058077
   19  -0.0006255   0.0003606  -0.0005679   0.0006138  -0.0004341  -0.0003022
   20  -0.0026093  -0.0015654  -0.0034092   0.0000042  -0.0011997   0.0003545
   21   0.0003352   0.0024442  -0.0047867  -0.0009764  -0.0013710   0.0003704
   22  -0.0053543   0.0177268   0.0039809  -0.0009666   0.0004039   0.0020380
   23  -0.0008851   0.0019657   0.0004537   0.0001619   0.0002456  -0.0005456
   24  -0.0027199   0.0209577   0.0012452   0.0042653  -0.0003985  -0.0042163
   25  -0.1696837  -0.1271589  -0.1237933  -0.0003171  -0.0023148  -0.0003946
   26  -0.1327966  -0.1785548  -0.0893045  -0.0002131   0.0002139   0.0009707
   27  -0.1141223  -0.0897482  -0.0610707   0.0025435   0.0061096   0.0004931
   28  -0.0008892  -0.0026820  -0.0014637  -0.1979743   0.1184066   0.1410569
   29  -0.0002526  -0.0021767   0.0006155   0.1099715  -0.0919872  -0.0547466
   30  -0.0012327  -0.0028779   0.0000906   0.1377318  -0.0568294  -0.1305847
   31   0.0021966  -0.0004083   0.0021818   0.0075652  -0.0071219   0.0049607
   32   0.0155770  -0.0063896   0.0151695  -0.0011904   0.0015808   0.0006853
   33   0.0084115  -0.0040485   0.0086320  -0.0183060   0.0197327  -0.0107118
   34  -0.0061745  -0.0113512   0.0133226  -0.1175802   0.1105154   0.0156995
   35  -0.0178579  -0.0263780   0.0949077   0.1126093  -0.2360011   0.0330467
   36  -0.0383913  -0.0183485   0.0892063  -0.0069009   0.1328143  -0.0865688
   37   0.0015336   0.0025985   0.0068649   0.0027410   0.0152106  -0.0124663
   38   0.0031710  -0.0005652   0.0082183  -0.0095129   0.0018433   0.0182196
   39   0.0021035  -0.0020969   0.0137140  -0.0017150   0.0120381   0.0042500
           13          14          15          16          17          18
    1  -0.0632343   0.0273021  -0.0108740  -0.2473023   0.1838374  -0.0706027
    2   0.0235581   0.0060216  -0.0062872   0.2213266  -0.4042713   0.1173213
    3  -0.0090900   0.0003307   0.0008947  -0.0843963   0.1137270  -0.0937882
    4  -0.0227119   0.0128778  -0.0024822   0.0270833  -0.0069739  -0.0062298
    5   0.0242539  -0.0366387   0.0101791   0.0102315  -0.0578024   0.0235730
    6   0.0009503   0.0096074  -0.0156982  -0.0139540   0.0233463   0.0174291
    7  -0.0657668   0.0258091  -0.0133232  -0.0207499  -0.0192671  -0.0071767
    8   0.0114589  -0.1363682  -0.0262264  -0.0309104  -0.0262429  -0.0006204
    9  -0.0114446  -0.0248554  -0.0594591   0.0059366   0.0014053   0.0020516
   10  -0.0722267   0.0115070   0.0187443  -0.0188696  -0.0012560   0.0248201
   11   0.0309951  -0.0660959   0.0184572  -0.0130328   0.0012996   0.0079539
   12  -0.0008870   0.0105556  -0.1551754   0.0271088   0.0031865  -0.0058077
   13   0.4616236  -0.1591257   0.1179978  -0.1097438   0.0031107  -0.0062441
   14  -0.1591257   0.4886781  -0.1381154  -0.0334643  -0.0797673   0.0044759
   15   0.1179978  -0.1381154   0.4485206  -0.0084559   0.0060645  -0.0660308
   16  -0.1097438  -0.0334643  -0.0084559   0.4232688  -0.1829839   0.0822925
   17   0.0031107  -0.0797673   0.0060645  -0.1829839   0.5706071  -0.1458718
   18  -0.0062441   0.0044759  -0.0660308   0.0822925  -0.1458718   0.1425083
   19  -0.0004123   0.0015322  -0.0035409  -0.0165132   0.0052948  -0.0025086
   20   0.0013054  -0.0040095   0.0047898   0.0337850   0.0027592   0.0012761
   21  -0.0012030   0.0030938   0.0111605  -0.0086562  -0.0022773  -0.0050540
   22  -0.0053089   0.0001819  -0.0021688  -0.0019154  -0.0059902   0.0030794
   23  -0.0017202  -0.0008024   0.0001159  -0.0008137  -0.0050981   0.0022220
   24  -0.0034380   0.0028969  -0.0018648  -0.0007513   0.0017133   0.0010397
   25   0.0040585   0.0044842   0.0063821  -0.0013438  -0.0005466   0.0000252
   26  -0.0140824   0.0017238  -0.0068124  -0.0036894  -0.0022635  -0.0022073
   27   0.0022465   0.0008473  -0.0000530   0.0009881   0.0010382   0.0007039
   28   0.0002003   0.0015741  -0.0035212  -0.0004877  -0.0008214   0.0005005
   29  -0.0082174   0.0059035   0.0022612  -0.0004423  -0.0000738   0.0012278
   30   0.0147077  -0.0090089  -0.0042088  -0.0002415  -0.0015054  -0.0017386
   31  -0.1468139   0.0984025  -0.0914949  -0.0208718   0.0172278  -0.0142770
   32   0.1039318  -0.1535206   0.0894641  -0.0090490   0.0090962  -0.0081649
   33  -0.0953068   0.0893670  -0.1325465   0.0016919  -0.0035205   0.0031868
   34   0.0185570   0.0025524  -0.0088065  -0.0131834   0.0095378  -0.0033136
   35  -0.0203188  -0.0221190   0.0439880   0.0088032  -0.0100324  -0.0017216
   36  -0.0122999   0.0475006  -0.0263159   0.0001600   0.0004534   0.0040581
   37   0.0017792   0.0063668   0.0015433   0.0006286  -0.0011692  -0.0003651
   38   0.0048505  -0.0030055   0.0021217   0.0002395   0.0017896   0.0005361
   39   0.0040110   0.0033045   0.0007767  -0.0017229   0.0022406   0.0014417
           19          20          21          22          23          24
    1  -0.3284993  -0.0311559  -0.0308391   0.0158867   0.0141533  -0.0034960
    2  -0.0244750  -0.0560228   0.0049420  -0.0135109  -0.0096038   0.0025012
    3  -0.0285198   0.0040806  -0.0417161  -0.0015861  -0.0011489  -0.0029949
    4  -0.0043741  -0.0180176   0.0037984  -0.1020849   0.1071696  -0.0032237
    5   0.0027797   0.0041898   0.0005536   0.1035351  -0.2878171   0.0054446
    6  -0.0022666  -0.0010994   0.0078590  -0.0017998   0.0056057  -0.0416261
    7  -0.0006255  -0.0026093   0.0003352  -0.0053543  -0.0008851  -0.0027199
    8   0.0003606  -0.0015654   0.0024442   0.0177268   0.0019657   0.0209577
    9  -0.0005679  -0.0034092  -0.0047867   0.0039809   0.0004537   0.0012452
   10   0.0006138   0.0000042  -0.0009764  -0.0009666   0.0001619   0.0042653
   11  -0.0004341  -0.0011997  -0.0013710   0.0004039   0.0002456  -0.0003985
   12  -0.0003022   0.0003545   0.0003704   0.0020380  -0.0005456  -0.0042163
   13  -0.0004123   0.0013054  -0.0012030  -0.0053089  -0.0017202  -0.0034380
   14   0.0015322  -0.0040095   0.0030938   0.0001819  -0.0008024   0.0028969
   15  -0.0035409   0.0047898   0.0111605  -0.0021688   0.0001159  -0.0018648
   16  -0.0165132   0.0337850  -0.0086562  -0.0019154  -0.0008137  -0.0007513
   17   0.0052948   0.0027592  -0.0022773  -0.0059902  -0.0050981   0.0017133
   18  -0.0025086   0.0012761  -0.0050540   0.0030794   0.0022220   0.0010397
   19   0.3516072   0.0157194   0.0362370  -0.0001503  -0.0007118   0.0001168
   20   0.0157194   0.0540419  -0.0069757   0.0009694   0.0001407  -0.0001528
   21   0.0362370  -0.0069757   0.0296291  -0.0000996  -0.0000337  -0.0001294
   22  -0.0001503   0.0009694  -0.0000996   0.1049982  -0.1174534   0.0002876
   23  -0.0007118   0.0001407  -0.0000337  -0.1174534   0.3013201  -0.0075387
   24   0.0001168  -0.0001528  -0.0001294   0.0002876  -0.0075387   0.0429498
   25  -0.0003187  -0.0012013   0.0000474   0.0007201   0.0003377   0.0006862
   26   0.0001971   0.0005888  -0.0004197  -0.0005541   0.0001199  -0.0007950
   27   0.0003606   0.0004939   0.0001196  -0.0000929   0.0002886   0.0003522
   28   0.0000273   0.0000951  -0.0000426  -0.0000315   0.0001176   0.0006717
   29   0.0000829   0.0001760  -0.0002659   0.0005861   0.0001849  -0.0009736
   30   0.0000741  -0.0000283   0.0004209  -0.0004482   0.0001977   0.0009241
   31  -0.0010147   0.0015350   0.0003274   0.0003357   0.0002051  -0.0000538
   32  -0.0002583   0.0008206   0.0003486   0.0009175   0.0002628   0.0011740
   33   0.0003641  -0.0001853   0.0000389   0.0005601  -0.0000873   0.0007649
   34  -0.0001769  -0.0000251   0.0009577  -0.0066249  -0.0006476   0.0091544
   35  -0.0001283  -0.0001060  -0.0001306   0.0135730  -0.0014888  -0.0254757
   36   0.0003603   0.0004689   0.0016533  -0.0035014   0.0007517   0.0027250
   37  -0.0001632  -0.0004045   0.0001137   0.0004960   0.0000865  -0.0014992
   38   0.0000409   0.0001865   0.0000917  -0.0003852   0.0005703   0.0006468
   39   0.0001932   0.0003869   0.0004346  -0.0002491  -0.0002810   0.0008306
           25          26          27          28          29          30
    1  -0.0031250   0.0004615   0.0035090  -0.0001826  -0.0015793   0.0003808
    2  -0.0002607  -0.0041270   0.0013906   0.0015543   0.0004519   0.0013290
    3  -0.0027522   0.0031856  -0.0004435  -0.0000502   0.0004213  -0.0006988
    4  -0.0052629   0.0099614  -0.0006885   0.0001888   0.0005981  -0.0003810
    5  -0.0146367   0.0086124  -0.0036534   0.0030132  -0.0026165   0.0037985
    6   0.0014049   0.0063631  -0.0080076   0.0017983   0.0029483   0.0003092
    7  -0.1696837  -0.1327966  -0.1141223  -0.0008892  -0.0002526  -0.0012327
    8  -0.1271589  -0.1785548  -0.0897482  -0.0026820  -0.0021767  -0.0028779
    9  -0.1237933  -0.0893045  -0.0610707  -0.0014637   0.0006155   0.0000906
   10  -0.0003171  -0.0002131   0.0025435  -0.1979743   0.1099715   0.1377318
   11  -0.0023148   0.0002139   0.0061096   0.1184066  -0.0919872  -0.0568294
   12  -0.0003946   0.0009707   0.0004931   0.1410569  -0.0547466  -0.1305847
   13   0.0040585  -0.0140824   0.0022465   0.0002003  -0.0082174   0.0147077
   14   0.0044842   0.0017238   0.0008473   0.0015741   0.0059035  -0.0090089
   15   0.0063821  -0.0068124  -0.0000530  -0.0035212   0.0022612  -0.0042088
   16  -0.0013438  -0.0036894   0.0009881  -0.0004877  -0.0004423  -0.0002415
   17  -0.0005466  -0.0022635   0.0010382  -0.0008214  -0.0000738  -0.0015054
   18   0.0000252  -0.0022073   0.0007039   0.0005005   0.0012278  -0.0017386
   19  -0.0003187   0.0001971   0.0003606   0.0000273   0.0000829   0.0000741
   20  -0.0012013   0.0005888   0.0004939   0.0000951   0.0001760  -0.0000283
   21   0.0000474  -0.0004197   0.0001196  -0.0000426  -0.0002659   0.0004209
   22   0.0007201  -0.0005541  -0.0000929  -0.0000315   0.0005861  -0.0004482
   23   0.0003377   0.0001199   0.0002886   0.0001176   0.0001849   0.0001977
   24   0.0006862  -0.0007950   0.0003522   0.0006717  -0.0009736   0.0009241
   25   0.1732456   0.1370016   0.1139079   0.0001074   0.0000200   0.0005548
   26   0.1370016   0.1724606   0.0917362   0.0000973   0.0003642  -0.0005966
   27   0.1139079   0.0917362   0.0749947  -0.0004701  -0.0005091  -0.0007312
   28   0.0001074   0.0000973  -0.0004701   0.2024547  -0.1177933  -0.1425799
   29   0.0000200   0.0003642  -0.0005091  -0.1177933   0.0933696   0.0661619
   30   0.0005548  -0.0005966  -0.0007312  -0.1425799   0.0661619   0.1318052
   31  -0.0000079   0.0005394   0.0000142   0.0002865   0.0005147  -0.0006246
   32  -0.0003857   0.0002820  -0.0002848  -0.0004163  -0.0001437   0.0001538
   33  -0.0004159   0.0004576   0.0000911   0.0003147  -0.0007154   0.0011122
   34   0.0019292   0.0035445  -0.0091909  -0.0023963   0.0186645  -0.0072956
   35   0.0050978   0.0006930  -0.0084110  -0.0025401  -0.0032204   0.0002246
   36   0.0045707  -0.0020079  -0.0067062   0.0055838  -0.0151562   0.0043414
   37  -0.0000016  -0.0004670   0.0009949  -0.0013034  -0.0021528  -0.0006458
   38  -0.0004365  -0.0001135   0.0007023  -0.0006050  -0.0002318  -0.0010190
   39  -0.0002231  -0.0005699   0.0002575  -0.0017985  -0.0012691  -0.0010416
           31          32          33          34          35          36
    1  -0.0065749  -0.0032045   0.0012227  -0.0163828  -0.0006782   0.0126619
    2  -0.0025613  -0.0008848   0.0000621  -0.0249521   0.0117469   0.0084740
    3  -0.0006604   0.0004238   0.0007029   0.0264614   0.0189339  -0.0117129
    4  -0.0004309   0.0001441   0.0012117  -0.0887712   0.0368991   0.1232264
    5  -0.0009303  -0.0056697  -0.0028355   0.0218920  -0.0727038   0.0069069
    6  -0.0008791  -0.0004013   0.0004205   0.0475343   0.0077218  -0.1102255
    7   0.0021966   0.0155770   0.0084115  -0.0061745  -0.0178579  -0.0383913
    8  -0.0004083  -0.0063896  -0.0040485  -0.0113512  -0.0263780  -0.0183485
    9   0.0021818   0.0151695   0.0086320   0.0133226   0.0949077   0.0892063
   10   0.0075652  -0.0011904  -0.0183060  -0.1175802   0.1126093  -0.0069009
   11  -0.0071219   0.0015808   0.0197327   0.1105154  -0.2360011   0.1328143
   12   0.0049607   0.0006853  -0.0107118   0.0156995   0.0330467  -0.0865688
   13  -0.1468139   0.1039318  -0.0953068   0.0185570  -0.0203188  -0.0122999
   14   0.0984025  -0.1535206   0.0893670   0.0025524  -0.0221190   0.0475006
   15  -0.0914949   0.0894641  -0.1325465  -0.0088065   0.0439880  -0.0263159
   16  -0.0208718  -0.0090490   0.0016919  -0.0131834   0.0088032   0.0001600
   17   0.0172278   0.0090962  -0.0035205   0.0095378  -0.0100324   0.0004534
   18  -0.0142770  -0.0081649   0.0031868  -0.0033136  -0.0017216   0.0040581
   19  -0.0010147  -0.0002583   0.0003641  -0.0001769  -0.0001283   0.0003603
   20   0.0015350   0.0008206  -0.0001853  -0.0000251  -0.0001060   0.0004689
   21   0.0003274   0.0003486   0.0000389   0.0009577  -0.0001306   0.0016533
   22   0.0003357   0.0009175   0.0005601  -0.0066249   0.0135730  -0.0035014
   23   0.0002051   0.0002628  -0.0000873  -0.0006476  -0.0014888   0.0007517
   24  -0.0000538   0.0011740   0.0007649   0.0091544  -0.0254757   0.0027250
   25  -0.0000079  -0.0003857  -0.0004159   0.0019292   0.0050978   0.0045707
   26   0.0005394   0.0002820   0.0004576   0.0035445   0.0006930  -0.0020079
   27   0.0000142  -0.0002848   0.0000911  -0.0091909  -0.0084110  -0.0067062
   28   0.0002865  -0.0004163   0.0003147  -0.0023963  -0.0025401   0.0055838
   29   0.0005147  -0.0001437  -0.0007154   0.0186645  -0.0032204  -0.0151562
   30  -0.0006246   0.0001538   0.0011122  -0.0072956   0.0002246   0.0043414
   31   0.1661183  -0.1071773   0.0982603  -0.0009156   0.0006074   0.0022375
   32  -0.1071773   0.1553013  -0.0979722   0.0007206  -0.0008670  -0.0008265
   33   0.0982603  -0.0979722   0.1355047   0.0024794  -0.0016629  -0.0077080
   34  -0.0009156   0.0007206   0.0024794   0.2802117  -0.0973030  -0.1306408
   35   0.0006074  -0.0008670  -0.0016629  -0.0973030   0.5560933  -0.2957063
   36   0.0022375  -0.0008265  -0.0077080  -0.1306408  -0.2957063   0.3471128
   37   0.0001276   0.0003906  -0.0004877  -0.0484923  -0.0387635   0.0429338
   38  -0.0008329   0.0001319   0.0014082  -0.0331481  -0.1956167   0.1346757
   39   0.0000078   0.0002306   0.0005122   0.0436381   0.1342855  -0.1998595
           37          38          39
    1  -0.0000165  -0.0003779  -0.0003501
    2   0.0025340  -0.0013343  -0.0040289
    3   0.0021515  -0.0012728  -0.0015299
    4  -0.0036508   0.0054940   0.0077546
    5  -0.0157327   0.0059366   0.0111676
    6   0.0125115  -0.0089205  -0.0123936
    7   0.0015336   0.0031710   0.0021035
    8   0.0025985  -0.0005652  -0.0020969
    9   0.0068649   0.0082183   0.0137140
   10   0.0027410  -0.0095129  -0.0017150
   11   0.0152106   0.0018433   0.0120381
   12  -0.0124663   0.0182196   0.0042500
   13   0.0017792   0.0048505   0.0040110
   14   0.0063668  -0.0030055   0.0033045
   15   0.0015433   0.0021217   0.0007767
   16   0.0006286   0.0002395  -0.0017229
   17  -0.0011692   0.0017896   0.0022406
   18  -0.0003651   0.0005361   0.0014417
   19  -0.0001632   0.0000409   0.0001932
   20  -0.0004045   0.0001865   0.0003869
   21   0.0001137   0.0000917   0.0004346
   22   0.0004960  -0.0003852  -0.0002491
   23   0.0000865   0.0005703  -0.0002810
   24  -0.0014992   0.0006468   0.0008306
   25  -0.0000016  -0.0004365  -0.0002231
   26  -0.0004670  -0.0001135  -0.0005699
   27   0.0009949   0.0007023   0.0002575
   28  -0.0013034  -0.0006050  -0.0017985
   29  -0.0021528  -0.0002318  -0.0012691
   30  -0.0006458  -0.0010190  -0.0010416
   31   0.0001276  -0.0008329   0.0000078
   32   0.0003906   0.0001319   0.0002306
   33  -0.0004877   0.0014082   0.0005122
   34  -0.0484923  -0.0331481   0.0436381
   35  -0.0387635  -0.1956167   0.1342855
   36   0.0429338   0.1346757  -0.1998595
   37   0.0463216   0.0315027  -0.0516495
   38   0.0315027   0.1904088  -0.1554080
   39  -0.0516495  -0.1554080   0.1926072
 Gradient time:  CPU 255.03 s  wall 256.02 s
 **********************************************************************
 **                                                                  **
 **                       VIBRATIONAL ANALYSIS                       **
 **                       --------------------                       **
 **                                                                  **
 **        VIBRATIONAL FREQUENCIES (CM**-1) AND NORMAL MODES         **
 **     FORCE CONSTANTS (mDYN/ANGSTROM) AND REDUCED MASSES (AMU)     **
 **                  INFRARED INTENSITIES (KM/MOL)                   **
 **                                                                  **
 **********************************************************************
 

 Mode:                 1                      2                      3
 Frequency:      -820.57                 141.17                 374.18
 Force Cnst:      1.9148                 0.0129                 0.0968
 Red. Mass:       4.8267                 1.0993                 1.1733
 IR Active:          YES                    YES                    YES
 IR Intens:       98.474                 16.118                 24.057
 Raman Active:       YES                    YES                    YES
               X      Y      Z        X      Y      Z        X      Y      Z
 C          0.035  0.015 -0.016    0.002  0.004  0.002   -0.014  0.010  0.046
 C          0.139  0.020 -0.042    0.039 -0.003  0.006    0.011 -0.016 -0.036
 C         -0.106 -0.089  0.402    0.023 -0.002  0.010   -0.004 -0.025  0.001
 C          0.032  0.177  0.010   -0.017  0.008 -0.019    0.006  0.000 -0.051
 C         -0.001  0.028  0.013    0.008  0.016  0.001   -0.025 -0.026 -0.036
 N         -0.008  0.002 -0.001   -0.000  0.006  0.012   -0.028  0.007  0.052
 H          0.025  0.084  0.051    0.001  0.003  0.004   -0.028  0.051  0.150
 H          0.081 -0.000 -0.024    0.050  0.003  0.007    0.012 -0.015 -0.036
 H          0.383 -0.069 -0.377   -0.492 -0.033  0.831    0.002 -0.040  0.016
 H         -0.111 -0.005 -0.060   -0.020 -0.019 -0.004    0.674  0.546  0.418
 H          0.011 -0.053 -0.089    0.019  0.001 -0.029   -0.015 -0.042 -0.066
 C         -0.105 -0.127 -0.287   -0.008 -0.018 -0.067   -0.006  0.000 -0.032
 H         -0.227 -0.257 -0.444   -0.119 -0.098 -0.171    0.109  0.073  0.070
 TransDip   0.006 -0.183 -0.260   -0.066 -0.024  0.107    0.044  0.120  0.091

 Mode:                 4                      5                      6
 Frequency:       450.46                 488.52                 595.84
 Force Cnst:      0.5050                 0.5341                 0.8731
 Red. Mass:       4.2239                 3.7982                 4.1738
 IR Active:          YES                    YES                    YES
 IR Intens:        9.631                  3.551                  4.304
 Raman Active:       YES                    YES                    YES
               X      Y      Z        X      Y      Z        X      Y      Z
 C         -0.009 -0.070 -0.000   -0.111  0.081  0.259   -0.053 -0.015 -0.161
 C          0.005 -0.059 -0.177   -0.066 -0.032 -0.028    0.004 -0.049  0.089
 C         -0.120 -0.099  0.028   -0.046 -0.009 -0.087    0.189 -0.090 -0.168
 C          0.030  0.105 -0.089    0.320  0.087  0.067    0.206  0.184  0.079
 C         -0.028 -0.039 -0.094   -0.009 -0.030 -0.069    0.004 -0.074  0.040
 N         -0.059 -0.004  0.310   -0.058 -0.017 -0.135   -0.145  0.035  0.174
 H         -0.042  0.003  0.253   -0.170  0.195  0.720   -0.010 -0.021 -0.562
 H         -0.060 -0.086 -0.092    0.025  0.010 -0.103    0.044 -0.027  0.233
 H         -0.111 -0.117  0.039   -0.125 -0.007  0.025    0.145 -0.114 -0.077
 H         -0.410 -0.287 -0.376   -0.058 -0.210 -0.208    0.046  0.158 -0.114
 H          0.073 -0.023 -0.190   -0.135 -0.040  0.067   -0.066 -0.128  0.058
 C          0.210  0.186 -0.007    0.028 -0.067 -0.022   -0.156  0.021 -0.027
 H          0.310  0.272  0.097   -0.105 -0.077 -0.070   -0.449 -0.069 -0.194
 TransDip  -0.021 -0.050 -0.083   -0.037 -0.043  0.020   -0.032 -0.004 -0.058

 Mode:                 7                      8                      9
 Frequency:       716.61                 789.06                 816.89
 Force Cnst:      2.1486                 1.8847                 0.9121
 Red. Mass:       7.1015                 5.1377                 2.3200
 IR Active:          YES                    YES                    YES
 IR Intens:        0.381                  3.072                  2.716
 Raman Active:       YES                    YES                    YES
               X      Y      Z        X      Y      Z        X      Y      Z
 C         -0.047  0.151 -0.112   -0.182 -0.077  0.039    0.023  0.030 -0.098
 C         -0.161  0.010  0.070    0.048 -0.073  0.265    0.015 -0.110 -0.068
 C         -0.227 -0.223  0.083    0.012  0.178  0.093    0.073  0.140  0.111
 C          0.155 -0.140 -0.160    0.125 -0.097 -0.264   -0.015 -0.011 -0.023
 C          0.171 -0.030 -0.104   -0.020  0.211 -0.079    0.102 -0.052 -0.059
 N          0.177  0.366  0.076   -0.145 -0.057  0.049   -0.092 -0.000  0.008
 H         -0.011 -0.157 -0.244   -0.119 -0.140 -0.575   -0.045  0.354  0.355
 H          0.101  0.127  0.025    0.061 -0.071 -0.003   -0.136 -0.189 -0.379
 H         -0.270 -0.154  0.046    0.105  0.218 -0.102   -0.064  0.377  0.003
 H          0.123  0.070 -0.374    0.191 -0.200 -0.112   -0.028  0.146 -0.162
 H          0.086 -0.010  0.019    0.004  0.274 -0.047    0.012 -0.229 -0.153
 C         -0.090 -0.182  0.154    0.170 -0.091 -0.047   -0.035 -0.028  0.157
 H         -0.110 -0.037  0.292   -0.070  0.099  0.071   -0.388 -0.101  0.000
 TransDip   0.008 -0.013 -0.013    0.034  0.003 -0.044   -0.028  0.014 -0.042

 Mode:                10                     11                     12
 Frequency:       860.03                 876.51                 897.73
 Force Cnst:      1.0945                 1.3489                 0.8198
 Red. Mass:       2.5115                 2.9800                 1.7266
 IR Active:          YES                    YES                    YES
 IR Intens:        6.308                 26.913                  2.688
 Raman Active:       YES                    YES                    YES
               X      Y      Z        X      Y      Z        X      Y      Z
 C          0.188  0.078  0.038    0.010  0.036 -0.013   -0.120 -0.049 -0.042
 C         -0.000  0.076  0.052    0.059  0.013 -0.040    0.015 -0.073  0.011
 C         -0.091  0.119 -0.011   -0.068 -0.116 -0.043    0.092  0.036  0.031
 C          0.077  0.009 -0.027   -0.019 -0.040 -0.008   -0.011  0.021  0.075
 C         -0.058 -0.149 -0.024    0.257  0.141  0.079    0.037  0.004 -0.025
 N         -0.031 -0.088  0.048   -0.171 -0.114 -0.017    0.025  0.080 -0.012
 H          0.237  0.149 -0.399   -0.022  0.354  0.107   -0.144 -0.116  0.180
 H         -0.182 -0.010 -0.032    0.207  0.086  0.211    0.078 -0.042  0.085
 H         -0.269  0.294  0.011   -0.152 -0.030 -0.060   -0.062  0.201  0.038
 H         -0.057  0.034 -0.231   -0.028  0.161 -0.182   -0.116 -0.136  0.063
 H         -0.017 -0.142 -0.058    0.297  0.384  0.298   -0.022 -0.211 -0.194
 C         -0.091 -0.076 -0.055   -0.091  0.005 -0.007   -0.075 -0.031 -0.085
 H          0.426  0.206  0.359    0.296  0.174  0.258    0.660  0.283  0.417
 TransDip   0.033  0.064 -0.035    0.081  0.131  0.062    0.022 -0.046  0.013

 Mode:                13                     14                     15
 Frequency:       914.06                 922.50                 944.82
 Force Cnst:      1.0213                 1.1491                 0.9972
 Red. Mass:       2.0747                 2.2918                 1.8960
 IR Active:          YES                    YES                    YES
 IR Intens:        5.647                  8.380                  1.497
 Raman Active:       YES                    YES                    YES
               X      Y      Z        X      Y      Z        X      Y      Z
 C          0.054 -0.048 -0.166   -0.088 -0.017  0.087   -0.018 -0.088 -0.039
 C         -0.032  0.103  0.145   -0.019  0.130 -0.048    0.004  0.169 -0.045
 C         -0.061  0.027 -0.033   -0.028  0.033  0.017    0.067  0.020  0.028
 C          0.027 -0.052  0.063   -0.030 -0.010  0.129    0.052 -0.003 -0.011
 C         -0.002  0.007 -0.109    0.164 -0.059 -0.156   -0.056  0.052 -0.052
 N         -0.012 -0.024  0.051   -0.052 -0.035  0.018    0.001 -0.052  0.034
 H         -0.052  0.230  0.677   -0.015 -0.305 -0.505   -0.043 -0.145  0.183
 H         -0.092  0.085  0.419    0.165  0.223 -0.016    0.011  0.167 -0.487
 H         -0.049  0.037 -0.068   -0.041  0.089 -0.035    0.354 -0.458  0.298
 H          0.085 -0.181  0.243    0.012 -0.009  0.194   -0.039  0.108 -0.220
 H          0.053  0.057 -0.119    0.250 -0.192 -0.399   -0.026  0.191  0.064
 C          0.030 -0.014 -0.040    0.028  0.006  0.034   -0.086 -0.077  0.076
 H          0.025 -0.174 -0.200    0.041 -0.293 -0.253    0.172 -0.017  0.205
 TransDip  -0.026  0.033  0.063    0.040 -0.045 -0.070   -0.033 -0.006 -0.021

 Mode:                16                     17                     18
 Frequency:       965.01                1029.65                1094.32
 Force Cnst:      0.9632                 1.1562                 1.1176
 Red. Mass:       1.7555                 1.8510                 1.5839
 IR Active:          YES                    YES                    YES
 IR Intens:        7.663                  3.199                  2.739
 Raman Active:       YES                    YES                    YES
               X      Y      Z        X      Y      Z        X      Y      Z
 C         -0.088 -0.072 -0.024    0.008 -0.038 -0.004    0.015  0.006  0.010
 C          0.032  0.101 -0.005    0.184 -0.026 -0.024    0.033 -0.086  0.012
 C         -0.010  0.051 -0.001   -0.079 -0.004 -0.045   -0.011 -0.005 -0.038
 C          0.001  0.002 -0.091    0.010  0.017  0.027   -0.048  0.068  0.058
 C          0.022 -0.119  0.127   -0.100  0.036 -0.065   -0.073  0.075 -0.070
 N          0.014 -0.001 -0.001    0.039 -0.011  0.013    0.016  0.013  0.001
 H         -0.114 -0.249  0.249    0.008 -0.064  0.030    0.023  0.110 -0.082
 H          0.290  0.232  0.196    0.692  0.206 -0.003    0.005 -0.102  0.232
 H         -0.166  0.312 -0.131   -0.249  0.236 -0.159   -0.037  0.006 -0.032
 H         -0.006  0.359 -0.393   -0.002 -0.152  0.156   -0.121  0.508 -0.367
 H         -0.148 -0.173  0.272   -0.024  0.096 -0.098    0.002  0.162 -0.077
 C          0.033  0.011 -0.005   -0.075 -0.015  0.085    0.041 -0.092  0.070
 H          0.079 -0.171 -0.175   -0.341  0.172  0.204    0.412 -0.468 -0.182
 TransDip  -0.050 -0.041  0.060   -0.052  0.017  0.016    0.007  0.011 -0.051

 Mode:                19                     20                     21
 Frequency:      1160.02                1188.34                1221.55
 Force Cnst:      1.3412                 1.8918                 1.1936
 Red. Mass:       1.6917                 2.2737                 1.3577
 IR Active:          YES                    YES                    YES
 IR Intens:        4.483                  3.842                  1.574
 Raman Active:       YES                    YES                    YES
               X      Y      Z        X      Y      Z        X      Y      Z
 C          0.023 -0.014  0.030   -0.047 -0.025  0.010    0.009 -0.005  0.014
 C         -0.014  0.007 -0.158    0.139 -0.069  0.052    0.009  0.033  0.018
 C          0.051  0.044  0.075   -0.115  0.120 -0.023    0.078 -0.100  0.041
 C          0.064 -0.089 -0.020   -0.025 -0.053  0.085   -0.002  0.009 -0.010
 C         -0.029  0.045 -0.057    0.073 -0.121 -0.112   -0.011 -0.003 -0.092
 N         -0.007 -0.005  0.005    0.015  0.059  0.000   -0.007  0.003  0.004
 H          0.038 -0.044 -0.111   -0.047  0.048 -0.070    0.018 -0.132 -0.022
 H         -0.107 -0.009  0.872   -0.108 -0.192 -0.060   -0.210 -0.073 -0.256
 H          0.095 -0.001  0.106    0.271 -0.403  0.147   -0.305  0.445 -0.162
 H          0.054 -0.102 -0.037   -0.045  0.163 -0.112    0.023 -0.151  0.153
 H         -0.298 -0.045  0.146   -0.222  0.240  0.631   -0.227  0.312  0.491
 C         -0.064  0.028  0.040   -0.023  0.080 -0.055   -0.033  0.044  0.020
 H         -0.050  0.000  0.013   -0.070  0.122 -0.033    0.193 -0.167 -0.130
 TransDip  -0.030  0.007  0.060   -0.030 -0.027  0.048   -0.036  0.010 -0.014

 Mode:                22                     23                     24
 Frequency:      1269.88                1290.61                1316.01
 Force Cnst:      1.1889                 1.3743                 1.9740
 Red. Mass:       1.2513                 1.4003                 1.9345
 IR Active:          YES                    YES                    YES
 IR Intens:        1.177                  3.437                 12.914
 Raman Active:       YES                    YES                    YES
               X      Y      Z        X      Y      Z        X      Y      Z
 C         -0.024  0.048 -0.016   -0.046 -0.022 -0.000   -0.050 -0.038  0.019
 C          0.002 -0.012 -0.031   -0.042 -0.032 -0.015    0.199  0.057 -0.005
 C          0.036  0.027  0.028   -0.006  0.050  0.008   -0.070 -0.014 -0.056
 C          0.007  0.009 -0.002    0.003  0.071 -0.092    0.041 -0.000 -0.067
 C         -0.052 -0.103  0.008    0.008 -0.067  0.022    0.000  0.014  0.080
 N         -0.019  0.016 -0.017    0.055 -0.016  0.008   -0.007  0.041 -0.023
 H         -0.020 -0.274  0.094   -0.062  0.588 -0.162   -0.058 -0.072  0.030
 H         -0.072 -0.042  0.199    0.283  0.122  0.029   -0.669 -0.351  0.034
 H          0.023  0.058  0.025    0.113 -0.112  0.075   -0.054 -0.060 -0.050
 H         -0.002 -0.015  0.004    0.049 -0.344  0.295    0.061 -0.211  0.115
 H          0.675  0.611 -0.026    0.113  0.128  0.130    0.164 -0.184 -0.318
 C          0.008 -0.021  0.003   -0.048  0.012  0.050   -0.078  0.026  0.081
 H         -0.070  0.058  0.062    0.312 -0.296 -0.150    0.170 -0.244 -0.115
 TransDip   0.021 -0.014  0.023    0.017 -0.039  0.041   -0.046 -0.100  0.034

 Mode:                25                     26                     27
 Frequency:      1333.87                1424.21                1667.91
 Force Cnst:      1.6196                 3.1746                13.0204
 Red. Mass:       1.5450                 2.6564                 7.9439
 IR Active:          YES                    YES                    YES
 IR Intens:       17.227                  2.032                 19.541
 Raman Active:       YES                    YES                    YES
               X      Y      Z        X      Y      Z        X      Y      Z
 C         -0.102 -0.063  0.014    0.037  0.020  0.001   -0.276  0.496 -0.163
 C          0.015  0.078 -0.019   -0.027 -0.082  0.042    0.060 -0.035  0.000
 C          0.037 -0.052  0.020    0.000  0.001  0.053   -0.011  0.006  0.000
 C          0.016 -0.070  0.063    0.110 -0.206  0.037    0.005 -0.016  0.007
 C         -0.044 -0.009 -0.005   -0.076  0.029  0.028    0.005  0.039 -0.020
 N          0.090 -0.014  0.009   -0.007  0.005 -0.008    0.259 -0.383  0.131
 H         -0.128  0.718 -0.224    0.049 -0.057  0.027   -0.302 -0.379  0.097
 H         -0.232 -0.025 -0.009    0.346  0.077 -0.311   -0.170 -0.152  0.030
 H         -0.145  0.202 -0.069    0.029  0.017 -0.011    0.038 -0.048  0.008
 H         -0.018  0.221 -0.217    0.077  0.118 -0.321    0.014 -0.002  0.006
 H          0.153  0.107 -0.106    0.241  0.028 -0.337   -0.260 -0.179  0.049
 C          0.023  0.011 -0.039   -0.125  0.236 -0.037   -0.033  0.025  0.010
 H         -0.230  0.216  0.084    0.313 -0.225 -0.419    0.051 -0.060 -0.042
 TransDip  -0.116  0.056 -0.031   -0.027  0.034  0.012   -0.004  0.128 -0.061

 Mode:                28                     29                     30
 Frequency:      3173.60                3175.36                3184.07
 Force Cnst:      6.4682                 6.4770                 6.5338
 Red. Mass:       1.0900                 1.0903                 1.0938
 IR Active:          YES                    YES                    YES
 IR Intens:        9.430                 31.014                 21.478
 Raman Active:       YES                    YES                    YES
               X      Y      Z        X      Y      Z        X      Y      Z
 C         -0.052 -0.001 -0.006    0.007 -0.001  0.001   -0.067 -0.003 -0.007
 C          0.027 -0.055  0.002   -0.011  0.024 -0.001   -0.015  0.037 -0.002
 C          0.002  0.002  0.001    0.002 -0.000  0.001   -0.001 -0.001 -0.001
 C         -0.000 -0.000  0.001    0.003 -0.002 -0.001    0.001  0.001 -0.002
 C         -0.016  0.017 -0.015   -0.048  0.048 -0.043    0.009 -0.008  0.007
 N          0.001 -0.001  0.000   -0.001 -0.000  0.000    0.001 -0.002  0.001
 H          0.593  0.029  0.065   -0.076 -0.003 -0.009    0.751  0.042  0.082
 H         -0.302  0.640 -0.015    0.134 -0.285  0.008    0.187 -0.416  0.013
 H         -0.025 -0.024 -0.017   -0.015 -0.008 -0.009    0.020  0.021  0.015
 H          0.006 -0.002 -0.005   -0.036  0.024  0.026   -0.021  0.012  0.017
 H          0.192 -0.186  0.170    0.564 -0.547  0.497   -0.097  0.092 -0.083
 C          0.002  0.011 -0.010   -0.002 -0.009  0.009   -0.006 -0.027  0.026
 H         -0.033 -0.125  0.128    0.025  0.098 -0.101    0.079  0.297 -0.302
 TransDip  -0.077 -0.046 -0.040   -0.106  0.123 -0.073   -0.141 -0.007  0.046

 Mode:                31                     32                     33
 Frequency:      3193.22                3277.08                3290.58
 Force Cnst:      6.5687                 6.9242                 6.9900
 Red. Mass:       1.0934                 1.0943                 1.0957
 IR Active:          YES                    YES                    YES
 IR Intens:       20.173                  1.016                  0.904
 Raman Active:       YES                    YES                    YES
               X      Y      Z        X      Y      Z        X      Y      Z
 C         -0.021 -0.002 -0.002    0.001  0.000 -0.000    0.002 -0.000  0.000
 C         -0.016  0.034 -0.001   -0.001  0.000 -0.001    0.005 -0.004  0.002
 C         -0.001 -0.002 -0.000    0.011  0.010  0.005   -0.057 -0.054 -0.039
 C         -0.004  0.000  0.005   -0.062  0.038  0.046   -0.011  0.008  0.009
 C         -0.001  0.000 -0.000   -0.001  0.001 -0.004   -0.002  0.004 -0.001
 N          0.000 -0.001  0.000    0.000  0.000 -0.000   -0.000  0.000 -0.000
 H          0.236  0.015  0.026   -0.006 -0.000 -0.001   -0.010 -0.001 -0.002
 H          0.180 -0.387  0.007    0.002 -0.004  0.001   -0.021  0.041 -0.004
 H          0.020  0.020  0.012   -0.118 -0.111 -0.076    0.638  0.611  0.422
 H          0.065 -0.038 -0.051    0.710 -0.415 -0.524    0.127 -0.073 -0.093
 H          0.009 -0.009  0.008    0.017 -0.017  0.020    0.023 -0.026  0.019
 C          0.013  0.053 -0.053    0.000 -0.009  0.008   -0.000 -0.002  0.002
 H         -0.162 -0.591  0.607    0.017  0.066 -0.061    0.004  0.016 -0.019
 TransDip  -0.049  0.109 -0.080   -0.023  0.012  0.019   -0.030 -0.003  0.007

 STANDARD THERMODYNAMIC QUANTITIES AT   298.15 K  AND     1.00 ATM

   This Molecule has  1 Imaginary Frequencies
   Zero point vibrational energy:       62.964 kcal/mol

   Atom    1 Element C  Has Mass   12.00000
   Atom    2 Element C  Has Mass   12.00000
   Atom    3 Element C  Has Mass   12.00000
   Atom    4 Element C  Has Mass   12.00000
   Atom    5 Element C  Has Mass   12.00000
   Atom    6 Element N  Has Mass   14.00307
   Atom    7 Element H  Has Mass    1.00783
   Atom    8 Element H  Has Mass    1.00783
   Atom    9 Element H  Has Mass    1.00783
   Atom   10 Element H  Has Mass    1.00783
   Atom   11 Element H  Has Mass    1.00783
   Atom   12 Element C  Has Mass   12.00000
   Atom   13 Element H  Has Mass    1.00783
   Molecular Mass:    92.050050 amu
   Principal axes and moments of inertia in amu*Bohr^2:
                             1           2           3
    Eigenvalues --      377.25870   459.04980   569.15979
          X               0.75486    -0.53256     0.38283
          Y               0.42744     0.84216     0.32873
          Z              -0.49747    -0.08451     0.86336
   Rotational Symmetry Number is   1
   The Molecule is an Asymmetric Top
   Translational Enthalpy:        0.889 kcal/mol
   Rotational Enthalpy:           0.889 kcal/mol
   Vibrational Enthalpy:         64.497 kcal/mol
   gas constant (RT):             0.592 kcal/mol
   Translational Entropy:        39.471  cal/mol.K
   Rotational Entropy:           26.091  cal/mol.K
   Vibrational Entropy:           7.836  cal/mol.K

   Total Enthalpy:               66.867 kcal/mol
   Total Entropy:                73.398  cal/mol.K
Archival summary:
1\1\c8-66\FREQ\ProcedureUnspecified\6-31G*\166(2)\hpark21\ThuMar317:48:532022ThuMar317:48:532022\0\\#,FREQ,ProcedureUnspecified,6-31G*,\\0,2\N\C,1,1.27817\H,2,1.08911,1,122.219\C,1,1.50303,2,105.06,3,-174.912,0\H,4,1.08824,1,111.803,2,-160.234,0\C,2,1.51103,1,113.401,3,176.907,0\H,6,1.0879,2,120.909,1,162.696,0\C,6,1.49776,2,101.483,1,25.8469,0\H,8,1.07956,6,131.279,2,152.646,0\C,6,1.5294,2,111.182,1,-56.1026,0\H,10,1.08771,6,120.177,2,-139.038,0\C,10,1.39365,6,111.972,2,39.7602,0\H,12,1.08014,10,128.748,6,177.787,0\\\@

 Total job time:  260.75s(wall), 258.45s(cpu) 
 Thu Mar  3 17:48:53 2022

        *************************************************************
        *                                                           *
        *  Thank you very much for using Q-Chem.  Have a nice day.  *
        *                                                           *
        *************************************************************


