
Running Job 1 of 1 qcts1.in
qchem qcts1.in_19257.0 ./qcts1.d/ 1
/home/leeping/opt/qchem/5.0.2-openmp/exe/qcprog.exe_s qcts1.in_19257.0 ./qcts1.d/
Check license passed

                  Welcome to Q-Chem
     A Quantum Leap Into The Future Of Chemistry


 Q-Chem 5.0, Q-Chem, Inc., Pleasanton, CA (2017)

 Yihan Shao,  Zhengting Gan,  E. Epifanovsky,  A. T. B. Gilbert,  M. Wormit,  
 J. Kussmann,  A. W. Lange,  A. Behn,  Jia Deng,  Xintian Feng,  D. Ghosh,  
 M. Goldey,  P. R. Horn,  L. D. Jacobson,  I. Kaliman,  T. Kus,  A. Landau,  
 Jie Liu,  E. I. Proynov,  R. M. Richard,  R. P. Steele,  E. J. Sundstrom,  
 H. L. Woodcock III,  P. M. Zimmerman,  D. Zuev,  B. Albrecht,  E. Alguire,  
 S. A. Baeppler,  D. Barton,  Z. Benda,  Y. A. Bernard,  E. J. Berquist,  
 K. B. Bravaya,  H. Burton,  D. Casanova,  Chun-Min Chang,  Yunqing Chen,  
 A. Chien,  K. D. Closser,  M. P. Coons,  S. Dasgupta,  A. L. Dempwolff,  
 M. Diedenhofen,  Hainam Do,  R. G. Edgar,  Po-Tung Fang,  S. Fatehi,  
 Qingguo Feng,  J. Fosso-Tande,  Qinghui Ge,  A. Ghysels,  G. Gidofalvi,  
 J. Gomes,  J. Gonthier,  A. Gunina,  M. W. D. Hanson-Heine,  
 P. H. P. Harbach,  A. W. Hauser,  J. E. Herr,  E. G. Hohenstein,  
 Z. C. Holden,  Kerwin Hui,  T.-C. Jagau,  Hyunjun Ji,  B. Kaduk,  
 K. Khistyaev,  Jaehoon Kim,  P. Klunzinger,  K. Koh,  D. Kosenkov,  
 L. Koulias,  T. Kowalczyk,  C. M. Krauter,  A. Kunitsa,  Ka Un Lao,  
 A. Laurent,  K. V. Lawler,  Joonho Lee,  D. Lefrancois,  S. Lehtola,  
 D. S. Levine,  Yi-Pei Li,  You-Sheng Lin,  Fenglai Liu,  E. Livshits,  
 A. Luenser,  P. Manohar,  E. Mansoor,  S. F. Manzer,  Shan-Ping Mao,  
 Yuezhi Mao,  N. Mardirossian,  A. V. Marenich,  T. Markovich,  
 L. A. Martinez-Martinez,  S. A. Maurer,  N. J. Mayhall,  S. C. McKenzie,  
 J.-M. Mewes,  A. F. Morrison,  J. W. Mullinax,  K. Nanda,  
 T. S. Nguyen-Beck,  R. Olivares-Amaya,  J. A. Parkhill,  T. M. Perrine,  
 F. Plasser,  S. Prager,  A. Prociuk,  E. Ramos,  D. R. Rehn,  F. Rob,  
 M. Schneider,  N. Sergueev,  S. M. Sharada,  S. Sharma,  D. W. Small,  
 T. Stauch,  T. Stein,  Yu-Chuan Su,  A. J. W. Thom,  A. Tkatchenko,  
 T. Tsuchimochi,  L. Vogt,  O. Vydrov,  M. A. Watson,  J. Wenzel,  
 M. de Wergifosse,  T. A. Wesolowski,  A. White,  J. Witte,  A. Yamada,  
 Jun Yang,  K. Yao,  S. Yeganeh,  S. R. Yost,  Zhi-Qiang You,  A. Zech,  
 Igor Ying Zhang,  Xing Zhang,  Yan Zhao,  Ying Zhu,  B. R. Brooks,  
 G. K. L. Chan,  C. J. Cramer,  M. S. Gordon,  W. J. Hehre,  A. Klamt,  
 M. W. Schmidt,  C. D. Sherrill,  D. G. Truhlar,  A. Aspuru-Guzik,  R. Baer,  
 A. T. Bell,  N. A. Besley,  Jeng-Da Chai,  R. A. DiStasio Jr.,  A. Dreuw,  
 B. D. Dunietz,  T. R. Furlani,  Chao-Ping Hsu,  Yousung Jung,  Jing Kong,  
 D. S. Lambrecht,  WanZhen Liang,  C. Ochsenfeld,  V. A. Rassolov,  
 L. V. Slipchenko,  J. E. Subotnik,  T. Van Voorhis,  J. M. Herbert,  
 A. I. Krylov,  P. M. W. Gill,  M. Head-Gordon

 Contributors to earlier versions of Q-Chem not listed above: 
 R. D. Adamson,  B. Austin,  J. Baker,  G. J. O. Beran,  K. Brandhorst,  
 S. T. Brown,  E. F. C. Byrd,  A. K. Chakraborty,  C.-L. Cheng,  
 Siu Hung Chien,  D. M. Chipman,  D. L. Crittenden,  H. Dachsel,  
 R. J. Doerksen,  A. D. Dutoi,  L. Fusti-Molnar,  W. A. Goddard III,  
 A. Golubeva-Zadorozhnaya,  S. R. Gwaltney,  G. Hawkins,  A. Heyden,  
 S. Hirata,  G. Kedziora,  F. J. Keil,  C. Kelley,  Jihan Kim,  R. A. King,  
 R. Z. Khaliullin,  P. P. Korambath,  W. Kurlancheek,  A. M. Lee,  M. S. Lee,  
 S. V. Levchenko,  Ching Yeh Lin,  D. Liotard,  R. C. Lochan,  I. Lotan,  
 P. E. Maslen,  N. Nair,  D. P. O'Neill,  D. Neuhauser,  E. Neuscamman,  
 C. M. Oana,  R. Olson,  B. Peters,  R. Peverati,  P. A. Pieniazek,  
 Y. M. Rhee,  J. Ritchie,  M. A. Rohrdanz,  E. Rosta,  N. J. Russ,  
 H. F. Schaefer III,  N. E. Schultz,  N. Shenvi,  A. C. Simmonett,  A. Sodt,  
 D. Stuck,  K. S. Thanthiriwatte,  V. Vanovschi,  Tao Wang,  A. Warshel,  
 C. F. Williams,  Q. Wu,  X. Xu,  W. Zhang

 Please cite Q-Chem as follows:
 Y. Shao et al., Mol. Phys. 113, 184-215 (2015)
 DOI: 10.1080/00268976.2014.952696

 Q-Chem 5.0.2 for Intel X86 EM64T Linux

 Parts of Q-Chem use Armadillo 5.200.1 (Boston Tea Smuggler).
 http://arma.sourceforge.net/

 Q-Chem begins on Thu Mar  3 17:49:01 2022  

Host: 
0

     Scratch files written to ./qcts1.d//
 Dec517 15110_ 26548  26544 5633   
Processing $rem in /home/leeping/opt/qchem/5.0.2-openmp/config/preferences.
 MEM_STATIC 2000
 MEM_TOTAL  8000
 SYMMETRY   OFF
 SYM_IGNORE TRUE 

Checking the input file for inconsistencies... 	...done.

--------------------------------------------------------------
User input:
--------------------------------------------------------------
$molecule
0 2
C        1.5523330072    0.3737772416   -0.3186074806
C        0.7245203547   -0.8589642689   -0.0388355789
C       -0.4909236383   -0.5978229204   -0.8741633086
C       -0.9087389334    0.6749641817    0.8862959705
C       -0.5735878410    0.9211522076   -0.5868072956
N        0.8531451505    1.3885744343   -0.6577684955
H        2.6332477702    0.4278751644   -0.1967590579
H        1.1818481117   -1.8457950373   -0.0157083932
H       -1.1921336474   -1.2724344272   -1.3417660392
H       -1.6973822192    1.1291502945    1.4680765607
H       -1.2371155934    1.5585351725   -1.1679678655
C       -0.3304703623   -0.5844399236    1.0338703198
H       -0.5347580622   -1.3265485000    1.8024048276
$end

$rem
method                b3lyp
basis                 6-31g(d)
unrestricted          true
symmetry              off
sym_ignore            true
incdft                false
incfock               0
scf_convergence       8
thresh                14
jobtype               ts
scf_guess             read
scf_algorithm         diis
max_scf_cycles        100
geom_opt_max_cycles   500
geom_opt_dmax         100
geom_opt_tol_gradient 10
geom_opt_hessian      read
$end

--------------------------------------------------------------
 ----------------------------------------------------------------
             Standard Nuclear Orientation (Angstroms)
    I     Atom           X                Y                Z
 ----------------------------------------------------------------
    1      C       1.5523330072     0.3737772416    -0.3186074806
    2      C       0.7245203547    -0.8589642689    -0.0388355789
    3      C      -0.4909236383    -0.5978229204    -0.8741633086
    4      C      -0.9087389334     0.6749641817     0.8862959705
    5      C      -0.5735878410     0.9211522076    -0.5868072956
    6      N       0.8531451505     1.3885744343    -0.6577684955
    7      H       2.6332477702     0.4278751644    -0.1967590579
    8      H       1.1818481117    -1.8457950373    -0.0157083932
    9      H      -1.1921336474    -1.2724344272    -1.3417660392
   10      H      -1.6973822192     1.1291502945     1.4680765607
   11      H      -1.2371155934     1.5585351725    -1.1679678655
   12      C      -0.3304703623    -0.5844399236     1.0338703198
   13      H      -0.5347580622    -1.3265485000     1.8024048276
 ----------------------------------------------------------------
 Nuclear Repulsion Energy =   280.5308966512 hartrees
 There are       25 alpha and       24 beta electrons
 Requested basis set is 6-31G(d)
 There are 40 shells and 117 basis functions

 Total QAlloc Memory Limit   8000 MB
 Mega-Array Size      1956 MB
 MEM_STATIC part      2000 MB
 A cutoff of  1.0D-14 yielded    813 shell pairs
 There are      7085 function pairs
 
 -------------------------------------------------------
 OpenMP Integral Computing Module                       
 Release: version 1.0, May 2013, Q-Chem Inc. Pittsburgh 
 -------------------------------------------------------
 Integral Job Info:
 Integral job number is                      11
 Integral operator is                         1
 short-range coefficients                     0
 long-range coefficients              100000000
 Omega coefficients                           0
 if combine SR and LR in K                    0
 Integral screening is                        0
 Integral computing path is                   2
 max size of driver memory is            800000
 size of driver memory is                593474
 size of scratch memory is              2361544
 max col of scratch BK array               1296
 max len of scratch array in speh3          155
 max len of scratch index in speh4           18
 max int batch size is                      520
 min int batch size is                       52
 fixed nKL is                                52
 max L of basis functions is                  2
 order of int derivative is                   0
 number of shells is                         40
 number of basis is                         117
 number of cartesian basis is               117
 number of contracted shell pairs           813
 number of primitive shell pairs           3594
 maxK2 (contraction) of shell pair           36
 max number of K2 of shell pair               1
 max number of CS2 of shell pair             84
 max number of PS2 of shell pair            396
 mem total for path MDJ                  535308
 -------------------------------------------------------
 Smallest overlap matrix eigenvalue = 1.18E-03

 Scale SEOQF with 1.000000e-01/1.000000e-01/1.000000e-01

 Standard Electronic Orientation quadrupole field applied
 Nucleus-field energy     =     0.0000000014 hartrees
 Guess MOs from SCF MO coefficient file
 Reading MOs from coefficient file
 Reading MOs from coefficient file
 An unrestricted hybrid HF-DFT SCF calculation will be
 performed using Pulay DIIS extrapolation
 Exchange:     0.2000 Hartree-Fock + 0.0800 Slater + 0.7200 B88
 Correlation:  0.1900 VWN1RPA + 0.8100 LYP
 Using SG-1 standard quadrature grid
 SCF converges when DIIS error is below 1.0E-08
Using Q-Chem read-in guess as SCF_GUESS READ specified.

 using 4 threads for integral computing
 -------------------------------------------------------
 OpenMP Integral computing Module                
 Release: version 1.0, May 2013, Q-Chem Inc. Pittsburgh 
 -------------------------------------------------------
 -------------------------------------------------------
 OpenMP BLAS3 based DFT computing Module                
 Release: version 1.0, May 2013, Q-Chem Inc. Pittsburgh 
 -------------------------------------------------------
 ---------------------------------------
  Cycle       Energy         DIIS Error
 ---------------------------------------
    1    -286.8210282474      1.79E-10
    2    -286.8210282474      2.86E-10 Convergence criterion met
 ---------------------------------------
 <S^2> = 0.7880
 SCF time:  CPU 4.78 s  wall 1.21 s
 SCF   energy in the final basis set = -286.82102825
 Total energy in the final basis set = -286.82102825
 
 --------------------------------------------------------------
 
                    Orbital Energies (a.u.)
 --------------------------------------------------------------
 
 Alpha MOs
 -- Occupied --
-14.319 -10.221 -10.220 -10.218 -10.214 -10.205 -10.187  -0.955
 -0.836  -0.738  -0.681  -0.590  -0.577  -0.536  -0.512  -0.463
 -0.427  -0.404  -0.397  -0.378  -0.340  -0.297  -0.275  -0.253
 -0.139
 -- Virtual --
 -0.004   0.012   0.093   0.140   0.145   0.155   0.157   0.167
  0.179   0.207   0.216   0.260   0.302   0.310   0.361   0.368
  0.486   0.493   0.522   0.542   0.577   0.587   0.605   0.612
  0.619   0.644   0.666   0.682   0.704   0.747   0.769   0.787
  0.817   0.830   0.846   0.853   0.861   0.877   0.901   0.926
  0.965   1.030   1.105   1.126   1.150   1.206   1.276   1.329
  1.374   1.446   1.471   1.520   1.578   1.657   1.666   1.749
  1.766   1.811   1.829   1.896   1.940   1.976   2.022   2.059
  2.071   2.161   2.183   2.209   2.279   2.297   2.330   2.396
  2.408   2.453   2.516   2.535   2.588   2.631   2.633   2.660
  2.721   2.792   2.848   2.921   2.951   3.941   4.167   4.260
  4.303   4.437   4.518   4.666
 
 Beta MOs
 -- Occupied --
-14.319 -10.224 -10.221 -10.217 -10.214 -10.194 -10.178  -0.952
 -0.830  -0.731  -0.670  -0.586  -0.566  -0.534  -0.506  -0.457
 -0.423  -0.400  -0.394  -0.376  -0.335  -0.280  -0.265  -0.250
 -- Virtual --
 -0.019   0.005   0.025   0.096   0.146   0.150   0.157   0.158
  0.169   0.181   0.213   0.221   0.264   0.306   0.314   0.363
  0.373   0.492   0.506   0.526   0.547   0.582   0.597   0.610
  0.621   0.636   0.653   0.680   0.687   0.709   0.752   0.773
  0.788   0.819   0.831   0.849   0.854   0.867   0.880   0.904
  0.928   0.968   1.040   1.111   1.132   1.159   1.210   1.279
  1.339   1.378   1.449   1.481   1.524   1.585   1.662   1.675
  1.760   1.770   1.816   1.833   1.917   1.947   1.977   2.037
  2.068   2.078   2.166   2.192   2.222   2.288   2.305   2.347
  2.406   2.416   2.467   2.518   2.541   2.591   2.634   2.640
  2.668   2.728   2.797   2.852   2.923   2.952   3.942   4.169
  4.270   4.322   4.439   4.522   4.668
 --------------------------------------------------------------
 
          Ground-State Mulliken Net Atomic Charges

     Atom                 Charge (a.u.)    Spin (a.u.)
  --------------------------------------------------------
      1 C                     0.101479       0.031076
      2 C                    -0.206980      -0.009594
      3 C                    -0.133388       0.707775
      4 C                    -0.076440       0.620027
      5 C                    -0.104867      -0.066833
      6 N                    -0.332749      -0.004732
      7 H                     0.145486       0.000570
      8 H                     0.142921       0.002954
      9 H                     0.155492      -0.037053
     10 H                     0.142011      -0.031620
     11 H                     0.141091       0.005697
     12 C                    -0.123584      -0.232711
     13 H                     0.149529       0.014444
  --------------------------------------------------------
  Sum of atomic charges =    -0.000000
  Sum of spin   charges =     1.000000

 -----------------------------------------------------------------
                    Cartesian Multipole Moments
 -----------------------------------------------------------------
    Charge (ESU x 10^10)
                -0.0000
    Dipole Moment (Debye)
         X      -0.8147      Y      -2.5462      Z       0.7912
       Tot       2.7880
    Quadrupole Moments (Debye-Ang)
        XX     -37.6141     XY      -3.3795     YY     -42.5176
        XZ       1.0592     YZ       0.5012     ZZ     -41.0109
    Octopole Moments (Debye-Ang^2)
       XXX      -4.8105    XXY      -6.5589    XYY     -10.7193
       YYY     -30.9806    XXZ       2.8898    XYZ       1.1308
       YYZ       5.8614    XZZ      -9.1063    YZZ      -9.0557
       ZZZ      11.0044
    Hexadecapole Moments (Debye-Ang^3)
      XXXX    -238.9962   XXXY      -5.6934   XXYY     -82.8535
      XYYY     -18.2175   YYYY    -251.2665   XXXZ      24.8133
      XXYZ      10.7661   XYYZ      13.4932   YYYZ      22.5048
      XXZZ     -71.9835   XYZZ      -3.1304   YYZZ     -69.8208
      XZZZ      25.2164   YZZZ      15.3272   ZZZZ    -188.2805
 -----------------------------------------------------------------
 Calculating analytic gradient of the SCF energy
 Gradient of SCF Energy
            1           2           3           4           5           6
    1  -0.0022593   0.0046835   0.0000880   0.0019136  -0.0023926   0.0008495
    2   0.0004055   0.0006861  -0.0030090   0.0069832   0.0014781   0.0000049
    3  -0.0002717  -0.0024886   0.0132485   0.0017975  -0.0012019  -0.0000915
            7           8           9          10          11          12
    1   0.0000642  -0.0006358   0.0004842  -0.0010210   0.0009477  -0.0026494
    2  -0.0001596  -0.0002997   0.0000363  -0.0006238   0.0001963  -0.0048999
    3   0.0002591   0.0002530  -0.0004255  -0.0012389   0.0000647  -0.0092040
           13
    1  -0.0000726
    2  -0.0007982
    3  -0.0007007
 Max gradient component =       1.325E-02
 RMS gradient           =       3.227E-03
 Gradient time:  CPU 7.81 s  wall 2.01 s
 Geometry Optimization Parameters
   NAtoms,    NIC,     NZ,  NCons,   NDum,   NFix, NCnnct, MaxDiis
       13     128       0       0       0       0       0       0

 Cartesian Hessian read from HESS file


** GEOMETRY OPTIMIZATION IN DELOCALIZED INTERNAL COORDINATES **
   Searching for a Transition State

   Optimization Cycle:   1

                       Coordinates (Angstroms)
     ATOM                X               Y               Z
      1  C         1.5523330072    0.3737772416   -0.3186074806
      2  C         0.7245203547   -0.8589642689   -0.0388355789
      3  C        -0.4909236383   -0.5978229204   -0.8741633086
      4  C        -0.9087389334    0.6749641817    0.8862959705
      5  C        -0.5735878410    0.9211522076   -0.5868072956
      6  N         0.8531451505    1.3885744343   -0.6577684955
      7  H         2.6332477702    0.4278751644   -0.1967590579
      8  H         1.1818481117   -1.8457950373   -0.0157083932
      9  H        -1.1921336474   -1.2724344272   -1.3417660392
     10  H        -1.6973822192    1.1291502945    1.4680765607
     11  H        -1.2371155934    1.5585351725   -1.1679678655
     12  C        -0.3304703623   -0.5844399236    1.0338703198
     13  H        -0.5347580622   -1.3265485000    1.8024048276
   Point Group: c1    Number of degrees of freedom:    33


   Energy is   -286.821028247


 Attempting to Generate Delocalized Internal Coordinates

 Transforming Cartesian Hessian to Internal Coordinates
 Hessian Transformation does not Include Derivative of B-matrix

 33 Hessian modes will be used to form the next step
  Hessian Eigenvalues:
    -0.065333    0.000304    0.002406    0.010030    0.014826    0.020567
     0.023684    0.029411    0.035695    0.037307    0.039183    0.041508
     0.048587    0.070495    0.074087    0.086236    0.113225    0.131495
     0.137313    0.149983    0.153596    0.170917    0.198500    0.247752
     0.283880    0.331259    0.356438    0.356703    0.357139    0.359197
     0.377978    0.379746    0.587597

 Transition State Search - Taking P-RFO Step
 Searching for Lamda that Maximizes Along the Lowest mode
 Value Taken    Lamda =   0.00131091
 Searching for Lamda that Minimizes Along All other modes
 Value Taken    Lamda =  -0.00057651
 Calculated Step too Large.  Step scaled by  0.172067
 Step Taken.  Stepsize is  0.100000

                             Maximum     Tolerance    Cnvgd?
         Gradient           0.004002      0.000010      NO
         Displacement       0.073074      0.001200      NO
         Energy change     *********      0.000001      NO


 New Cartesian Coordinates Obtained by Inverse Iteration

 Displacement from previous Coordinates is:  0.050446
 ----------------------------------------------------------------
             Standard Nuclear Orientation (Angstroms)
    I     Atom           X                Y                Z
 ----------------------------------------------------------------
    1      C       1.5514327120     0.3734280233    -0.3187077517
    2      C       0.7237125172    -0.8592680215    -0.0379778748
    3      C      -0.4945438787    -0.5999859326    -0.8692822153
    4      C      -0.9102935132     0.6756949765     0.8867961933
    5      C      -0.5755349401     0.9197523587    -0.5860298653
    6      N       0.8508841552     1.3875378576    -0.6580100247
    7      H       2.6322615352     0.4291338191    -0.1970201325
    8      H       1.1816864776    -1.8457883068    -0.0147456788
    9      H      -1.1817358393    -1.2744617667    -1.3576276926
   10      H      -1.6877811383     1.1386057332     1.4764785713
   11      H      -1.2401213846     1.5552895040    -1.1683186401
   12      C      -0.3332971229    -0.5854445802     1.0334990758
   13      H      -0.5366854830    -1.3264700452     1.8032101992
 ----------------------------------------------------------------
 Nuclear Repulsion Energy =   280.5304752167 hartrees
 There are       25 alpha and       24 beta electrons
 Applying Cartesian multipole field
    Component          Value
    ---------          -----
     (2,0,0)        1.00000E-11
     (0,2,0)        2.00000E-11
     (0,0,2)       -3.00000E-11
 Nucleus-field energy     =     0.0000000014 hartrees
 Requested basis set is 6-31G(d)
 There are 40 shells and 117 basis functions
 A cutoff of  1.0D-14 yielded    813 shell pairs
 There are      7085 function pairs
 Smallest overlap matrix eigenvalue = 1.17E-03
 Guess MOs from SCF MO coefficient file
 Reading MOs from coefficient file
 Reading MOs from coefficient file
 An unrestricted hybrid HF-DFT SCF calculation will be
 performed using Pulay DIIS extrapolation
 Exchange:     0.2000 Hartree-Fock + 0.0800 Slater + 0.7200 B88
 Correlation:  0.1900 VWN1RPA + 0.8100 LYP
 Using SG-1 standard quadrature grid
 SCF converges when DIIS error is below 1.0E-08
 Geometry optimization detected.  Setting ReadMinima to 0
 Setting SaveMinima to 0
Using Q-Chem read-in guess as SCF_GUESS READ specified.

 using 4 threads for integral computing
 -------------------------------------------------------
 OpenMP Integral computing Module                
 Release: version 1.0, May 2013, Q-Chem Inc. Pittsburgh 
 -------------------------------------------------------
 -------------------------------------------------------
 OpenMP BLAS3 based DFT computing Module                
 Release: version 1.0, May 2013, Q-Chem Inc. Pittsburgh 
 -------------------------------------------------------
 ---------------------------------------
  Cycle       Energy         DIIS Error
 ---------------------------------------
    1    -286.8207015170      1.84E-04
    2    -286.8209039726      3.81E-05
    3    -286.8209078868      5.01E-05
    4    -286.8209135426      1.26E-05
    5    -286.8209143499      5.29E-06
    6    -286.8209147285      3.71E-06
    7    -286.8209148571      2.52E-06
    8    -286.8209149081      6.41E-07
    9    -286.8209149200      4.49E-07
   10    -286.8209149218      9.85E-08
   11    -286.8209149219      5.03E-08
   12    -286.8209149220      1.41E-08
   13    -286.8209149220      5.01E-09 Convergence criterion met
 ---------------------------------------
 <S^2> = 0.7877
 SCF time:  CPU 30.80 s  wall 7.81 s
 SCF   energy in the final basis set = -286.82091492
 Total energy in the final basis set = -286.82091492
 
 --------------------------------------------------------------
 
                    Orbital Energies (a.u.)
 --------------------------------------------------------------
 
 Alpha MOs
 -- Occupied --
-14.318 -10.221 -10.220 -10.218 -10.214 -10.205 -10.186  -0.955
 -0.836  -0.738  -0.681  -0.590  -0.577  -0.536  -0.513  -0.463
 -0.427  -0.404  -0.397  -0.377  -0.340  -0.296  -0.275  -0.253
 -0.139
 -- Virtual --
 -0.003   0.012   0.093   0.140   0.145   0.155   0.157   0.167
  0.179   0.207   0.216   0.260   0.302   0.310   0.361   0.368
  0.486   0.493   0.520   0.542   0.577   0.587   0.605   0.612
  0.619   0.642   0.666   0.682   0.705   0.750   0.769   0.787
  0.817   0.830   0.847   0.853   0.861   0.877   0.901   0.926
  0.964   1.029   1.103   1.127   1.149   1.208   1.275   1.328
  1.375   1.447   1.472   1.521   1.580   1.658   1.667   1.750
  1.765   1.811   1.830   1.894   1.937   1.976   2.022   2.059
  2.071   2.161   2.184   2.213   2.277   2.298   2.332   2.399
  2.410   2.454   2.515   2.537   2.589   2.631   2.633   2.660
  2.721   2.792   2.849   2.921   2.951   3.941   4.167   4.260
  4.304   4.437   4.517   4.666
 
 Beta MOs
 -- Occupied --
-14.318 -10.224 -10.221 -10.217 -10.214 -10.195 -10.177  -0.952
 -0.830  -0.731  -0.670  -0.586  -0.566  -0.534  -0.506  -0.457
 -0.423  -0.400  -0.394  -0.376  -0.335  -0.280  -0.265  -0.249
 -- Virtual --
 -0.019   0.006   0.026   0.096   0.146   0.150   0.157   0.158
  0.169   0.181   0.212   0.222   0.264   0.306   0.314   0.363
  0.374   0.492   0.506   0.525   0.547   0.582   0.597   0.610
  0.621   0.636   0.652   0.679   0.686   0.710   0.754   0.773
  0.788   0.819   0.831   0.849   0.854   0.867   0.880   0.904
  0.929   0.967   1.039   1.109   1.132   1.159   1.212   1.278
  1.338   1.379   1.450   1.482   1.524   1.587   1.662   1.677
  1.761   1.770   1.817   1.834   1.915   1.945   1.977   2.037
  2.069   2.077   2.166   2.193   2.225   2.287   2.305   2.349
  2.408   2.417   2.468   2.518   2.543   2.592   2.634   2.641
  2.668   2.729   2.797   2.852   2.922   2.952   3.942   4.168
  4.270   4.323   4.440   4.521   4.669
 --------------------------------------------------------------
 
          Ground-State Mulliken Net Atomic Charges

     Atom                 Charge (a.u.)    Spin (a.u.)
  --------------------------------------------------------
      1 C                     0.101090       0.032946
      2 C                    -0.205864      -0.008406
      3 C                    -0.133951       0.694494
      4 C                    -0.076108       0.631454
      5 C                    -0.103805      -0.067400
      6 N                    -0.333117      -0.005157
      7 H                     0.145347       0.000715
      8 H                     0.142800       0.002864
      9 H                     0.155642      -0.036148
     10 H                     0.141964      -0.032168
     11 H                     0.140842       0.005796
     12 C                    -0.124392      -0.233208
     13 H                     0.149551       0.014219
  --------------------------------------------------------
  Sum of atomic charges =    -0.000000
  Sum of spin   charges =     1.000000

 -----------------------------------------------------------------
                    Cartesian Multipole Moments
 -----------------------------------------------------------------
    Charge (ESU x 10^10)
                -0.0000
    Dipole Moment (Debye)
         X      -0.8021      Y      -2.5481      Z       0.7690
       Tot       2.7798
    Quadrupole Moments (Debye-Ang)
        XX     -37.6823     XY      -3.3843     YY     -42.5135
        XZ       1.0706     YZ       0.5572     ZZ     -40.9030
    Octopole Moments (Debye-Ang^2)
       XXX      -4.5081    XXY      -6.4947    XYY     -10.6404
       YYY     -30.8928    XXZ       2.8383    XYZ       1.0975
       YYZ       5.8275    XZZ      -9.1145    YZZ      -9.0861
       ZZZ      10.8263
    Hexadecapole Moments (Debye-Ang^3)
      XXXX    -239.2541   XXXY      -5.6274   XXYY     -82.8489
      XYYY     -18.1721   YYYY    -251.3189   XXXZ      24.8860
      XXYZ      10.7197   XYYZ      13.4580   YYYZ      22.5409
      XXZZ     -71.9324   XYZZ      -3.0981   YYZZ     -69.6763
      XZZZ      25.2506   YZZZ      15.4918   ZZZZ    -187.7287
 -----------------------------------------------------------------
 Calculating analytic gradient of the SCF energy
 Gradient of SCF Energy
            1           2           3           4           5           6
    1  -0.0018841   0.0038918   0.0001068   0.0016283  -0.0020140   0.0007221
    2   0.0003487   0.0005752  -0.0025303   0.0058701   0.0011983  -0.0000297
    3  -0.0002248  -0.0020438   0.0109249   0.0015387  -0.0009793  -0.0000681
            7           8           9          10          11          12
    1   0.0000537  -0.0005252   0.0003677  -0.0008724   0.0008038  -0.0022129
    2  -0.0001390  -0.0002475   0.0000444  -0.0005380   0.0001661  -0.0040596
    3   0.0002166   0.0002114  -0.0002886  -0.0010588   0.0000377  -0.0076835
           13
    1  -0.0000657
    2  -0.0006588
    3  -0.0005823
 Max gradient component =       1.092E-02
 RMS gradient           =       2.681E-03
 Gradient time:  CPU 7.82 s  wall 1.99 s
 Geometry Optimization Parameters
   NAtoms,    NIC,     NZ,  NCons,   NDum,   NFix, NCnnct, MaxDiis
       13     128       0       0       0       0       0       0

 Cartesian Hessian Update
 Hessian Updated using Powell/Murtagh-Sargent Update
  Mixing factors:     0.999656 Powell
                      0.000344 Murtagh-Sargent


** GEOMETRY OPTIMIZATION IN DELOCALIZED INTERNAL COORDINATES **
   Searching for a Transition State

   Optimization Cycle:   2

                       Coordinates (Angstroms)
     ATOM                X               Y               Z
      1  C         1.5514327120    0.3734280233   -0.3187077517
      2  C         0.7237125172   -0.8592680215   -0.0379778748
      3  C        -0.4945438787   -0.5999859326   -0.8692822153
      4  C        -0.9102935132    0.6756949765    0.8867961933
      5  C        -0.5755349401    0.9197523587   -0.5860298653
      6  N         0.8508841552    1.3875378576   -0.6580100247
      7  H         2.6322615352    0.4291338191   -0.1970201325
      8  H         1.1816864776   -1.8457883068   -0.0147456788
      9  H        -1.1817358393   -1.2744617667   -1.3576276926
     10  H        -1.6877811383    1.1386057332    1.4764785713
     11  H        -1.2401213846    1.5552895040   -1.1683186401
     12  C        -0.3332971229   -0.5854445802    1.0334990758
     13  H        -0.5366854830   -1.3264700452    1.8032101992
   Point Group: c1    Number of degrees of freedom:    33


   Energy is   -286.820914922

 Hessian Updated using Powell/Murtagh-Sargent Update
  Mixing factors:     0.995982 Powell
                      0.004018 Murtagh-Sargent

 33 Hessian modes will be used to form the next step
  Hessian Eigenvalues:
    -0.065286    0.000300    0.002398    0.010034    0.014826    0.020567
     0.023683    0.029411    0.035695    0.037306    0.039181    0.041509
     0.048587    0.070495    0.074086    0.086234    0.113225    0.131508
     0.137312    0.149981    0.153601    0.170918    0.198501    0.247759
     0.283884    0.331259    0.356438    0.356703    0.357139    0.359197
     0.377985    0.379746    0.587602

 Transition State Search - Taking P-RFO Step
 Searching for Lamda that Maximizes Along the Lowest mode
 Value Taken    Lamda =   0.00091464
 Searching for Lamda that Minimizes Along All other modes
 Value Taken    Lamda =  -0.00047167
 Calculated Step too Large.  Step scaled by  0.171148
 Step Taken.  Stepsize is  0.100000

                             Maximum     Tolerance    Cnvgd?
         Gradient           0.003319      0.000010      NO
         Displacement       0.072973      0.001200      NO
         Energy change      0.000113      0.000001      NO


 New Cartesian Coordinates Obtained by Inverse Iteration

 Displacement from previous Coordinates is:  0.050254
 ----------------------------------------------------------------
             Standard Nuclear Orientation (Angstroms)
    I     Atom           X                Y                Z
 ----------------------------------------------------------------
    1      C       1.5503477453     0.3728911765    -0.3189232383
    2      C       0.7224769935    -0.8596328868    -0.0370970449
    3      C      -0.4981643727    -0.6020109566    -0.8648561396
    4      C      -0.9116638916     0.6762476496     0.8875212029
    5      C      -0.5775050314     0.9183221287    -0.5852252646
    6      N       0.8486898850     1.3864043217    -0.6583950585
    7      H       2.6311346086     0.4299000568    -0.1976034242
    8      H       1.1809008141    -1.8459404014    -0.0137029370
    9      H      -1.1706214883    -1.2756914460    -1.3745403778
   10      H      -1.6790626768     1.1470384621     1.4840732602
   11      H      -1.2431209389     1.5523186800    -1.1682750140
   12      C      -0.3358200131    -0.5861579978     1.0338982020
   13      H      -0.5376075365    -1.3256651673     1.8053899974
 ----------------------------------------------------------------
 Nuclear Repulsion Energy =   280.5259008457 hartrees
 There are       25 alpha and       24 beta electrons
 Applying Cartesian multipole field
    Component          Value
    ---------          -----
     (2,0,0)        1.00000E-11
     (0,2,0)        2.00000E-11
     (0,0,2)       -3.00000E-11
 Nucleus-field energy     =     0.0000000014 hartrees
 Requested basis set is 6-31G(d)
 There are 40 shells and 117 basis functions
 A cutoff of  1.0D-14 yielded    813 shell pairs
 There are      7085 function pairs
 Smallest overlap matrix eigenvalue = 1.16E-03
 Guess MOs from SCF MO coefficient file
 Reading MOs from coefficient file
 Reading MOs from coefficient file
 An unrestricted hybrid HF-DFT SCF calculation will be
 performed using Pulay DIIS extrapolation
 Exchange:     0.2000 Hartree-Fock + 0.0800 Slater + 0.7200 B88
 Correlation:  0.1900 VWN1RPA + 0.8100 LYP
 Using SG-1 standard quadrature grid
 SCF converges when DIIS error is below 1.0E-08
 Geometry optimization detected.  Setting ReadMinima to 0
 Setting SaveMinima to 0
Using Q-Chem read-in guess as SCF_GUESS READ specified.

 using 4 threads for integral computing
 -------------------------------------------------------
 OpenMP Integral computing Module                
 Release: version 1.0, May 2013, Q-Chem Inc. Pittsburgh 
 -------------------------------------------------------
 -------------------------------------------------------
 OpenMP BLAS3 based DFT computing Module                
 Release: version 1.0, May 2013, Q-Chem Inc. Pittsburgh 
 -------------------------------------------------------
 ---------------------------------------
  Cycle       Energy         DIIS Error
 ---------------------------------------
    1    -286.8206220063      1.66E-04
    2    -286.8208390304      3.19E-05
    3    -286.8208426346      4.01E-05
    4    -286.8208461515      1.13E-05
    5    -286.8208466992      4.94E-06
    6    -286.8208469202      3.00E-06
    7    -286.8208469986      2.05E-06
    8    -286.8208470314      5.32E-07
    9    -286.8208470406      3.39E-07
   10    -286.8208470418      1.00E-07
   11    -286.8208470419      4.01E-08
   12    -286.8208470419      1.37E-08
   13    -286.8208470419      4.00E-09 Convergence criterion met
 ---------------------------------------
 <S^2> = 0.7874
 SCF time:  CPU 30.96 s  wall 7.92 s
 SCF   energy in the final basis set = -286.82084704
 Total energy in the final basis set = -286.82084704
 
 --------------------------------------------------------------
 
                    Orbital Energies (a.u.)
 --------------------------------------------------------------
 
 Alpha MOs
 -- Occupied --
-14.318 -10.221 -10.220 -10.217 -10.214 -10.206 -10.186  -0.955
 -0.836  -0.738  -0.680  -0.590  -0.577  -0.536  -0.513  -0.463
 -0.427  -0.404  -0.397  -0.377  -0.339  -0.296  -0.275  -0.253
 -0.139
 -- Virtual --
 -0.003   0.013   0.093   0.141   0.145   0.155   0.157   0.166
  0.179   0.207   0.217   0.260   0.302   0.310   0.361   0.369
  0.486   0.493   0.519   0.542   0.577   0.587   0.605   0.612
  0.619   0.641   0.665   0.682   0.705   0.752   0.770   0.788
  0.817   0.830   0.847   0.853   0.861   0.877   0.902   0.926
  0.963   1.029   1.101   1.127   1.148   1.211   1.274   1.326
  1.377   1.448   1.473   1.521   1.582   1.659   1.669   1.750
  1.765   1.811   1.832   1.893   1.934   1.976   2.022   2.059
  2.071   2.160   2.184   2.216   2.276   2.299   2.333   2.400
  2.410   2.456   2.515   2.539   2.589   2.631   2.633   2.660
  2.722   2.792   2.849   2.921   2.951   3.941   4.166   4.260
  4.305   4.438   4.517   4.667
 
 Beta MOs
 -- Occupied --
-14.318 -10.224 -10.221 -10.217 -10.213 -10.196 -10.177  -0.952
 -0.830  -0.731  -0.670  -0.586  -0.566  -0.534  -0.506  -0.457
 -0.423  -0.400  -0.394  -0.375  -0.334  -0.279  -0.265  -0.249
 -- Virtual --
 -0.019   0.006   0.026   0.095   0.147   0.150   0.157   0.158
  0.169   0.181   0.212   0.222   0.264   0.306   0.315   0.364
  0.374   0.491   0.505   0.524   0.547   0.582   0.598   0.610
  0.620   0.636   0.652   0.678   0.686   0.711   0.757   0.774
  0.788   0.819   0.831   0.849   0.854   0.867   0.880   0.905
  0.929   0.966   1.038   1.107   1.133   1.158   1.214   1.277
  1.336   1.380   1.451   1.483   1.525   1.589   1.662   1.679
  1.762   1.770   1.817   1.836   1.913   1.943   1.977   2.037
  2.069   2.077   2.165   2.194   2.228   2.285   2.306   2.351
  2.410   2.418   2.470   2.517   2.545   2.592   2.634   2.642
  2.668   2.729   2.797   2.853   2.922   2.952   3.942   4.167
  4.270   4.324   4.441   4.521   4.670
 --------------------------------------------------------------
 
          Ground-State Mulliken Net Atomic Charges

     Atom                 Charge (a.u.)    Spin (a.u.)
  --------------------------------------------------------
      1 C                     0.100739       0.034626
      2 C                    -0.204938      -0.007443
      3 C                    -0.134539       0.684174
      4 C                    -0.075811       0.639932
      5 C                    -0.102713      -0.067884
      6 N                    -0.333441      -0.005618
      7 H                     0.145219       0.000845
      8 H                     0.142645       0.002759
      9 H                     0.155592      -0.035243
     10 H                     0.141989      -0.032566
     11 H                     0.140614       0.005849
     12 C                    -0.124935      -0.233421
     13 H                     0.149580       0.013991
  --------------------------------------------------------
  Sum of atomic charges =    -0.000000
  Sum of spin   charges =     1.000000

 -----------------------------------------------------------------
                    Cartesian Multipole Moments
 -----------------------------------------------------------------
    Charge (ESU x 10^10)
                 0.0000
    Dipole Moment (Debye)
         X      -0.7885      Y      -2.5468      Z       0.7502
       Tot       2.7696
    Quadrupole Moments (Debye-Ang)
        XX     -37.7494     XY      -3.3943     YY     -42.5105
        XZ       1.0792     YZ       0.6104     ZZ     -40.7984
    Octopole Moments (Debye-Ang^2)
       XXX      -4.2129    XXY      -6.4215    XYY     -10.5555
       YYY     -30.7910    XXZ       2.7911    XYZ       1.0685
       YYZ       5.7952    XZZ      -9.1147    YZZ      -9.1199
       ZZZ      10.6502
    Hexadecapole Moments (Debye-Ang^3)
      XXXX    -239.4403   XXXY      -5.5738   XXYY     -82.8418
      XYYY     -18.1250   YYYY    -251.3140   XXXZ      24.9388
      XXYZ      10.6689   XYYZ      13.4231   YYYZ      22.5767
      XXZZ     -71.8998   XYZZ      -3.0654   YYZZ     -69.5439
      XZZZ      25.2902   YZZZ      15.6499   ZZZZ    -187.3173
 -----------------------------------------------------------------
 Calculating analytic gradient of the SCF energy
 Gradient of SCF Energy
            1           2           3           4           5           6
    1  -0.0015778   0.0032312   0.0001069   0.0014179  -0.0017095   0.0006267
    2   0.0003127   0.0004874  -0.0021747   0.0049712   0.0009581  -0.0000783
    3  -0.0001913  -0.0016938   0.0090736   0.0013158  -0.0008006  -0.0000440
            7           8           9          10          11          12
    1   0.0000444  -0.0004309   0.0002950  -0.0007680   0.0006822  -0.0018610
    2  -0.0001195  -0.0002026   0.0000860  -0.0004645   0.0001385  -0.0033673
    3   0.0001808   0.0001787  -0.0001907  -0.0008977   0.0000146  -0.0064584
           13
    1  -0.0000570
    2  -0.0005469
    3  -0.0004869
 Max gradient component =       9.074E-03
 RMS gradient           =       2.243E-03
 Gradient time:  CPU 7.86 s  wall 2.01 s
 Geometry Optimization Parameters
   NAtoms,    NIC,     NZ,  NCons,   NDum,   NFix, NCnnct, MaxDiis
       13     128       0       0       0       0       0       0

 Cartesian Hessian Update
 Hessian Updated using Powell/Murtagh-Sargent Update
  Mixing factors:     0.999679 Powell
                      0.000321 Murtagh-Sargent


** GEOMETRY OPTIMIZATION IN DELOCALIZED INTERNAL COORDINATES **
   Searching for a Transition State

   Optimization Cycle:   3

                       Coordinates (Angstroms)
     ATOM                X               Y               Z
      1  C         1.5503477453    0.3728911765   -0.3189232383
      2  C         0.7224769935   -0.8596328868   -0.0370970449
      3  C        -0.4981643727   -0.6020109566   -0.8648561396
      4  C        -0.9116638916    0.6762476496    0.8875212029
      5  C        -0.5775050314    0.9183221287   -0.5852252646
      6  N         0.8486898850    1.3864043217   -0.6583950585
      7  H         2.6311346086    0.4299000568   -0.1976034242
      8  H         1.1809008141   -1.8459404014   -0.0137029370
      9  H        -1.1706214883   -1.2756914460   -1.3745403778
     10  H        -1.6790626768    1.1470384621    1.4840732602
     11  H        -1.2431209389    1.5523186800   -1.1682750140
     12  C        -0.3358200131   -0.5861579978    1.0338982020
     13  H        -0.5376075365   -1.3256651673    1.8053899974
   Point Group: c1    Number of degrees of freedom:    33


   Energy is   -286.820847042

 Hessian Updated using Powell/Murtagh-Sargent Update
  Mixing factors:     0.977872 Powell
                      0.022128 Murtagh-Sargent

 33 Hessian modes will be used to form the next step
  Hessian Eigenvalues:
    -0.065072    0.000371    0.002298    0.010032    0.014826    0.020566
     0.023685    0.029411    0.035697    0.037303    0.039181    0.041511
     0.048587    0.070495    0.074087    0.086232    0.113225    0.131513
     0.137314    0.149982    0.153613    0.170918    0.198502    0.247774
     0.283886    0.331261    0.356438    0.356703    0.357140    0.359197
     0.377985    0.379772    0.587627

 Transition State Search - Taking P-RFO Step
 Searching for Lamda that Maximizes Along the Lowest mode
 Value Taken    Lamda =   0.00064665
 Searching for Lamda that Minimizes Along All other modes
 Value Taken    Lamda =  -0.00036205
 Calculated Step too Large.  Step scaled by  0.185326
 Step Taken.  Stepsize is  0.100000

                             Maximum     Tolerance    Cnvgd?
         Gradient           0.002775      0.000010      NO
         Displacement       0.072666      0.001200      NO
         Energy change      0.000068      0.000001      NO


 New Cartesian Coordinates Obtained by Inverse Iteration

 Displacement from previous Coordinates is:  0.050526
 ----------------------------------------------------------------
             Standard Nuclear Orientation (Angstroms)
    I     Atom           X                Y                Z
 ----------------------------------------------------------------
    1      C       1.5491419615     0.3724020415    -0.3190657625
    2      C       0.7211861839    -0.8599921957    -0.0362810967
    3      C      -0.5017042758    -0.6040591479    -0.8606946476
    4      C      -0.9133109504     0.6764977553     0.8880393146
    5      C      -0.5795397723     0.9168558203    -0.5845429155
    6      N       0.8464174006     1.3853311635    -0.6587367794
    7      H       2.6298817044     0.4306879374    -0.1980440883
    8      H       1.1800008983    -1.8461173880    -0.0127290489
    9      H      -1.1592074555    -1.2767644498    -1.3910733577
   10      H      -1.6698006988     1.1556858060     1.4917296233
   11      H      -1.2461463084     1.5493828633    -1.1682920553
   12      C      -0.3384830498    -0.5869968552     1.0342685919
   13      H      -0.5384515407    -1.3248897316     1.8076863857
 ----------------------------------------------------------------
 Nuclear Repulsion Energy =   280.5211110478 hartrees
 There are       25 alpha and       24 beta electrons
 Applying Cartesian multipole field
    Component          Value
    ---------          -----
     (2,0,0)        1.00000E-11
     (0,2,0)        2.00000E-11
     (0,0,2)       -3.00000E-11
 Nucleus-field energy     =     0.0000000014 hartrees
 Requested basis set is 6-31G(d)
 There are 40 shells and 117 basis functions
 A cutoff of  1.0D-14 yielded    813 shell pairs
 There are      7085 function pairs
 Smallest overlap matrix eigenvalue = 1.15E-03
 Guess MOs from SCF MO coefficient file
 Reading MOs from coefficient file
 Reading MOs from coefficient file
 An unrestricted hybrid HF-DFT SCF calculation will be
 performed using Pulay DIIS extrapolation
 Exchange:     0.2000 Hartree-Fock + 0.0800 Slater + 0.7200 B88
 Correlation:  0.1900 VWN1RPA + 0.8100 LYP
 Using SG-1 standard quadrature grid
 SCF converges when DIIS error is below 1.0E-08
 Geometry optimization detected.  Setting ReadMinima to 0
 Setting SaveMinima to 0
Using Q-Chem read-in guess as SCF_GUESS READ specified.

 using 4 threads for integral computing
 -------------------------------------------------------
 OpenMP Integral computing Module                
 Release: version 1.0, May 2013, Q-Chem Inc. Pittsburgh 
 -------------------------------------------------------
 -------------------------------------------------------
 OpenMP BLAS3 based DFT computing Module                
 Release: version 1.0, May 2013, Q-Chem Inc. Pittsburgh 
 -------------------------------------------------------
 ---------------------------------------
  Cycle       Energy         DIIS Error
 ---------------------------------------
    1    -286.8205572527      1.63E-04
    2    -286.8207930322      2.97E-05
    3    -286.8207966402      3.64E-05
    4    -286.8207994698      1.10E-05
    5    -286.8207999482      5.02E-06
    6    -286.8208001339      2.72E-06
    7    -286.8208002013      1.87E-06
    8    -286.8208002288      4.91E-07
    9    -286.8208002371      3.12E-07
   10    -286.8208002382      1.01E-07
   11    -286.8208002383      3.71E-08
   12    -286.8208002383      1.31E-08
   13    -286.8208002383      3.58E-09 Convergence criterion met
 ---------------------------------------
 <S^2> = 0.7870
 SCF time:  CPU 30.87 s  wall 8.11 s
 SCF   energy in the final basis set = -286.82080024
 Total energy in the final basis set = -286.82080024
 
 --------------------------------------------------------------
 
                    Orbital Energies (a.u.)
 --------------------------------------------------------------
 
 Alpha MOs
 -- Occupied --
-14.318 -10.221 -10.220 -10.217 -10.213 -10.206 -10.186  -0.955
 -0.836  -0.738  -0.680  -0.590  -0.576  -0.536  -0.513  -0.463
 -0.427  -0.405  -0.397  -0.377  -0.339  -0.296  -0.275  -0.253
 -0.139
 -- Virtual --
 -0.002   0.013   0.093   0.141   0.145   0.155   0.157   0.166
  0.179   0.207   0.217   0.260   0.302   0.310   0.361   0.369
  0.486   0.494   0.518   0.542   0.577   0.587   0.605   0.612
  0.619   0.640   0.665   0.682   0.706   0.755   0.770   0.788
  0.817   0.829   0.847   0.853   0.861   0.877   0.902   0.927
  0.962   1.028   1.099   1.127   1.147   1.213   1.274   1.325
  1.378   1.449   1.474   1.521   1.584   1.659   1.670   1.751
  1.765   1.812   1.833   1.891   1.932   1.976   2.022   2.060
  2.071   2.160   2.185   2.219   2.274   2.300   2.335   2.402
  2.411   2.457   2.515   2.540   2.588   2.632   2.634   2.659
  2.722   2.793   2.849   2.920   2.951   3.941   4.165   4.259
  4.306   4.438   4.517   4.668
 
 Beta MOs
 -- Occupied --
-14.318 -10.224 -10.221 -10.217 -10.213 -10.196 -10.177  -0.952
 -0.830  -0.731  -0.670  -0.586  -0.566  -0.534  -0.506  -0.457
 -0.423  -0.400  -0.394  -0.375  -0.334  -0.279  -0.265  -0.249
 -- Virtual --
 -0.020   0.006   0.027   0.095   0.147   0.151   0.157   0.158
  0.169   0.181   0.212   0.222   0.263   0.306   0.315   0.364
  0.375   0.491   0.505   0.523   0.547   0.582   0.598   0.610
  0.620   0.635   0.652   0.677   0.686   0.711   0.759   0.775
  0.789   0.818   0.831   0.850   0.854   0.867   0.880   0.905
  0.930   0.965   1.038   1.104   1.133   1.157   1.217   1.277
  1.335   1.382   1.451   1.484   1.525   1.592   1.662   1.680
  1.762   1.770   1.818   1.837   1.910   1.941   1.977   2.037
  2.070   2.077   2.165   2.195   2.230   2.284   2.306   2.352
  2.412   2.419   2.471   2.517   2.547   2.592   2.634   2.642
  2.668   2.730   2.798   2.853   2.921   2.952   3.942   4.167
  4.269   4.325   4.441   4.521   4.670
 --------------------------------------------------------------
 
          Ground-State Mulliken Net Atomic Charges

     Atom                 Charge (a.u.)    Spin (a.u.)
  --------------------------------------------------------
      1 C                     0.100399       0.036252
      2 C                    -0.204053      -0.006427
      3 C                    -0.135100       0.674443
      4 C                    -0.075539       0.647424
      5 C                    -0.101585      -0.068316
      6 N                    -0.333800      -0.006070
      7 H                     0.145094       0.000970
      8 H                     0.142485       0.002659
      9 H                     0.155458      -0.034240
     10 H                     0.142060      -0.032891
     11 H                     0.140397       0.005903
     12 C                    -0.125424      -0.233483
     13 H                     0.149608       0.013774
  --------------------------------------------------------
  Sum of atomic charges =    -0.000000
  Sum of spin   charges =     1.000000

 -----------------------------------------------------------------
                    Cartesian Multipole Moments
 -----------------------------------------------------------------
    Charge (ESU x 10^10)
                -0.0000
    Dipole Moment (Debye)
         X      -0.7736      Y      -2.5430      Z       0.7346
       Tot       2.7577
    Quadrupole Moments (Debye-Ang)
        XX     -37.8191     XY      -3.4061     YY     -42.5066
        XZ       1.0855     YZ       0.6632     ZZ     -40.6956
    Octopole Moments (Debye-Ang^2)
       XXX      -3.9039    XXY      -6.3436    XYY     -10.4664
       YYY     -30.6767    XXZ       2.7485    XYZ       1.0422
       YYZ       5.7728    XZZ      -9.1064    YZZ      -9.1432
       ZZZ      10.4935
    Hexadecapole Moments (Debye-Ang^3)
      XXXX    -239.6297   XXXY      -5.5235   XXYY     -82.8374
      XYYY     -18.0882   YYYY    -251.3062   XXXZ      24.9895
      XXYZ      10.6136   XYYZ      13.3798   YYYZ      22.6198
      XXZZ     -71.8763   XYZZ      -3.0416   YYZZ     -69.4082
      XZZZ      25.3196   YZZZ      15.8136   ZZZZ    -186.9194
 -----------------------------------------------------------------
 Calculating analytic gradient of the SCF energy
 Gradient of SCF Energy
            1           2           3           4           5           6
    1  -0.0012981   0.0026404   0.0000935   0.0012112  -0.0014275   0.0005400
    2   0.0002778   0.0004087  -0.0018453   0.0041471   0.0007485  -0.0001174
    3  -0.0001615  -0.0013875   0.0074217   0.0011066  -0.0006414  -0.0000263
            7           8           9          10          11          12
    1   0.0000364  -0.0003489   0.0002372  -0.0006607   0.0005692  -0.0015444
    2  -0.0001020  -0.0001636   0.0001143  -0.0003944   0.0001127  -0.0027429
    3   0.0001482   0.0001507  -0.0001226  -0.0007523  -0.0000028  -0.0053348
           13
    1  -0.0000483
    2  -0.0004434
    3  -0.0003980
 Max gradient component =       7.422E-03
 RMS gradient           =       1.847E-03
 Gradient time:  CPU 7.82 s  wall 2.01 s
 Geometry Optimization Parameters
   NAtoms,    NIC,     NZ,  NCons,   NDum,   NFix, NCnnct, MaxDiis
       13     128       0       0       0       0       0       0

 Cartesian Hessian Update
 Hessian Updated using Powell/Murtagh-Sargent Update
  Mixing factors:     0.999160 Powell
                      0.000840 Murtagh-Sargent


** GEOMETRY OPTIMIZATION IN DELOCALIZED INTERNAL COORDINATES **
   Searching for a Transition State

   Optimization Cycle:   4

                       Coordinates (Angstroms)
     ATOM                X               Y               Z
      1  C         1.5491419615    0.3724020415   -0.3190657625
      2  C         0.7211861839   -0.8599921957   -0.0362810967
      3  C        -0.5017042758   -0.6040591479   -0.8606946476
      4  C        -0.9133109504    0.6764977553    0.8880393146
      5  C        -0.5795397723    0.9168558203   -0.5845429155
      6  N         0.8464174006    1.3853311635   -0.6587367794
      7  H         2.6298817044    0.4306879374   -0.1980440883
      8  H         1.1800008983   -1.8461173880   -0.0127290489
      9  H        -1.1592074555   -1.2767644498   -1.3910733577
     10  H        -1.6698006988    1.1556858060    1.4917296233
     11  H        -1.2461463084    1.5493828633   -1.1682920553
     12  C        -0.3384830498   -0.5869968552    1.0342685919
     13  H        -0.5384515407   -1.3248897316    1.8076863857
   Point Group: c1    Number of degrees of freedom:    33


   Energy is   -286.820800238

 Hessian Updated using Powell/Murtagh-Sargent Update
  Mixing factors:     0.969427 Powell
                      0.030573 Murtagh-Sargent

 33 Hessian modes will be used to form the next step
  Hessian Eigenvalues:
    -0.064879    0.000476    0.002208    0.010029    0.014826    0.020566
     0.023687    0.029412    0.035699    0.037301    0.039181    0.041514
     0.048587    0.070496    0.074088    0.086230    0.113225    0.131517
     0.137316    0.149986    0.153622    0.170918    0.198503    0.247791
     0.283890    0.331265    0.356438    0.356703    0.357140    0.359197
     0.377986    0.379798    0.587659

 Transition State Search - Taking P-RFO Step
 Searching for Lamda that Maximizes Along the Lowest mode
 Value Taken    Lamda =   0.00044159
 Searching for Lamda that Minimizes Along All other modes
 Value Taken    Lamda =  -0.00025712
 Calculated Step too Large.  Step scaled by  0.216824
 Step Taken.  Stepsize is  0.100000

                             Maximum     Tolerance    Cnvgd?
         Gradient           0.002285      0.000010      NO
         Displacement       0.072177      0.001200      NO
         Energy change      0.000047      0.000001      NO


 New Cartesian Coordinates Obtained by Inverse Iteration

 Displacement from previous Coordinates is:  0.050745
 ----------------------------------------------------------------
             Standard Nuclear Orientation (Angstroms)
    I     Atom           X                Y                Z
 ----------------------------------------------------------------
    1      C       1.5478589818     0.3720279452    -0.3190922478
    2      C       0.7199682703    -0.8603218622    -0.0355331847
    3      C      -0.5051433353    -0.6061770927    -0.8566752797
    4      C      -0.9153341773     0.6764745161     0.8882519712
    5      C      -0.5816314651     0.9153531679    -0.5840173810
    6      N       0.8440365857     1.3843539796    -0.6589895977
    7      H       2.6285303632     0.4316630407    -0.1982230063
    8      H       1.1791938069    -1.8462565142    -0.0118299264
    9      H      -1.1477249136    -1.2778212586    -1.4067440518
   10      H      -1.6596043771     1.1648258404     1.4996808918
   11      H      -1.2492061333     1.5463658362    -1.1685308829
   12      C      -0.3414013805    -0.5880647545     1.0343417286
   13      H      -0.5395581286    -1.3243992247     1.8096251304
 ----------------------------------------------------------------
 Nuclear Repulsion Energy =   280.5183783824 hartrees
 There are       25 alpha and       24 beta electrons
 Applying Cartesian multipole field
    Component          Value
    ---------          -----
     (2,0,0)        1.00000E-11
     (0,2,0)        2.00000E-11
     (0,0,2)       -3.00000E-11
 Nucleus-field energy     =     0.0000000014 hartrees
 Requested basis set is 6-31G(d)
 There are 40 shells and 117 basis functions
 A cutoff of  1.0D-14 yielded    813 shell pairs
 There are      7085 function pairs
 Smallest overlap matrix eigenvalue = 1.15E-03
 Guess MOs from SCF MO coefficient file
 Reading MOs from coefficient file
 Reading MOs from coefficient file
 An unrestricted hybrid HF-DFT SCF calculation will be
 performed using Pulay DIIS extrapolation
 Exchange:     0.2000 Hartree-Fock + 0.0800 Slater + 0.7200 B88
 Correlation:  0.1900 VWN1RPA + 0.8100 LYP
 Using SG-1 standard quadrature grid
 SCF converges when DIIS error is below 1.0E-08
 Geometry optimization detected.  Setting ReadMinima to 0
 Setting SaveMinima to 0
Using Q-Chem read-in guess as SCF_GUESS READ specified.

 using 4 threads for integral computing
 -------------------------------------------------------
 OpenMP Integral computing Module                
 Release: version 1.0, May 2013, Q-Chem Inc. Pittsburgh 
 -------------------------------------------------------
 -------------------------------------------------------
 OpenMP BLAS3 based DFT computing Module                
 Release: version 1.0, May 2013, Q-Chem Inc. Pittsburgh 
 -------------------------------------------------------
 ---------------------------------------
  Cycle       Energy         DIIS Error
 ---------------------------------------
    1    -286.8205140559      1.65E-04
    2    -286.8207581537      2.89E-05
    3    -286.8207618284      3.54E-05
    4    -286.8207644763      1.10E-05
    5    -286.8207649516      5.07E-06
    6    -286.8207651340      2.65E-06
    7    -286.8207652019      1.83E-06
    8    -286.8207652286      4.82E-07
    9    -286.8207652368      3.06E-07
   10    -286.8207652379      9.97E-08
   11    -286.8207652380      3.54E-08
   12    -286.8207652380      1.25E-08
   13    -286.8207652380      3.33E-09 Convergence criterion met
 ---------------------------------------
 <S^2> = 0.7866
 SCF time:  CPU 30.76 s  wall 7.79 s
 SCF   energy in the final basis set = -286.82076524
 Total energy in the final basis set = -286.82076524
 
 --------------------------------------------------------------
 
                    Orbital Energies (a.u.)
 --------------------------------------------------------------
 
 Alpha MOs
 -- Occupied --
-14.318 -10.221 -10.220 -10.217 -10.213 -10.207 -10.186  -0.955
 -0.836  -0.738  -0.680  -0.590  -0.576  -0.536  -0.513  -0.463
 -0.427  -0.405  -0.397  -0.377  -0.339  -0.295  -0.275  -0.252
 -0.140
 -- Virtual --
 -0.002   0.014   0.093   0.141   0.145   0.155   0.158   0.166
  0.179   0.207   0.217   0.259   0.302   0.311   0.362   0.370
  0.486   0.494   0.516   0.543   0.578   0.588   0.604   0.612
  0.620   0.638   0.665   0.682   0.707   0.757   0.771   0.789
  0.817   0.829   0.848   0.853   0.861   0.877   0.902   0.927
  0.960   1.028   1.097   1.127   1.145   1.216   1.273   1.324
  1.380   1.449   1.475   1.522   1.586   1.659   1.671   1.751
  1.765   1.812   1.835   1.889   1.930   1.976   2.022   2.060
  2.071   2.159   2.186   2.221   2.272   2.301   2.336   2.404
  2.412   2.459   2.515   2.542   2.588   2.632   2.634   2.659
  2.723   2.793   2.850   2.920   2.951   3.941   4.164   4.259
  4.307   4.438   4.517   4.668
 
 Beta MOs
 -- Occupied --
-14.318 -10.224 -10.220 -10.216 -10.213 -10.197 -10.176  -0.952
 -0.830  -0.731  -0.670  -0.585  -0.566  -0.534  -0.506  -0.458
 -0.423  -0.400  -0.394  -0.375  -0.334  -0.278  -0.265  -0.249
 -- Virtual --
 -0.020   0.007   0.028   0.095   0.147   0.151   0.157   0.158
  0.169   0.181   0.212   0.223   0.263   0.306   0.315   0.364
  0.375   0.491   0.505   0.523   0.547   0.583   0.598   0.610
  0.620   0.635   0.651   0.676   0.686   0.712   0.760   0.775
  0.789   0.818   0.830   0.850   0.854   0.867   0.880   0.905
  0.930   0.964   1.037   1.101   1.133   1.155   1.220   1.276
  1.333   1.383   1.452   1.485   1.525   1.593   1.661   1.682
  1.763   1.770   1.818   1.839   1.907   1.940   1.977   2.036
  2.071   2.076   2.164   2.196   2.233   2.282   2.307   2.354
  2.414   2.419   2.472   2.517   2.548   2.591   2.634   2.643
  2.667   2.730   2.798   2.853   2.921   2.953   3.942   4.166
  4.269   4.325   4.442   4.521   4.671
 --------------------------------------------------------------
 
          Ground-State Mulliken Net Atomic Charges

     Atom                 Charge (a.u.)    Spin (a.u.)
  --------------------------------------------------------
      1 C                     0.100056       0.037868
      2 C                    -0.203155      -0.005265
      3 C                    -0.135603       0.664302
      4 C                    -0.075303       0.654762
      5 C                    -0.100421      -0.068703
      6 N                    -0.334213      -0.006495
      7 H                     0.144970       0.001096
      8 H                     0.142331       0.002570
      9 H                     0.155290      -0.033111
     10 H                     0.142159      -0.033173
     11 H                     0.140191       0.005975
     12 C                    -0.125935      -0.233394
     13 H                     0.149633       0.013568
  --------------------------------------------------------
  Sum of atomic charges =    -0.000000
  Sum of spin   charges =     1.000000

 -----------------------------------------------------------------
                    Cartesian Multipole Moments
 -----------------------------------------------------------------
    Charge (ESU x 10^10)
                -0.0000
    Dipole Moment (Debye)
         X      -0.7576      Y      -2.5374      Z       0.7214
       Tot       2.7446
    Quadrupole Moments (Debye-Ang)
        XX     -37.8920     XY      -3.4180     YY     -42.5017
        XZ       1.0902     YZ       0.7161     ZZ     -40.5942
    Octopole Moments (Debye-Ang^2)
       XXX      -3.5769    XXY      -6.2645    XYY     -10.3735
       YYY     -30.5528    XXZ       2.7091    XYZ       1.0182
       YYZ       5.7616    XZZ      -9.0902    YZZ      -9.1532
       ZZZ      10.3583
    Hexadecapole Moments (Debye-Ang^3)
      XXXX    -239.8463   XXXY      -5.4718   XXYY     -82.8385
      XYYY     -18.0634   YYYY    -251.3127   XXXZ      25.0457
      XXYZ      10.5529   XYYZ      13.3271   YYYZ      22.6708
      XXZZ     -71.8584   XYZZ      -3.0279   YYZZ     -69.2653
      XZZZ      25.3363   YZZZ      15.9855   ZZZZ    -186.4912
 -----------------------------------------------------------------
 Calculating analytic gradient of the SCF energy
 Gradient of SCF Energy
            1           2           3           4           5           6
    1  -0.0010261   0.0020724   0.0000608   0.0010059  -0.0011491   0.0004546
    2   0.0002388   0.0003321  -0.0015167   0.0033370   0.0005551  -0.0001458
    3  -0.0001331  -0.0010947   0.0058461   0.0009022  -0.0004940  -0.0000141
            7           8           9          10          11          12
    1   0.0000289  -0.0002737   0.0001914  -0.0005490   0.0004573  -0.0012342
    2  -0.0000857  -0.0001278   0.0001288  -0.0003257   0.0000868  -0.0021351
    3   0.0001167   0.0001258  -0.0000841  -0.0006135  -0.0000156  -0.0042319
           13
    1  -0.0000392
    2  -0.0003415
    3  -0.0003098
 Max gradient component =       5.846E-03
 RMS gradient           =       1.465E-03
 Gradient time:  CPU 7.82 s  wall 1.99 s
 Geometry Optimization Parameters
   NAtoms,    NIC,     NZ,  NCons,   NDum,   NFix, NCnnct, MaxDiis
       13     128       0       0       0       0       0       0

 Cartesian Hessian Update
 Hessian Updated using Powell/Murtagh-Sargent Update
  Mixing factors:     0.998598 Powell
                      0.001402 Murtagh-Sargent


** GEOMETRY OPTIMIZATION IN DELOCALIZED INTERNAL COORDINATES **
   Searching for a Transition State

   Optimization Cycle:   5

                       Coordinates (Angstroms)
     ATOM                X               Y               Z
      1  C         1.5478589818    0.3720279452   -0.3190922478
      2  C         0.7199682703   -0.8603218622   -0.0355331847
      3  C        -0.5051433353   -0.6061770927   -0.8566752797
      4  C        -0.9153341773    0.6764745161    0.8882519712
      5  C        -0.5816314651    0.9153531679   -0.5840173810
      6  N         0.8440365857    1.3843539796   -0.6589895977
      7  H         2.6285303632    0.4316630407   -0.1982230063
      8  H         1.1791938069   -1.8462565142   -0.0118299264
      9  H        -1.1477249136   -1.2778212586   -1.4067440518
     10  H        -1.6596043771    1.1648258404    1.4996808918
     11  H        -1.2492061333    1.5463658362   -1.1685308829
     12  C        -0.3414013805   -0.5880647545    1.0343417286
     13  H        -0.5395581286   -1.3243992247    1.8096251304
   Point Group: c1    Number of degrees of freedom:    33


   Energy is   -286.820765238

 Hessian Updated using Powell/Murtagh-Sargent Update
  Mixing factors:     0.963467 Powell
                      0.036533 Murtagh-Sargent

 33 Hessian modes will be used to form the next step
  Hessian Eigenvalues:
    -0.064754    0.000673    0.002083    0.010027    0.014826    0.020565
     0.023689    0.029413    0.035702    0.037300    0.039181    0.041517
     0.048587    0.070497    0.074089    0.086229    0.113225    0.131523
     0.137319    0.149990    0.153630    0.170919    0.198505    0.247808
     0.283896    0.331267    0.356438    0.356703    0.357140    0.359197
     0.377989    0.379820    0.587699

 Transition State Search - Taking P-RFO Step
 Searching for Lamda that Maximizes Along the Lowest mode
 Value Taken    Lamda =   0.00027742
 Searching for Lamda that Minimizes Along All other modes
 Value Taken    Lamda =  -0.00016531
 Calculated Step too Large.  Step scaled by  0.284960
 Step Taken.  Stepsize is  0.100000

                             Maximum     Tolerance    Cnvgd?
         Gradient           0.001814      0.000010      NO
         Displacement       0.070120      0.001200      NO
         Energy change      0.000035      0.000001      NO


 New Cartesian Coordinates Obtained by Inverse Iteration

 Displacement from previous Coordinates is:  0.051477
 ----------------------------------------------------------------
             Standard Nuclear Orientation (Angstroms)
    I     Atom           X                Y                Z
 ----------------------------------------------------------------
    1      C       1.5465391636     0.3719432924    -0.3188271282
    2      C       0.7190541913    -0.8605810368    -0.0349195524
    3      C      -0.5082994071    -0.6084122058    -0.8528068119
    4      C      -0.9180971537     0.6760476326     0.8878292407
    5      C      -0.5837962535     0.9137939389    -0.5837996693
    6      N       0.8414667460     1.3835896997    -0.6589898830
    7      H       2.6270817821     0.4331848440    -0.1977425946
    8      H       1.1788538166    -1.8462474515    -0.0110894813
    9      H      -1.1367636997    -1.2792064120    -1.4204462184
   10      H      -1.6474382151     1.1751350537     1.5084531499
   11      H      -1.2522983796     1.5430733418    -1.1693760737
   12      C      -0.3448429375    -0.5896189165     1.0335860682
   13      H      -0.5414755563    -1.3246781611     1.8103931177
 ----------------------------------------------------------------
 Nuclear Repulsion Energy =   280.5214828393 hartrees
 There are       25 alpha and       24 beta electrons
 Applying Cartesian multipole field
    Component          Value
    ---------          -----
     (2,0,0)        1.00000E-11
     (0,2,0)        2.00000E-11
     (0,0,2)       -3.00000E-11
 Nucleus-field energy     =     0.0000000014 hartrees
 Requested basis set is 6-31G(d)
 There are 40 shells and 117 basis functions
 A cutoff of  1.0D-14 yielded    813 shell pairs
 There are      7085 function pairs
 Smallest overlap matrix eigenvalue = 1.14E-03
 Guess MOs from SCF MO coefficient file
 Reading MOs from coefficient file
 Reading MOs from coefficient file
 An unrestricted hybrid HF-DFT SCF calculation will be
 performed using Pulay DIIS extrapolation
 Exchange:     0.2000 Hartree-Fock + 0.0800 Slater + 0.7200 B88
 Correlation:  0.1900 VWN1RPA + 0.8100 LYP
 Using SG-1 standard quadrature grid
 SCF converges when DIIS error is below 1.0E-08
 Geometry optimization detected.  Setting ReadMinima to 0
 Setting SaveMinima to 0
Using Q-Chem read-in guess as SCF_GUESS READ specified.

 using 4 threads for integral computing
 -------------------------------------------------------
 OpenMP Integral computing Module                
 Release: version 1.0, May 2013, Q-Chem Inc. Pittsburgh 
 -------------------------------------------------------
 -------------------------------------------------------
 OpenMP BLAS3 based DFT computing Module                
 Release: version 1.0, May 2013, Q-Chem Inc. Pittsburgh 
 -------------------------------------------------------
 ---------------------------------------
  Cycle       Energy         DIIS Error
 ---------------------------------------
    1    -286.8205113789      1.76E-04
    2    -286.8207302021      3.03E-05
    3    -286.8207340622      3.85E-05
    4    -286.8207372468      1.13E-05
    5    -286.8207378107      5.15E-06
    6    -286.8207380294      2.99E-06
    7    -286.8207381176      1.96E-06
    8    -286.8207381502      5.23E-07
    9    -286.8207381598      3.41E-07
   10    -286.8207381609      9.49E-08
   11    -286.8207381610      3.47E-08
   12    -286.8207381610      1.21E-08
   13    -286.8207381610      3.13E-09 Convergence criterion met
 ---------------------------------------
 <S^2> = 0.7861
 SCF time:  CPU 31.43 s  wall 8.50 s
 SCF   energy in the final basis set = -286.82073816
 Total energy in the final basis set = -286.82073816
 
 --------------------------------------------------------------
 
                    Orbital Energies (a.u.)
 --------------------------------------------------------------
 
 Alpha MOs
 -- Occupied --
-14.318 -10.221 -10.220 -10.217 -10.213 -10.207 -10.185  -0.955
 -0.836  -0.738  -0.680  -0.590  -0.576  -0.536  -0.513  -0.463
 -0.427  -0.405  -0.397  -0.377  -0.339  -0.295  -0.275  -0.252
 -0.140
 -- Virtual --
 -0.001   0.014   0.093   0.142   0.145   0.155   0.158   0.166
  0.179   0.206   0.217   0.259   0.302   0.311   0.362   0.370
  0.486   0.495   0.515   0.543   0.578   0.588   0.604   0.612
  0.620   0.637   0.664   0.682   0.707   0.758   0.772   0.789
  0.816   0.829   0.848   0.853   0.861   0.878   0.903   0.927
  0.959   1.027   1.094   1.127   1.144   1.220   1.273   1.322
  1.382   1.450   1.477   1.522   1.588   1.658   1.673   1.752
  1.765   1.812   1.837   1.887   1.928   1.976   2.021   2.060
  2.072   2.159   2.187   2.224   2.269   2.302   2.337   2.406
  2.413   2.461   2.514   2.543   2.588   2.632   2.635   2.658
  2.723   2.793   2.850   2.919   2.951   3.940   4.163   4.258
  4.308   4.439   4.517   4.669
 
 Beta MOs
 -- Occupied --
-14.318 -10.224 -10.220 -10.216 -10.213 -10.197 -10.176  -0.951
 -0.831  -0.731  -0.669  -0.585  -0.566  -0.534  -0.506  -0.458
 -0.423  -0.400  -0.394  -0.375  -0.334  -0.278  -0.265  -0.249
 -- Virtual --
 -0.020   0.007   0.029   0.095   0.147   0.151   0.157   0.158
  0.169   0.181   0.211   0.223   0.263   0.306   0.315   0.364
  0.376   0.490   0.505   0.522   0.547   0.583   0.599   0.610
  0.619   0.635   0.651   0.676   0.686   0.712   0.762   0.776
  0.790   0.818   0.830   0.850   0.853   0.868   0.880   0.906
  0.930   0.963   1.035   1.099   1.133   1.154   1.223   1.276
  1.331   1.385   1.453   1.487   1.525   1.595   1.661   1.683
  1.764   1.770   1.818   1.841   1.905   1.939   1.978   2.036
  2.072   2.076   2.163   2.197   2.235   2.279   2.308   2.355
  2.417   2.420   2.474   2.517   2.550   2.591   2.634   2.643
  2.667   2.730   2.798   2.853   2.921   2.953   3.942   4.165
  4.268   4.326   4.442   4.521   4.672
 --------------------------------------------------------------
 
          Ground-State Mulliken Net Atomic Charges

     Atom                 Charge (a.u.)    Spin (a.u.)
  --------------------------------------------------------
      1 C                     0.099696       0.039555
      2 C                    -0.202162      -0.003781
      3 C                    -0.135980       0.652256
      4 C                    -0.075129       0.662982
      5 C                    -0.099212      -0.069054
      6 N                    -0.334728      -0.006864
      7 H                     0.144845       0.001229
      8 H                     0.142202       0.002507
      9 H                     0.155173      -0.031847
     10 H                     0.142260      -0.033422
     11 H                     0.139991       0.006099
     12 C                    -0.126602      -0.233038
     13 H                     0.149646       0.013378
  --------------------------------------------------------
  Sum of atomic charges =    -0.000000
  Sum of spin   charges =     1.000000

 -----------------------------------------------------------------
                    Cartesian Multipole Moments
 -----------------------------------------------------------------
    Charge (ESU x 10^10)
                 0.0000
    Dipole Moment (Debye)
         X      -0.7403      Y      -2.5307      Z       0.7107
       Tot       2.7309
    Quadrupole Moments (Debye-Ang)
        XX     -37.9697     XY      -3.4268     YY     -42.4943
        XZ       1.0953     YZ       0.7705     ZZ     -40.4943
    Octopole Moments (Debye-Ang^2)
       XXX      -3.2202    XXY      -6.1901    XYY     -10.2782
       YYY     -30.4217    XXZ       2.6712    XYZ       0.9954
       YYZ       5.7673    XZZ      -9.0655    YZZ      -9.1403
       ZZZ      10.2593
    Hexadecapole Moments (Debye-Ang^3)
      XXXX    -240.1391   XXXY      -5.4085   XXYY     -82.8484
      XYYY     -18.0567   YYYY    -251.3636   XXXZ      25.1214
      XXYZ      10.4866   XYYZ      13.2607   YYYZ      22.7359
      XXZZ     -71.8407   XYZZ      -3.0285   YYZZ     -69.1042
      XZZZ      25.3290   YZZZ      16.1725   ZZZZ    -185.9582
 -----------------------------------------------------------------
 Calculating analytic gradient of the SCF energy
 Gradient of SCF Energy
            1           2           3           4           5           6
    1  -0.0007406   0.0014690   0.0000005   0.0007974  -0.0008503   0.0003621
    2   0.0001891   0.0002491  -0.0011498   0.0024651   0.0003624  -0.0001595
    3  -0.0001025  -0.0007802   0.0041865   0.0006951  -0.0003488  -0.0000088
            7           8           9          10          11          12
    1   0.0000212  -0.0001999   0.0001554  -0.0004247   0.0003362  -0.0008979
    2  -0.0000703  -0.0000931   0.0001226  -0.0002610   0.0000581  -0.0014812
    3   0.0000827   0.0001026  -0.0000790  -0.0004765  -0.0000239  -0.0030347
           13
    1  -0.0000286
    2  -0.0002317
    3  -0.0002123
 Max gradient component =       4.186E-03
 RMS gradient           =       1.058E-03
 Gradient time:  CPU 7.58 s  wall 1.98 s
 Geometry Optimization Parameters
   NAtoms,    NIC,     NZ,  NCons,   NDum,   NFix, NCnnct, MaxDiis
       13     128       0       0       0       0       0       0

 Cartesian Hessian Update
 Hessian Updated using Powell/Murtagh-Sargent Update
  Mixing factors:     0.999660 Powell
                      0.000340 Murtagh-Sargent


** GEOMETRY OPTIMIZATION IN DELOCALIZED INTERNAL COORDINATES **
   Searching for a Transition State

   Optimization Cycle:   6

                       Coordinates (Angstroms)
     ATOM                X               Y               Z
      1  C         1.5465391636    0.3719432924   -0.3188271282
      2  C         0.7190541913   -0.8605810368   -0.0349195524
      3  C        -0.5082994071   -0.6084122058   -0.8528068119
      4  C        -0.9180971537    0.6760476326    0.8878292407
      5  C        -0.5837962535    0.9137939389   -0.5837996693
      6  N         0.8414667460    1.3835896997   -0.6589898830
      7  H         2.6270817821    0.4331848440   -0.1977425946
      8  H         1.1788538166   -1.8462474515   -0.0110894813
      9  H        -1.1367636997   -1.2792064120   -1.4204462184
     10  H        -1.6474382151    1.1751350537    1.5084531499
     11  H        -1.2522983796    1.5430733418   -1.1693760737
     12  C        -0.3448429375   -0.5896189165    1.0335860682
     13  H        -0.5414755563   -1.3246781611    1.8103931177
   Point Group: c1    Number of degrees of freedom:    33


   Energy is   -286.820738161

 Hessian Updated using Powell/Murtagh-Sargent Update
  Mixing factors:     0.990599 Powell
                      0.009401 Murtagh-Sargent

 33 Hessian modes will be used to form the next step
  Hessian Eigenvalues:
    -0.064806    0.001067    0.001837    0.010028    0.014826    0.020564
     0.023691    0.029413    0.035706    0.037297    0.039180    0.041522
     0.048588    0.070498    0.074090    0.086231    0.113225    0.131533
     0.137319    0.149989    0.153636    0.170919    0.198507    0.247816
     0.283903    0.331267    0.356438    0.356703    0.357140    0.359197
     0.377996    0.379822    0.587723

 Transition State Search - Taking P-RFO Step
 Searching for Lamda that Maximizes Along the Lowest mode
 Value Taken    Lamda =   0.00014116
 Searching for Lamda that Minimizes Along All other modes
 Value Taken    Lamda =  -0.00009720
 Calculated Step too Large.  Step scaled by  0.400116
 Step Taken.  Stepsize is  0.100000

                             Maximum     Tolerance    Cnvgd?
         Gradient           0.001319      0.000010      NO
         Displacement       0.060035      0.001200      NO
         Energy change      0.000027      0.000001      NO


 New Cartesian Coordinates Obtained by Inverse Iteration

 Displacement from previous Coordinates is:  0.053617
 ----------------------------------------------------------------
             Standard Nuclear Orientation (Angstroms)
    I     Atom           X                Y                Z
 ----------------------------------------------------------------
    1      C       1.5452220798     0.3724820073    -0.3178510165
    2      C       0.7187926651    -0.8607150035    -0.0346560197
    3      C      -0.5104808579    -0.6106394716    -0.8497665949
    4      C      -0.9223226355     0.6747247338     0.8860722243
    5      C      -0.5860190563     0.9121762007    -0.5842868028
    6      N       0.8386630896     1.3833258380    -0.6583479234
    7      H       2.6255021281     0.4357848337    -0.1956806537
    8      H       1.1795201676    -1.8459438043    -0.0107586417
    9      H      -1.1280928323    -1.2814870313    -1.4296150179
   10      H      -1.6318082281     1.1873094157     1.5185414264
   11      H      -1.2552427197     1.5394093714    -1.1715193760
   12      C      -0.3490464424    -0.5920128003     1.0312398688
   13      H      -0.5447032609    -1.3263906704     1.8088926905
 ----------------------------------------------------------------
 Nuclear Repulsion Energy =   280.5349796712 hartrees
 There are       25 alpha and       24 beta electrons
 Applying Cartesian multipole field
    Component          Value
    ---------          -----
     (2,0,0)        1.00000E-11
     (0,2,0)        2.00000E-11
     (0,0,2)       -3.00000E-11
 Nucleus-field energy     =     0.0000000014 hartrees
 Requested basis set is 6-31G(d)
 There are 40 shells and 117 basis functions
 A cutoff of  1.0D-14 yielded    813 shell pairs
 There are      7085 function pairs
 Smallest overlap matrix eigenvalue = 1.13E-03
 Guess MOs from SCF MO coefficient file
 Reading MOs from coefficient file
 Reading MOs from coefficient file
 An unrestricted hybrid HF-DFT SCF calculation will be
 performed using Pulay DIIS extrapolation
 Exchange:     0.2000 Hartree-Fock + 0.0800 Slater + 0.7200 B88
 Correlation:  0.1900 VWN1RPA + 0.8100 LYP
 Using SG-1 standard quadrature grid
 SCF converges when DIIS error is below 1.0E-08
 Geometry optimization detected.  Setting ReadMinima to 0
 Setting SaveMinima to 0
Using Q-Chem read-in guess as SCF_GUESS READ specified.

 using 4 threads for integral computing
 -------------------------------------------------------
 OpenMP Integral computing Module                
 Release: version 1.0, May 2013, Q-Chem Inc. Pittsburgh 
 -------------------------------------------------------
 -------------------------------------------------------
 OpenMP BLAS3 based DFT computing Module                
 Release: version 1.0, May 2013, Q-Chem Inc. Pittsburgh 
 -------------------------------------------------------
 ---------------------------------------
  Cycle       Energy         DIIS Error
[...]
 Value Taken    Lamda =   0.00000000
 Step Taken.  Stepsize is  0.017785

                             Maximum     Tolerance    Cnvgd?
         Gradient           0.000036      0.000010      NO
         Displacement       0.011473      0.001200      NO
         Energy change     -0.000003      0.000001      NO


 New Cartesian Coordinates Obtained by Inverse Iteration

 Displacement from previous Coordinates is:  0.008185
 ----------------------------------------------------------------
             Standard Nuclear Orientation (Angstroms)
    I     Atom           X                Y                Z
 ----------------------------------------------------------------
    1      C       1.5424034222     0.3817451887    -0.3044051204
    2      C       0.7259481315    -0.8604389948    -0.0402630990
    3      C      -0.4973973076    -0.6128706235    -0.8638349709
    4      C      -0.9545188168     0.6557249853     0.8620601199
    5      C      -0.5908653084     0.9074296190    -0.5964313227
    6      N       0.8304513547     1.3895329384    -0.6456162564
    7      H       2.6199608671     0.4544492194    -0.1657370091
    8      H       1.1948266451    -1.8417576728    -0.0170266334
    9      H      -1.1559844090    -1.2944311900    -1.3817341737
   10      H      -1.5580866656     1.2298948886     1.5510670001
   11      H      -1.2552816987     1.5292354829    -1.1956005611
   12      C      -0.3612735809    -0.6048563132     1.0093260266
   13      H      -0.5601985365    -1.3456339088     1.7804601636
 ----------------------------------------------------------------
 Nuclear Repulsion Energy =   280.6583405499 hartrees
 There are       25 alpha and       24 beta electrons
 Applying Cartesian multipole field
    Component          Value
    ---------          -----
     (2,0,0)        1.00000E-11
     (0,2,0)        2.00000E-11
     (0,0,2)       -3.00000E-11
 Nucleus-field energy     =     0.0000000015 hartrees
 Requested basis set is 6-31G(d)
 There are 40 shells and 117 basis functions
 A cutoff of  1.0D-14 yielded    813 shell pairs
 There are      7085 function pairs
 Smallest overlap matrix eigenvalue = 1.15E-03
 Guess MOs from SCF MO coefficient file
 Reading MOs from coefficient file
 Reading MOs from coefficient file
 An unrestricted hybrid HF-DFT SCF calculation will be
 performed using Pulay DIIS extrapolation
 Exchange:     0.2000 Hartree-Fock + 0.0800 Slater + 0.7200 B88
 Correlation:  0.1900 VWN1RPA + 0.8100 LYP
 Using SG-1 standard quadrature grid
 SCF converges when DIIS error is below 1.0E-08
 Geometry optimization detected.  Setting ReadMinima to 0
 Setting SaveMinima to 0
Using Q-Chem read-in guess as SCF_GUESS READ specified.

 using 4 threads for integral computing
 -------------------------------------------------------
 OpenMP Integral computing Module                
 Release: version 1.0, May 2013, Q-Chem Inc. Pittsburgh 
 -------------------------------------------------------
 -------------------------------------------------------
 OpenMP BLAS3 based DFT computing Module                
 Release: version 1.0, May 2013, Q-Chem Inc. Pittsburgh 
 -------------------------------------------------------
 ---------------------------------------
  Cycle       Energy         DIIS Error
 ---------------------------------------
    1    -286.8207310668      2.96E-05
    2    -286.8208057616      5.64E-06
    3    -286.8208058023      7.48E-06
    4    -286.8208059044      1.29E-06
    5    -286.8208059099      7.58E-07
    6    -286.8208059118      2.70E-07
    7    -286.8208059122      1.19E-07
    8    -286.8208059122      5.49E-08
    9    -286.8208059123      3.28E-08
   10    -286.8208059123      1.10E-08
   11    -286.8208059123      5.31E-09 Convergence criterion met
 ---------------------------------------
 <S^2> = 0.7842
 SCF time:  CPU 26.46 s  wall 7.25 s
 SCF   energy in the final basis set = -286.82080591
 Total energy in the final basis set = -286.82080591
 
 --------------------------------------------------------------
 
                    Orbital Energies (a.u.)
 --------------------------------------------------------------
 
 Alpha MOs
 -- Occupied --
-14.318 -10.221 -10.220 -10.217 -10.214 -10.209 -10.186  -0.956
 -0.837  -0.739  -0.679  -0.591  -0.576  -0.536  -0.515  -0.463
 -0.425  -0.408  -0.397  -0.376  -0.341  -0.295  -0.273  -0.252
 -0.140
 -- Virtual --
 -0.001   0.016   0.095   0.141   0.146   0.154   0.158   0.165
  0.177   0.205   0.218   0.261   0.301   0.310   0.362   0.371
  0.486   0.496   0.517   0.544   0.576   0.585   0.603   0.616
  0.622   0.636   0.665   0.682   0.712   0.754   0.768   0.791
  0.812   0.828   0.848   0.856   0.857   0.879   0.896   0.926
  0.961   1.006   1.103   1.127   1.136   1.252   1.265   1.318
  1.391   1.450   1.498   1.520   1.576   1.636   1.669   1.757
  1.769   1.803   1.832   1.897   1.931   1.975   2.015   2.062
  2.071   2.158   2.183   2.226   2.252   2.303   2.333   2.409
  2.424   2.459   2.516   2.538   2.590   2.629   2.634   2.659
  2.724   2.797   2.849   2.917   2.951   3.936   4.162   4.264
  4.308   4.444   4.515   4.665
 
 Beta MOs
 -- Occupied --
-14.318 -10.224 -10.220 -10.216 -10.214 -10.200 -10.176  -0.952
 -0.832  -0.731  -0.669  -0.586  -0.567  -0.534  -0.507  -0.458
 -0.421  -0.403  -0.395  -0.374  -0.335  -0.279  -0.263  -0.248
 -- Virtual --
 -0.023   0.008   0.030   0.098   0.148   0.149   0.157   0.160
  0.167   0.180   0.210   0.223   0.265   0.305   0.315   0.365
  0.376   0.491   0.507   0.523   0.547   0.581   0.598   0.610
  0.619   0.640   0.648   0.675   0.686   0.719   0.758   0.772
  0.792   0.814   0.829   0.851   0.857   0.863   0.881   0.900
  0.930   0.964   1.013   1.108   1.132   1.147   1.255   1.268
  1.327   1.393   1.453   1.511   1.523   1.584   1.641   1.679
  1.765   1.776   1.810   1.836   1.916   1.939   1.977   2.029
  2.071   2.080   2.162   2.191   2.237   2.263   2.309   2.351
  2.418   2.432   2.471   2.519   2.545   2.593   2.631   2.643
  2.666   2.731   2.802   2.853   2.919   2.952   3.937   4.164
  4.274   4.326   4.447   4.519   4.668
 --------------------------------------------------------------
 
          Ground-State Mulliken Net Atomic Charges

     Atom                 Charge (a.u.)    Spin (a.u.)
  --------------------------------------------------------
      1 C                     0.099559       0.045341
      2 C                    -0.199067       0.005023
      3 C                    -0.133053       0.603247
      4 C                    -0.077625       0.682977
      5 C                    -0.095623      -0.069529
      6 N                    -0.338668      -0.005308
      7 H                     0.144886       0.001449
      8 H                     0.142580       0.003554
      9 H                     0.158467      -0.031242
     10 H                     0.141199      -0.028696
     11 H                     0.139919       0.008212
     12 C                    -0.131376      -0.229363
     13 H                     0.148803       0.014334
  --------------------------------------------------------
  Sum of atomic charges =     0.000000
  Sum of spin   charges =     1.000000

 -----------------------------------------------------------------
                    Cartesian Multipole Moments
 -----------------------------------------------------------------
    Charge (ESU x 10^10)
                 0.0000
    Dipole Moment (Debye)
         X      -0.6676      Y      -2.5032      Z       0.7451
       Tot       2.6957
    Quadrupole Moments (Debye-Ang)
        XX     -38.2502     XY      -3.2731     YY     -42.3710
        XZ       1.2240     YZ       0.9192     ZZ     -40.3866
    Octopole Moments (Debye-Ang^2)
       XXX      -1.6254    XXY      -6.3659    XYY     -10.0856
       YYY     -30.0013    XXZ       2.5277    XYZ       0.9040
       YYZ       6.2622    XZZ      -8.7834    YZZ      -8.3461
       ZZZ      11.3510
    Hexadecapole Moments (Debye-Ang^3)
      XXXX    -243.2097   XXXY      -4.5205   XXYY     -82.9323
      XYYY     -18.3267   YYYY    -252.3246   XXXZ      25.8785
      XXYZ      10.2847   XYYZ      12.7394   YYYZ      23.1824
      XXZZ     -71.8179   XYZZ      -3.2937   YYZZ     -68.2198
      XZZZ      24.3041   YZZZ      16.7071   ZZZZ    -182.5615
 -----------------------------------------------------------------
 Calculating analytic gradient of the SCF energy
 Gradient of SCF Energy
            1           2           3           4           5           6
    1   0.0000041  -0.0000102   0.0000010   0.0000132   0.0000103   0.0000173
    2  -0.0000245  -0.0000104  -0.0000154   0.0000237  -0.0000082  -0.0000234
    3  -0.0000043   0.0000222   0.0000062  -0.0000135  -0.0000236  -0.0000316
            7           8           9          10          11          12
    1   0.0000055  -0.0000190  -0.0000121   0.0000038   0.0000211  -0.0000155
    2  -0.0000322  -0.0000130  -0.0000224   0.0000546  -0.0000152   0.0000358
    3  -0.0000022   0.0000495   0.0000293  -0.0000392  -0.0000420   0.0000176
           13
    1  -0.0000195
    2   0.0000505
    3   0.0000317
 Max gradient component =       5.463E-05
 RMS gradient           =       2.450E-05
 Gradient time:  CPU 7.86 s  wall 2.00 s
 Geometry Optimization Parameters
   NAtoms,    NIC,     NZ,  NCons,   NDum,   NFix, NCnnct, MaxDiis
       13     128       0       0       0       0       0       0

 Cartesian Hessian Update
 Hessian Updated using Powell/Murtagh-Sargent Update
  Mixing factors:     0.993839 Powell
                      0.006161 Murtagh-Sargent


** GEOMETRY OPTIMIZATION IN DELOCALIZED INTERNAL COORDINATES **
   Searching for a Transition State

   Optimization Cycle:  14

                       Coordinates (Angstroms)
     ATOM                X               Y               Z
      1  C         1.5424034222    0.3817451887   -0.3044051204
      2  C         0.7259481315   -0.8604389948   -0.0402630990
      3  C        -0.4973973076   -0.6128706235   -0.8638349709
      4  C        -0.9545188168    0.6557249853    0.8620601199
      5  C        -0.5908653084    0.9074296190   -0.5964313227
      6  N         0.8304513547    1.3895329384   -0.6456162564
      7  H         2.6199608671    0.4544492194   -0.1657370091
      8  H         1.1948266451   -1.8417576728   -0.0170266334
      9  H        -1.1559844090   -1.2944311900   -1.3817341737
     10  H        -1.5580866656    1.2298948886    1.5510670001
     11  H        -1.2552816987    1.5292354829   -1.1956005611
     12  C        -0.3612735809   -0.6048563132    1.0093260266
     13  H        -0.5601985365   -1.3456339088    1.7804601636
   Point Group: c1    Number of degrees of freedom:    33


   Energy is   -286.820805912

 Hessian Updated using Powell/Murtagh-Sargent Update
  Mixing factors:     0.995895 Powell
                      0.004105 Murtagh-Sargent

 33 Hessian modes will be used to form the next step
  Hessian Eigenvalues:
    -0.066845    0.000850    0.002557    0.010044    0.014826    0.020573
     0.023695    0.029416    0.035714    0.037315    0.039171    0.041523
     0.048589    0.070491    0.074099    0.086242    0.113225    0.131547
     0.137318    0.149999    0.153640    0.170919    0.198529    0.247870
     0.283924    0.331240    0.356438    0.356703    0.357142    0.359198
     0.377937    0.379837    0.587771

 Transition State Search - Taking P-RFO Step
 Searching for Lamda that Maximizes Along the Lowest mode
 Value Taken    Lamda =   0.00000000
 Searching for Lamda that Minimizes Along All other modes
 Value Taken    Lamda =   0.00000000
 Step Taken.  Stepsize is  0.001520

                             Maximum     Tolerance    Cnvgd?
         Gradient           0.000005      0.000010     YES
         Displacement       0.000784      0.001200     YES
         Energy change     -0.000000      0.000001     YES


                       Distance Matrix (Angstroms)
             C (  1)   C (  2)   C (  3)   C (  4)   C (  5)   N (  6)
   C (  2)  1.509765
   C (  3)  2.337308  1.495371
   C (  4)  2.769535  2.436577  2.190207
   C (  5)  2.216407  2.273473  1.546465  1.524072
   N (  6)  1.280210  2.332327  2.412555  2.449016  1.501660
   H (  7)  1.088873  2.309103  3.368150  3.724753  3.271100  2.075334
   H (  8)  2.268780  1.087830  2.256296  3.410264  3.329029  3.311968
   H (  9)  3.354326  2.351502  1.080038  2.979649  2.405047  3.419278
   H ( 10)  3.711492  3.481184  3.217545  1.081062  2.377236  3.249002
   H ( 11)  3.152460  3.312193  2.296318  2.255537  1.089539  2.161546
   C ( 12)  2.514609  1.532648  1.878118  1.400961  2.217697  2.852478
   H ( 13)  3.428037  2.281364  2.744664  2.237048  3.275187  3.911635
             H (  7)   H (  8)   H (  9)   H ( 10)   H ( 11)   C ( 12)
   H (  8)  2.706601
   H (  9)  4.335319  2.772779
   H ( 10)  4.583101  4.412765  3.890402
   H ( 11)  4.151300  4.330781  2.831537  2.779474
   C ( 12)  3.375005  2.237135  2.612326  2.256581  3.196138
   H ( 13)  4.140217  2.560705  3.218238  2.771597  4.195826  1.087644

 
 Final energy is   -286.820805912282     


 ******************************
 **  OPTIMIZATION CONVERGED  **
 ******************************

                       Coordinates (Angstroms)
     ATOM                X               Y               Z
      1  C         1.5424034222    0.3817451887   -0.3044051204
      2  C         0.7259481315   -0.8604389948   -0.0402630990
      3  C        -0.4973973076   -0.6128706235   -0.8638349709
      4  C        -0.9545188168    0.6557249853    0.8620601199
      5  C        -0.5908653084    0.9074296190   -0.5964313227
      6  N         0.8304513547    1.3895329384   -0.6456162564
      7  H         2.6199608671    0.4544492194   -0.1657370091
      8  H         1.1948266451   -1.8417576728   -0.0170266334
      9  H        -1.1559844090   -1.2944311900   -1.3817341737
     10  H        -1.5580866656    1.2298948886    1.5510670001
     11  H        -1.2552816987    1.5292354829   -1.1956005611
     12  C        -0.3612735809   -0.6048563132    1.0093260266
     13  H        -0.5601985365   -1.3456339088    1.7804601636

Z-matrix Print:
$molecule
0 2
N 
C  1 1.280210
H  2 1.088873 1 122.121930
C  1 1.501660 2 105.361464 3 -174.623468 0
H  4 1.089539 1 112.083150 2 -159.213239 0
C  2 1.509765 1 113.177160 3 176.473631 0
H  6 1.087830 2 120.854247 1 162.745981 0
C  6 1.495371 2 102.112823 1 24.992910 0
H  8 1.080038 6 131.183631 2 148.423790 0
C  4 1.524072 1 108.071664 2 68.595623 0
H  10 1.081062 4 130.951402 1 104.146749 0
C  10 1.400961 4 98.520264 1 -80.545387 0
H  12 1.087644 10 127.583561 4 -161.737786 0
$end

 
 --------------------------------------------------------------
 
                    Orbital Energies (a.u.)
 --------------------------------------------------------------
 
 Alpha MOs
 -- Occupied --
-14.318 -10.221 -10.220 -10.217 -10.214 -10.209 -10.186  -0.956
 -0.837  -0.739  -0.679  -0.591  -0.576  -0.536  -0.515  -0.463
 -0.425  -0.408  -0.397  -0.376  -0.341  -0.295  -0.273  -0.252
 -0.140
 -- Virtual --
 -0.001   0.016   0.095   0.141   0.146   0.154   0.158   0.165
  0.177   0.205   0.218   0.261   0.301   0.310   0.362   0.371
  0.486   0.496   0.517   0.544   0.576   0.585   0.603   0.616
  0.622   0.636   0.665   0.682   0.712   0.754   0.768   0.791
  0.812   0.828   0.848   0.856   0.857   0.879   0.896   0.926
  0.961   1.006   1.103   1.127   1.136   1.252   1.265   1.318
  1.391   1.450   1.498   1.520   1.576   1.636   1.669   1.757
  1.769   1.803   1.832   1.897   1.931   1.975   2.015   2.062
  2.071   2.158   2.183   2.226   2.252   2.303   2.333   2.409
  2.424   2.459   2.516   2.538   2.590   2.629   2.634   2.659
  2.724   2.797   2.849   2.917   2.951   3.936   4.162   4.264
  4.308   4.444   4.515   4.665
 
 Beta MOs
 -- Occupied --
-14.318 -10.224 -10.220 -10.216 -10.214 -10.200 -10.176  -0.952
 -0.832  -0.731  -0.669  -0.586  -0.567  -0.534  -0.507  -0.458
 -0.421  -0.403  -0.395  -0.374  -0.335  -0.279  -0.263  -0.248
 -- Virtual --
 -0.023   0.008   0.030   0.098   0.148   0.149   0.157   0.160
  0.167   0.180   0.210   0.223   0.265   0.305   0.315   0.365
  0.376   0.491   0.507   0.523   0.547   0.581   0.598   0.610
  0.619   0.640   0.648   0.675   0.686   0.719   0.758   0.772
  0.792   0.814   0.829   0.851   0.857   0.863   0.881   0.900
  0.930   0.964   1.013   1.108   1.132   1.147   1.255   1.268
  1.327   1.393   1.453   1.511   1.523   1.584   1.641   1.679
  1.765   1.776   1.810   1.836   1.916   1.939   1.977   2.029
  2.071   2.080   2.162   2.191   2.237   2.263   2.309   2.351
  2.418   2.432   2.471   2.519   2.545   2.593   2.631   2.643
  2.666   2.731   2.802   2.853   2.919   2.952   3.937   4.164
  4.274   4.326   4.447   4.519   4.668
 --------------------------------------------------------------
 
          Ground-State Mulliken Net Atomic Charges

     Atom                 Charge (a.u.)    Spin (a.u.)
  --------------------------------------------------------
      1 C                     0.099559       0.045341
      2 C                    -0.199067       0.005023
      3 C                    -0.133053       0.603247
      4 C                    -0.077625       0.682977
      5 C                    -0.095623      -0.069529
      6 N                    -0.338668      -0.005308
      7 H                     0.144886       0.001449
      8 H                     0.142580       0.003554
      9 H                     0.158467      -0.031242
     10 H                     0.141199      -0.028696
     11 H                     0.139919       0.008212
     12 C                    -0.131376      -0.229363
     13 H                     0.148803       0.014334
  --------------------------------------------------------
  Sum of atomic charges =     0.000000
  Sum of spin   charges =     1.000000

 -----------------------------------------------------------------
                    Cartesian Multipole Moments
 -----------------------------------------------------------------
    Charge (ESU x 10^10)
                 0.0000
    Dipole Moment (Debye)
         X      -0.6676      Y      -2.5032      Z       0.7451
       Tot       2.6957
    Quadrupole Moments (Debye-Ang)
        XX     -38.2502     XY      -3.2731     YY     -42.3710
        XZ       1.2240     YZ       0.9192     ZZ     -40.3866
    Octopole Moments (Debye-Ang^2)
       XXX      -1.6254    XXY      -6.3659    XYY     -10.0856
       YYY     -30.0013    XXZ       2.5277    XYZ       0.9040
       YYZ       6.2622    XZZ      -8.7834    YZZ      -8.3461
       ZZZ      11.3510
    Hexadecapole Moments (Debye-Ang^3)
      XXXX    -243.2097   XXXY      -4.5205   XXYY     -82.9323
      XYYY     -18.3267   YYYY    -252.3246   XXXZ      25.8785
      XXYZ      10.2847   XYYZ      12.7394   YYYZ      23.1824
      XXZZ     -71.8179   XYZZ      -3.2937   YYZZ     -68.2198
      XZZZ      24.3041   YZZZ      16.7071   ZZZZ    -182.5615
 -----------------------------------------------------------------
Archival summary:
1\1\c8-66\TS\ProcedureUnspecified\6-31G*\166(2)\hpark21\ThuMar317:51:222022ThuMar317:51:222022\0\\#,TS,ProcedureUnspecified,6-31G*,\\0,2\N\C,1,1.28021\H,2,1.08887,1,122.122\C,1,1.50166,2,105.361,3,-174.623,0\H,4,1.08954,1,112.083,2,-159.213,0\C,2,1.50977,1,113.177,3,176.474,0\H,6,1.08783,2,120.854,1,162.746,0\C,6,1.49537,2,102.113,1,24.9929,0\H,8,1.08004,6,131.184,2,148.424,0\C,4,1.52407,1,108.072,2,68.5956,0\H,10,1.08106,4,130.951,1,104.147,0\C,10,1.40096,4,98.5203,1,-80.5454,0\H,12,1.08764,10,127.584,4,-161.738,0\\\@

 Total job time:  140.82s(wall), 528.50s(cpu) 
 Thu Mar  3 17:51:22 2022

        *************************************************************
        *                                                           *
        *  Thank you very much for using Q-Chem.  Have a nice day.  *
        *                                                           *
        *************************************************************


