13   
Frame   0 IRC: Energy =  -286.8970570000 ; +0.0000 kcal/mol
C       -0.1088810000   -0.2557820000    0.0000000000
C       -0.0728010000    0.7561940000   -0.0000000000
C       -0.0127660000   -0.0753730000   -0.0000000000
C       -0.1560600000    0.0245120000    0.0000000000
C       -0.2167420000   -0.0607280000   -0.0000000000
N       -0.1752580000    0.5193700000    0.0000000000
H        0.1306760000    0.0073660000    0.0000000000
H        0.1360730000   -0.0324590000   -0.0000000000
H        0.1464200000    0.0280760000   -0.0000000000
H        0.1277410000    0.0065420000    0.0000000000
H        0.1487150000    0.0280370000   -0.0000000000
C       -0.0781890000    0.0509350000    0.0000000000
H        0.1310720000    0.0033120000    0.0000000000
13   
Frame   1 IRC: Energy =  -286.8969730000 ; +0.0527 kcal/mol
C       -0.1036620000   -0.2561770000    0.0000000000
C       -0.0791550000    0.7563550000   -0.0000000000
C       -0.0065410000   -0.0773050000   -0.0000000000
C       -0.1562870000    0.0227830000    0.0000000000
C       -0.2224790000   -0.0599230000   -0.0000000000
N       -0.1740960000    0.5202220000    0.0000000000
H        0.1306640000    0.0073590000    0.0000000000
H        0.1361010000   -0.0325170000   -0.0000000000
H        0.1465900000    0.0288050000   -0.0000000000
H        0.1277060000    0.0062820000    0.0000000000
H        0.1491610000    0.0271670000   -0.0000000000
C       -0.0790830000    0.0535210000    0.0000000000
H        0.1310820000    0.0034270000    0.0000000000
13   
Frame   2 IRC: Energy =  -286.8969700000 ; +0.0546 kcal/mol
C       -0.1037720000   -0.2562960000    0.0000000000
C       -0.0791620000    0.7557670000   -0.0000000000
C       -0.0060420000   -0.0772090000   -0.0000000000
C       -0.1566080000    0.0226610000    0.0000000000
C       -0.2227820000   -0.0599970000   -0.0000000000
N       -0.1740170000    0.5209950000    0.0000000000
H        0.1306720000    0.0073660000    0.0000000000
H        0.1361150000   -0.0324940000   -0.0000000000
H        0.1465710000    0.0288250000   -0.0000000000
H        0.1277150000    0.0062570000    0.0000000000
H        0.1491830000    0.0271740000   -0.0000000000
C       -0.0789750000    0.0535350000    0.0000000000
H        0.1311020000    0.0034160000    0.0000000000
13   
Frame   3 IRC: Energy =  -286.8969480000 ; +0.0684 kcal/mol
C       -0.1027560000   -0.2562080000    0.0000000000
C       -0.0802430000    0.7566080000   -0.0000000000
C       -0.0056890000   -0.0776740000   -0.0000000000
C       -0.1562560000    0.0225610000    0.0000000000
C       -0.2232970000   -0.0597340000   -0.0000000000
N       -0.1739210000    0.5200400000    0.0000000000
H        0.1306620000    0.0073580000    0.0000000000
H        0.1361160000   -0.0325360000   -0.0000000000
H        0.1466290000    0.0289230000   -0.0000000000
H        0.1276980000    0.0062470000    0.0000000000
H        0.1492230000    0.0270190000   -0.0000000000
C       -0.0792390000    0.0539450000    0.0000000000
H        0.1310730000    0.0034510000    0.0000000000
13   
Frame   4 IRC: Energy =  -286.8969420000 ; +0.0722 kcal/mol
C       -0.1028040000   -0.2563420000    0.0000000000
C       -0.0803370000    0.7560040000   -0.0000000000
C       -0.0050560000   -0.0775800000   -0.0000000000
C       -0.1565960000    0.0223890000    0.0000000000
C       -0.2237850000   -0.0598000000   -0.0000000000
N       -0.1738330000    0.5208880000    0.0000000000
H        0.1306690000    0.0073650000    0.0000000000
H        0.1361320000   -0.0325140000   -0.0000000000
H        0.1466090000    0.0289440000   -0.0000000000
H        0.1277120000    0.0062160000    0.0000000000
H        0.1492520000    0.0270100000   -0.0000000000
C       -0.0790650000    0.0539780000    0.0000000000
H        0.1311030000    0.0034410000    0.0000000000
13   
Frame   5 IRC: Energy =  -286.8969290000 ; +0.0803 kcal/mol
C       -0.1021430000   -0.2562340000    0.0000000000
C       -0.0809900000    0.7567270000   -0.0000000000
C       -0.0050760000   -0.0779110000   -0.0000000000
C       -0.1562600000    0.0224040000    0.0000000000
C       -0.2238900000   -0.0596100000   -0.0000000000
N       -0.1737980000    0.5199680000    0.0000000000
H        0.1306620000    0.0073580000    0.0000000000
H        0.1361250000   -0.0325470000   -0.0000000000
H        0.1466560000    0.0290030000   -0.0000000000
H        0.1276920000    0.0062220000    0.0000000000
H        0.1492640000    0.0269220000   -0.0000000000
C       -0.0793090000    0.0542310000    0.0000000000
H        0.1310660000    0.0034670000    0.0000000000
13   
Frame   6 IRC: Energy =  -286.8969210000 ; +0.0853 kcal/mol
C       -0.1020940000   -0.2563700000    0.0000000000
C       -0.0812030000    0.7561140000   -0.0000000000
C       -0.0042940000   -0.0778240000   -0.0000000000
C       -0.1566330000    0.0221930000    0.0000000000
C       -0.2245550000   -0.0596700000   -0.0000000000
N       -0.1736940000    0.5208520000    0.0000000000
H        0.1306690000    0.0073650000    0.0000000000
H        0.1361370000   -0.0325250000   -0.0000000000
H        0.1466370000    0.0290280000   -0.0000000000
H        0.1277050000    0.0061860000    0.0000000000
H        0.1492980000    0.0269010000   -0.0000000000
C       -0.0790720000    0.0542910000    0.0000000000
H        0.1310990000    0.0034580000    0.0000000000
13   
Frame   7 IRC: Energy =  -286.8968960000 ; +0.1010 kcal/mol
C       -0.1013120000   -0.2563210000    0.0000000000
C       -0.0820390000    0.7568210000   -0.0000000000
C       -0.0040900000   -0.0782300000   -0.0000000000
C       -0.1563650000    0.0221110000    0.0000000000
C       -0.2248610000   -0.0594290000   -0.0000000000
N       -0.1736010000    0.5200490000    0.0000000000
H        0.1306650000    0.0073610000    0.0000000000
H        0.1361660000   -0.0325630000   -0.0000000000
H        0.1466920000    0.0291120000   -0.0000000000
H        0.1276920000    0.0061780000    0.0000000000
H        0.1493300000    0.0267670000   -0.0000000000
C       -0.0793470000    0.0546550000    0.0000000000
H        0.1310700000    0.0034890000    0.0000000000
13   
Frame   8 IRC: Energy =  -286.8968880000 ; +0.1060 kcal/mol
C       -0.1013320000   -0.2564750000    0.0000000000
C       -0.0821660000    0.7563560000   -0.0000000000
C       -0.0033110000   -0.0781620000   -0.0000000000
C       -0.1568560000    0.0219170000    0.0000000000
C       -0.2254810000   -0.0594870000   -0.0000000000
N       -0.1734780000    0.5208180000    0.0000000000
H        0.1306710000    0.0073690000    0.0000000000
H        0.1362010000   -0.0325480000   -0.0000000000
H        0.1466710000    0.0291420000   -0.0000000000
H        0.1277060000    0.0061370000    0.0000000000
H        0.1493590000    0.0267540000   -0.0000000000
C       -0.0790910000    0.0546990000    0.0000000000
H        0.1311070000    0.0034800000    0.0000000000
13   
Frame   9 IRC: Energy =  -286.8968800000 ; +0.1111 kcal/mol
C       -0.1014230000   -0.2566200000    0.0000000000
C       -0.0821690000    0.7557710000   -0.0000000000
C       -0.0025210000   -0.0780490000   -0.0000000000
C       -0.1575780000    0.0217740000    0.0000000000
C       -0.2258220000   -0.0596140000   -0.0000000000
N       -0.1733320000    0.5216470000    0.0000000000
H        0.1306790000    0.0073770000    0.0000000000
H        0.1362270000   -0.0325250000   -0.0000000000
H        0.1466510000    0.0291800000   -0.0000000000
H        0.1277050000    0.0060890000    0.0000000000
H        0.1493830000    0.0267920000   -0.0000000000
C       -0.0789300000    0.0547210000    0.0000000000
H        0.1311290000    0.0034580000    0.0000000000
13   
Frame  10 IRC: Energy =  -286.8966200000 ; +0.2742 kcal/mol
C       -0.0948090000   -0.2565410000    0.0000000000
C       -0.0898470000    0.7574530000   -0.0000000000
C        0.0045650000   -0.0798520000   -0.0000000000
C       -0.1594270000    0.0197850000    0.0000000000
C       -0.2334620000   -0.0584450000   -0.0000000000
N       -0.1725530000    0.5198460000    0.0000000000
H        0.1306980000    0.0073870000    0.0000000000
H        0.1363870000   -0.0326970000   -0.0000000000
H        0.1472180000    0.0297930000   -0.0000000000
H        0.1277340000    0.0058420000    0.0000000000
H        0.1494640000    0.0258860000   -0.0000000000
C       -0.0769300000    0.0578910000    0.0000000000
H        0.1309610000    0.0036520000    0.0000000000
13   
Frame  11 IRC: Energy =  -286.8966010000 ; +0.2861 kcal/mol
C       -0.0946610000   -0.2567180000    0.0000000000
C       -0.0901620000    0.7568260000   -0.0000000000
C        0.0057770000   -0.0797020000   -0.0000000000
C       -0.1604110000    0.0194600000    0.0000000000
C       -0.2345570000   -0.0585650000   -0.0000000000
N       -0.1723560000    0.5208740000    0.0000000000
H        0.1307100000    0.0074000000    0.0000000000
H        0.1364180000   -0.0326780000   -0.0000000000
H        0.1472130000    0.0298290000   -0.0000000000
H        0.1277600000    0.0057730000    0.0000000000
H        0.1494870000    0.0258960000   -0.0000000000
C       -0.0762520000    0.0579680000    0.0000000000
H        0.1310340000    0.0036370000    0.0000000000
13   
Frame  12 IRC: Energy =  -286.8965140000 ; +0.3407 kcal/mol
C       -0.0929090000   -0.2565520000    0.0000000000
C       -0.0921050000    0.7579240000   -0.0000000000
C        0.0069500000   -0.0803480000   -0.0000000000
C       -0.1603660000    0.0191780000    0.0000000000
C       -0.2358450000   -0.0580880000   -0.0000000000
N       -0.1722900000    0.5193470000    0.0000000000
H        0.1307090000    0.0073980000    0.0000000000
H        0.1364680000   -0.0327540000   -0.0000000000
H        0.1473860000    0.0299820000   -0.0000000000
H        0.1277400000    0.0057530000    0.0000000000
H        0.1494780000    0.0256280000   -0.0000000000
C       -0.0761220000    0.0588290000    0.0000000000
H        0.1309060000    0.0037030000    0.0000000000
13   
Frame  13 IRC: Energy =  -286.8964820000 ; +0.3608 kcal/mol
C       -0.0925630000   -0.2567470000    0.0000000000
C       -0.0926670000    0.7574130000   -0.0000000000
C        0.0084450000   -0.0802120000   -0.0000000000
C       -0.1615280000    0.0187500000    0.0000000000
C       -0.2373590000   -0.0581800000   -0.0000000000
N       -0.1720500000    0.5203330000    0.0000000000
H        0.1307250000    0.0074130000    0.0000000000
H        0.1365100000   -0.0327440000   -0.0000000000
H        0.1474000000    0.0300230000   -0.0000000000
H        0.1277800000    0.0056710000    0.0000000000
H        0.1494990000    0.0256130000   -0.0000000000
C       -0.0751890000    0.0589750000    0.0000000000
H        0.1309980000    0.0036920000    0.0000000000
13   
Frame  14 IRC: Energy =  -286.8964110000 ; +0.4054 kcal/mol
C       -0.0912540000   -0.2565640000    0.0000000000
C       -0.0940800000    0.7583450000   -0.0000000000
C        0.0091220000   -0.0807550000   -0.0000000000
C       -0.1613100000    0.0186280000    0.0000000000
C       -0.2380250000   -0.0577700000   -0.0000000000
N       -0.1720660000    0.5189020000    0.0000000000
H        0.1307200000    0.0074090000    0.0000000000
H        0.1365490000   -0.0328070000   -0.0000000000
H        0.1475380000    0.0301430000   -0.0000000000
H        0.1277480000    0.0056720000    0.0000000000
H        0.1494800000    0.0254030000   -0.0000000000
C       -0.0752790000    0.0596480000    0.0000000000
H        0.1308570000    0.0037450000    0.0000000000
13   
Frame  15 IRC: Energy =  -286.8963650000 ; +0.4342 kcal/mol
C       -0.0907000000   -0.2567710000    0.0000000000
C       -0.0949000000    0.7579970000   -0.0000000000
C        0.0109180000   -0.0806410000   -0.0000000000
C       -0.1627010000    0.0181040000    0.0000000000
C       -0.2399560000   -0.0578330000   -0.0000000000
N       -0.1717670000    0.5197710000    0.0000000000
H        0.1307400000    0.0074270000    0.0000000000
H        0.1366020000   -0.0328080000   -0.0000000000
H        0.1475750000    0.0301910000   -0.0000000000
H        0.1277990000    0.0055770000    0.0000000000
H        0.1494970000    0.0253680000   -0.0000000000
C       -0.0740730000    0.0598780000    0.0000000000
H        0.1309660000    0.0037390000    0.0000000000
13   
Frame  16 IRC: Energy =  -286.8962930000 ; +0.4794 kcal/mol
C       -0.0895350000   -0.2565760000    0.0000000000
C       -0.0961350000    0.7588150000   -0.0000000000
C        0.0114540000   -0.0811530000   -0.0000000000
C       -0.1624110000    0.0180390000    0.0000000000
C       -0.2403880000   -0.0574340000   -0.0000000000
N       -0.1718380000    0.5184090000    0.0000000000
H        0.1307330000    0.0074230000    0.0000000000
H        0.1366410000   -0.0328670000   -0.0000000000
H        0.1477010000    0.0303040000   -0.0000000000
H        0.1277590000    0.0055850000    0.0000000000
H        0.1494730000    0.0251670000   -0.0000000000
C       -0.0742600000    0.0604990000    0.0000000000
H        0.1308060000    0.0037890000    0.0000000000
13   
Frame  17 IRC: Energy =  -286.8962300000 ; +0.5190 kcal/mol
C       -0.0887740000   -0.2567970000    0.0000000000
C       -0.0972220000    0.7586930000   -0.0000000000
C        0.0135720000   -0.0810580000   -0.0000000000
C       -0.1640950000    0.0174180000    0.0000000000
C       -0.2427630000   -0.0574680000   -0.0000000000
N       -0.1714600000    0.5190870000    0.0000000000
H        0.1307590000    0.0074440000    0.0000000000
H        0.1367080000   -0.0328820000   -0.0000000000
H        0.1477670000    0.0303600000   -0.0000000000
H        0.1278230000    0.0054780000    0.0000000000
H        0.1494820000    0.0251180000   -0.0000000000
C       -0.0727340000    0.0608200000    0.0000000000
H        0.1309370000    0.0037870000    0.0000000000
13   
Frame  18 IRC: Energy =  -286.8961500000 ; +0.5692 kcal/mol
C       -0.0876640000   -0.2565890000    0.0000000000
C       -0.0983720000    0.7593970000   -0.0000000000
C        0.0140630000   -0.0815620000   -0.0000000000
C       -0.1637570000    0.0173800000    0.0000000000
C       -0.2430750000   -0.0570560000   -0.0000000000
N       -0.1715910000    0.5178000000    0.0000000000
H        0.1307510000    0.0074420000    0.0000000000
H        0.1367550000   -0.0329410000   -0.0000000000
H        0.1478850000    0.0304740000   -0.0000000000
H        0.1277730000    0.0054880000    0.0000000000
H        0.1494530000    0.0249100000   -0.0000000000
C       -0.0729710000    0.0614230000    0.0000000000
H        0.1307490000    0.0038350000    0.0000000000
13   
Frame  19 IRC: Energy =  -286.8960680000 ; +0.6206 kcal/mol
C       -0.0866900000   -0.2568250000    0.0000000000
C       -0.0997490000    0.7595830000   -0.0000000000
C        0.0165500000   -0.0814840000   -0.0000000000
C       -0.1658380000    0.0166630000    0.0000000000
C       -0.2459470000   -0.0570640000   -0.0000000000
N       -0.1711010000    0.5181870000    0.0000000000
H        0.1307800000    0.0074660000    0.0000000000
H        0.1368370000   -0.0329720000   -0.0000000000
H        0.1479890000    0.0305370000   -0.0000000000
H        0.1278510000    0.0053710000    0.0000000000
H        0.1494540000    0.0248520000   -0.0000000000
C       -0.0710570000    0.0618440000    0.0000000000
H        0.1309220000    0.0038420000    0.0000000000
13   
Frame  20 IRC: Energy =  -286.8959740000 ; +0.6796 kcal/mol
C       -0.0855510000   -0.2566100000    0.0000000000
C       -0.1008990000    0.7601820000   -0.0000000000
C        0.0169650000   -0.0819720000   -0.0000000000
C       -0.1653600000    0.0166530000    0.0000000000
C       -0.2461760000   -0.0566250000   -0.0000000000
N       -0.1713090000    0.5170250000    0.0000000000
H        0.1307980000    0.0074640000    0.0000000000
H        0.1368810000   -0.0330370000   -0.0000000000
H        0.1480900000    0.0306420000   -0.0000000000
H        0.1277770000    0.0053750000    0.0000000000
H        0.1494230000    0.0246310000   -0.0000000000
C       -0.0713020000    0.0623870000    0.0000000000
H        0.1306640000    0.0038850000    0.0000000000
13   
Frame  21 IRC: Energy =  -286.8952460000 ; +1.1364 kcal/mol
C       -0.0789920000   -0.2563560000    0.0000000000
C       -0.1074250000    0.7595570000   -0.0000000000
C        0.0288650000   -0.0831040000   -0.0000000000
C       -0.1717960000    0.0135760000    0.0000000000
C       -0.2588970000   -0.0549380000   -0.0000000000
N       -0.1706360000    0.5167770000    0.0000000000
H        0.1310020000    0.0075740000    0.0000000000
H        0.1373420000   -0.0331430000   -0.0000000000
H        0.1487870000    0.0310680000   -0.0000000000
H        0.1279000000    0.0049120000    0.0000000000
H        0.1492650000    0.0235110000   -0.0000000000
C       -0.0658450000    0.0664790000    0.0000000000
H        0.1304310000    0.0040870000    0.0000000000
13   
Frame  22 IRC: Energy =  -286.8951820000 ; +1.1766 kcal/mol
C       -0.0784780000   -0.2564470000    0.0000000000
C       -0.1078490000    0.7594840000   -0.0000000000
C        0.0301080000   -0.0830920000   -0.0000000000
C       -0.1730760000    0.0131830000    0.0000000000
C       -0.2594350000   -0.0549620000   -0.0000000000
N       -0.1704600000    0.5169320000    0.0000000000
H        0.1310300000    0.0075880000    0.0000000000
H        0.1373780000   -0.0331450000   -0.0000000000
H        0.1488460000    0.0310900000   -0.0000000000
H        0.1278690000    0.0048460000    0.0000000000
H        0.1492820000    0.0234910000   -0.0000000000
C       -0.0656280000    0.0669770000    0.0000000000
H        0.1304130000    0.0040550000    0.0000000000
13   
Frame  23 IRC: Energy =  -286.8942590000 ; +1.7558 kcal/mol
C       -0.0750570000   -0.2557410000    0.0000000000
C       -0.1103050000    0.7557790000   -0.0000000000
C        0.0361950000   -0.0840740000   -0.0000000000
C       -0.1752160000    0.0115050000    0.0000000000
C       -0.2659350000   -0.0531420000   -0.0000000000
N       -0.1711320000    0.5185000000    0.0000000000
H        0.1312580000    0.0077100000    0.0000000000
H        0.1377190000   -0.0330170000   -0.0000000000
H        0.1492910000    0.0311840000   -0.0000000000
H        0.1279730000    0.0045610000    0.0000000000
H        0.1490650000    0.0224770000   -0.0000000000
C       -0.0640820000    0.0699040000    0.0000000000
H        0.1302260000    0.0043550000    0.0000000000
13   
Frame  24 IRC: Energy =  -286.8940320000 ; +1.8982 kcal/mol
C       -0.0743410000   -0.2557090000    0.0000000000
C       -0.1106160000    0.7547930000   -0.0000000000
C        0.0378930000   -0.0840930000   -0.0000000000
C       -0.1769920000    0.0108110000    0.0000000000
C       -0.2663540000   -0.0530280000   -0.0000000000
N       -0.1711170000    0.5191870000    0.0000000000
H        0.1313190000    0.0077460000    0.0000000000
H        0.1377980000   -0.0329750000   -0.0000000000
H        0.1494090000    0.0311760000   -0.0000000000
H        0.1279260000    0.0044560000    0.0000000000
H        0.1490740000    0.0223500000   -0.0000000000
C       -0.0642020000    0.0709530000    0.0000000000
H        0.1302010000    0.0043340000    0.0000000000
13   
Frame  25 IRC: Energy =  -286.8933380000 ; +2.3337 kcal/mol
C       -0.0733020000   -0.2552660000    0.0000000000
C       -0.1111920000    0.7520990000   -0.0000000000
C        0.0400070000   -0.0845700000   -0.0000000000
C       -0.1771920000    0.0104070000    0.0000000000
C       -0.2688000000   -0.0520500000   -0.0000000000
N       -0.1718540000    0.5204170000    0.0000000000
H        0.1314580000    0.0078260000    0.0000000000
H        0.1379660000   -0.0328540000   -0.0000000000
H        0.1495890000    0.0311580000   -0.0000000000
H        0.1280320000    0.0043510000    0.0000000000
H        0.1489370000    0.0218280000   -0.0000000000
C       -0.0639210000    0.0720770000    0.0000000000
H        0.1302700000    0.0045750000    0.0000000000
13   
Frame  26 IRC: Energy =  -286.8928510000 ; +2.6393 kcal/mol
C       -0.0726870000   -0.2551360000    0.0000000000
C       -0.1110460000    0.7498520000   -0.0000000000
C        0.0416350000   -0.0845420000   -0.0000000000
C       -0.1794220000    0.0094870000    0.0000000000
C       -0.2683580000   -0.0518570000   -0.0000000000
N       -0.1721340000    0.5220180000    0.0000000000
H        0.1315630000    0.0078960000    0.0000000000
H        0.1380910000   -0.0327480000   -0.0000000000
H        0.1497610000    0.0310890000   -0.0000000000
H        0.1279820000    0.0042050000    0.0000000000
H        0.1489430000    0.0216010000   -0.0000000000
C       -0.0646660000    0.0735590000    0.0000000000
H        0.1303380000    0.0045770000    0.0000000000
13   
Frame  27 IRC: Energy =  -286.8919400000 ; +3.2110 kcal/mol
C       -0.0720460000   -0.2545840000    0.0000000000
C       -0.1115950000    0.7467260000   -0.0000000000
C        0.0441850000   -0.0850130000   -0.0000000000
C       -0.1794270000    0.0094250000    0.0000000000
C       -0.2706830000   -0.0509770000   -0.0000000000
N       -0.1729130000    0.5230740000    0.0000000000
H        0.1316960000    0.0079730000    0.0000000000
H        0.1382430000   -0.0325890000   -0.0000000000
H        0.1499150000    0.0310410000   -0.0000000000
H        0.1281110000    0.0041680000    0.0000000000
H        0.1488170000    0.0211400000   -0.0000000000
C       -0.0648840000    0.0746960000    0.0000000000
H        0.1305820000    0.0049190000    0.0000000000
13   
Frame  28 IRC: Energy =  -286.8892450000 ; +4.9021 kcal/mol
C       -0.0732470000   -0.2542990000    0.0000000000
C       -0.1091980000    0.7376480000   -0.0000000000
C        0.0452740000   -0.0847780000   -0.0000000000
C       -0.1835830000    0.0075130000    0.0000000000
C       -0.2648160000   -0.0501980000   -0.0000000000
N       -0.1748680000    0.5295880000    0.0000000000
H        0.1325400000    0.0083060000    0.0000000000
H        0.1386380000   -0.0321740000   -0.0000000000
H        0.1503170000    0.0303940000   -0.0000000000
H        0.1281170000    0.0038680000    0.0000000000
H        0.1487290000    0.0201130000   -0.0000000000
C       -0.0697200000    0.0786550000    0.0000000000
H        0.1318160000    0.0053640000    0.0000000000
13   
Frame  29 IRC: Energy =  -286.8854330000 ; +7.2942 kcal/mol
C       -0.0737710000   -0.2527920000    0.0000000000
C       -0.1101340000    0.7270130000   -0.0000000000
C        0.0527480000   -0.0847320000   -0.0000000000
C       -0.1892130000    0.0056320000    0.0000000000
C       -0.2594920000   -0.0508210000   -0.0000000000
N       -0.1764090000    0.5327910000    0.0000000000
H        0.1333180000    0.0085000000    0.0000000000
H        0.1389150000   -0.0316860000   -0.0000000000
H        0.1508240000    0.0297330000   -0.0000000000
H        0.1282780000    0.0040730000    0.0000000000
H        0.1487600000    0.0191670000   -0.0000000000
C       -0.0781680000    0.0866620000    0.0000000000
H        0.1343450000    0.0064610000    0.0000000000
13   
Frame  30 IRC: Energy =  -286.8803320000 ; +10.4951 kcal/mol
C       -0.0707370000   -0.2490870000   -0.0000000000
C       -0.1181850000    0.7124480000   -0.0000000000
C        0.0740750000   -0.0850220000   -0.0000000000
C       -0.1961610000    0.0019720000    0.0000000000
C       -0.2593740000   -0.0553320000   -0.0000000000
N       -0.1763240000    0.5298240000    0.0000000000
H        0.1338530000    0.0083630000    0.0000000000
H        0.1392060000   -0.0309850000   -0.0000000000
H        0.1514400000    0.0292470000   -0.0000000000
H        0.1282980000    0.0050860000    0.0000000000
H        0.1493710000    0.0187790000   -0.0000000000
C       -0.0921760000    0.1064440000    0.0000000000
H        0.1367130000    0.0082640000    0.0000000000
13   
Frame  31 IRC: Energy =  -286.8736940000 ; +14.6605 kcal/mol
C       -0.0641120000   -0.2427970000   -0.0000000000
C       -0.1346670000    0.6870690000   -0.0000000000
C        0.1091680000   -0.0843680000   -0.0000000000
C       -0.1994980000   -0.0057760000    0.0000000000
C       -0.2679130000   -0.0686530000   -0.0000000000
N       -0.1743380000    0.5212490000    0.0000000000
H        0.1342120000    0.0079500000    0.0000000000
H        0.1395240000   -0.0297580000   -0.0000000000
H        0.1521470000    0.0286970000   -0.0000000000
H        0.1283050000    0.0074640000    0.0000000000
H        0.1509250000    0.0192020000   -0.0000000000
C       -0.1120260000    0.1488820000    0.0000000000
H        0.1382730000    0.0108410000    0.0000000000
13   
Frame  32 IRC: Energy =  -286.8660180000 ; +19.4773 kcal/mol
C       -0.0552250000   -0.2332650000   -0.0000000000
C       -0.1584950000    0.6421890000   -0.0000000000
C        0.1527580000   -0.0799280000   -0.0000000000
C       -0.1975880000   -0.0217830000    0.0000000000
C       -0.2832610000   -0.0988860000   -0.0000000000
N       -0.1711550000    0.5051930000    0.0000000000
H        0.1343900000    0.0074180000    0.0000000000
H        0.1397110000   -0.0276060000   -0.0000000000
H        0.1531450000    0.0274740000   -0.0000000000
H        0.1287450000    0.0120700000    0.0000000000
H        0.1534670000    0.0206470000   -0.0000000000
C       -0.1358830000    0.2323920000    0.0000000000
H        0.1393920000    0.0140840000    0.0000000000
13   
Frame  33 IRC: Energy =  -286.8586560000 ; +24.0970 kcal/mol
C       -0.0468590000   -0.2186370000   -0.0000000000
C       -0.1865330000    0.5672120000   -0.0000000000
C        0.1949120000   -0.0678920000   -0.0000000000
C       -0.1906220000   -0.0512870000    0.0000000000
C       -0.2974870000   -0.1510480000   -0.0000000000
N       -0.1688440000    0.4732790000    0.0000000000
H        0.1341410000    0.0068220000    0.0000000000
H        0.1394330000   -0.0240270000   -0.0000000000
H        0.1548170000    0.0246270000   -0.0000000000
H        0.1303930000    0.0202610000    0.0000000000
H        0.1565310000    0.0228890000   -0.0000000000
C       -0.1604540000    0.3805010000    0.0000000000
H        0.1405710000    0.0173000000    0.0000000000
13   
Frame  34 IRC: Energy =  -286.8535930000 ; +27.2741 kcal/mol
C       -0.0432040000   -0.1916470000   -0.0000000000
C       -0.2121290000    0.4508280000   -0.0000000000
C        0.2214740000   -0.0461620000   -0.0000000000
C       -0.1824580000   -0.0952050000    0.0000000000
C       -0.2993610000   -0.1991750000   -0.0000000000
N       -0.1691480000    0.4099500000    0.0000000000
H        0.1333550000    0.0058810000    0.0000000000
H        0.1383750000   -0.0185330000   -0.0000000000
H        0.1571970000    0.0194250000   -0.0000000000
H        0.1340520000    0.0325300000    0.0000000000
H        0.1585500000    0.0242070000   -0.0000000000
C       -0.1786550000    0.5894040000    0.0000000000
H        0.1419520000    0.0184960000    0.0000000000
13   
Frame  35 IRC: Energy =  -286.8520210000 ; +28.2605 kcal/mol (Transition State)
C       -0.0440230000   -0.1533320000   -0.0000000000
C       -0.2274990000    0.3299090000   -0.0000000000
C        0.2272880000   -0.0245930000   -0.0000000000
C       -0.1766850000   -0.1397080000    0.0000000000
C       -0.2862100000   -0.1942980000   -0.0000000000
N       -0.1727380000    0.3175100000    0.0000000000
H        0.1323080000    0.0044740000    0.0000000000
H        0.1370520000   -0.0128700000   -0.0000000000
H        0.1596820000    0.0134620000   -0.0000000000
H        0.1382500000    0.0449280000    0.0000000000
H        0.1581030000    0.0211980000   -0.0000000000
C       -0.1894650000    0.7775490000    0.0000000000
H        0.1439360000    0.0157730000    0.0000000000
13   
Frame  36 IRC: Energy =  -286.8530110000 ; +27.6393 kcal/mol
C       -0.0481100000   -0.1116100000   -0.0000000000
C       -0.2321420000    0.2255400000   -0.0000000000
C        0.2173600000   -0.0060330000   -0.0000000000
C       -0.1718070000   -0.1788170000    0.0000000000
C       -0.2636850000   -0.1458520000   -0.0000000000
N       -0.1767750000    0.2198350000    0.0000000000
H        0.1315100000    0.0028410000    0.0000000000
H        0.1359930000   -0.0080310000   -0.0000000000
H        0.1613340000    0.0082820000   -0.0000000000
H        0.1416470000    0.0551390000    0.0000000000
H        0.1552930000    0.0153790000   -0.0000000000
C       -0.1970060000    0.9132650000    0.0000000000
H        0.1463880000    0.0100620000    0.0000000000
13   
Frame  37 IRC: Energy =  -286.8548450000 ; +26.4885 kcal/mol
C       -0.0506140000   -0.0846110000   -0.0000000000
C       -0.2318310000    0.1669410000   -0.0000000000
C        0.2051990000    0.0087220000   -0.0000000000
C       -0.1699790000   -0.2069020000    0.0000000000
C       -0.2452370000   -0.1049960000   -0.0000000000
N       -0.1803470000    0.1532060000    0.0000000000
H        0.1311320000    0.0017720000    0.0000000000
H        0.1356200000   -0.0053620000   -0.0000000000
H        0.1626420000    0.0049060000   -0.0000000000
H        0.1434160000    0.0611820000    0.0000000000
H        0.1527140000    0.0104320000   -0.0000000000
C       -0.2025900000    0.9902930000    0.0000000000
H        0.1498760000    0.0044170000    0.0000000000
13   
Frame  38 IRC: Energy =  -286.8554350000 ; +26.1182 kcal/mol
C       -0.0526730000   -0.0748940000   -0.0000000000
C       -0.2301790000    0.1466180000   -0.0000000000
C        0.1989310000    0.0139890000   -0.0000000000
C       -0.1682790000   -0.2153080000    0.0000000000
C       -0.2372400000   -0.0903840000   -0.0000000000
N       -0.1812490000    0.1338540000    0.0000000000
H        0.1312250000    0.0013930000    0.0000000000
H        0.1354470000   -0.0044640000   -0.0000000000
H        0.1625150000    0.0039480000   -0.0000000000
H        0.1438130000    0.0632840000    0.0000000000
H        0.1513660000    0.0090820000   -0.0000000000
C       -0.2042230000    1.0101930000    0.0000000000
H        0.1505450000    0.0026910000    0.0000000000
13   