13   
Frame   0 IRC: Energy =  -286.8970570000 ; +0.0000 kcal/mol
C        1.7735676198    0.1350505132    0.0878038119
C        1.0421577649   -0.8386349613   -0.6136452867
C       -0.3618803047   -0.3521262617   -0.7605280900
C       -1.3468850307   -0.7167652232    0.3648938411
C       -0.2674630749    1.0472879030   -0.0317410982
N        1.0985956682    1.2244069860    0.4464801005
H        2.8210631307    0.0390106201    0.3661366373
H        1.4276701454   -1.7932011312   -0.9537925776
H       -0.7610042541   -0.3949112979   -1.7819458922
H       -1.8996588884   -1.6310841757    0.5624265836
H       -0.6132879394    1.9347590990   -0.5743587520
C       -1.2483240624    0.4648441727    0.9884336031
H       -1.6645507746    0.8813637573    1.8998371188
13   
Frame   1 IRC: Energy =  -286.8969730000 ; +0.0527 kcal/mol
C        1.7764888472    0.1414491950    0.0803620983
C        1.0397051295   -0.8404512117   -0.6030696848
C       -0.3619412862   -0.3492374751   -0.7624665659
C       -1.3521729955   -0.7161756928    0.3550091377
C       -0.2662827098    1.0478182114   -0.0301585794
N        1.1034089866    1.2341107792    0.4324757720
H        2.8266618614    0.0499945105    0.3493148194
H        1.4158087904   -1.8097198116   -0.9111042390
H       -0.7489640823   -0.3875314466   -1.7889222127
H       -1.9158910369   -1.6261679262    0.5397904280
H       -0.6260349212    1.9340041873   -0.5654810963
C       -1.2411248602    0.4574266833    0.9925341022
H       -1.6496617230    0.8644799973    1.9117160203
13   
Frame   2 IRC: Energy =  -286.8969700000 ; +0.0546 kcal/mol
C        1.7765200324    0.1413415521    0.0801635315
C        1.0398208631   -0.8404599665   -0.6028876792
C       -0.3620651941   -0.3491324619   -0.7621711482
C       -1.3521722233   -0.7163785051    0.3546043892
C       -0.2663864278    1.0477122640   -0.0300856175
N        1.1034467667    1.2343893657    0.4323311006
H        2.8267367636    0.0501644765    0.3490761840
H        1.4156273037   -1.8099427073   -0.9104830765
H       -0.7488444133   -0.3874378470   -1.7891653801
H       -1.9161443188   -1.6261150209    0.5394855307
H       -0.6262140535    1.9340067555   -0.5653471082
C       -1.2408077344    0.4575752331    0.9924626774
H       -1.6495173644    0.8642768618    1.9120165962
13   
Frame   3 IRC: Energy =  -286.8969480000 ; +0.0684 kcal/mol
C        1.7769648181    0.1425400159    0.0791452044
C        1.0392506836   -0.8408098561   -0.6013966080
C       -0.3618442047   -0.3487677793   -0.7628972843
C       -1.3530690882   -0.7160434966    0.3535287948
C       -0.2660147335    1.0479563032   -0.0299017726
N        1.1041957608    1.2356403691    0.4301992943
H        2.8276161079    0.0517587730    0.3465107226
H        1.4137991347   -1.8123726150   -0.9040976690
H       -0.7470164193   -0.3862737266   -1.7899917532
H       -1.9183947588   -1.6253891184    0.5361415057
H       -0.6280444088    1.9339142687   -0.5640127848
C       -1.2400922023    0.4561284734    0.9932805990
H       -1.6473506896    0.8617183886    1.9134917511
13   
Frame   4 IRC: Energy =  -286.8969420000 ; +0.0722 kcal/mol
C        1.7770469915    0.1425024413    0.0788429337
C        1.0393750286   -0.8408331889   -0.6010650873
C       -0.3620270532   -0.3486144653   -0.7625901208
C       -1.3530840194   -0.7161777781    0.3529747673
C       -0.2661399490    1.0478484371   -0.0297942953
N        1.1043166127    1.2360443564    0.4298808578
H        2.8277505854    0.0520708264    0.3460330997
H        1.4134490743   -1.8128214206   -0.9029120147
H       -0.7467449022   -0.3860735023   -1.7903279453
H       -1.9188601221   -1.6253159035    0.5355581062
H       -0.6283741432    1.9339086717   -0.5637545568
C       -1.2396419779    0.4561419576    0.9931696439
H       -1.6470661253    0.8613195682    1.9139846116
13   
Frame   5 IRC: Energy =  -286.8969290000 ; +0.0803 kcal/mol
C        1.7772847357    0.1432397939    0.0783080158
C        1.0389412176   -0.8410469637   -0.6002795257
C       -0.3617839254   -0.3484474090   -0.7631596935
C       -1.3536479290   -0.7159606181    0.3525324533
C       -0.2658335154    1.0480379066   -0.0297202483
N        1.1047230513    1.2366550771    0.4286758473
H        2.8282623165    0.0529434993    0.3446110614
H        1.4124193896   -1.8141256358   -0.8993817015
H       -0.7457245533   -0.3854091837   -1.7907032523
H       -1.9200165883   -1.6248829173    0.5337171417
H       -0.6293533181    1.9338522758   -0.5630063055
C       -1.2394016496    0.4552745096    0.9937611032
H       -1.6458692315    0.8598696653    1.9146451040
13   
Frame   6 IRC: Energy =  -286.8969210000 ; +0.0853 kcal/mol
C        1.7774085780    0.1432468541    0.0779046241
C        1.0390317970   -0.8410721541   -0.5998213029
C       -0.3620096572   -0.3482481352   -0.7628422319
C       -1.3536840886   -0.7160683150    0.3518493547
C       -0.2659572017    1.0479014374   -0.0295992530
N        1.1049111595    1.2371337771    0.4281807181
H        2.8284572333    0.0533941641    0.3439239519
H        1.4119058183   -1.8147274485   -0.8976717981
H       -0.7453082841   -0.3851077988   -1.7910982847
H       -1.9206364052   -1.6247577098    0.5328813898
H       -0.6298064161    1.9338296194   -0.5626200993
C       -1.2388492675    0.4551948873    0.9936369410
H       -1.6454632657    0.8592808219    1.9152759902
13   
Frame   7 IRC: Energy =  -286.8968960000 ; +0.1010 kcal/mol
C        1.7778089261    0.1442465068    0.0769718124
C        1.0385994722   -0.8414883355   -0.5985571980
C       -0.3617389457   -0.3479237751   -0.7634750515
C       -1.3544488863   -0.7157755212    0.3509204232
C       -0.2656331058    1.0482246929   -0.0294272859
N        1.1055683110    1.2382293992    0.4263511951
H        2.8292855219    0.0548237144    0.3416098536
H        1.4102645210   -1.8170326817   -0.8920742061
H       -0.7437718975   -0.3839914988   -1.7918051204
H       -1.9224351387   -1.6241955111    0.5299914785
H       -0.6313795119    1.9338526877   -0.5614299870
C       -1.2383424287    0.4540050829    0.9944192086
H       -1.6437768375    0.8570252394    1.9165048776
13   
Frame   8 IRC: Energy =  -286.8968880000 ; +0.1060 kcal/mol
C        1.7779340743    0.1443134906    0.0766201870
C        1.0387339712   -0.8415920416   -0.5981574854
C       -0.3619401569   -0.3476895046   -0.7631501216
C       -1.3545366187   -0.7159795722    0.3502727917
C       -0.2657538479    1.0480906158   -0.0292570978
N        1.1057554796    1.2387647087    0.4259419391
H        2.8294901435    0.0552351690    0.3409484699
H        1.4098171439   -1.8177770622   -0.8905222763
H       -0.7434211656   -0.3836985765   -1.7922312828
H       -1.9229768647   -1.6240848112    0.5292089558
H       -0.6318371404    1.9339260669   -0.5611153205
C       -1.2378101719    0.4540057635    0.9942993911
H       -1.6434548464    0.8564857537    1.9171418499
13   
Frame   9 IRC: Energy =  -286.8968800000 ; +0.1111 kcal/mol
C        1.7779727541    0.1441927099    0.0764455694
C        1.0388723543   -0.8416341363   -0.5980241093
C       -0.3620656109   -0.3475012003   -0.7627252641
C       -1.3546429270   -0.7166580997    0.3497341973
C       -0.2658475376    1.0478350863   -0.0291029097
N        1.1057707138    1.2390770071    0.4258557188
H        2.8295527896    0.0553753644    0.3407367786
H        1.4096721668   -1.8180220592   -0.8900172281
H       -0.7433707620   -0.3836257490   -1.7925300748
H       -1.9230862973   -1.6239275642    0.5289531163
H       -0.6320135212    1.9340346405   -0.5610484354
C       -1.2374074606    0.4545313398    0.9942820797
H       -1.6434066619    0.8563226607    1.9174405613
13   
Frame  10 IRC: Energy =  -286.8966200000 ; +0.2742 kcal/mol
C        1.7815157496    0.1495782024    0.0673394307
C        1.0356443815   -0.8434372949   -0.5898023863
C       -0.3611474002   -0.3431533655   -0.7652093231
C       -1.3567929293   -0.7162212479    0.3420501211
C       -0.2639231269    1.0497064699   -0.0264208531
N        1.1115432247    1.2459127631    0.4142256570
H        2.8366060587    0.0641767093    0.3186873994
H        1.3928180130   -1.8353527195   -0.8437916190
H       -0.7340121634   -0.3713322834   -1.7973664936
H       -1.9276044666   -1.6248012451    0.5108735391
H       -0.6390168541    1.9364790431   -0.5495926207
C       -1.2344761529    0.4467079079    0.9969856872
H       -1.6411543340    0.8417370605    1.9220214614
13   
Frame  11 IRC: Energy =  -286.8966010000 ; +0.2861 kcal/mol
C        1.7816683770    0.1495560593    0.0667828054
C        1.0357256457   -0.8435231432   -0.5893751457
C       -0.3613980965   -0.3428017607   -0.7647421897
C       -1.3567444279   -0.7167284327    0.3410913002
C       -0.2641405994    1.0493786951   -0.0259828710
N        1.1118037281    1.2464559971    0.4137376870
H        2.8369409298    0.0646150749    0.3176277757
H        1.3919862883   -1.8361605179   -0.8415483450
H       -0.7336415582   -0.3707660249   -1.7978097475
H       -1.9278433140   -1.6248806853    0.5100518693
H       -0.6393798738    1.9367221038   -0.5490874138
C       -1.2336679521    0.4469385469    0.9965338023
H       -1.6413091471    0.8411940876    1.9227204728
13   
Frame  12 IRC: Energy =  -286.8965140000 ; +0.3407 kcal/mol
C        1.7825829282    0.1510268732    0.0645733023
C        1.0347599926   -0.8440102539   -0.5874962779
C       -0.3608582160   -0.3417772530   -0.7657975973
C       -1.3573682440   -0.7164031292    0.3397520864
C       -0.2633252483    1.0501906303   -0.0255826874
N        1.1132527111    1.2478415900    0.4109189495
H        2.8386904445    0.0666875668    0.3120270121
H        1.3876357504   -1.8403456357   -0.8300410994
H       -0.7313946747   -0.3675374677   -1.7988232832
H       -1.9284467749   -1.6251968275    0.5057406719
H       -0.6408917596    1.9373504147   -0.5461256230
C       -1.2336991893    0.4445994612    0.9977709189
H       -1.6409377201    0.8375740309    1.9230836271
13   
Frame  13 IRC: Energy =  -286.8964820000 ; +0.3608 kcal/mol
C        1.7828299003    0.1511264875    0.0637358429
C        1.0347492274   -0.8441692781   -0.5868830026
C       -0.3611456971   -0.3413014375   -0.7653698125
C       -1.3572503332   -0.7168858947    0.3385000655
C       -0.2635505390    1.0498786037   -0.0249869116
N        1.1136847976    1.2485527207    0.4101422670
H        2.8392587282    0.0673461618    0.3102966516
H        1.3862600830   -1.8416150425   -0.8264481732
H       -0.7307849172   -0.3665631650   -1.7993607289
H       -1.9287105434   -1.6254423162    0.5044935226
H       -0.6413842075    1.9377019316   -0.5452591491
C       -1.2327131389    0.4446542543    0.9971912874
H       -1.6412433602    0.8367169744    1.9239481410
13   
Frame  14 IRC: Energy =  -286.8964110000 ; +0.4054 kcal/mol
C        1.7835344223    0.1522153318    0.0621153041
C        1.0340170275   -0.8444988492   -0.5855763633
C       -0.3606081845   -0.3405387035   -0.7662793899
C       -1.3577633269   -0.7166152220    0.3377805408
C       -0.2628163147    1.0506038332   -0.0248159667
N        1.1147643409    1.2494183458    0.4081328414
H        2.8405099697    0.0688166074    0.3061113167
H        1.3829751006   -1.8446587411   -0.8179889614
H       -0.7292034534   -0.3640913150   -1.8000705899
H       -1.9288483607   -1.6257171245    0.5014351949
H       -0.6423749706    1.9381936684   -0.5430156039
C       -1.2330965622    0.4427879145    0.9983765405
H       -1.6410896882    0.8340842543    1.9237951366
13   
Frame  15 IRC: Energy =  -286.8963650000 ; +0.4342 kcal/mol
C        1.7838649203    0.1524372829    0.0609948619
C        1.0338902790   -0.8447489026   -0.5848199265
C       -0.3609059674   -0.3399362907   -0.7659067642
C       -1.3575818608   -0.7171395650    0.3362471862
C       -0.2630103222    1.0503012947   -0.0240640231
N        1.1153518492    1.2502755857    0.4070969796
H        2.8413289594    0.0696816889    0.3037085716
H        1.3810360925   -1.8463695353   -0.8130558940
H       -0.7283720234   -0.3626859264   -1.8006890605
H       -1.9290576328   -1.6261388017    0.4998043784
H       -0.6429737026    1.9386755492   -0.5417750001
C       -1.2319680136    0.4426959870    0.9976940819
H       -1.6416025777    0.8329516333    1.9247646087
13   
Frame  16 IRC: Energy =  -286.8962930000 ; +0.4794 kcal/mol
C        1.7845466466    0.1533759202    0.0595126132
C        1.0332786660   -0.8449928168   -0.5836979204
C       -0.3603471105   -0.3392195942   -0.7667631750
C       -1.3580636174   -0.7168869173    0.3357710687
C       -0.2623081188    1.0510195165   -0.0239766762
N        1.1163477729    1.2509287620    0.4053478691
H        2.8424008994    0.0709777277    0.2998719829
H        1.3779898515   -1.8491045590   -0.8054137805
H       -0.7270127814   -0.3603649914   -1.8013465602
H       -1.9289315934   -1.6264428572    0.4971507023
H       -0.6437716687    1.9391460116   -0.5396804565
C       -1.2325459935    0.4409340485    0.9989229565
H       -1.6415829528    0.8306297495    1.9243013762
13   
Frame  17 IRC: Energy =  -286.8962300000 ; +0.5190 kcal/mol
C        1.7849455963    0.1537128547    0.0581082832
C        1.0330170394   -0.8453569186   -0.5828682042
C       -0.3606447850   -0.3385100971   -0.7664609998
C       -1.3577951941   -0.7175033857    0.3339493654
C       -0.2624403997    1.0507118768   -0.0230771329
N        1.1170705587    1.2518971701    0.4041109337
H        2.8434804305    0.0720343296    0.2968305475
H        1.3754838685   -1.8512126466   -0.7992022227
H       -0.7259776279   -0.3585145811   -1.8020177194
H       -1.9290156715   -1.6270687844    0.4952123682
H       -0.6444531645    1.9397720847   -0.5380540189
C       -1.2312954941    0.4407308465    0.9981240647
H       -1.6423751567    0.8293072509    1.9253447352
13   
Frame  18 IRC: Energy =  -286.8961500000 ; +0.5692 kcal/mol
C        1.7856890138    0.1545667302    0.0565838087
C        1.0325293889   -0.8455197618   -0.5818337266
C       -0.3600550304   -0.3377361833   -0.7672828799
C       -1.3582863295   -0.7172391166    0.3336359982
C       -0.2617899037    1.0514444230   -0.0229897483
N        1.1180718875    1.2524008051    0.4024359323
H        2.8444810231    0.0733065398    0.2929723107
H        1.3723723262   -1.8539563827   -0.7915883992
H       -0.7246876947   -0.3561126520   -1.8027360507
H       -1.9286431846   -1.6274395255    0.4926888683
H       -0.6451634092    1.9402609503   -0.5358842930
C       -1.2320430779    0.4389461721    0.9994284781
H       -1.6424750094    0.8270780012    1.9245697015
13   
Frame  19 IRC: Energy =  -286.8960680000 ; +0.6206 kcal/mol
C        1.7861578141    0.1550112110    0.0548455963
C        1.0321193462   -0.8460381076   -0.5810449819
C       -0.3603083417   -0.3369826055   -0.7670875597
C       -1.3578969963   -0.7179909605    0.3314761781
C       -0.2617843832    1.0511157794   -0.0220015160
N        1.1189325930    1.2534204114    0.4010918624
H        2.8458003579    0.0745647991    0.2893470646
H        1.3692798236   -1.8564102517   -0.7841400019
H       -0.7234419371   -0.3537916563   -1.8034097298
H       -1.9285466740   -1.6283166669    0.4905356564
H       -0.6459449210    1.9410529532   -0.5338405725
C       -1.2307329833    0.4386625921    0.9984930914
H       -1.6436336981    0.8257025021    1.9257349127
13   
Frame  20 IRC: Energy =  -286.8959740000 ; +0.6796 kcal/mol
C        1.7870500840    0.1557287132    0.0531513366
C        1.0317862078   -0.8460246997   -0.5802257015
C       -0.3598274878   -0.3360740794   -0.7677504304
C       -1.3584852555   -0.7176061172    0.3314629045
C       -0.2613728947    1.0517807260   -0.0218496541
N        1.1198302907    1.2536052220    0.3993009264
H        2.8469472797    0.0758928516    0.2853802593
H        1.3659600576   -1.8592806821   -0.7761347581
H       -0.7220376496   -0.3511685456   -1.8041916663
H       -1.9278106203   -1.6287018200    0.4879700955
H       -0.6466085628    1.9415394321   -0.5313975964
C       -1.2316388540    0.4369280527    0.9998345477
H       -1.6437925951    0.8233809465    1.9244497368
13   
Frame  21 IRC: Energy =  -286.8952460000 ; +1.1364 kcal/mol
C        1.7928180107    0.1591503013    0.0424137806
C        1.0277832424   -0.8476436865   -0.5699410032
C       -0.3573411306   -0.3279784268   -0.7664385495
C       -1.3531055871   -0.7168727485    0.3256012730
C       -0.2569794496    1.0582903324   -0.0184711369
N        1.1328328936    1.2654000707    0.3795621272
H        2.8550420616    0.0731399761    0.2633744374
H        1.3408821709   -1.8728575688   -0.7337790275
H       -0.7145699836   -0.3409423244   -1.8044778531
H       -1.9200646893   -1.6305619816    0.4747532363
H       -0.6515919886    1.9486019742   -0.5213506478
C       -1.2283112030    0.4323992266    1.0030162552
H       -1.6673943475    0.7998748552    1.9257371085
13   
Frame  22 IRC: Energy =  -286.8951820000 ; +1.1766 kcal/mol
C        1.7933033636    0.1593103089    0.0417994490
C        1.0275120467   -0.8479048025   -0.5693740128
C       -0.3571679839   -0.3273980922   -0.7663037412
C       -1.3531210462   -0.7182134083    0.3247315079
C       -0.2566560204    1.0585527024   -0.0181991549
N        1.1335237556    1.2662501256    0.3784052385
H        2.8554750714    0.0729477166    0.2620796444
H        1.3393846581   -1.8735778016   -0.7312955722
H       -0.7141554910   -0.3403844196   -1.8045027299
H       -1.9193878311   -1.6303018275    0.4739577484
H       -0.6519276372    1.9491059184   -0.5208120378
C       -1.2279542911    0.4332224140    1.0037662527
H       -1.6688285944    0.7983911658    1.9257474081
13   
Frame  23 IRC: Energy =  -286.8942590000 ; +1.7558 kcal/mol
C        1.7982382879    0.1605467021    0.0330030026
C        1.0237853106   -0.8498459878   -0.5580594748
C       -0.3551647429   -0.3206186649   -0.7620878313
C       -1.3479881858   -0.7122954840    0.3240554848
C       -0.2523306889    1.0671772773   -0.0174018531
N        1.1469964521    1.2783360751    0.3535189468
H        2.8604972018    0.0652400684    0.2513431661
H        1.3228349815   -1.8812945864   -0.7083721087
H       -0.7091442387   -0.3372998632   -1.8003188721
H       -1.9106114537   -1.6300557513    0.4630795704
H       -0.6540190705    1.9567676519   -0.5167733577
C       -1.2275293999    0.4310567385    1.0087833382
H       -1.6955644537    0.7722858243    1.9292299888
13   
Frame  24 IRC: Energy =  -286.8940320000 ; +1.8982 kcal/mol
C        1.7992787352    0.1606464666    0.0313879976
C        1.0230701685   -0.8503819383   -0.5559702232
C       -0.3547187810   -0.3192459239   -0.7612343848
C       -1.3476239978   -0.7134052501    0.3231180561
C       -0.2514440185    1.0686599442   -0.0172584502
N        1.1494236869    1.2807584126    0.3488056398
H        2.8613258939    0.0637260700    0.2495671502
H        1.3199214010   -1.8825531564   -0.7044584309
H       -0.7082864722   -0.3369008412   -1.7994596431
H       -1.9086193590   -1.6293720231    0.4610594261
H       -0.6544022889    1.9583125953   -0.5161825763
C       -1.2273989716    0.4325085001    1.0108872104
H       -1.7005259966    0.7672471442    1.9297382283
13   
Frame  25 IRC: Energy =  -286.8933380000 ; +2.3337 kcal/mol
C        1.8017771614    0.1608945072    0.0268486226
C        1.0212049346   -0.8515884457   -0.5498868893
C       -0.3539045134   -0.3158991117   -0.7583009696
C       -1.3448991871   -0.7083402811    0.3239133294
C       -0.2491072808    1.0735776355   -0.0173032544
N        1.1566084160    1.2870641075    0.3343422863
H        2.8634064617    0.0589423191    0.2461775221
H        1.3129950066   -1.8858156638   -0.6958259749
H       -0.7060275418   -0.3365299843   -1.7964335519
H       -1.9039055697   -1.6292233203    0.4555445565
H       -0.6549242581    1.9625995308   -0.5151052467
C       -1.2279461801    0.4311899122    1.0133908026
H       -1.7152774493    0.7531287947    1.9326387673
13   
Frame  26 IRC: Energy =  -286.8928510000 ; +2.6393 kcal/mol
C        1.8034063356    0.1607150768    0.0240971800
C        1.0201571266   -0.8525486275   -0.5463087870
C       -0.3531835409   -0.3138268299   -0.7565329068
C       -1.3443384851   -0.7089441951    0.3230065873
C       -0.2478735503    1.0762688927   -0.0172822401
N        1.1608402956    1.2909807323    0.3255740117
H        2.8644117650    0.0560521494    0.2446543697
H        1.3092745648   -1.8874524967   -0.6913656004
H       -0.7048247043   -0.3366094426   -1.7944827248
H       -1.9005393046   -1.6281446954    0.4522605429
H       -0.6551739105    1.9653292594   -0.5147342522
C       -1.2282574012    0.4336944864    1.0169667438
H       -1.7238991908    0.7444856903    1.9341470759
13   
Frame  27 IRC: Energy =  -286.8919400000 ; +3.2110 kcal/mol
C        1.8057851550    0.1607619604    0.0194237639
C        1.0182476294   -0.8539715314   -0.5404458449
C       -0.3527551572   -0.3107505178   -0.7530258868
C       -1.3419816034   -0.7027106555    0.3245186323
C       -0.2445506338    1.0812510416   -0.0187044999
N        1.1678172447    1.2968885906    0.3105655532
H        2.8658385556    0.0511069318    0.2433228315
H        1.3041653223   -1.8901650083   -0.6855712777
H       -0.7028130419   -0.3371257487   -1.7907198368
H       -1.8957285303   -1.6279098921    0.4469331381
H       -0.6553043288    1.9697738520   -0.5142893683
C       -1.2299153582    0.4321518528    1.0196109934
H       -1.7388052533    0.7306991248    1.9383818020
13   
Frame  28 IRC: Energy =  -286.8892450000 ; +4.9021 kcal/mol
C        1.8129798533    0.1577469489    0.0090464964
C        1.0161920934   -0.8583109548   -0.5305180254
C       -0.3522936154   -0.3038906196   -0.7454849717
C       -1.3409966546   -0.6954075611    0.3266480676
C       -0.2414080271    1.0923122343   -0.0200477455
N        1.1835380897    1.3088708297    0.2722026064
H        2.8710422258    0.0404240098    0.2462190460
H        1.2976138298   -1.8963233971   -0.6774794967
H       -0.6988116803   -0.3405467434   -1.7840484319
H       -1.8830240209   -1.6256141805    0.4342010349
H       -0.6546775463    1.9813431366   -0.5155641508
C       -1.2377526249    0.4386354819    1.0329375983
H       -1.7724019225    0.7007608154    1.9518879725
13   
Frame  29 IRC: Energy =  -286.8854330000 ; +7.2942 kcal/mol
C        1.8206294341    0.1528481584    0.0009004037
C        1.0163920172   -0.8624006001   -0.5235144846
C       -0.3506364505   -0.2979799022   -0.7400872364
C       -1.3403300501   -0.6856215149    0.3293693232
C       -0.2311567470    1.1032428246   -0.0316964638
N        1.2000111665    1.3177996291    0.2341141404
H        2.8756389774    0.0315949015    0.2515213421
H        1.2937561663   -1.9016230238   -0.6720553156
H       -0.6956576824   -0.3445690664   -1.7790632776
H       -1.8718982884   -1.6253949813    0.4227343442
H       -0.6556758257    1.9946754785   -0.5172162632
C       -1.2526785962    0.4401853862    1.0489254059
H       -1.8083941212    0.6772427106    1.9760680816
13   
Frame  30 IRC: Energy =  -286.8803320000 ; +10.4951 kcal/mol
C        1.8269728379    0.1474117415   -0.0045666959
C        1.0176135515   -0.8657525986   -0.5186903081
C       -0.3477260661   -0.2925065707   -0.7365621268
C       -1.3401923766   -0.6784468764    0.3310240534
C       -0.2099519564    1.1142708942   -0.0563510995
N        1.2133966025    1.3240567196    0.2024380822
H        2.8785463623    0.0251280620    0.2565735913
H        1.2913540436   -1.9054792293   -0.6684087597
H       -0.6934377273   -0.3478873912   -1.7750137001
H       -1.8626278465   -1.6250156491    0.4139616140
H       -0.6585236374    2.0067026598   -0.5168992572
C       -1.2744279285    0.4363631569    1.0690091356
H       -1.8409958590    0.6611550813    2.0034854709
13   
Frame  31 IRC: Energy =  -286.8736940000 ; +14.6605 kcal/mol
C        1.8315730071    0.1411650240   -0.0081701302
C        1.0195162574   -0.8681801595   -0.5151345133
C       -0.3440188473   -0.2871608855   -0.7339714439
C       -1.3398649665   -0.6722088230    0.3325812777
C       -0.1803499094    1.1260455258   -0.0909542344
N        1.2216266113    1.3288933321    0.1780360519
H        2.8801518982    0.0205801641    0.2605463455
H        1.2897442517   -1.9080646112   -0.6660066559
H       -0.6919506210   -0.3500774213   -1.7714799154
H       -1.8552023253   -1.6242986642    0.4077652322
H       -0.6623232498    2.0155507139   -0.5136828200
C       -1.3013066355    0.4268810139    1.0915602854
H       -1.8675954709    0.6508747910    2.0289105204
13   
Frame  32 IRC: Energy =  -286.8660180000 ; +19.4773 kcal/mol
C        1.8348174316    0.1336685568   -0.0108444333
C        1.0220536283   -0.8698802744   -0.5121315944
C       -0.3397889305   -0.2816738494   -0.7316628407
C       -1.3392639954   -0.6665233958    0.3341205722
C       -0.1462701474    1.1383653595   -0.1307073155
N        1.2247027058    1.3334364805    0.1589599952
H        2.8811515027    0.0172400076    0.2635044080
H        1.2885203629   -1.9097798856   -0.6643819145
H       -0.6909744254   -0.3513425446   -1.7682048873
H       -1.8490157834   -1.6231250002    0.4033553381
H       -0.6663403239    2.0213504168   -0.5080990734
C       -1.3307850463    0.4141478829    1.1151687382
H       -1.8888069789    0.6441162459    2.0509230075
13   
Frame  33 IRC: Energy =  -286.8586560000 ; +24.0970 kcal/mol
C        1.8373290708    0.1248094665   -0.0130022270
C        1.0250537504   -0.8709786804   -0.5093361673
C       -0.3351567483   -0.2756560884   -0.7295192395
C       -1.3383998758   -0.6606917332    0.3359103645
C       -0.1105377483    1.1506261715   -0.1733307032
N        1.2238750102    1.3384284672    0.1436850199
H        2.8819105519    0.0146937480    0.2656304134
H        1.2875457702   -1.9110599134   -0.6632895812
H       -0.6903404666   -0.3519511638   -1.7648971792
H       -1.8436668790   -1.6214538895    0.4001083428
H       -0.6701348293    2.0246440381   -0.5007639079
C       -1.3615769551    0.3991082515    1.1389355265
H       -1.9059006511    0.6394813259    2.0698693384
13   
Frame  34 IRC: Energy =  -286.8535930000 ; +27.2741 kcal/mol
C        1.8396872062    0.1141290055   -0.0152899327
C        1.0287809248   -0.8716331600   -0.5064813638
C       -0.3304267469   -0.2695906904   -0.7269243604
C       -1.3373558192   -0.6538275969    0.3382168200
C       -0.0734703980    1.1634555822   -0.2158736157
N        1.2187985365    1.3442770347    0.1300195399
H        2.8828089752    0.0125746342    0.2672318646
H        1.2865491795   -1.9118880986   -0.6624252373
H       -0.6901028094   -0.3523681719   -1.7619243194
H       -1.8387904163   -1.6195622831    0.3972127584
H       -0.6733807015    2.0261199738   -0.4926238460
C       -1.3926462351    0.3829467873    1.1625035074
H       -1.9204516958    0.6353669832    2.0863581851
13   
Frame  35 IRC: Energy =  -286.8520210000 ; +28.2605 kcal/mol (Transition State)
C        1.8428991463    0.1049130112   -0.0169965756
C        1.0320570625   -0.8725402372   -0.5034070130
C       -0.3252872420   -0.2622668116   -0.7253155131
C       -1.3363350121   -0.6457949631    0.3408654148
C       -0.0406333406    1.1751836435   -0.2592852139
N        1.2173822211    1.3501183345    0.1152821031
H        2.8845049736    0.0101548714    0.2689528914
H        1.2854297758   -1.9132236581   -0.6615185080
H       -0.6901891307   -0.3536235984   -1.7586316229
H       -1.8331042390   -1.6166381840    0.3933251440
H       -0.6755488990    2.0266743725   -0.4843308102
C       -1.4245482233    0.3663662603    1.1863670342
H       -1.9366270925    0.6306769590    2.1046926693
13   
Frame  36 IRC: Energy =  -286.8530110000 ; +27.6393 kcal/mol
C        1.8464092275    0.0964396170   -0.0184490219
C        1.0350302465   -0.8738265673   -0.5004169646
C       -0.3199226895   -0.2546474932   -0.7240413426
C       -1.3353993083   -0.6372151828    0.3439276430
C       -0.0104851217    1.1869158562   -0.3033608200
N        1.2182393121    1.3558534661    0.1006779866
H        2.8862908947    0.0076830240    0.2707055290
H        1.2843024785   -1.9146025719   -0.6606002633
H       -0.6902919570   -0.3550156849   -1.7551979609
H       -1.8272482794   -1.6135464965    0.3892184631
H       -0.6772111207    2.0267449233   -0.4759190272
C       -1.4564114155    0.3492785697    1.2097760737
H       -1.9533022673    0.6259385403    2.1236797051
13   
Frame  37 IRC: Energy =  -286.8548450000 ; +26.4885 kcal/mol
C        1.8509847991    0.0931295634   -0.0192832633
C        1.0362682566   -0.8752687302   -0.4969174234
C       -0.3144316314   -0.2457499618   -0.7253408289
C       -1.3348579898   -0.6280199285    0.3470088110
C        0.0099739004    1.1959252083   -0.3429263271
N        1.2280459620    1.3599900483    0.0823226100
H        2.8897072777    0.0042470197    0.2731747242
H        1.2827717440   -1.9171864647   -0.6592185493
H       -0.6908563054   -0.3586294070   -1.7513750366
H       -1.8193992434   -1.6088297056    0.3826222508
H       -0.6766345907    2.0266580253   -0.4693141204
C       -1.4869899620    0.3342864833    1.2322332640
H       -1.9745822172    0.6194478495    2.1470138889
13   
Frame  38 IRC: Energy =  -286.8554350000 ; +26.1182 kcal/mol
C        1.8528872458    0.0898829406   -0.0210884035
C        1.0375865458   -0.8753821659   -0.4955202631
C       -0.3135727380   -0.2441512651   -0.7239131112
C       -1.3343871035   -0.6237414837    0.3482907422
C        0.0182876952    1.1994359203   -0.3511990784
N        1.2278552468    1.3625035191    0.0753122652
H        2.8905478016    0.0031498742    0.2739372847
H        1.2817361949   -1.9170614648   -0.6582511308
H       -0.6914022581   -0.3602185454   -1.7510611801
H       -1.8167389114   -1.6077819988    0.3797761599
H       -0.6756947307    2.0269987371   -0.4683344715
C       -1.4957376521    0.3308256060    1.2392162612
H       -1.9813673363    0.6155403264    2.1528349253
13   