
Running Job 1 of 1 irc_product.in
qchem irc_product.in_72722.0 ./irc_product.d/ 1
/home/leeping/opt/qchem/5.0.2-openmp/exe/qcprog.exe_s irc_product.in_72722.0 ./irc_product.d/
Check license passed

                  Welcome to Q-Chem
     A Quantum Leap Into The Future Of Chemistry


 Q-Chem 5.0, Q-Chem, Inc., Pleasanton, CA (2017)

 Yihan Shao,  Zhengting Gan,  E. Epifanovsky,  A. T. B. Gilbert,  M. Wormit,  
 J. Kussmann,  A. W. Lange,  A. Behn,  Jia Deng,  Xintian Feng,  D. Ghosh,  
 M. Goldey,  P. R. Horn,  L. D. Jacobson,  I. Kaliman,  T. Kus,  A. Landau,  
 Jie Liu,  E. I. Proynov,  R. M. Richard,  R. P. Steele,  E. J. Sundstrom,  
 H. L. Woodcock III,  P. M. Zimmerman,  D. Zuev,  B. Albrecht,  E. Alguire,  
 S. A. Baeppler,  D. Barton,  Z. Benda,  Y. A. Bernard,  E. J. Berquist,  
 K. B. Bravaya,  H. Burton,  D. Casanova,  Chun-Min Chang,  Yunqing Chen,  
 A. Chien,  K. D. Closser,  M. P. Coons,  S. Dasgupta,  A. L. Dempwolff,  
 M. Diedenhofen,  Hainam Do,  R. G. Edgar,  Po-Tung Fang,  S. Fatehi,  
 Qingguo Feng,  J. Fosso-Tande,  Qinghui Ge,  A. Ghysels,  G. Gidofalvi,  
 J. Gomes,  J. Gonthier,  A. Gunina,  M. W. D. Hanson-Heine,  
 P. H. P. Harbach,  A. W. Hauser,  J. E. Herr,  E. G. Hohenstein,  
 Z. C. Holden,  Kerwin Hui,  T.-C. Jagau,  Hyunjun Ji,  B. Kaduk,  
 K. Khistyaev,  Jaehoon Kim,  P. Klunzinger,  K. Koh,  D. Kosenkov,  
 L. Koulias,  T. Kowalczyk,  C. M. Krauter,  A. Kunitsa,  Ka Un Lao,  
 A. Laurent,  K. V. Lawler,  Joonho Lee,  D. Lefrancois,  S. Lehtola,  
 D. S. Levine,  Yi-Pei Li,  You-Sheng Lin,  Fenglai Liu,  E. Livshits,  
 A. Luenser,  P. Manohar,  E. Mansoor,  S. F. Manzer,  Shan-Ping Mao,  
 Yuezhi Mao,  N. Mardirossian,  A. V. Marenich,  T. Markovich,  
 L. A. Martinez-Martinez,  S. A. Maurer,  N. J. Mayhall,  S. C. McKenzie,  
 J.-M. Mewes,  A. F. Morrison,  J. W. Mullinax,  K. Nanda,  
 T. S. Nguyen-Beck,  R. Olivares-Amaya,  J. A. Parkhill,  T. M. Perrine,  
 F. Plasser,  S. Prager,  A. Prociuk,  E. Ramos,  D. R. Rehn,  F. Rob,  
 M. Schneider,  N. Sergueev,  S. M. Sharada,  S. Sharma,  D. W. Small,  
 T. Stauch,  T. Stein,  Yu-Chuan Su,  A. J. W. Thom,  A. Tkatchenko,  
 T. Tsuchimochi,  L. Vogt,  O. Vydrov,  M. A. Watson,  J. Wenzel,  
 M. de Wergifosse,  T. A. Wesolowski,  A. White,  J. Witte,  A. Yamada,  
 Jun Yang,  K. Yao,  S. Yeganeh,  S. R. Yost,  Zhi-Qiang You,  A. Zech,  
 Igor Ying Zhang,  Xing Zhang,  Yan Zhao,  Ying Zhu,  B. R. Brooks,  
 G. K. L. Chan,  C. J. Cramer,  M. S. Gordon,  W. J. Hehre,  A. Klamt,  
 M. W. Schmidt,  C. D. Sherrill,  D. G. Truhlar,  A. Aspuru-Guzik,  R. Baer,  
 A. T. Bell,  N. A. Besley,  Jeng-Da Chai,  R. A. DiStasio Jr.,  A. Dreuw,  
 B. D. Dunietz,  T. R. Furlani,  Chao-Ping Hsu,  Yousung Jung,  Jing Kong,  
 D. S. Lambrecht,  WanZhen Liang,  C. Ochsenfeld,  V. A. Rassolov,  
 L. V. Slipchenko,  J. E. Subotnik,  T. Van Voorhis,  J. M. Herbert,  
 A. I. Krylov,  P. M. W. Gill,  M. Head-Gordon

 Contributors to earlier versions of Q-Chem not listed above: 
 R. D. Adamson,  B. Austin,  J. Baker,  G. J. O. Beran,  K. Brandhorst,  
 S. T. Brown,  E. F. C. Byrd,  A. K. Chakraborty,  C.-L. Cheng,  
 Siu Hung Chien,  D. M. Chipman,  D. L. Crittenden,  H. Dachsel,  
 R. J. Doerksen,  A. D. Dutoi,  L. Fusti-Molnar,  W. A. Goddard III,  
 A. Golubeva-Zadorozhnaya,  S. R. Gwaltney,  G. Hawkins,  A. Heyden,  
 S. Hirata,  G. Kedziora,  F. J. Keil,  C. Kelley,  Jihan Kim,  R. A. King,  
 R. Z. Khaliullin,  P. P. Korambath,  W. Kurlancheek,  A. M. Lee,  M. S. Lee,  
 S. V. Levchenko,  Ching Yeh Lin,  D. Liotard,  R. C. Lochan,  I. Lotan,  
 P. E. Maslen,  N. Nair,  D. P. O'Neill,  D. Neuhauser,  E. Neuscamman,  
 C. M. Oana,  R. Olson,  B. Peters,  R. Peverati,  P. A. Pieniazek,  
 Y. M. Rhee,  J. Ritchie,  M. A. Rohrdanz,  E. Rosta,  N. J. Russ,  
 H. F. Schaefer III,  N. E. Schultz,  N. Shenvi,  A. C. Simmonett,  A. Sodt,  
 D. Stuck,  K. S. Thanthiriwatte,  V. Vanovschi,  Tao Wang,  A. Warshel,  
 C. F. Williams,  Q. Wu,  X. Xu,  W. Zhang

 Please cite Q-Chem as follows:
 Y. Shao et al., Mol. Phys. 113, 184-215 (2015)
 DOI: 10.1080/00268976.2014.952696

 Q-Chem 5.0.2 for Intel X86 EM64T Linux

 Parts of Q-Chem use Armadillo 5.200.1 (Boston Tea Smuggler).
 http://arma.sourceforge.net/

 Q-Chem begins on Thu Mar  3 05:49:27 2022  

Host: 
0

     Scratch files written to ./irc_product.d//
 Dec517 15110_ 26548  26544 5633   
Processing $rem in /home/leeping/opt/qchem/5.0.2-openmp/config/preferences.
 MEM_STATIC 2000
 MEM_TOTAL  8000
 SYMMETRY   OFF
 SYM_IGNORE TRUE 

Checking the input file for inconsistencies... 	...done.

--------------------------------------------------------------
User input:
--------------------------------------------------------------
$molecule
0 2
C        2.0062347227    0.0728435582   -0.2298844129
C        1.0429644008   -0.8580739509   -0.3651711056
C       -0.2666404067   -0.1201373318   -0.5202776795
C       -1.3637578193   -0.5315002553    0.4461408463
C        0.2209715968    1.3063105951   -0.4030182228
N        1.4982530840    1.4069750243   -0.2592850674
H        3.0722577656   -0.0749282087   -0.1081338999
H        1.1574841112   -1.9342995297   -0.3750851034
H       -0.6435339301   -0.2688891834   -1.5486831928
H       -1.6942803487   -1.5740944543    0.3540714691
H       -0.4238931940    2.1791335456   -0.4555685640
C       -1.9214570523    0.2407012347    1.3514957612
H       -2.6846029299    0.1559589563    2.1133991717
$end

$rem
method                b3lyp
basis                 6-31+g(d,p)
unrestricted          true
symmetry              off
sym_ignore            true
incdft                false
incfock               0
scf_convergence       6
thresh                14
jobtype               sp
scf_guess             read
scf_algorithm         diis
max_scf_cycles        100
stability_analysis    true
max_cis_cycles        100
cis_n_roots           4
$end

--------------------------------------------------------------
 ----------------------------------------------------------------
             Standard Nuclear Orientation (Angstroms)
    I     Atom           X                Y                Z
 ----------------------------------------------------------------
    1      C       2.0062347227     0.0728435582    -0.2298844129
    2      C       1.0429644008    -0.8580739509    -0.3651711056
    3      C      -0.2666404067    -0.1201373318    -0.5202776795
    4      C      -1.3637578193    -0.5315002553     0.4461408463
    5      C       0.2209715968     1.3063105951    -0.4030182228
    6      N       1.4982530840     1.4069750243    -0.2592850674
    7      H       3.0722577656    -0.0749282087    -0.1081338999
    8      H       1.1574841112    -1.9342995297    -0.3750851034
    9      H      -0.6435339301    -0.2688891834    -1.5486831928
   10      H      -1.6942803487    -1.5740944543     0.3540714691
   11      H      -0.4238931940     2.1791335456    -0.4555685640
   12      C      -1.9214570523     0.2407012347     1.3514957612
   13      H      -2.6846029299     0.1559589563     2.1133991717
 ----------------------------------------------------------------
 Nuclear Repulsion Energy =   258.9796840647 hartrees
 There are       25 alpha and       24 beta electrons
 Requested basis set is 6-31+G(d,p)
 There are 53 shells and 163 basis functions

 Total QAlloc Memory Limit   8000 MB
 Mega-Array Size      1956 MB
 MEM_STATIC part      2000 MB

                       Distance Matrix (Angstroms)
             C (  1)   C (  2)   C (  3)   C (  4)   C (  5)   N (  6)
   C (  2)  1.346402
   C (  3)  2.299463  1.511183
   C (  4)  3.489855  2.560701  1.518832
   C (  5)  2.176828  2.315527  1.512041  2.570990
   N (  6)  1.427871  2.312779  2.348412  3.527948  1.289279
   H (  7)  1.083081  2.190301  3.364543  4.493764  3.181919  2.167112
   H (  8)  2.184052  1.082347  2.310930  2.999820  3.373335  3.360602
   H (  9)  2.979477  2.142922  1.105348  2.137056  2.131003  3.009704
   H ( 10)  4.092337  2.919333  2.217348  1.097599  3.540919  4.410811
   H ( 11)  3.223804  3.374088  2.305550  3.007318  1.086477  2.080722
   C ( 12)  4.237417  3.597506  2.524313  1.314150  2.967127  3.955910
   H ( 13)  5.244220  4.589807  3.585948  2.235393  4.012235  4.969000
             H (  7)   H (  8)   H (  9)   H ( 10)   H ( 11)   C ( 12)
   H (  8)  2.682328
   H (  9)  3.989976  2.719300
   H ( 10)  5.018069  2.965464  2.535371
   H ( 11)  4.174276  4.407671  2.689973  4.044270
   C ( 12)  5.212229  4.146274  3.209954  2.083254  3.043961
   H ( 13)  6.174946  5.032233  4.213942  2.658770  3.975379  1.081698

 
 A cutoff of  1.0D-14 yielded   1369 shell pairs
 There are     13312 function pairs
 Smallest overlap matrix eigenvalue = 1.72E-05

 Scale SEOQF with 1.000000e-01/1.000000e-01/1.000000e-01

 Standard Electronic Orientation quadrupole field applied
 Nucleus-field energy     =     0.0000000041 hartrees
 Guess MOs from SCF MO coefficient file
 Reading MOs from coefficient file
 Reading MOs from coefficient file
 An unrestricted hybrid HF-DFT SCF calculation will be
 performed using Pulay DIIS extrapolation
 Exchange:     0.2000 Hartree-Fock + 0.0800 Slater + 0.7200 B88
 Correlation:  0.1900 VWN1RPA + 0.8100 LYP
 Using SG-1 standard quadrature grid
 SCF converges when DIIS error is below 1.0E-06
Using Q-Chem read-in guess as SCF_GUESS READ specified.

 -------------------------------------------------------
 OpenMP BLAS3 based DFT computing Module                
 -------------------------------------------------------
 ---------------------------------------
  Cycle       Energy         DIIS Error
 ---------------------------------------
    1    -286.8687570779      1.24E-09
    2    -286.8687570780      8.86E-10 Convergence criterion met
 ---------------------------------------
 <S^2> = 0.7602
 SCF time:  CPU 6.13 s  wall 7.44 s
 SCF   energy in the final basis set = -286.86875708
 Total energy in the final basis set = -286.86875708
 
 Direct TDDFT/TDA calculation will be performed
 Exchange:     0.2000 Hartree-Fock + 0.0800 Slater + 0.7200 B88
 Correlation:  0.1900 VWN1RPA + 0.8100 LYP
 Using SG-1 standard quadrature grid
 CIS energy converged when residual is below 10e- 6
 ---------------------------------------------------
 Iter    Rts Conv    Rts Left    Ttl Dev     Max Dev
 ---------------------------------------------------
   1         0           4      0.002632    0.001339
   2         0           4      0.001200    0.000699
   3         0           4      0.000607    0.000365
   4         0           4      0.000364    0.000162
   5         0           4      0.000189    0.000134
   6         0           4      0.000067    0.000049
   7         2           2      0.000028    0.000023
   8         3           1      0.000011    0.000009
   9         3           1      0.000008    0.000006
  10         3           1      0.000004    0.000003
  11         4           0      0.000002    0.000001    Roots Converged
 ---------------------------------------------------
 
 ---------------------------------------------------
         TDDFT/TDA Excitation Energies              
 ---------------------------------------------------

 Excited state   1: excitation energy (eV) =    2.9779
 Total energy for state  1:                  -286.75932252 au
    <S**2>     :  0.7744
    Trans. Mom.: -0.0178 X  -0.0373 Y   0.1305 Z
    Strength   :     0.0013667848
    D( 22) --> S(  1) amplitude =  0.7594 beta
    D( 23) --> S(  1) amplitude = -0.4291 beta
    D( 24) --> S(  1) amplitude = -0.4477 beta

 Excited state   2: excitation energy (eV) =    3.1746
 Total energy for state  2:                  -286.75209172 au
    <S**2>     :  2.6964
    Trans. Mom.: -0.0305 X  -0.0023 Y   0.0016 Z
    Strength   :     0.0000730812
    D( 24) --> V(  1) amplitude = -0.4326 alpha
    S(  1) --> V(  1) amplitude =  0.5438 alpha
    D( 24) --> V(  1) amplitude = -0.6717 beta

 Excited state   3: excitation energy (eV) =    3.4760
 Total energy for state  3:                  -286.74101497 au
    <S**2>     :  0.8089
    Trans. Mom.:  0.2893 X  -0.0510 Y  -0.0994 Z
    Strength   :     0.0081895963
    D( 22) --> S(  1) amplitude =  0.3514 beta
    D( 23) --> S(  1) amplitude = -0.2624 beta
    D( 24) --> S(  1) amplitude =  0.8866 beta

 Excited state   4: excitation energy (eV) =    4.0540
 Total energy for state  4:                  -286.71977673 au
    <S**2>     :  1.5381
    Trans. Mom.:  0.1698 X   0.0292 Y  -0.0877 Z
    Strength   :     0.0037097248
    D( 23) --> V(  1) amplitude = -0.3126 alpha
    D( 24) --> V(  1) amplitude = -0.2396 alpha
    S(  1) --> V(  1) amplitude = -0.1916 alpha
    D( 22) --> S(  1) amplitude =  0.4093 beta
    D( 23) --> S(  1) amplitude =  0.6777 beta
    D( 23) --> V(  1) amplitude =  0.3500 beta
 
 ---------------------------------------------------

 Stability analysis will be performed
 ---------------------------------------------------
 Iter    Rts Conv    Rts Left    Ttl Dev     Max Dev
 ---------------------------------------------------
   1         0           8      0.003375    0.000659
   2         0           8      0.001394    0.000488
   3         0           8      0.000778    0.000322
   4         1           7      0.000453    0.000154
   5         2           6      0.000403    0.000200
   6         2           6      0.000938    0.000732
   7         5           3      0.000688    0.000580
   8         6           2      0.000186    0.000159
   9         6           2      0.000044    0.000036
  10         6           2      0.000014    0.000010
  11         7           1      0.000005    0.000003
  12         8           0      0.000003    0.000001    Roots Converged
 UKS-> UKS   stable,    smallest eigenvalue:      0.0692874
 UKS->CUKS   stable,    smallest eigenvalue:      0.1142788
 ---------------------------------------------------
  SETman timing summary (seconds)
  CPU time               190.04s
  System time              0.00s
  Wall time              199.54s
 
 --------------------------------------------------------------
 
                    Orbital Energies (a.u.)
 --------------------------------------------------------------
 
 Alpha MOs
 -- Occupied --
-14.343 -10.237 -10.228 -10.227 -10.224 -10.222 -10.204  -0.961
 -0.821  -0.761  -0.721  -0.609  -0.569  -0.555  -0.514  -0.480
 -0.455  -0.424  -0.402  -0.390  -0.355  -0.290  -0.279  -0.258
 -0.243
 -- Virtual --
 -0.050  -0.013   0.006   0.021   0.024   0.029   0.040   0.047
  0.053   0.062   0.067   0.080   0.095   0.099   0.102   0.114
  0.127   0.130   0.138   0.146   0.153   0.156   0.164   0.187
  0.192   0.197   0.207   0.211   0.222   0.225   0.236   0.241
  0.247   0.262   0.269   0.286   0.305   0.327   0.332   0.377
  0.393   0.450   0.453   0.461   0.606   0.628   0.653   0.663
  0.683   0.700   0.716   0.723   0.727   0.747   0.767   0.784
  0.801   0.849   0.885   0.890   0.905   0.916   0.973   0.982
  0.989   1.016   1.022   1.055   1.077   1.077   1.094   1.145
  1.165   1.171   1.250   1.342   1.356   1.384   1.400   1.438
  1.471   1.493   1.515   1.593   1.642   1.704   1.731   1.782
  1.818   1.840   1.907   1.939   1.966   1.967   2.002   2.044
  2.058   2.115   2.122   2.231   2.266   2.289   2.330   2.378
  2.396   2.410   2.427   2.465   2.502   2.503   2.529   2.571
  2.598   2.622   2.638   2.663   2.683   2.692   2.747   2.778
  2.819   2.904   2.974   3.052   3.150   3.270   3.294   3.378
  3.481   3.591   3.679   4.123   4.292   4.335   4.432   4.516
  4.597   4.758
 
 Beta MOs
 -- Occupied --
-14.343 -10.237 -10.227 -10.226 -10.222 -10.212 -10.204  -0.960
 -0.814  -0.755  -0.712  -0.600  -0.566  -0.549  -0.510  -0.470
 -0.449  -0.421  -0.400  -0.389  -0.354  -0.282  -0.275  -0.251
 -- Virtual --
 -0.096  -0.050  -0.005   0.008   0.022   0.025   0.030   0.041
  0.048   0.053   0.063   0.068   0.082   0.095   0.102   0.105
  0.117   0.128   0.131   0.138   0.146   0.154   0.158   0.165
  0.187   0.195   0.202   0.208   0.212   0.223   0.228   0.238
  0.242   0.249   0.264   0.269   0.287   0.305   0.331   0.336
  0.379   0.394   0.453   0.460   0.466   0.610   0.641   0.657
  0.669   0.690   0.705   0.721   0.725   0.736   0.756   0.775
  0.787   0.803   0.850   0.886   0.892   0.909   0.922   0.974
  0.991   0.993   1.017   1.024   1.056   1.082   1.093   1.096
  1.151   1.168   1.172   1.252   1.343   1.360   1.387   1.402
  1.440   1.472   1.495   1.528   1.628   1.657   1.729   1.737
  1.787   1.832   1.842   1.924   1.943   1.970   1.972   2.005
  2.055   2.060   2.119   2.125   2.238   2.268   2.291   2.337
  2.379   2.405   2.412   2.436   2.467   2.503   2.505   2.529
  2.573   2.602   2.625   2.645   2.671   2.693   2.695   2.748
  2.779   2.829   2.904   2.985   3.053   3.151   3.272   3.304
  3.379   3.482   3.607   3.679   4.123   4.304   4.336   4.451
  4.520   4.599   4.759
 --------------------------------------------------------------
 
          Ground-State Mulliken Net Atomic Charges

     Atom                 Charge (a.u.)    Spin (a.u.)
  --------------------------------------------------------
      1 C                    -0.138013      -0.004976
      2 C                    -0.127452       0.010414
      3 C                     0.069074       0.081906
      4 C                    -0.086585      -0.329105
      5 C                    -0.168496      -0.045859
      6 N                    -0.195417       0.005540
      7 H                     0.132256      -0.000448
      8 H                     0.136178      -0.000012
      9 H                     0.183150      -0.004416
     10 H                     0.143158       0.080167
     11 H                     0.143199       0.000221
     12 C                    -0.246588       1.198755
     13 H                     0.155538       0.007812
  --------------------------------------------------------
  Sum of atomic charges =    -0.000000
  Sum of spin   charges =     1.000000

 -----------------------------------------------------------------
                    Cartesian Multipole Moments
 -----------------------------------------------------------------
    Charge (ESU x 10^10)
                -0.0000
    Dipole Moment (Debye)
         X      -1.8952      Y      -2.3455      Z      -0.3989
       Tot       3.0417
    Quadrupole Moments (Debye-Ang)
        XX     -40.9770     XY      -3.7615     YY     -43.3697
        XZ      -0.9694     YZ       0.0730     ZZ     -41.9114
    Octopole Moments (Debye-Ang^2)
       XXX     -14.5430    XXY     -18.5213    XYY     -16.1123
       YYY     -33.1419    XXZ       8.5636    XYZ       1.5656
       YYZ      -1.7107    XZZ     -14.5992    YZZ      -7.2705
       ZZZ       0.3716
    Hexadecapole Moments (Debye-Ang^3)
      XXXX    -527.7921   XXXY     -42.7282   XXYY    -154.6690
      XYYY     -53.9210   YYYY    -255.4242   XXXZ      63.7370
      XXYZ       3.5679   XYYZ      32.1240   YYYZ       6.4482
      XXZZ    -108.8369   XYZZ     -10.1828   YYZZ     -76.6125
      XZZZ      75.2719   YZZZ       8.0706   ZZZZ    -165.5167
 -----------------------------------------------------------------
Archival summary:
1\1\c8-89\SP\ProcedureUnspecified\6-31+G**\166(2)\hpark21\ThuMar305:52:552022ThuMar305:52:552022\0\\#,ProcedureUnspecified,6-31+G**,\\0,2\C\H,1,1.10535\C,1,1.51118,2,108.982\H,3,1.08235,1,125.191,2,-67.6621,0\C,3,1.3464,1,107.019,2,111.764,0\H,5,1.08308,3,128.399,1,-179.262,0\N,5,1.42787,3,112.919,1,0.678069,0\C,7,1.28928,5,106.367,3,0.441461,0\H,8,1.08648,7,122.052,5,179.916,0\C,1,1.51883,2,108.014,3,-126.034,0\H,10,1.0976,1,114.924,2,59.4099,0\C,10,1.31415,1,125.857,2,-120.76,0\H,12,1.0817,10,137.614,1,-179.755,0\\\@

 Total job time:  208.14s(wall), 196.40s(cpu) 
 Thu Mar  3 05:52:55 2022

        *************************************************************
        *                                                           *
        *  Thank you very much for using Q-Chem.  Have a nice day.  *
        *                                                           *
        *************************************************************


