
Running Job 1 of 1 qcts1.in
qchem qcts1.in_59862.0 ./qcts1.d/ 1
/home/leeping/opt/qchem/5.0.2-openmp/exe/qcprog.exe_s qcts1.in_59862.0 ./qcts1.d/
Check license passed

                  Welcome to Q-Chem
     A Quantum Leap Into The Future Of Chemistry


 Q-Chem 5.0, Q-Chem, Inc., Pleasanton, CA (2017)

 Yihan Shao,  Zhengting Gan,  E. Epifanovsky,  A. T. B. Gilbert,  M. Wormit,  
 J. Kussmann,  A. W. Lange,  A. Behn,  Jia Deng,  Xintian Feng,  D. Ghosh,  
 M. Goldey,  P. R. Horn,  L. D. Jacobson,  I. Kaliman,  T. Kus,  A. Landau,  
 Jie Liu,  E. I. Proynov,  R. M. Richard,  R. P. Steele,  E. J. Sundstrom,  
 H. L. Woodcock III,  P. M. Zimmerman,  D. Zuev,  B. Albrecht,  E. Alguire,  
 S. A. Baeppler,  D. Barton,  Z. Benda,  Y. A. Bernard,  E. J. Berquist,  
 K. B. Bravaya,  H. Burton,  D. Casanova,  Chun-Min Chang,  Yunqing Chen,  
 A. Chien,  K. D. Closser,  M. P. Coons,  S. Dasgupta,  A. L. Dempwolff,  
 M. Diedenhofen,  Hainam Do,  R. G. Edgar,  Po-Tung Fang,  S. Fatehi,  
 Qingguo Feng,  J. Fosso-Tande,  Qinghui Ge,  A. Ghysels,  G. Gidofalvi,  
 J. Gomes,  J. Gonthier,  A. Gunina,  M. W. D. Hanson-Heine,  
 P. H. P. Harbach,  A. W. Hauser,  J. E. Herr,  E. G. Hohenstein,  
 Z. C. Holden,  Kerwin Hui,  T.-C. Jagau,  Hyunjun Ji,  B. Kaduk,  
 K. Khistyaev,  Jaehoon Kim,  P. Klunzinger,  K. Koh,  D. Kosenkov,  
 L. Koulias,  T. Kowalczyk,  C. M. Krauter,  A. Kunitsa,  Ka Un Lao,  
 A. Laurent,  K. V. Lawler,  Joonho Lee,  D. Lefrancois,  S. Lehtola,  
 D. S. Levine,  Yi-Pei Li,  You-Sheng Lin,  Fenglai Liu,  E. Livshits,  
 A. Luenser,  P. Manohar,  E. Mansoor,  S. F. Manzer,  Shan-Ping Mao,  
 Yuezhi Mao,  N. Mardirossian,  A. V. Marenich,  T. Markovich,  
 L. A. Martinez-Martinez,  S. A. Maurer,  N. J. Mayhall,  S. C. McKenzie,  
 J.-M. Mewes,  A. F. Morrison,  J. W. Mullinax,  K. Nanda,  
 T. S. Nguyen-Beck,  R. Olivares-Amaya,  J. A. Parkhill,  T. M. Perrine,  
 F. Plasser,  S. Prager,  A. Prociuk,  E. Ramos,  D. R. Rehn,  F. Rob,  
 M. Schneider,  N. Sergueev,  S. M. Sharada,  S. Sharma,  D. W. Small,  
 T. Stauch,  T. Stein,  Yu-Chuan Su,  A. J. W. Thom,  A. Tkatchenko,  
 T. Tsuchimochi,  L. Vogt,  O. Vydrov,  M. A. Watson,  J. Wenzel,  
 M. de Wergifosse,  T. A. Wesolowski,  A. White,  J. Witte,  A. Yamada,  
 Jun Yang,  K. Yao,  S. Yeganeh,  S. R. Yost,  Zhi-Qiang You,  A. Zech,  
 Igor Ying Zhang,  Xing Zhang,  Yan Zhao,  Ying Zhu,  B. R. Brooks,  
 G. K. L. Chan,  C. J. Cramer,  M. S. Gordon,  W. J. Hehre,  A. Klamt,  
 M. W. Schmidt,  C. D. Sherrill,  D. G. Truhlar,  A. Aspuru-Guzik,  R. Baer,  
 A. T. Bell,  N. A. Besley,  Jeng-Da Chai,  R. A. DiStasio Jr.,  A. Dreuw,  
 B. D. Dunietz,  T. R. Furlani,  Chao-Ping Hsu,  Yousung Jung,  Jing Kong,  
 D. S. Lambrecht,  WanZhen Liang,  C. Ochsenfeld,  V. A. Rassolov,  
 L. V. Slipchenko,  J. E. Subotnik,  T. Van Voorhis,  J. M. Herbert,  
 A. I. Krylov,  P. M. W. Gill,  M. Head-Gordon

 Contributors to earlier versions of Q-Chem not listed above: 
 R. D. Adamson,  B. Austin,  J. Baker,  G. J. O. Beran,  K. Brandhorst,  
 S. T. Brown,  E. F. C. Byrd,  A. K. Chakraborty,  C.-L. Cheng,  
 Siu Hung Chien,  D. M. Chipman,  D. L. Crittenden,  H. Dachsel,  
 R. J. Doerksen,  A. D. Dutoi,  L. Fusti-Molnar,  W. A. Goddard III,  
 A. Golubeva-Zadorozhnaya,  S. R. Gwaltney,  G. Hawkins,  A. Heyden,  
 S. Hirata,  G. Kedziora,  F. J. Keil,  C. Kelley,  Jihan Kim,  R. A. King,  
 R. Z. Khaliullin,  P. P. Korambath,  W. Kurlancheek,  A. M. Lee,  M. S. Lee,  
 S. V. Levchenko,  Ching Yeh Lin,  D. Liotard,  R. C. Lochan,  I. Lotan,  
 P. E. Maslen,  N. Nair,  D. P. O'Neill,  D. Neuhauser,  E. Neuscamman,  
 C. M. Oana,  R. Olson,  B. Peters,  R. Peverati,  P. A. Pieniazek,  
 Y. M. Rhee,  J. Ritchie,  M. A. Rohrdanz,  E. Rosta,  N. J. Russ,  
 H. F. Schaefer III,  N. E. Schultz,  N. Shenvi,  A. C. Simmonett,  A. Sodt,  
 D. Stuck,  K. S. Thanthiriwatte,  V. Vanovschi,  Tao Wang,  A. Warshel,  
 C. F. Williams,  Q. Wu,  X. Xu,  W. Zhang

 Please cite Q-Chem as follows:
 Y. Shao et al., Mol. Phys. 113, 184-215 (2015)
 DOI: 10.1080/00268976.2014.952696

 Q-Chem 5.0.2 for Intel X86 EM64T Linux

 Parts of Q-Chem use Armadillo 5.200.1 (Boston Tea Smuggler).
 http://arma.sourceforge.net/

 Q-Chem begins on Thu Mar  3 01:32:20 2022  

Host: 
0

     Scratch files written to ./qcts1.d//
 Dec517 15110_ 26548  26544 5633   
Processing $rem in /home/leeping/opt/qchem/5.0.2-openmp/config/preferences.
 MEM_STATIC 2000
 MEM_TOTAL  8000
 SYMMETRY   OFF
 SYM_IGNORE TRUE 

Checking the input file for inconsistencies... 	...done.

--------------------------------------------------------------
User input:
--------------------------------------------------------------
$molecule
0 2
C        1.8347822767    0.1051128593   -0.0229204164
C        1.0274500349   -0.8691635764   -0.5138320822
C       -0.3306554893   -0.2595557234   -0.7337914158
C       -1.3361163282   -0.6472673112    0.3361325478
C       -0.0420140191    1.1759097702   -0.2663812868
N        1.2124671838    1.3526678722    0.1107846633
H        2.8765237655    0.0094487672    0.2660783825
H        1.2786030818   -1.9108774745   -0.6710676043
H       -0.6993109980   -0.3501037548   -1.7661665449
H       -1.8247419469   -1.6231257155    0.3859170044
H       -0.6797063209    2.0272256051   -0.4874690546
C       -1.4264236995    0.3593969153    1.1846833510
H       -1.9422418337    0.6050851634    2.1071430344
$end

$rem
method                b3lyp
basis                 6-31g(d)
unrestricted          true
symmetry              off
sym_ignore            true
incdft                false
incfock               0
scf_convergence       6
thresh                14
jobtype               sp
scf_guess             read
scf_algorithm         diis
max_scf_cycles        100
stability_analysis    true
max_cis_cycles        100
cis_n_roots           4
$end

--------------------------------------------------------------
 ----------------------------------------------------------------
             Standard Nuclear Orientation (Angstroms)
    I     Atom           X                Y                Z
 ----------------------------------------------------------------
    1      C       1.8347822767     0.1051128593    -0.0229204164
    2      C       1.0274500349    -0.8691635764    -0.5138320822
    3      C      -0.3306554893    -0.2595557234    -0.7337914158
    4      C      -1.3361163282    -0.6472673112     0.3361325478
    5      C      -0.0420140191     1.1759097702    -0.2663812868
    6      N       1.2124671838     1.3526678722     0.1107846633
    7      H       2.8765237655     0.0094487672     0.2660783825
    8      H       1.2786030818    -1.9108774745    -0.6710676043
    9      H      -0.6993109980    -0.3501037548    -1.7661665449
   10      H      -1.8247419469    -1.6231257155     0.3859170044
   11      H      -0.6797063209     2.0272256051    -0.4874690546
   12      C      -1.4264236995     0.3593969153     1.1846833510
   13      H      -1.9422418337     0.6050851634     2.1071430344
 ----------------------------------------------------------------
 Nuclear Repulsion Energy =   267.4183092171 hartrees
 There are       25 alpha and       24 beta electrons
 Requested basis set is 6-31G(d)
 There are 40 shells and 117 basis functions

 Total QAlloc Memory Limit   8000 MB
 Mega-Array Size      1956 MB
 MEM_STATIC part      2000 MB

                       Distance Matrix (Angstroms)
             C (  1)   C (  2)   C (  3)   C (  4)   C (  5)   N (  6)
   C (  2)  1.357201
   C (  3)  2.308125  1.504810
   C (  4)  3.278657  2.521532  1.518555
   C (  5)  2.174452  2.321058  1.536993  2.315534
   N (  6)  1.400552  2.315364  2.386169  3.247430  1.321825
   H (  7)  1.085310  2.190729  3.370178  4.264097  3.187790  2.144164
   H (  8)  2.189440  1.083037  2.306623  3.073747  3.381724  3.356545
   H (  9)  3.109302  2.195329  1.099956  2.216639  2.238328  3.174472
   H ( 10)  4.067687  3.084316  2.312004  1.092489  3.382043  4.260949
   H ( 11)  3.198902  3.362164  2.326345  2.874388  1.086402  2.096010
   C ( 12)  3.486894  3.227354  2.294418  1.319684  2.165380  3.017216
   H ( 13)  4.364980  4.226345  3.378716  2.252166  3.093594  3.807429
             H (  7)   H (  8)   H (  9)   H ( 10)   H ( 11)   C ( 12)
   H (  8)  2.668192
   H (  9)  4.128667  2.747253
   H ( 10)  4.978108  3.291013  2.742014
   H ( 11)  4.157647  4.401970  2.699472  3.924153
   C ( 12)  4.413803  3.989377  3.120833  2.174185  2.476960
   H ( 13)  5.192765  4.941899  4.178491  2.818040  3.216907  1.085064

 
 A cutoff of  1.0D-14 yielded    805 shell pairs
 There are      7077 function pairs
 Smallest overlap matrix eigenvalue = 1.36E-03

 Scale SEOQF with 1.000000e-01/1.000000e-01/1.000000e-01

 Standard Electronic Orientation quadrupole field applied
 Nucleus-field energy     =     0.0000000032 hartrees
 Guess MOs from SCF MO coefficient file
 Reading MOs from coefficient file
 Reading MOs from coefficient file
 An unrestricted hybrid HF-DFT SCF calculation will be
 performed using Pulay DIIS extrapolation
 Exchange:     0.2000 Hartree-Fock + 0.0800 Slater + 0.7200 B88
 Correlation:  0.1900 VWN1RPA + 0.8100 LYP
 Using SG-1 standard quadrature grid
 SCF converges when DIIS error is below 1.0E-06
Using Q-Chem read-in guess as SCF_GUESS READ specified.

 -------------------------------------------------------
 OpenMP BLAS3 based DFT computing Module                
 -------------------------------------------------------
 ---------------------------------------
  Cycle       Energy         DIIS Error
 ---------------------------------------
    1    -286.8287088072      1.32E-09
    2    -286.8287088072      1.64E-09 Convergence criterion met
 ---------------------------------------
 <S^2> = 0.7992
 SCF time:  CPU 3.13 s  wall 4.20 s
 SCF   energy in the final basis set = -286.82870881
 Total energy in the final basis set = -286.82870881
 
 Direct TDDFT/TDA calculation will be performed
 Exchange:     0.2000 Hartree-Fock + 0.0800 Slater + 0.7200 B88
 Correlation:  0.1900 VWN1RPA + 0.8100 LYP
 Using SG-1 standard quadrature grid
 CIS energy converged when residual is below 10e- 6
 ---------------------------------------------------
 Iter    Rts Conv    Rts Left    Ttl Dev     Max Dev
 ---------------------------------------------------
   1         0           4      0.004910    0.002534
   2         0           4      0.001794    0.000637
   3         0           4      0.000795    0.000290
   4         0           4      0.000349    0.000139
   5         0           4      0.000145    0.000064
   6         0           4      0.000039    0.000018
   7         1           3      0.000011    0.000005
   8         3           1      0.000003    0.000002
   9         4           0      0.000001    0.000000    Roots Converged
 ---------------------------------------------------
 
 ---------------------------------------------------
         TDDFT/TDA Excitation Energies              
 ---------------------------------------------------

 Excited state   1: excitation energy (eV) =    2.7683
 Total energy for state  1:                  -286.72697544 au
    <S**2>     :  0.9750
    Trans. Mom.:  0.3529 X  -0.0529 Y  -0.0685 Z
    Strength   :     0.0089544893
    S(  1) --> V(  1) amplitude = -0.6025 alpha
    D( 24) --> S(  1) amplitude =  0.7612 beta

 Excited state   2: excitation energy (eV) =    3.0571
 Total energy for state  2:                  -286.71636206 au
    <S**2>     :  0.9448
    Trans. Mom.:  0.0417 X   0.0412 Y  -0.0764 Z
    Strength   :     0.0006945316
    D( 22) --> S(  1) amplitude =  0.1859 beta
    D( 23) --> S(  1) amplitude =  0.9549 beta

 Excited state   3: excitation energy (eV) =    3.1448
 Total energy for state  3:                  -286.71313971 au
    <S**2>     :  0.9010
    Trans. Mom.:  0.0329 X  -0.0233 Y   0.0560 Z
    Strength   :     0.0003669122
    S(  1) --> V(  1) amplitude = -0.3116 alpha
    S(  1) --> V(  2) amplitude =  0.1674 alpha
    D( 22) --> S(  1) amplitude =  0.8736 beta
    D( 23) --> S(  1) amplitude = -0.2230 beta

 Excited state   4: excitation energy (eV) =    3.7899
 Total energy for state  4:                  -286.68943091 au
    <S**2>     :  0.8248
    Trans. Mom.:  0.6084 X  -0.2043 Y  -0.3791 Z
    Strength   :     0.0515898644
    S(  1) --> V(  1) amplitude =  0.6273 alpha
    S(  1) --> V(  2) amplitude =  0.4730 alpha
    D( 22) --> S(  1) amplitude =  0.2027 beta
    D( 24) --> S(  1) amplitude =  0.5269 beta
 
 ---------------------------------------------------

 Stability analysis will be performed
 ---------------------------------------------------
 Iter    Rts Conv    Rts Left    Ttl Dev     Max Dev
 ---------------------------------------------------
   1         0           8      0.005748    0.000929
   2         0           8      0.002309    0.000640
   3         0           8      0.001558    0.000751
   4         0           8      0.001179    0.000784
   5         4           4      0.001211    0.000961
   6         4           4      0.001121    0.000744
   7         4           4      0.000319    0.000151
   8         4           4      0.000081    0.000039
   9         5           3      0.000020    0.000009
  10         6           2      0.000006    0.000002
  11         8           0      0.000002    0.000001    Roots Converged
 UKS-> UKS   stable,    smallest eigenvalue:      0.0756199
 UKS->CUKS   stable,    smallest eigenvalue:      0.1085045
 ---------------------------------------------------
  SETman timing summary (seconds)
  CPU time                81.14s
  System time              0.00s
  Wall time               83.62s
 
 --------------------------------------------------------------
 
                    Orbital Energies (a.u.)
 --------------------------------------------------------------
 
 Alpha MOs
 -- Occupied --
-14.327 -10.232 -10.213 -10.210 -10.209 -10.204 -10.197  -0.949
 -0.817  -0.749  -0.690  -0.599  -0.557  -0.540  -0.512  -0.476
 -0.428  -0.411  -0.384  -0.377  -0.348  -0.278  -0.266  -0.264
 -0.196
 -- Virtual --
 -0.023   0.014   0.071   0.115   0.135   0.147   0.153   0.158
  0.166   0.193   0.230   0.274   0.285   0.367   0.407   0.431
  0.483   0.512   0.532   0.547   0.566   0.590   0.601   0.618
  0.627   0.644   0.666   0.683   0.709   0.731   0.779   0.802
  0.807   0.831   0.842   0.847   0.862   0.882   0.898   0.920
  0.930   0.996   1.012   1.030   1.108   1.206   1.282   1.332
  1.409   1.443   1.449   1.477   1.518   1.529   1.600   1.663
  1.744   1.788   1.815   1.868   1.921   1.943   1.963   2.033
  2.049   2.086   2.102   2.168   2.223   2.264   2.271   2.358
  2.385   2.403   2.465   2.534   2.552   2.635   2.666   2.717
  2.751   2.790   2.864   2.932   3.016   3.919   4.100   4.176
  4.239   4.324   4.442   4.617
 
 Beta MOs
 -- Occupied --
-14.321 -10.235 -10.214 -10.209 -10.205 -10.197 -10.193  -0.942
 -0.808  -0.742  -0.685  -0.590  -0.554  -0.533  -0.507  -0.470
 -0.420  -0.409  -0.380  -0.375  -0.332  -0.265  -0.258  -0.243
 -- Virtual --
 -0.087  -0.013   0.026   0.085   0.117   0.140   0.149   0.157
  0.160   0.166   0.196   0.232   0.277   0.289   0.371   0.418
  0.434   0.487   0.518   0.533   0.555   0.571   0.596   0.605
  0.621   0.631   0.648   0.670   0.686   0.715   0.733   0.788
  0.808   0.811   0.835   0.845   0.855   0.868   0.891   0.904
  0.922   0.937   1.001   1.019   1.038   1.110   1.210   1.286
  1.341   1.416   1.447   1.456   1.484   1.529   1.533   1.606
  1.670   1.768   1.791   1.832   1.872   1.933   1.956   1.965
  2.038   2.053   2.094   2.117   2.174   2.227   2.272   2.277
  2.361   2.392   2.410   2.466   2.540   2.560   2.640   2.671
  2.718   2.754   2.800   2.875   2.934   3.017   3.930   4.110
  4.189   4.241   4.322   4.446   4.617
 --------------------------------------------------------------
 
          Ground-State Mulliken Net Atomic Charges

     Atom                 Charge (a.u.)    Spin (a.u.)
  --------------------------------------------------------
      1 C                     0.028905      -0.123699
      2 C                    -0.123278       0.267812
      3 C                    -0.207620       0.026173
      4 C                    -0.106538      -0.124758
      5 C                     0.022624      -0.208779
      6 N                    -0.359623       0.315741
      7 H                     0.141973       0.004525
      8 H                     0.143135      -0.012558
      9 H                     0.161590       0.011945
     10 H                     0.142597       0.047628
     11 H                     0.167273       0.019186
     12 C                    -0.164101       0.761281
     13 H                     0.153063       0.015503
  --------------------------------------------------------
  Sum of atomic charges =     0.000000
  Sum of spin   charges =     1.000000

 -----------------------------------------------------------------
                    Cartesian Multipole Moments
 -----------------------------------------------------------------
    Charge (ESU x 10^10)
                 0.0000
    Dipole Moment (Debye)
         X      -1.3170      Y      -1.9209      Z      -0.6967
       Tot       2.4310
    Quadrupole Moments (Debye-Ang)
        XX     -39.2973     XY      -3.4621     YY     -41.5766
        XZ      -0.9594     YZ      -0.2032     ZZ     -39.6464
    Octopole Moments (Debye-Ang^2)
       XXX      -6.0338    XXY     -11.9732    XYY     -12.6956
       YYY     -26.5756    XXZ       3.9190    XYZ      -1.0629
       YYZ      -4.2103    XZZ     -10.5698    YZZ      -4.6249
       ZZZ       0.4728
    Hexadecapole Moments (Debye-Ang^3)
      XXXX    -403.6986   XXXY     -22.7860   XXYY    -113.8905
      XYYY     -35.1877   YYYY    -232.9124   XXXZ      41.5297
      XXYZ      -4.0845   XYYZ      10.9868   YYYZ     -17.9196
      XXZZ     -89.6129   XYZZ      -9.5367   YYZZ     -65.2900
      XZZZ      36.3683   YZZZ     -10.5124   ZZZZ    -141.5271
 -----------------------------------------------------------------
Archival summary:
1\1\c8-89\SP\ProcedureUnspecified\6-31G*\166(2)\hpark21\ThuMar301:33:492022ThuMar301:33:492022\0\\#,ProcedureUnspecified,6-31G*,\\0,2\N\C,1,1.32182\H,2,1.0864,1,120.687\C,1,1.40055,2,105.982,3,-165.085,0\H,4,1.08531,1,118.659,2,-178.072,0\C,4,1.3572,1,114.183,2,1.8049,0\H,6,1.08304,4,127.231,1,-177.858,0\C,6,1.50481,4,107.393,1,-1.10221,0\H,8,1.09996,6,113.974,4,123.125,0\C,8,1.51855,6,113.026,4,-103.523,0\H,10,1.09249,8,123.801,6,-76.1971,0\C,10,1.31968,8,107.673,6,100.383,0\H,12,1.08506,10,138.754,8,-177.699,0\\\@

 Total job time:  88.83s(wall), 84.47s(cpu) 
 Thu Mar  3 01:33:49 2022

        *************************************************************
        *                                                           *
        *  Thank you very much for using Q-Chem.  Have a nice day.  *
        *                                                           *
        *************************************************************


