13
image # 1 Energy = -286.92433
C 1.64316   0.25175   -0.30594  
C 1.06426   -0.97487  -0.57280  
C -0.30668  -1.37347  -0.37922  
C -1.32007  -0.60685  0.11400   
C -0.12858  1.59227   0.55299   
N 1.16359   1.41611   0.18965   
H 2.70898   0.31450   -0.53655  
H 1.73146   -1.73127  -0.97912  
H -0.54707  -2.39702  -0.65976  
H -2.30165  -1.06963  0.19425   
H -0.31332  2.60181   0.92684   
C -1.23597  0.76548   0.54526   
H -2.15812  1.21118   0.91042   
13
image # 2 Energy = -286.92056
C 1.67568   0.22869   -0.30407  
C 1.07778   -0.96133  -0.55224  
C -0.31230  -1.34606  -0.40781  
C -1.33932  -0.60317  0.12685   
C -0.11702  1.58972   0.49732   
N 1.16298   1.43852   0.15779   
H 2.74113   0.29711   -0.50563  
H 1.73534   -1.74563  -0.93049  
H -0.55992  -2.34423  -0.73326  
H -2.32159  -1.07448  0.15913   
H -0.29184  2.62920   0.82150   
C -1.24723  0.73172   0.63198   
H -2.20022  1.14210   1.03301   
13
image # 3 Energy = -286.91449
C 1.70324   0.23480   -0.28764  
C 1.07902   -0.96876  -0.53406  
C -0.31578  -1.30674  -0.43783  
C -1.34963  -0.58965  0.13804   
C -0.11335  1.59688   0.45761   
N 1.15508   1.43843   0.11590   
H 2.77213   0.28170   -0.47412  
H 1.73614   -1.75917  -0.87979  
H -0.57310  -2.29183  -0.81007  
H -2.33989  -1.06639  0.12044   
H -0.28833  2.64130   0.71110   
C -1.25397  0.69088   0.72130   
H -2.21065  1.07259   1.14960   
13
image # 4 Energy = -286.91003
C 1.70580   0.22023   -0.26579  
C 1.08856   -0.95323  -0.51051  
C -0.32378  -1.26939  -0.47119  
C -1.35166  -0.57740  0.14322   
C -0.11748  1.58845   0.44352   
N 1.12960   1.43086   0.06228   
H 2.80531   0.26919   -0.43760  
H 1.73575   -1.77929  -0.82847  
H -0.58678  -2.23379  -0.89271  
H -2.34844  -1.04332  0.08123   
H -0.30716  2.64959   0.59755   
C -1.25223  0.66197   0.80140   
H -2.18142  1.00244   1.26276   
13
image # 5 Energy = -286.90307
C 1.73093   0.21429   -0.24539  
C 1.09378   -0.96240  -0.48982  
C -0.33034  -1.22176  -0.50750  
C -1.35460  -0.57615  0.14069   
C -0.12691  1.57072   0.41301   
N 1.11698   1.42708   0.00964   
H 2.81490   0.25835   -0.39073  
H 1.72851   -1.79578  -0.76876  
H -0.60011  -2.16039  -0.98311  
H -2.35113  -1.00328  0.03892   
H -0.34119  2.65466   0.48568   
C -1.23550  0.62183   0.88165   
H -2.15303  0.93147   1.39158   
13
image # 6 Energy = -286.89278
C 1.73640   0.20583   -0.22757  
C 1.09741   -0.96047  -0.46535  
C -0.32755  -1.17654  -0.54859  
C -1.35284  -0.55782  0.14706   
C -0.13563  1.56566   0.36901   
N 1.10977   1.41998   -0.03375  
H 2.82940   0.24944   -0.34218  
H 1.71908   -1.81779  -0.71049  
H -0.61135  -2.07451  -1.07585  
H -2.36230  -0.95860  -0.00530  
H -0.38114  2.63325   0.38126   
C -1.21266  0.56839   0.95570   
H -2.12181  0.85880   1.52118   
13
image # 7 Energy = -286.89487
C 1.73420   0.20138   -0.20130  
C 1.09672   -0.97237  -0.44380  
C -0.32640  -1.12889  -0.58530  
C -1.34028  -0.54586  0.14007   
C -0.14349  1.53867   0.34146   
N 1.06793   1.41268   -0.07636  
H 2.83429   0.24195   -0.27513  
H 1.70497   -1.84652  -0.64665  
H -0.62501  -1.97754  -1.19393  
H -2.36340  -0.89803  -0.04592  
H -0.45286  2.59711   0.26686   
C -1.17064  0.54898   1.02148   
H -2.03476  0.78275   1.65471   
13
image # 8 Energy = -286.88562
C 1.72707   0.19077   -0.16860  
C 1.09364   -0.98215  -0.42377  
C -0.32735  -1.09361  -0.62554  
C -1.32609  -0.52693  0.13656   
C -0.16319  1.51816   0.32453   
N 1.03221   1.39403   -0.11673  
H 2.81934   0.24234   -0.18765  
H 1.68869   -1.88166  -0.58560  
H -0.63688  -1.85420  -1.32971  
H -2.35543  -0.82744  -0.07739  
H -0.55789  2.52986   0.15303   
C -1.10844  0.51953   1.05359   
H -1.90989  0.72577   1.79241   
13
image # 9 Energy = -286.87751
C 1.73307   0.18610   -0.14528  
C 1.09408   -0.98302  -0.40534  
C -0.33042  -1.04101  -0.65419  
C -1.32919  -0.51673  0.13498   
C -0.16722  1.49371   0.28200   
N 1.04573   1.38729   -0.14263  
H 2.82339   0.23819   -0.12712  
H 1.66456   -1.90076  -0.53937  
H -0.63919  -1.72824  -1.43240  
H -2.36544  -0.77455  -0.10824  
H -0.62608  2.46682   0.06435   
C -1.08782  0.47077   1.11405   
H -1.84473  0.65729   1.89577   
13
image # 10 Energy = -286.86821
C 1.73853   0.17912   -0.11309  
C 1.09156   -0.98232  -0.38949  
C -0.34073  -0.99539  -0.68062  
C -1.33105  -0.51380  0.13213   
C -0.17311  1.45992   0.26048   
N 1.04772   1.37923   -0.15488  
H 2.82142   0.23606   -0.05100  
H 1.63977   -1.92004  -0.51042  
H -0.63778  -1.57331  -1.54413  
H -2.37496  -0.73428  -0.12688  
H -0.71781  2.35882   -0.02544  
C -1.05552  0.44289   1.14271   
H -1.74302  0.62073   1.98895   
13
image # 11 Energy = -286.85364
C 1.75149   0.17383   -0.07524  
C 1.08426   -0.97032  -0.38151  
C -0.34390  -0.94784  -0.69691  
C -1.35532  -0.52006  0.13936   
C -0.16695  1.40907   0.25841   
N 1.06403   1.37178   -0.13911  
H 2.83649   0.22330   0.02279   
H 1.60408   -1.92034  -0.51101  
H -0.63103  -1.38478  -1.64526  
H -2.39364  -0.73031  -0.12750  
H -0.79843  2.22058   -0.11862  
C -1.03736  0.41787   1.15077   
H -1.65470  0.61661   2.04577   
13
image # 12 Energy = -286.82500
C 1.78794   0.17303   -0.06713  
C 1.08977   -0.94739  -0.37682  
C -0.33915  -0.85301  -0.69414  
C -1.38293  -0.53108  0.16154   
C -0.14144  1.35740   0.19544   
N 1.11444   1.37615   -0.11150  
H 2.87800   0.20424   0.03278   
H 1.57794   -1.91450  -0.53161  
H -0.61674  -1.24294  -1.67577  
H -2.41348  -0.76344  -0.12874  
H -0.80672  2.14280   -0.15975  
C -1.08546  0.36858   1.19092   
H -1.70841  0.59285   2.08171   
13
image # 13 Energy = -286.82102
C 1.81632   0.16192   -0.02110  
C 1.09353   -0.92947  -0.38380  
C -0.34963  -0.77745  -0.71751  
C -1.40713  -0.55645  0.19169   
C -0.13405  1.28533   0.19062   
N 1.12736   1.37375   -0.03991  
H 2.89702   0.18186   0.09867   
H 1.54570   -1.89298  -0.58220  
H -0.61150  -1.03018  -1.74678  
H -2.43711  -0.86129  -0.07865  
H -0.85084  1.99974   -0.24562  
C -1.09015  0.35844   1.17586   
H -1.64991  0.65151   2.07690   
13
image # 14 Energy = -286.78316
C 1.84192   0.17025   -0.03410  
C 1.10428   -0.91243  -0.38948  
C -0.33741  -0.67337  -0.71637  
C -1.43727  -0.58352  0.22056   
C -0.11579  1.23027   0.09304   
N 1.17589   1.38199   0.00009   
H 2.92731   0.17590   0.08371   
H 1.54377   -1.88785  -0.60967  
H -0.60240  -0.94845  -1.72318  
H -2.43343  -0.92873  -0.06118  
H -0.83195  1.98616   -0.24123  
C -1.15350  0.31781   1.20628   
H -1.73738  0.64141   2.08695   
13
image # 15 Energy = -286.81265
C 1.84885   0.17703   -0.04023  
C 1.11528   -0.90917  -0.41867  
C -0.31133  -0.57094  -0.69318  
C -1.44420  -0.60422  0.25661   
C -0.10700  1.15886   -0.03531  
N 1.16016   1.37432   0.05165   
H 2.93148   0.19796   0.11199   
H 1.55466   -1.87473  -0.65521  
H -0.60071  -0.82853  -1.73495  
H -2.39520  -1.02927  -0.02883  
H -0.87029  1.91606   -0.24738  
C -1.21047  0.28564   1.23716   
H -1.72706  0.68027   2.11795   
13
image # 16 Energy = -286.78153
C 1.86262   0.18087   -0.07939  
C 1.12722   -0.90884  -0.40627  
C -0.29192  -0.52755  -0.68681  
C -1.43908  -0.58896  0.26639   
C -0.07950  1.17810   -0.16831  
N 1.17569   1.38921   0.04243   
H 2.93908   0.21088   0.06185   
H 1.56691   -1.88257  -0.62189  
H -0.58984  -0.89514  -1.69000  
H -2.40194  -0.95541  -0.07573  
H -0.83077  1.98206   -0.18266  
C -1.26398  0.21822   1.31011   
H -1.82589  0.57388   2.15940   
13
image # 17 Energy = -286.80978
C 1.88893   0.17412   -0.10277  
C 1.13313   -0.90667  -0.39445  
C -0.27902  -0.49023  -0.66904  
C -1.43777  -0.56269  0.27042   
C -0.03828  1.18408   -0.22790  
N 1.19548   1.39160   0.02254   
H 2.95940   0.20631   0.02958   
H 1.54873   -1.89577  -0.61193  
H -0.57100  -0.85650  -1.66830  
H -2.39544  -0.91118  -0.13073  
H -0.81390  1.96257   -0.15862  
C -1.32777  0.17577   1.36405   
H -1.91103  0.50336   2.20593   
13
image # 18 Energy = -286.80319
C 1.91253   0.17459   -0.12402  
C 1.13903   -0.90546  -0.37214  
C -0.26644  -0.44016  -0.65691  
C -1.44852  -0.51806  0.27577   
C -0.00349  1.19340   -0.28994  
N 1.22832   1.39990   -0.01449  
H 2.98860   0.19233   -0.01309  
H 1.51449   -1.90440  -0.57639  
H -0.54733  -0.83808  -1.64450  
H -2.39165  -0.82963  -0.19151  
H -0.77458  1.96850   -0.14231  
C -1.38463  0.10529   1.42429   
H -2.01183  0.37703   2.25391   
13
image # 19 Energy = -286.81804
C 1.93300   0.17007   -0.13752  
C 1.13656   -0.89121  -0.35338  
C -0.25451  -0.38608  -0.63844  
C -1.46006  -0.48592  0.27035   
C 0.02726   1.19986   -0.34763  
N 1.25569   1.41038   -0.04955  
H 3.01354   0.17652   -0.04237  
H 1.47551   -1.90809  -0.53788  
H -0.52848  -0.81031  -1.62754  
H -2.39121  -0.74703  -0.24510  
H -0.73285  1.96726   -0.14875  
C -1.42604  0.03491   1.48194   
H -2.09024  0.24487   2.30146   
13
image # 20 Energy = -286.82057
C 1.92743   0.17214   -0.14360  
C 1.11426   -0.86713  -0.32277  
C -0.25934  -0.37194  -0.65255  
C -1.46175  -0.44783  0.25530   
C 0.04626   1.25816   -0.40191  
N 1.27546   1.42654   -0.09934  
H 3.01300   0.15417   -0.07114  
H 1.43958   -1.90196  -0.42758  
H -0.53254  -0.88397  -1.60024  
H -2.41673  -0.57410  -0.27170  
H -0.63438  2.08672   -0.18742  
C -1.41047  -0.10087  1.53143   
H -2.13910  0.02508   2.31322   
13
image # 21 Energy = -286.81537
C 1.94203   0.18104   -0.14438  
C 1.09228   -0.85594  -0.30432  
C -0.26574  -0.32389  -0.65544  
C -1.46263  -0.42444  0.25786   
C 0.06681   1.27184   -0.46412  
N 1.29610   1.43648   -0.12556  
H 3.01102   0.13842   -0.07212  
H 1.40528   -1.89101  -0.35516  
H -0.53413  -0.86059  -1.58826  
H -2.43187  -0.46146  -0.26678  
H -0.57971  2.13397   -0.24855  
C -1.41228  -0.22739  1.55836   
H -2.16297  -0.14081  2.32917   
13
image # 22 Energy = -286.82323
C 1.93692   0.17962   -0.14853  
C 1.07948   -0.83885  -0.28484  
C -0.26958  -0.28976  -0.64987  
C -1.46625  -0.40188  0.26485   
C 0.09043   1.28945   -0.51429  
N 1.31459   1.44610   -0.15670  
H 3.00995   0.12573   -0.06441  
H 1.37059   -1.87930  -0.28286  
H -0.54159  -0.83618  -1.58207  
H -2.44072  -0.34888  -0.24729  
H -0.53442  2.18447   -0.32288  
C -1.41047  -0.35160  1.57368   
H -2.17127  -0.30199  2.33598   
13
image # 23 Energy = -286.82110
C 1.93244   0.18037   -0.15273  
C 1.05979   -0.82887  -0.26223  
C -0.28390  -0.27662  -0.64350  
C -1.45887  -0.38093  0.27444   
C 0.10575   1.30239   -0.54508  
N 1.34185   1.46218   -0.19775  
H 3.00870   0.11579   -0.04612  
H 1.33381   -1.86944  -0.20527  
H -0.55287  -0.80260  -1.57766  
H -2.44589  -0.22877  -0.20850  
H -0.50131  2.24441   -0.41887  
C -1.39955  -0.47078  1.57548   
H -2.16825  -0.46920  2.33417   
13
image # 24 Energy = -286.82575
C 1.93626   0.18498   -0.15271  
C 1.04714   -0.81918  -0.23986  
C -0.29151  -0.24060  -0.63794  
C -1.46236  -0.36533  0.27620   
C 0.13429   1.31990   -0.56543  
N 1.34217   1.46765   -0.24685  
H 3.00971   0.10678   -0.02320  
H 1.29805   -1.86711  -0.14494  
H -0.56186  -0.74826  -1.57452  
H -2.43958  -0.13115  -0.16456  
H -0.47737  2.25574   -0.51668  
C -1.39686  -0.57103  1.58795   
H -2.16241  -0.61248  2.33569   
13
image # 25 Energy = -286.83189
C 1.94002   0.18531   -0.15049  
C 1.03787   -0.80571  -0.21192  
C -0.28978  -0.19817  -0.62358  
C -1.46927  -0.35374  0.30361   
C 0.12367   1.34343   -0.58267  
N 1.38159   1.47858   -0.30364  
H 3.00632   0.10030   0.00467   
H 1.25884   -1.86672  -0.07953  
H -0.57823  -0.69420  -1.57944  
H -2.42954  -0.02381  -0.10643  
H -0.45344  2.25875   -0.63537  
C -1.39175  -0.67237  1.57667   
H -2.15665  -0.76713  2.33260   
13
image # 26 Energy = -286.83650
C 1.94503   0.18505   -0.14526  
C 1.02967   -0.79635  -0.19143  
C -0.28740  -0.15737  -0.59831  
C -1.46769  -0.33222  0.32156   
C 0.14063   1.32807   -0.60779  
N 1.40936   1.49030   -0.35366  
H 3.00442   0.09687   0.03190   
H 1.21854   -1.85640  -0.03138  
H -0.58847  -0.62689  -1.58220  
H -2.41932  0.05579   -0.05368  
H -0.45479  2.25005   -0.73947  
C -1.40302  -0.75747  1.58183   
H -2.14210  -0.89173  2.33052   
13
image # 27 Energy = -286.84045
C 1.94816   0.18795   -0.13945  
C 1.02122   -0.78286  -0.17103  
C -0.28604  -0.12911  -0.57337  
C -1.46101  -0.30996  0.37130   
C 0.17993   1.31945   -0.63777  
N 1.42099   1.49391   -0.41126  
H 3.00627   0.09479   0.06200   
H 1.17382   -1.83990  0.01692   
H -0.59523  -0.54684  -1.57363  
H -2.40863  0.13546   0.00463   
H -0.45953  2.22331   -0.85053  
C -1.41250  -0.83531  1.55017   
H -2.13529  -1.01977  2.33535   
13
image # 28 Energy = -286.84433
C 1.95531   0.19276   -0.13497  
C 1.01163   -0.76375  -0.15190  
C -0.28328  -0.10677  -0.54902  
C -1.45912  -0.27140  0.39753   
C 0.18990   1.32975   -0.68920  
N 1.44769   1.48729   -0.46700  
H 3.01025   0.09544   0.09406   
H 1.12645   -1.81759  0.06586   
H -0.59722  -0.45380  -1.55051  
H -2.38951  0.21112   0.07005   
H -0.45581  2.16232   -0.96111  
C -1.43006  -0.91849  1.53962   
H -2.12622  -1.14689  2.33659   
