13   
From optimize.out: Frame 1 / 2, Energy=    -286.8568459332
C        1.5870652534    0.3115518464    0.1267216970
C        1.0215815176   -0.9083749137    0.2855610216
C       -0.4329636366   -1.0944262623    0.1727617238
C       -1.2410022657    0.2902820537    0.0321549352
C       -0.4009609007    1.4970703397    0.1630320294
N        0.8875236918    1.5238103250    0.1176442601
H        2.6680848805    0.4248334914    0.1289018472
H        1.6433408653   -1.7754195058    0.4940218413
H       -0.9035079651   -1.8892285098    0.7524279463
H       -2.2274361209    0.3356255424    0.4971265749
H       -0.9119776441    2.4430759432    0.3566101985
C       -1.0653034798   -0.6536244720   -1.0737404309
H       -0.6244441963   -0.5051758780   -2.0532236450
13   
From optimize.out: Frame 1 / 2, Energy=    -286.9243498978
C        1.5953634426    0.3477174267    0.4386172245
C        1.2099226352   -0.9556867766    0.1860617932
C       -0.0918997649   -1.4408740635   -0.1953800545
C       -1.3486149852    0.7292625838   -0.2462227673
C       -0.3744798668    1.6453504102    0.1029430103
N        0.9379269961    1.5301650247    0.4155429285
H        2.6452269771    0.4696487451    0.7144154812
H        1.9899443681   -1.7059729163    0.2906697537
H       -0.1716686725   -2.5157835074   -0.3450325069
H       -2.3347673097    1.1432683327   -0.4425845824
H       -0.7130837002    2.6830591646    0.1399434110
C       -1.2197927979   -0.6992142018   -0.3849399394
H       -2.1240773219   -1.2309402222   -0.6740337519
