13   
Frame   0 IRC: Energy =  -286.8779320000 ; +0.0000 kcal/mol
C       -0.3038720000    0.0434630000    0.0000000000
C        0.0928920000   -0.0042590000    0.0000000000
C       -0.1800550000   -0.0580210000    0.0000000000
C        0.0212420000   -0.0648000000    0.0000000000
C       -0.1121490000    0.0435810000    0.0000000000
N       -0.1710120000    0.0132310000    0.0000000000
H        0.1263870000   -0.0024550000    0.0000000000
H        0.1339840000    0.0029620000    0.0000000000
H        0.1514920000    0.0256570000    0.0000000000
H        0.1524640000    0.0385530000    0.0000000000
H        0.1298610000    0.0013450000    0.0000000000
C       -0.1959880000    0.9784500000   -0.0000000000
H        0.1547540000   -0.0177080000   -0.0000000000
13   
Frame   1 IRC: Energy =  -286.8779280000 ; +0.0025 kcal/mol
C       -0.3042110000    0.0435440000    0.0000000000
C        0.0931000000   -0.0044140000    0.0000000000
C       -0.1805210000   -0.0579180000    0.0000000000
C        0.0215960000   -0.0647710000    0.0000000000
C       -0.1122910000    0.0436340000    0.0000000000
N       -0.1709390000    0.0132320000    0.0000000000
H        0.1264160000   -0.0024610000    0.0000000000
H        0.1339980000    0.0029600000    0.0000000000
H        0.1515040000    0.0255580000    0.0000000000
H        0.1524790000    0.0385910000    0.0000000000
H        0.1298670000    0.0013440000    0.0000000000
C       -0.1957830000    0.9783840000   -0.0000000000
H        0.1547850000   -0.0176830000   -0.0000000000
13   
Frame   2 IRC: Energy =  -286.8779160000 ; +0.0100 kcal/mol
C       -0.3041260000    0.0433120000    0.0000000000
C        0.0928410000   -0.0042180000    0.0000000000
C       -0.1798970000   -0.0579000000    0.0000000000
C        0.0210290000   -0.0646760000    0.0000000000
C       -0.1124900000    0.0435520000    0.0000000000
N       -0.1709480000    0.0133400000    0.0000000000
H        0.1263740000   -0.0024560000    0.0000000000
H        0.1340500000    0.0029830000    0.0000000000
H        0.1514910000    0.0256350000    0.0000000000
H        0.1524590000    0.0385160000    0.0000000000
H        0.1298850000    0.0013650000    0.0000000000
C       -0.1954750000    0.9782700000   -0.0000000000
H        0.1548060000   -0.0177240000   -0.0000000000
13   
Frame   3 IRC: Energy =  -286.8779100000 ; +0.0138 kcal/mol
C       -0.3045080000    0.0433850000    0.0000000000
C        0.0930510000   -0.0043840000    0.0000000000
C       -0.1803860000   -0.0577800000    0.0000000000
C        0.0214060000   -0.0646420000    0.0000000000
C       -0.1126740000    0.0436080000    0.0000000000
N       -0.1708620000    0.0133490000    0.0000000000
H        0.1264060000   -0.0024630000    0.0000000000
H        0.1340700000    0.0029840000    0.0000000000
H        0.1515030000    0.0255250000    0.0000000000
H        0.1524750000    0.0385600000    0.0000000000
H        0.1298930000    0.0013650000    0.0000000000
C       -0.1952180000    0.9781920000   -0.0000000000
H        0.1548430000   -0.0176990000   -0.0000000000
13   
Frame   4 IRC: Energy =  -286.8778990000 ; +0.0207 kcal/mol
C       -0.3043390000    0.0431610000    0.0000000000
C        0.0927720000   -0.0041720000    0.0000000000
C       -0.1797420000   -0.0578030000    0.0000000000
C        0.0208370000   -0.0645740000    0.0000000000
C       -0.1128280000    0.0435260000    0.0000000000
N       -0.1708790000    0.0134410000    0.0000000000
H        0.1263640000   -0.0024570000    0.0000000000
H        0.1341080000    0.0030040000    0.0000000000
H        0.1514910000    0.0256180000    0.0000000000
H        0.1524560000    0.0384830000    0.0000000000
H        0.1299030000    0.0013850000    0.0000000000
C       -0.1949940000    0.9781350000   -0.0000000000
H        0.1548500000   -0.0177450000   -0.0000000000
13   
Frame   5 IRC: Energy =  -286.8778910000 ; +0.0257 kcal/mol
C       -0.3047670000    0.0432140000    0.0000000000
C        0.0929820000   -0.0043380000    0.0000000000
C       -0.1802640000   -0.0576740000    0.0000000000
C        0.0212150000   -0.0645390000    0.0000000000
C       -0.1130930000    0.0435970000    0.0000000000
N       -0.1707880000    0.0134590000    0.0000000000
H        0.1263920000   -0.0024640000    0.0000000000
H        0.1341320000    0.0030060000    0.0000000000
H        0.1515070000    0.0255000000    0.0000000000
H        0.1524800000    0.0385390000    0.0000000000
H        0.1299110000    0.0013870000    0.0000000000
C       -0.1945960000    0.9780440000   -0.0000000000
H        0.1548890000   -0.0177300000   -0.0000000000
13   
Frame   6 IRC: Energy =  -286.8778680000 ; +0.0402 kcal/mol
C       -0.3047490000    0.0429060000    0.0000000000
C        0.0927310000   -0.0041330000    0.0000000000
C       -0.1795810000   -0.0576480000    0.0000000000
C        0.0207200000   -0.0644320000    0.0000000000
C       -0.1135110000    0.0434960000    0.0000000000
N       -0.1707320000    0.0135940000    0.0000000000
H        0.1263600000   -0.0024580000    0.0000000000
H        0.1342080000    0.0030360000    0.0000000000
H        0.1514890000    0.0255680000    0.0000000000
H        0.1524480000    0.0384350000    0.0000000000
H        0.1299570000    0.0014140000    0.0000000000
C       -0.1942760000    0.9779840000   -0.0000000000
H        0.1549370000   -0.0177620000   -0.0000000000
13   
Frame   7 IRC: Energy =  -286.8778580000 ; +0.0464 kcal/mol
C       -0.3052790000    0.0429810000    0.0000000000
C        0.0930780000   -0.0043280000    0.0000000000
C       -0.1802520000   -0.0574750000    0.0000000000
C        0.0213480000   -0.0644020000    0.0000000000
C       -0.1135590000    0.0434970000    0.0000000000
N       -0.1705900000    0.0135930000    0.0000000000
H        0.1264160000   -0.0024650000    0.0000000000
H        0.1342600000    0.0030330000    0.0000000000
H        0.1514870000    0.0254140000    0.0000000000
H        0.1524480000    0.0385060000    0.0000000000
H        0.1299770000    0.0014160000    0.0000000000
C       -0.1943150000    0.9779400000   -0.0000000000
H        0.1549830000   -0.0177090000   -0.0000000000
13   
Frame   8 IRC: Energy =  -286.8778330000 ; +0.0621 kcal/mol
C       -0.3049740000    0.0425990000    0.0000000000
C        0.0924360000   -0.0040140000    0.0000000000
C       -0.1793840000   -0.0575800000    0.0000000000
C        0.0203340000   -0.0643650000    0.0000000000
C       -0.1143500000    0.0435800000    0.0000000000
N       -0.1706810000    0.0137500000    0.0000000000
H        0.1263240000   -0.0024560000    0.0000000000
H        0.1342640000    0.0030730000    0.0000000000
H        0.1515240000    0.0255580000    0.0000000000
H        0.1524960000    0.0384670000    0.0000000000
H        0.1299720000    0.0014450000    0.0000000000
C       -0.1929310000    0.9778210000   -0.0000000000
H        0.1549690000   -0.0178780000   -0.0000000000
13   
Frame   9 IRC: Energy =  -286.8778210000 ; +0.0697 kcal/mol
C       -0.3054200000    0.0425170000    0.0000000000
C        0.0927060000   -0.0039710000    0.0000000000
C       -0.1799370000   -0.0575350000    0.0000000000
C        0.0202410000   -0.0643520000    0.0000000000
C       -0.1144370000    0.0435870000    0.0000000000
N       -0.1706950000    0.0138060000    0.0000000000
H        0.1263310000   -0.0024560000    0.0000000000
H        0.1342510000    0.0030770000    0.0000000000
H        0.1515670000    0.0254680000    0.0000000000
H        0.1525400000    0.0385390000    0.0000000000
H        0.1299050000    0.0014600000    0.0000000000
C       -0.1919980000    0.9778070000   -0.0000000000
H        0.1549460000   -0.0179470000   -0.0000000000
13   
Frame  10 IRC: Energy =  -286.8777780000 ; +0.0966 kcal/mol
C       -0.3058330000    0.0421970000    0.0000000000
C        0.0929930000   -0.0039560000    0.0000000000
C       -0.1793590000   -0.0573860000    0.0000000000
C        0.0210740000   -0.0642450000    0.0000000000
C       -0.1148920000    0.0432340000    0.0000000000
N       -0.1702770000    0.0138930000    0.0000000000
H        0.1263870000   -0.0024500000    0.0000000000
H        0.1344700000    0.0030950000    0.0000000000
H        0.1514360000    0.0254190000    0.0000000000
H        0.1523680000    0.0383300000    0.0000000000
H        0.1301020000    0.0014850000    0.0000000000
C       -0.1936000000    0.9781300000   -0.0000000000
H        0.1551310000   -0.0177470000   -0.0000000000
13   
Frame  11 IRC: Energy =  -286.8777540000 ; +0.1117 kcal/mol
C       -0.3068420000    0.0424350000    0.0000000000
C        0.0938730000   -0.0043890000    0.0000000000
C       -0.1806580000   -0.0570660000    0.0000000000
C        0.0226870000   -0.0642070000    0.0000000000
C       -0.1147830000    0.0431390000    0.0000000000
N       -0.1699320000    0.0138390000    0.0000000000
H        0.1265310000   -0.0024640000    0.0000000000
H        0.1346010000    0.0030760000    0.0000000000
H        0.1513830000    0.0251200000    0.0000000000
H        0.1523080000    0.0383970000    0.0000000000
H        0.1301820000    0.0014760000    0.0000000000
C       -0.1945990000    0.9781920000   -0.0000000000
H        0.1552490000   -0.0175490000   -0.0000000000
13   
Frame  12 IRC: Energy =  -286.8774490000 ; +0.3031 kcal/mol
C       -0.3082700000    0.0387610000    0.0000000000
C        0.0923490000   -0.0016800000    0.0000000000
C       -0.1785890000   -0.0577710000    0.0000000000
C        0.0176780000   -0.0643550000    0.0000000000
C       -0.1199320000    0.0428530000    0.0000000000
N       -0.1700340000    0.0145440000    0.0000000000
H        0.1261550000   -0.0023460000    0.0000000000
H        0.1349310000    0.0033900000    0.0000000000
H        0.1514490000    0.0255220000    0.0000000000
H        0.1522700000    0.0382980000    0.0000000000
H        0.1303150000    0.0018230000    0.0000000000
C       -0.1834970000    0.9793090000   -0.0000000000
H        0.1551770000   -0.0183470000   -0.0000000000
13   
Frame  13 IRC: Energy =  -286.8774100000 ; +0.3276 kcal/mol
C       -0.3094600000    0.0385830000    0.0000000000
C        0.0932680000   -0.0016750000    0.0000000000
C       -0.1799210000   -0.0577290000    0.0000000000
C        0.0178490000   -0.0642650000    0.0000000000
C       -0.1208910000    0.0428190000    0.0000000000
N       -0.1698230000    0.0146120000    0.0000000000
H        0.1262150000   -0.0023410000    0.0000000000
H        0.1349630000    0.0034040000    0.0000000000
H        0.1515110000    0.0252910000    0.0000000000
H        0.1523350000    0.0381700000    0.0000000000
H        0.1302610000    0.0018490000    0.0000000000
C       -0.1815670000    0.9796370000   -0.0000000000
H        0.1552600000   -0.0183550000   -0.0000000000
13   
Frame  14 IRC: Energy =  -286.8771930000 ; +0.4637 kcal/mol
C       -0.3102250000    0.0367900000    0.0000000000
C        0.0926930000   -0.0003660000    0.0000000000
C       -0.1785290000   -0.0579180000    0.0000000000
C        0.0162160000   -0.0643330000    0.0000000000
C       -0.1224410000    0.0422990000    0.0000000000
N       -0.1696250000    0.0147840000    0.0000000000
H        0.1260660000   -0.0022800000    0.0000000000
H        0.1352870000    0.0035580000    0.0000000000
H        0.1513620000    0.0255090000    0.0000000000
H        0.1520390000    0.0381470000    0.0000000000
H        0.1305430000    0.0020240000    0.0000000000
C       -0.1786730000    0.9802460000   -0.0000000000
H        0.1552870000   -0.0184600000   -0.0000000000
13   
Frame  15 IRC: Energy =  -286.8771200000 ; +0.5095 kcal/mol
C       -0.3120090000    0.0365600000    0.0000000000
C        0.0942180000   -0.0004070000    0.0000000000
C       -0.1802500000   -0.0578050000    0.0000000000
C        0.0174260000   -0.0641010000    0.0000000000
C       -0.1242760000    0.0420040000    0.0000000000
N       -0.1687290000    0.0148370000    0.0000000000
H        0.1261620000   -0.0022730000    0.0000000000
H        0.1355250000    0.0035620000    0.0000000000
H        0.1513760000    0.0252490000    0.0000000000
H        0.1520870000    0.0378820000    0.0000000000
H        0.1305910000    0.0020500000    0.0000000000
C       -0.1776330000    0.9807140000   -0.0000000000
H        0.1555110000   -0.0182730000   -0.0000000000
13   
Frame  16 IRC: Energy =  -286.8764850000 ; +0.9080 kcal/mol
C       -0.3143520000    0.0318710000    0.0000000000
C        0.0930430000    0.0034780000    0.0000000000
C       -0.1818120000   -0.0582500000    0.0000000000
C        0.0040680000   -0.0635360000    0.0000000000
C       -0.1303190000    0.0418010000    0.0000000000
N       -0.1688080000    0.0160510000    0.0000000000
H        0.1255510000   -0.0021210000    0.0000000000
H        0.1362830000    0.0040580000    0.0000000000
H        0.1519160000    0.0258770000    0.0000000000
H        0.1522940000    0.0382340000    0.0000000000
H        0.1310350000    0.0024890000    0.0000000000
C       -0.1542320000    0.9800550000   -0.0000000000
H        0.1553320000   -0.0200080000   -0.0000000000
13   
Frame  17 IRC: Energy =  -286.8763830000 ; +0.9720 kcal/mol
C       -0.3147600000    0.0315860000    0.0000000000
C        0.0927940000    0.0034620000    0.0000000000
C       -0.1825950000   -0.0582710000    0.0000000000
C        0.0034190000   -0.0634000000    0.0000000000
C       -0.1327180000    0.0417960000    0.0000000000
N       -0.1686250000    0.0160900000    0.0000000000
H        0.1255930000   -0.0021140000    0.0000000000
H        0.1364050000    0.0041080000    0.0000000000
H        0.1520060000    0.0257220000    0.0000000000
H        0.1524350000    0.0379560000    0.0000000000
H        0.1311570000    0.0024550000    0.0000000000
C       -0.1506820000    0.9806500000   -0.0000000000
H        0.1555700000   -0.0200400000   -0.0000000000
13   
Frame  18 IRC: Energy =  -286.8756600000 ; +1.4257 kcal/mol
C       -0.3174160000    0.0262860000    0.0000000000
C        0.0929140000    0.0079740000    0.0000000000
C       -0.1882050000   -0.0591070000    0.0000000000
C       -0.0127900000   -0.0625320000   -0.0000000000
C       -0.1404030000    0.0412090000    0.0000000000
N       -0.1673860000    0.0177350000    0.0000000000
H        0.1251700000   -0.0019400000    0.0000000000
H        0.1375260000    0.0046490000    0.0000000000
H        0.1528680000    0.0259670000    0.0000000000
H        0.1529420000    0.0379200000    0.0000000000
H        0.1316150000    0.0029390000    0.0000000000
C       -0.1226650000    0.9810300000   -0.0000000000
H        0.1558270000   -0.0221290000   -0.0000000000
13   
Frame  19 IRC: Energy =  -286.8753050000 ; +1.6485 kcal/mol (Transition State)
C       -0.3183520000    0.0199500000    0.0000000000
C        0.0922230000    0.0130200000    0.0000000000
C       -0.1945190000   -0.0613650000    0.0000000000
C       -0.0290430000   -0.0623710000   -0.0000000000
C       -0.1503010000    0.0398150000    0.0000000000
N       -0.1662730000    0.0192470000    0.0000000000
H        0.1250220000   -0.0017000000    0.0000000000
H        0.1385320000    0.0052910000    0.0000000000
H        0.1535230000    0.0258320000    0.0000000000
H        0.1532550000    0.0370770000    0.0000000000
H        0.1321510000    0.0033570000    0.0000000000
C       -0.0930190000    0.9860610000   -0.0000000000
H        0.1568010000   -0.0242140000   -0.0000000000
13   
Frame  20 IRC: Energy =  -286.8757230000 ; +1.3862 kcal/mol
C       -0.3177120000    0.0129310000    0.0000000000
C        0.0920440000    0.0185540000    0.0000000000
C       -0.1996900000   -0.0649100000    0.0000000000
C       -0.0429370000   -0.0628040000   -0.0000000000
C       -0.1597290000    0.0372370000    0.0000000000
N       -0.1645270000    0.0205390000    0.0000000000
H        0.1250570000   -0.0014090000    0.0000000000
H        0.1393980000    0.0059880000    0.0000000000
H        0.1536790000    0.0256820000    0.0000000000
H        0.1529760000    0.0358620000    0.0000000000
H        0.1327230000    0.0038010000    0.0000000000
C       -0.0694710000    0.9948130000   -0.0000000000
H        0.1581880000   -0.0262850000   -0.0000000000
13   
Frame  21 IRC: Energy =  -286.8768920000 ; +0.6526 kcal/mol
C       -0.3137660000    0.0058590000    0.0000000000
C        0.0901050000    0.0239950000    0.0000000000
C       -0.2018060000   -0.0696490000    0.0000000000
C       -0.0523720000   -0.0642150000   -0.0000000000
C       -0.1697470000    0.0336470000    0.0000000000
N       -0.1625190000    0.0213930000    0.0000000000
H        0.1252920000   -0.0010930000    0.0000000000
H        0.1398400000    0.0066990000    0.0000000000
H        0.1531290000    0.0257840000    0.0000000000
H        0.1519840000    0.0345320000    0.0000000000
H        0.1333970000    0.0042060000    0.0000000000
C       -0.0533390000    1.0071990000   -0.0000000000
H        0.1598020000   -0.0283560000   -0.0000000000
13   
Frame  22 IRC: Energy =  -286.8782590000 ; -0.2052 kcal/mol
C       -0.3108520000    0.0008150000    0.0000000000
C        0.0892490000    0.0282600000    0.0000000000
C       -0.2015240000   -0.0736820000    0.0000000000
C       -0.0592020000   -0.0653310000   -0.0000000000
C       -0.1737880000    0.0303630000    0.0000000000
N       -0.1607970000    0.0215060000   -0.0000000000
H        0.1252590000   -0.0008700000    0.0000000000
H        0.1402450000    0.0073440000    0.0000000000
H        0.1526410000    0.0259560000    0.0000000000
H        0.1509520000    0.0336180000    0.0000000000
H        0.1336990000    0.0047410000    0.0000000000
C       -0.0466010000    1.0174310000   -0.0000000000
H        0.1607210000   -0.0301520000   -0.0000000000
13   
Frame  23 IRC: Energy =  -286.8792510000 ; -0.8277 kcal/mol
C       -0.3082250000   -0.0021110000    0.0000000000
C        0.0879970000    0.0301370000    0.0000000000
C       -0.2014040000   -0.0763760000    0.0000000000
C       -0.0590280000   -0.0667200000   -0.0000000000
C       -0.1809250000    0.0281760000    0.0000000000
N       -0.1588060000    0.0216210000   -0.0000000000
H        0.1256350000   -0.0007260000    0.0000000000
H        0.1401620000    0.0076310000    0.0000000000
H        0.1517430000    0.0259670000    0.0000000000
H        0.1499190000    0.0327390000    0.0000000000
H        0.1340710000    0.0048770000    0.0000000000
C       -0.0427780000    1.0259890000   -0.0000000000
H        0.1616380000   -0.0312050000   -0.0000000000
13   
Frame  24 IRC: Energy =  -286.8809420000 ; -1.8888 kcal/mol
C       -0.3018420000   -0.0060640000    0.0000000000
C        0.0827610000    0.0335220000    0.0000000000
C       -0.1954870000   -0.0805350000    0.0000000000
C       -0.0613430000   -0.0685540000   -0.0000000000
C       -0.1850110000    0.0245920000    0.0000000000
N       -0.1580500000    0.0207890000   -0.0000000000
H        0.1254680000   -0.0005420000    0.0000000000
H        0.1401110000    0.0082250000    0.0000000000
H        0.1509780000    0.0266120000    0.0000000000
H        0.1485990000    0.0321880000    0.0000000000
H        0.1343780000    0.0053700000    0.0000000000
C       -0.0428860000    1.0373370000   -0.0000000000
H        0.1623260000   -0.0329380000   -0.0000000000
13   
Frame  25 IRC: Energy =  -286.8819820000 ; -2.5414 kcal/mol
C       -0.3003300000   -0.0078900000    0.0000000000
C        0.0823680000    0.0341910000    0.0000000000
C       -0.1952230000   -0.0825480000    0.0000000000
C       -0.0589210000   -0.0701240000   -0.0000000000
C       -0.1917110000    0.0227040000    0.0000000000
N       -0.1558850000    0.0205000000   -0.0000000000
H        0.1259160000   -0.0004400000    0.0000000000
H        0.1399580000    0.0084320000    0.0000000000
H        0.1499680000    0.0263520000    0.0000000000
H        0.1475260000    0.0313500000    0.0000000000
H        0.1345520000    0.0055320000    0.0000000000
C       -0.0412190000    1.0458110000   -0.0000000000
H        0.1630000000   -0.0338700000   -0.0000000000
13   
Frame  26 IRC: Energy =  -286.8836060000 ; -3.5605 kcal/mol
C       -0.2944830000   -0.0100510000    0.0000000000
C        0.0763110000    0.0358370000    0.0000000000
C       -0.1880890000   -0.0855200000    0.0000000000
C       -0.0586570000   -0.0723270000   -0.0000000000
C       -0.1948250000    0.0200420000    0.0000000000
N       -0.1557190000    0.0187490000   -0.0000000000
H        0.1257270000   -0.0003360000    0.0000000000
H        0.1398090000    0.0089390000    0.0000000000
H        0.1492830000    0.0270980000    0.0000000000
H        0.1463710000    0.0311260000    0.0000000000
H        0.1347220000    0.0059340000    0.0000000000
C       -0.0438170000    1.0557680000   -0.0000000000
H        0.1633640000   -0.0352590000   -0.0000000000
13   
Frame  27 IRC: Energy =  -286.8843930000 ; -4.0543 kcal/mol
C       -0.2938440000   -0.0108670000    0.0000000000
C        0.0763410000    0.0353490000    0.0000000000
C       -0.1878170000   -0.0864840000    0.0000000000
C       -0.0559290000   -0.0737200000   -0.0000000000
C       -0.1999980000    0.0188760000    0.0000000000
N       -0.1542080000    0.0182520000   -0.0000000000
H        0.1261470000   -0.0002750000   -0.0000000000
H        0.1395980000    0.0090030000    0.0000000000
H        0.1484680000    0.0266660000    0.0000000000
H        0.1455660000    0.0305010000    0.0000000000
H        0.1347400000    0.0060550000    0.0000000000
C       -0.0427980000    1.0624450000   -0.0000000000
H        0.1637340000   -0.0358010000   -0.0000000000
13   
Frame  28 IRC: Energy =  -286.8859920000 ; -5.0577 kcal/mol
C       -0.2892060000   -0.0120520000   -0.0000000000
C        0.0708050000    0.0357980000    0.0000000000
C       -0.1815760000   -0.0888590000    0.0000000000
C       -0.0542930000   -0.0764170000   -0.0000000000
C       -0.2033870000    0.0170430000    0.0000000000
N       -0.1539700000    0.0159600000   -0.0000000000
H        0.1261490000   -0.0002110000   -0.0000000000
H        0.1394210000    0.0094380000    0.0000000000
H        0.1477980000    0.0273740000    0.0000000000
H        0.1445790000    0.0304270000    0.0000000000
H        0.1347560000    0.0063770000    0.0000000000
C       -0.0450180000    1.0720900000   -0.0000000000
H        0.1639410000   -0.0369680000   -0.0000000000
13   
Frame  29 IRC: Energy =  -286.8872890000 ; -5.8716 kcal/mol
C       -0.2870220000   -0.0124850000   -0.0000000000
C        0.0695940000    0.0350230000    0.0000000000
C       -0.1809340000   -0.0906620000    0.0000000000
C       -0.0497800000   -0.0797870000   -0.0000000000
C       -0.2110290000    0.0160960000    0.0000000000
N       -0.1517870000    0.0141490000   -0.0000000000
H        0.1262410000   -0.0001600000   -0.0000000000
H        0.1390490000    0.0094960000    0.0000000000
H        0.1465750000    0.0268670000    0.0000000000
H        0.1434290000    0.0298850000    0.0000000000
H        0.1347850000    0.0065300000    0.0000000000
C       -0.0433880000    1.0829090000   -0.0000000000
H        0.1642680000   -0.0378610000   -0.0000000000
13   
Frame  30 IRC: Energy =  -286.8876960000 ; -6.1270 kcal/mol
C       -0.2861300000   -0.0125880000    0.0000000000
C        0.0675570000    0.0345020000    0.0000000000
C       -0.1779730000   -0.0906530000    0.0000000000
C       -0.0506720000   -0.0802330000   -0.0000000000
C       -0.2100240000    0.0159570000    0.0000000000
N       -0.1523590000    0.0133500000   -0.0000000000
H        0.1264870000   -0.0001600000   -0.0000000000
H        0.1390910000    0.0097020000    0.0000000000
H        0.1466880000    0.0273770000    0.0000000000
H        0.1433800000    0.0300200000    0.0000000000
H        0.1346810000    0.0066060000    0.0000000000
C       -0.0448970000    1.0841040000   -0.0000000000
H        0.1641700000   -0.0379850000   -0.0000000000
13   
Frame  31 IRC: Energy =  -286.8892610000 ; -7.1091 kcal/mol
C       -0.2824660000   -0.0127450000    0.0000000000
C        0.0635460000    0.0339100000    0.0000000000
C       -0.1738960000   -0.0931070000    0.0000000000
C       -0.0463780000   -0.0846080000   -0.0000000000
C       -0.2162190000    0.0159350000    0.0000000000
N       -0.1512880000    0.0105160000   -0.0000000000
H        0.1265570000   -0.0001340000   -0.0000000000
H        0.1387400000    0.0097680000    0.0000000000
H        0.1458460000    0.0272540000    0.0000000000
H        0.1424410000    0.0298440000    0.0000000000
H        0.1345080000    0.0067820000    0.0000000000
C       -0.0454900000    1.0955780000   -0.0000000000
H        0.1641020000   -0.0389940000   -0.0000000000
13   
Frame  32 IRC: Energy =  -286.8897390000 ; -7.4090 kcal/mol
C       -0.2814770000   -0.0128620000    0.0000000000
C        0.0619950000    0.0335760000    0.0000000000
C       -0.1726120000   -0.0937850000    0.0000000000
C       -0.0468670000   -0.0857790000   -0.0000000000
C       -0.2165630000    0.0161450000    0.0000000000
N       -0.1508480000    0.0095600000   -0.0000000000
H        0.1268050000   -0.0001360000   -0.0000000000
H        0.1387520000    0.0100260000    0.0000000000
H        0.1456860000    0.0279220000    0.0000000000
H        0.1422640000    0.0299250000    0.0000000000
H        0.1344400000    0.0067700000    0.0000000000
C       -0.0456340000    1.0978890000   -0.0000000000
H        0.1640580000   -0.0392510000   -0.0000000000
13   
Frame  33 IRC: Energy =  -286.8908720000 ; -8.1200 kcal/mol
C       -0.2789840000   -0.0124550000    0.0000000000
C        0.0594940000    0.0327830000    0.0000000000
C       -0.1702780000   -0.0957590000    0.0000000000
C       -0.0426540000   -0.0903410000   -0.0000000000
C       -0.2225890000    0.0177260000    0.0000000000
N       -0.1500400000    0.0072060000   -0.0000000000
H        0.1270420000   -0.0001350000   -0.0000000000
H        0.1384290000    0.0097930000    0.0000000000
H        0.1450360000    0.0272500000    0.0000000000
H        0.1415730000    0.0299540000    0.0000000000
H        0.1342170000    0.0068210000    0.0000000000
C       -0.0449140000    1.1070910000   -0.0000000000
H        0.1636680000   -0.0399340000   -0.0000000000
13   
Frame  34 IRC: Energy =  -286.8912250000 ; -8.3415 kcal/mol
C       -0.2776790000   -0.0126660000    0.0000000000
C        0.0579180000    0.0335100000    0.0000000000
C       -0.1700430000   -0.0968510000    0.0000000000
C       -0.0435450000   -0.0910390000   -0.0000000000
C       -0.2218420000    0.0179610000    0.0000000000
N       -0.1497250000    0.0065570000   -0.0000000000
H        0.1270460000   -0.0001430000   -0.0000000000
H        0.1385030000    0.0100310000    0.0000000000
H        0.1450510000    0.0281390000    0.0000000000
H        0.1415980000    0.0300710000    0.0000000000
H        0.1341610000    0.0067450000    0.0000000000
C       -0.0450920000    1.1078180000   -0.0000000000
H        0.1636480000   -0.0401320000   -0.0000000000
13   
Frame  35 IRC: Energy =  -286.8925100000 ; -9.1478 kcal/mol
C       -0.2738690000   -0.0124080000    0.0000000000
C        0.0544060000    0.0340720000    0.0000000000
C       -0.1676910000   -0.1005150000    0.0000000000
C       -0.0398370000   -0.0972330000   -0.0000000000
C       -0.2280990000    0.0217370000    0.0000000000
N       -0.1480070000    0.0039550000   -0.0000000000
H        0.1272100000   -0.0001700000   -0.0000000000
H        0.1382070000    0.0098400000    0.0000000000
H        0.1444490000    0.0281540000    0.0000000000
H        0.1409880000    0.0302700000    0.0000000000
H        0.1338590000    0.0066040000    0.0000000000
C       -0.0446510000    1.1167060000   -0.0000000000
H        0.1630360000   -0.0410130000   -0.0000000000
13   
Frame  36 IRC: Energy =  -286.8929630000 ; -9.4321 kcal/mol
C       -0.2718730000   -0.0126080000    0.0000000000
C        0.0521630000    0.0353540000    0.0000000000
C       -0.1673030000   -0.1022840000    0.0000000000
C       -0.0402210000   -0.0990180000   -0.0000000000
C       -0.2277980000    0.0230780000    0.0000000000
N       -0.1478420000    0.0030560000   -0.0000000000
H        0.1272930000   -0.0001870000   -0.0000000000
H        0.1382190000    0.0099600000    0.0000000000
H        0.1444530000    0.0289300000    0.0000000000
H        0.1409810000    0.0305070000    0.0000000000
H        0.1337470000    0.0064360000    0.0000000000
C       -0.0446130000    1.1180040000   -0.0000000000
H        0.1627930000   -0.0412300000   -0.0000000000
13   
Frame  37 IRC: Energy =  -286.8939910000 ; -10.0772 kcal/mol
C       -0.2686520000   -0.0123970000    0.0000000000
C        0.0500790000    0.0374850000    0.0000000000
C       -0.1664790000   -0.1065850000    0.0000000000
C       -0.0367070000   -0.1057480000   -0.0000000000
C       -0.2340090000    0.0288730000    0.0000000000
N       -0.1461650000    0.0011520000   -0.0000000000
H        0.1272910000   -0.0002310000   -0.0000000000
H        0.1379710000    0.0095320000    0.0000000000
H        0.1439940000    0.0287710000    0.0000000000
H        0.1404600000    0.0306410000    0.0000000000
H        0.1334770000    0.0061350000    0.0000000000
C       -0.0432510000    1.1243780000   -0.0000000000
H        0.1619900000   -0.0420070000   -0.0000000000
13   
Frame  38 IRC: Energy =  -286.8942490000 ; -10.2391 kcal/mol
C       -0.2674650000   -0.0127070000    0.0000000000
C        0.0481810000    0.0388530000    0.0000000000
C       -0.1661450000   -0.1078460000    0.0000000000
C       -0.0373490000   -0.1066090000   -0.0000000000
C       -0.2327090000    0.0297520000    0.0000000000
N       -0.1464600000    0.0007900000   -0.0000000000
H        0.1275790000   -0.0002400000   -0.0000000000
H        0.1380050000    0.0096440000    0.0000000000
H        0.1440920000    0.0294610000    0.0000000000
H        0.1405610000    0.0308980000    0.0000000000
H        0.1333610000    0.0059970000    0.0000000000
C       -0.0434840000    1.1240950000   -0.0000000000
H        0.1618330000   -0.0420870000   -0.0000000000
13   