13   
Frame   0 IRC: Energy =  -286.8779320000 ; +0.0000 kcal/mol
C        1.5873289585    0.3105980964    0.1000687428
C        1.0214047612   -0.9092646147    0.2867349057
C       -0.4302157509   -1.0999914516    0.1749640934
C       -1.2458170961    0.2948107366    0.0320547059
C       -0.4044589831    1.4971746462    0.1666984895
N        0.8857736128    1.5204628525    0.0967223321
H        2.6671638611    0.4237109492    0.0869528804
H        1.6445635492   -1.7664400755    0.5274819332
H       -0.9030193638   -1.8931835179    0.7535143566
H       -2.2320609298    0.3377942611    0.4962566867
H       -0.9067044450    2.4388871050    0.3952845511
C       -1.0619798708   -0.6509441857   -1.0684442062
H       -0.6219783030   -0.5036148017   -2.0482894714
13   
Frame   1 IRC: Energy =  -286.8779280000 ; +0.0025 kcal/mol
C        1.5871690906    0.3103472650    0.0996364869
C        1.0211802600   -0.9095364654    0.2869060691
C       -0.4298185046   -1.1002289103    0.1751985212
C       -1.2458939779    0.2948774045    0.0318555740
C       -0.4045978655    1.4971535993    0.1668063011
N        0.8856608887    1.5206267535    0.0962931768
H        2.6673015722    0.4237094594    0.0862505515
H        1.6444012641   -1.7660793222    0.5284926356
H       -0.9030498664   -1.8931887575    0.7532474709
H       -2.2322524200    0.3378074430    0.4960461424
H       -0.9065138021    2.4386578329    0.3961005772
C       -1.0620300018   -0.6507760955   -1.0684258719
H       -0.6215566372   -0.5033702067   -2.0484076349
13   
Frame   2 IRC: Energy =  -286.8779160000 ; +0.0100 kcal/mol
C        1.5870749167    0.3103741113    0.0979517175
C        1.0212422280   -0.9091903456    0.2874542421
C       -0.4300688410   -1.1004144401    0.1745994632
C       -1.2463147591    0.2952240530    0.0314755141
C       -0.4046493291    1.4968935376    0.1670153190
N        0.8855485751    1.5199125458    0.0947749668
H        2.6668695982    0.4234870927    0.0837496453
H        1.6442178765   -1.7654044688    0.5325068266
H       -0.9033183316   -1.8937329873    0.7526537472
H       -2.2327308967    0.3378189041    0.4952686810
H       -0.9061214914    2.4381817318    0.3992479039
C       -1.0612103264   -0.6505605892   -1.0686545471
H       -0.6205392192   -0.5025891453   -2.0480434795
13   
Frame   3 IRC: Energy =  -286.8779100000 ; +0.0138 kcal/mol
C        1.5868885306    0.3100883647    0.0973120941
C        1.0209839578   -0.9094951898    0.2877019841
C       -0.4296069612   -1.1007066348    0.1748101641
C       -1.2464253871    0.2953320799    0.0312021743
C       -0.4048126355    1.4968522798    0.1671577002
N        0.8854040360    1.5200439741    0.0941403080
H        2.6670093650    0.4234725040    0.0827471454
H        1.6440114670   -1.7649050697    0.5340603286
H       -0.9033634561   -1.8937928078    0.7522704395
H       -2.2329947397    0.3378394208    0.4949711049
H       -0.9058513487    2.4378642582    0.4004674786
C       -1.0612159909   -0.6503447880   -1.0686607125
H       -0.6200268373   -0.5022483913   -2.0481802093
13   
Frame   4 IRC: Energy =  -286.8778990000 ; +0.0207 kcal/mol
C        1.5868818105    0.3101978054    0.0960421235
C        1.0210978843   -0.9091495717    0.2881129546
C       -0.4298912416   -1.1008217625    0.1742162690
C       -1.2467767889    0.2956152348    0.0309358713
C       -0.4047949187    1.4966283254    0.1672911334
N        0.8853496938    1.5194176617    0.0929927244
H        2.6666124664    0.4232943515    0.0808989805
H        1.6438935589   -1.7644117119    0.5371747964
H       -0.9035607892   -1.8942455057    0.7518179846
H       -2.2333230536    0.3378452162    0.4943952256
H       -0.9055583154    2.4375158840    0.4028646257
C       -1.0605358798   -0.6501998963   -1.0688459698
H       -0.6193944266   -0.5016860309   -2.0478967191
13   
Frame   5 IRC: Energy =  -286.8778910000 ; +0.0257 kcal/mol
C        1.5866405130    0.3098915922    0.0951954030
C        1.0207868370   -0.9094692358    0.2884581307
C       -0.4292870917   -1.1012411209    0.1743435851
C       -1.2469396004    0.2958281867    0.0305353932
C       -0.4049844161    1.4965263972    0.1674969059
N        0.8851945053    1.5195123577    0.0921227234
H        2.6667261750    0.4232647404    0.0795582723
H        1.6435921683   -1.7637217018    0.5393329798
H       -0.9036197687   -1.8943343562    0.7512906728
H       -2.2336685347    0.3378608321    0.4940086321
H       -0.9051627772    2.4370304556    0.4045102093
C       -1.0604488459   -0.6498918167   -1.0688307881
H       -0.6188291638   -0.5012563305   -2.0480221196
13   
Frame   6 IRC: Energy =  -286.8778680000 ; +0.0402 kcal/mol
C        1.5866420289    0.3098517091    0.0928723638
C        1.0208402738   -0.9092483561    0.2892165842
C       -0.4295019792   -1.1014212587    0.1736396488
C       -1.2475026278    0.2961850463    0.0300461540
C       -0.4051305579    1.4962161934    0.1677254257
N        0.8850696630    1.5186536667    0.0900243787
H        2.6663133537    0.4230250178    0.0763096030
H        1.6433816806   -1.7626465714    0.5451897075
H       -0.9038703592   -1.8951152208    0.7502606927
H       -2.2342138738    0.3379130348    0.4929813383
H       -0.9045764853    2.4364515101    0.4089386467
C       -1.0596271223   -0.6496313702   -1.0692168644
H       -0.6178239944   -0.5002334011   -2.0479876790
13   
Frame   7 IRC: Energy =  -286.8778580000 ; +0.0464 kcal/mol
C        1.5864058554    0.3093974024    0.0919902496
C        1.0206547985   -0.9096045112    0.2895062439
C       -0.4291057777   -1.1016061897    0.1739992105
C       -1.2474703845    0.2961194782    0.0297989164
C       -0.4052606585    1.4964013177    0.1677918950
N        0.8848100992    1.5188646661    0.0892874329
H        2.6666519296    0.4230303898    0.0751598218
H        1.6432895445   -1.7621449851    0.5473182102
H       -0.9039044174   -1.8953207914    0.7497632013
H       -2.2346612555    0.3379787369    0.4926978890
H       -0.9042788245    2.4361708796    0.4105488134
C       -1.0598061417   -0.6494698060   -1.0695175929
H       -0.6173247675   -0.4998165874   -2.0483442910
13   
Frame   8 IRC: Energy =  -286.8778330000 ; +0.0621 kcal/mol
C        1.5863461540    0.3097864980    0.0901847397
C        1.0205026118   -0.9092046629    0.2903462749
C       -0.4285526925   -1.1026224001    0.1725501988
C       -1.2483127523    0.2972472107    0.0287634449
C       -0.4053475451    1.4956190708    0.1682872329
N        0.8849712934    1.5179270797    0.0871616632
H        2.6659326454    0.4227619214    0.0719293394
H        1.6424576068   -1.7606474811    0.5528262683
H       -0.9042162604   -1.8957520252    0.7486929247
H       -2.2350974087    0.3378080175    0.4917793472
H       -0.9033979973    2.4348556987    0.4144996685
C       -1.0583977941   -0.6487452848   -1.0691566285
H       -0.6168878610   -0.4990336426   -2.0478644738
13   
Frame   9 IRC: Energy =  -286.8778210000 ; +0.0697 kcal/mol
C        1.5858845006    0.3094406271    0.0898842513
C        1.0201876851   -0.9090589124    0.2905688971
C       -0.4276291004   -1.1034445118    0.1723489565
C       -1.2485251238    0.2978958673    0.0280990412
C       -0.4052964933    1.4952369515    0.1686612527
N        0.8846937235    1.5178798276    0.0863896513
H        2.6660019124    0.4227492802    0.0708477426
H        1.6418826811   -1.7598358515    0.5544182434
H       -0.9042567626   -1.8955808550    0.7481692346
H       -2.2352470733    0.3377086180    0.4915038861
H       -0.9029083128    2.4340798293    0.4155795083
C       -1.0579868328   -0.6482525669   -1.0688040516
H       -0.6168008039   -0.4988183035   -2.0476666137
13   
Frame  10 IRC: Energy =  -286.8777780000 ; +0.0966 kcal/mol
C        1.5862553942    0.3088351289    0.0857947019
C        1.0205116172   -0.9093755555    0.2917832000
C       -0.4289196579   -1.1020074462    0.1725703152
C       -1.2485554806    0.2967676401    0.0284891502
C       -0.4056739411    1.4955141020    0.1686342927
N        0.8844217919    1.5170976618    0.0836139947
H        2.6660541501    0.4226133967    0.0665708918
H        1.6423439624   -1.7586850782    0.5638291945
H       -0.9043725507   -1.8971071268    0.7463612493
H       -2.2359776937    0.3380132014    0.4901188459
H       -0.9023746575    2.4341917010    0.4225098224
C       -1.0581242061   -0.6485768435   -1.0708274912
H       -0.6155887281   -0.4972807815   -2.0494481675
13   
Frame  11 IRC: Energy =  -286.8777540000 ; +0.1117 kcal/mol
C        1.5861187091    0.3078964736    0.0844242274
C        1.0203741422   -0.9102165404    0.2921514031
C       -0.4289413700   -1.1015608290    0.1737784211
C       -1.2481740827    0.2958377348    0.0287958449
C       -0.4059128509    1.4963464954    0.1684570245
N        0.8840087617    1.5178818888    0.0830456978
H        2.6668812552    0.4227357406    0.0655747496
H        1.6427031890   -1.7584597367    0.5663724385
H       -0.9042556033   -1.8974556321    0.7456999979
H       -2.2365891317    0.3382269493    0.4898855690
H       -0.9021817235    2.4342950788    0.4244063749
C       -1.0591356895   -0.6487816820   -1.0717986935
H       -0.6148956055   -0.4967459411   -2.0507930551
13   
Frame  12 IRC: Energy =  -286.8774490000 ; +0.3031 kcal/mol
C        1.5847514064    0.3080444350    0.0705920795
C        1.0197554757   -0.9092297823    0.2962064913
C       -0.4235359016   -1.1108133415    0.1665245979
C       -1.2547545414    0.3041287377    0.0227620776
C       -0.4065122742    1.4929420986    0.1703156183
N        0.8837861917    1.5122913592    0.0657770436
H        2.6644362376    0.4216209916    0.0501223748
H        1.6407902640   -1.7451680523    0.6070251812
H       -0.8984700037   -1.9111453513    0.7336449725
H       -2.2448138253    0.3481050842    0.4795474467
H       -0.8930187458    2.4273222397    0.4543074934
C       -1.0545720140   -0.6448462391   -1.0682903141
H       -0.6178422693   -0.4932521796   -2.0485350628
13   
Frame  13 IRC: Energy =  -286.8774100000 ; +0.3276 kcal/mol
C        1.5842470528    0.3073696314    0.0697780986
C        1.0190447275   -0.9095914403    0.2964750253
C       -0.4221181065   -1.1123028805    0.1667721850
C       -1.2557529036    0.3052192956    0.0223260874
C       -0.4067921131    1.4920644260    0.1705226164
N        0.8836473513    1.5126508672    0.0643200147
H        2.6647901346    0.4216831070    0.0488702316
H        1.6403426763   -1.7436788013    0.6100169932
H       -0.8977561093   -1.9116709917    0.7322433011
H       -2.2450130600    0.3488578246    0.4784480666
H       -0.8921240908    2.4266404666    0.4565539363
C       -1.0547087355   -0.6443255735   -1.0673015901
H       -0.6178068236   -0.4929159309   -2.0490249661
13   
Frame  14 IRC: Energy =  -286.8771930000 ; +0.4637 kcal/mol
C        1.5838556257    0.3069594546    0.0617887901
C        1.0196964000   -0.9097789133    0.2977840997
C       -0.4217305191   -1.1151741552    0.1644068793
C       -1.2583792727    0.3072442958    0.0208936481
C       -0.4071607374    1.4921877005    0.1705888320
N        0.8830412315    1.5094843918    0.0562022021
H        2.6635182431    0.4215578618    0.0438850032
H        1.6418713798   -1.7376634227    0.6289619086
H       -0.8934198401   -1.9212523487    0.7266623355
H       -2.2507940215    0.3565638800    0.4730025256
H       -0.8870551541    2.4250209815    0.4711500930
C       -1.0543130947   -0.6438457336   -1.0672092642
H       -0.6191302407   -0.4913039926   -2.0481170530
13   
Frame  15 IRC: Energy =  -286.8771200000 ; +0.5095 kcal/mol
C        1.5833658709    0.3058362702    0.0592894713
C        1.0190984266   -0.9108707352    0.2982423596
C       -0.4209453361   -1.1162148191    0.1651241820
C       -1.2595822539    0.3076695800    0.0213421420
C       -0.4075652758    1.4916551118    0.1699660988
N        0.8832637002    1.5104924405    0.0544828641
H        2.6641597026    0.4218340009    0.0428349786
H        1.6426136738   -1.7362533604    0.6337474284
H       -0.8919980131   -1.9234145220    0.7249068544
H       -2.2522273412    0.3586474887    0.4714337218
H       -0.8859317851    2.4253303681    0.4750840244
C       -1.0555632213   -0.6440478218   -1.0668925685
H       -0.6186881477   -0.4906640016   -2.0495615570
13   
Frame  16 IRC: Energy =  -286.8764850000 ; +0.9080 kcal/mol
C        1.5793800257    0.3054340550    0.0486725304
C        1.0211900197   -0.9164587998    0.2967014291
C       -0.4081997658   -1.1389691343    0.1532056346
C       -1.2734166512    0.3282679968    0.0081737646
C       -0.4118343603    1.4928514100    0.1700037342
N        0.8810064739    1.5016164007    0.0403181548
H        2.6589196834    0.4221570040    0.0377532141
H        1.6483968074   -1.7257854631    0.6634106258
H       -0.8802257020   -1.9438768566    0.7170076153
H       -2.2652434247    0.3789710987    0.4618843497
H       -0.8752595437    2.4247067028    0.4982125017
C       -1.0515313319   -0.6392742534   -1.0556629901
H       -0.6231822302   -0.4896401608   -2.0396805640
13   
Frame  17 IRC: Energy =  -286.8763830000 ; +0.9720 kcal/mol
C        1.5784976460    0.3052794199    0.0476194725
C        1.0199129401   -0.9188899512    0.2966137948
C       -0.4058185800   -1.1419361953    0.1526971988
C       -1.2752193296    0.3317062375    0.0072975824
C       -0.4138115981    1.4919150026    0.1699583649
N        0.8810819878    1.5016877248    0.0386647202
H        2.6594244234    0.4224315204    0.0371608751
H        1.6489238364   -1.7241242102    0.6664815219
H       -0.8784258071   -1.9454951303    0.7155480323
H       -2.2659949802    0.3812470790    0.4603892588
H       -0.8737574628    2.4245436385    0.5006811141
C       -1.0515181945   -0.6389698769   -1.0536070780
H       -0.6232948816   -0.4893952588   -2.0395048579
13   
Frame  18 IRC: Energy =  -286.8756600000 ; +1.4257 kcal/mol
C        1.5746524794    0.3050593527    0.0382676397
C        1.0235480959   -0.9260923776    0.2947457580
C       -0.3885558081   -1.1720518733    0.1385691026
C       -1.2929371487    0.3591000537   -0.0102656936
C       -0.4183777894    1.4957881102    0.1688414133
N        0.8800093581    1.4938978401    0.0289105990
H        2.6547964812    0.4229734902    0.0346251063
H        1.6563548048   -1.7180886885    0.6901152001
H       -0.8681165384   -1.9657689555    0.7119965977
H       -2.2798622830    0.4005631599    0.4546329178
H       -0.8664466342    2.4276091397    0.5192128228
C       -1.0476043136   -0.6340045600   -1.0402138394
H       -0.6274607039   -0.4889846916   -2.0294376242
13   
Frame  19 IRC: Energy =  -286.8753050000 ; +1.6485 kcal/mol (Transition State)
C        1.5704341329    0.3062426742    0.0311190586
C        1.0249279345   -0.9356373021    0.2933516493
C       -0.3674453046   -1.2058642419    0.1241435684
C       -1.3119103974    0.3916661075   -0.0285536373
C       -0.4254574773    1.4980083059    0.1688055860
N        0.8801156353    1.4871053072    0.0197657428
H        2.6515484758    0.4235807085    0.0317372104
H        1.6619977888   -1.7122586961    0.7107679456
H       -0.8569216093   -1.9850946266    0.7077826254
H       -2.2925685584    0.4199800235    0.4481392056
H       -0.8598362230    2.4295920130    0.5348233560
C       -1.0427163767   -0.6282724251   -1.0231161284
H       -0.6321680208   -0.4890478479   -2.0187661824
13   
Frame  20 IRC: Energy =  -286.8757230000 ; +1.3862 kcal/mol
C        1.5663145215    0.3076908812    0.0240125189
C        1.0261489462   -0.9456167689    0.2920714059
C       -0.3462606799   -1.2396059030    0.1097367495
C       -1.3308355558    0.4242782046   -0.0467933094
C       -0.4329804373    1.5001802949    0.1688474295
N        0.8805392607    1.4803417859    0.0106114114
H        2.6483255408    0.4241906112    0.0288301300
H        1.6675304648   -1.7063359664    0.7312781349
H       -0.8456623737   -2.0043935139    0.7035127156
H       -2.3052130496    0.4394259563    0.4415818699
H       -0.8532077224    2.4314994801    0.5503188088
C       -1.0378187981   -0.6225314076   -1.0058924973
H       -0.6368801173   -0.4891236544   -2.0081153677
13   
Frame  21 IRC: Energy =  -286.8768920000 ; +0.6526 kcal/mol
C        1.5623783623    0.3097930896    0.0183982298
C        1.0262000704   -0.9579056822    0.2911393299
C       -0.3257576271   -1.2713751592    0.0963860692
C       -1.3487698488    0.4554807084   -0.0635048194
C       -0.4426538017    1.5015733495    0.1694150842
N        0.8818244972    1.4747701899    0.0015326508
H        2.6459903387    0.4249006738    0.0251986888
H        1.6722033531   -1.7002318035    0.7505528167
H       -0.8327638087   -2.0240399847    0.6976248147
H       -2.3173808380    0.4602087197    0.4332922291
H       -0.8465751489    2.4328952221    0.5644796551
C       -1.0324043014   -0.6164822792   -0.9875537982
H       -0.6422912471   -0.4895870443   -1.9969609507
13   
Frame  22 IRC: Energy =  -286.8782590000 ; -0.2052 kcal/mol
C        1.5598586254    0.3109424399    0.0127532623
C        1.0304347207   -0.9624566425    0.2906982510
C       -0.3100179193   -1.2964622705    0.0850064797
C       -1.3626687466    0.4793777691   -0.0769096441
C       -0.4454591897    1.5053771675    0.1697007163
N        0.8808626734    1.4670794379   -0.0053610414
H        2.6414323539    0.4250965278    0.0217564428
H        1.6771928025   -1.6966457778    0.7682498210
H       -0.8220591433   -2.0447753137    0.6928540829
H       -2.3311634061    0.4797396584    0.4258083636
H       -0.8416439807    2.4352316232    0.5772548568
C       -1.0292070532   -0.6123126666   -0.9746135631
H       -0.6475617370   -0.4901919528   -1.9871980276
13   
Frame  23 IRC: Energy =  -286.8792510000 ; -0.8277 kcal/mol
C        1.5569868659    0.3108821164    0.0104715598
C        1.0283024593   -0.9727089023    0.2912312098
C       -0.3014713810   -1.3104308238    0.0810844618
C       -1.3719086359    0.4923272220   -0.0826726723
C       -0.4534475898    1.5049749514    0.1704087055
N        0.8824270631    1.4676319577   -0.0103104950
H        2.6430889932    0.4261263047    0.0187516234
H        1.6795832991   -1.6922324845    0.7782894114
H       -0.8121082541   -2.0555549603    0.6863932254
H       -2.3366793518    0.4931248850    0.4182342228
H       -0.8370543071    2.4359295298    0.5845272324
C       -1.0267690243   -0.6094812032   -0.9638276387
H       -0.6509501367   -0.4905885928   -1.9825808464
13   
Frame  24 IRC: Energy =  -286.8809420000 ; -1.8888 kcal/mol
C        1.5551509061    0.3127096006    0.0063671888
C        1.0335141166   -0.9764363400    0.2916366807
C       -0.2866950003   -1.3315970233    0.0704873489
C       -1.3829456635    0.5140394462   -0.0938547742
C       -0.4563459419    1.5083690958    0.1713542158
N        0.8807283216    1.4584802113   -0.0176182277
H        2.6374081357    0.4260548254    0.0131144567
H        1.6841042546   -1.6874202173    0.7971472372
H       -0.7990605001   -2.0814516684    0.6789206511
H       -2.3529360007    0.5169730147    0.4068902452
H       -0.8308584237    2.4376894581    0.5977630732
C       -1.0236540333   -0.6054262186   -0.9511559423
H       -0.6584101711   -0.4919841845   -1.9710521534
13   
Frame  25 IRC: Energy =  -286.8819820000 ; -2.5414 kcal/mol
C        1.5525819917    0.3116033381    0.0041946155
C        1.0315657335   -0.9860500565    0.2936634782
C       -0.2799770387   -1.3432237494    0.0690425377
C       -1.3912557897    0.5237898066   -0.0970761352
C       -0.4632679196    1.5081445714    0.1723336669
N        0.8820118386    1.4604067263   -0.0219587900
H        2.6395256018    0.4272314863    0.0089081051
H        1.6865356131   -1.6829509696    0.8074275385
H       -0.7871538337   -2.0938782453    0.6698770666
H       -2.3593708639    0.5324781320    0.3967761931
H       -0.8260498429    2.4387893225    0.6051767204
C       -1.0225804683   -0.6036430407   -0.9408378458
H       -0.6625650219   -0.4926973218   -1.9675271509
13   
Frame  26 IRC: Energy =  -286.8836060000 ; -3.5605 kcal/mol
C        1.5514658694    0.3131921464    0.0016302618
C        1.0369862751   -0.9871943308    0.2959581058
C       -0.2686309840   -1.3585467247    0.0613225665
C       -1.3989732110    0.5401877553   -0.1041760173
C       -0.4645800168    1.5112864747    0.1741486294
N        0.8795756270    1.4519416634   -0.0280103707
H        2.6344879522    0.4270272667    0.0010257097
H        1.6908618837   -1.6782512740    0.8258518825
H       -0.7723427982   -2.1229466643    0.6593311664
H       -2.3766136942    0.5588490181    0.3815887381
H       -0.8194267352    2.4404623405    0.6176330802
C       -1.0208242986   -0.6009555527   -0.9298911516
H       -0.6719858696   -0.4950521187   -1.9564126009
13   
Frame  27 IRC: Energy =  -286.8843930000 ; -4.0543 kcal/mol
C        1.5499634970    0.3120712191    0.0007576704
C        1.0348102646   -0.9943187731    0.2989388533
C       -0.2636251589   -1.3656852198    0.0622724576
C       -1.4045514428    0.5459192153   -0.1048566439
C       -0.4695537665    1.5108768914    0.1755885565
N        0.8807616041    1.4542590183   -0.0306459776
H        2.6363676547    0.4279699531   -0.0032633334
H        1.6921381986   -1.6744240955    0.8330008700
H       -0.7621336983   -2.1332221835    0.6504945229
H       -2.3814207119    0.5716957564    0.3717655316
H       -0.8156579404    2.4411917855    0.6227456861
C       -1.0210452772   -0.6001493330   -0.9220553143
H       -0.6760532229   -0.4961842341   -1.9547428793
13   
Frame  28 IRC: Energy =  -286.8859920000 ; -5.0577 kcal/mol
C        1.5493480145    0.3134254706   -0.0002700003
C        1.0388876954   -0.9946942505    0.3038771987
C       -0.2543039560   -1.3777408202    0.0572891934
C       -1.4106005766    0.5591457978   -0.1090630777
C       -0.4703404727    1.5132480097    0.1788411582
N        0.8785353436    1.4481141685   -0.0350881567
H        2.6328439121    0.4277642930   -0.0135662482
H        1.6962511650   -1.6696473189    0.8508822720
H       -0.7445495831   -2.1645191438    0.6358136598
H       -2.3988051402    0.6006663211    0.3521691206
H       -0.8087145424    2.4430004563    0.6343727661
C       -1.0202643997   -0.5986033281   -0.9109679727
H       -0.6882874600   -0.5001596555   -1.9442899133
13   
Frame  29 IRC: Energy =  -286.8872890000 ; -5.8716 kcal/mol
C        1.5465246786    0.3131855354   -0.0001088616
C        1.0386857095   -1.0025510751    0.3118208219
C       -0.2475664551   -1.3888975839    0.0589851036
C       -1.4178497389    0.5684414393   -0.1094270784
C       -0.4770308937    1.5135703183    0.1831878849
N        0.8811215574    1.4494648035   -0.0380377193
H        2.6352324320    0.4287644682   -0.0235799790
H        1.6981293602   -1.6632171569    0.8636537532
H       -0.7248699514   -2.1870621485    0.6173042409
H       -2.4093079845    0.6263717706    0.3310349672
H       -0.8021883169    2.4443961424    0.6430094967
C       -1.0216161907   -0.5980296994   -0.8969261715
H       -0.6992642066   -0.5044368139   -1.9409164585
13   
Frame  30 IRC: Energy =  -286.8876960000 ; -6.1270 kcal/mol
C        1.5478542279    0.3139489340    0.0003510126
C        1.0386667881   -0.9997402466    0.3123983817
C       -0.2443690528   -1.3893322624    0.0571541774
C       -1.4178847944    0.5707691101   -0.1103341426
C       -0.4744393318    1.5145409211    0.1841266177
N        0.8790214513    1.4470478521   -0.0381349992
H        2.6331261403    0.4282558485   -0.0262974261
H        1.6997453021   -1.6634018108    0.8678837711
H       -0.7218595744   -2.1959550051    0.6145608482
H       -2.4139572236    0.6329057101    0.3264151996
H       -0.8011581265    2.4451091348    0.6453370523
C       -1.0212673374   -0.5979360757   -0.8964223821
H       -0.7034784687   -0.5062121100   -1.9370381107
13   
Frame  31 IRC: Energy =  -286.8892610000 ; -7.1091 kcal/mol
C        1.5468701589    0.3148631193    0.0025253338
C        1.0422062258   -1.0015938830    0.3230068024
C       -0.2346779176   -1.4009024357    0.0572088131
C       -1.4235632129    0.5828191992   -0.1114376916
C       -0.4772997718    1.5159532797    0.1902527205
N        0.8797180271    1.4448491928   -0.0392521037
H        2.6319245313    0.4280664707   -0.0396967274
H        1.7016826512   -1.6570925377    0.8832596156
H       -0.6992406864   -2.2281369706    0.5922908785
H       -2.4282814835    0.6650021714    0.2989732486
H       -0.7944862100    2.4473644628    0.6552426275
C       -1.0235068440   -0.5966253776   -0.8816847268
H       -0.7213454682   -0.5145666915   -1.9306887905
13   
Frame  32 IRC: Energy =  -286.8897390000 ; -7.4090 kcal/mol
C        1.5470328534    0.3159809728    0.0037664349
C        1.0401412871   -1.0010111631    0.3250613452
C       -0.2323871600   -1.4018516486    0.0560046050
C       -1.4241849904    0.5854209885   -0.1120188320
C       -0.4762295125    1.5170623203    0.1926189380
N        0.8788694392    1.4442808479   -0.0387987479
H        2.6319669459    0.4278715304   -0.0440571966
H        1.7043931261   -1.6572031950    0.8889435810
H       -0.6921072015   -2.2385527886    0.5852210667
H       -2.4332921205    0.6750960629    0.2905628719
H       -0.7927794293    2.4486648066    0.6583182707
C       -1.0224179890   -0.5976742905   -0.8789178908
H       -0.7290052485   -0.5180844437   -1.9267044460
13   
Frame  33 IRC: Energy =  -286.8908720000 ; -8.1200 kcal/mol
C        1.5471573317    0.3162946557    0.0074873275
C        1.0434765994   -1.0031368977    0.3357661542
C       -0.2234122544   -1.4103235083    0.0584112588
C       -1.4279779863    0.5939328052   -0.1120590413
C       -0.4794134152    1.5183248009    0.1984945425
N        0.8808133024    1.4448817088   -0.0371068999
H        2.6313160655    0.4275586498   -0.0546748725
H        1.7049297173   -1.6521176631    0.8990017995
H       -0.6732017672   -2.2629560562    0.5650278829
H       -2.4414053547    0.7001348148    0.2659758318
H       -0.7884834514    2.4512624031    0.6649333353
C       -1.0267733624   -0.5956035559   -0.8661935632
H       -0.7470254249   -0.5282521572   -1.9250637555
13   
Frame  34 IRC: Energy =  -286.8912250000 ; -8.3415 kcal/mol
C        1.5470675482    0.3177723661    0.0087049267
C        1.0428466928   -1.0012181004    0.3369859947
C       -0.2237390641   -1.4104431213    0.0564091030
C       -1.4271722643    0.5960321589   -0.1127208047
C       -0.4773496783    1.5192811578    0.2003261258
N        0.8797889028    1.4437017939   -0.0360966175
H        2.6312678295    0.4272566397   -0.0574906110
H        1.7072942480   -1.6529320344    0.9028449370
H       -0.6682697183   -2.2699521401    0.5600149056
H       -2.4454071444    0.7070222883    0.2604683027
H       -0.7876318213    2.4523664305    0.6669269348
C       -1.0247554671   -0.5974123842   -0.8651434871
H       -0.7539400636   -0.5314750548   -1.9212297099
13   
Frame  35 IRC: Energy =  -286.8925100000 ; -9.1478 kcal/mol
C        1.5469128510    0.3196257458    0.0148457337
C        1.0443468147   -1.0021700376    0.3488341847
C       -0.2138862186   -1.4178073889    0.0572923183
C       -1.4298787585    0.6052020535   -0.1134840094
C       -0.4791746038    1.5212437577    0.2081254477
N        0.8823752678    1.4443785738   -0.0316985477
H        2.6312512267    0.4268748542   -0.0688188303
H        1.7095754500   -1.6490722953    0.9140458135
H       -0.6456566635   -2.2971954830    0.5353570073
H       -2.4535369261    0.7358466483    0.2311025614
H       -0.7836234925    2.4563775267    0.6740549842
C       -1.0274862080   -0.5960666516   -0.8521006290
H       -0.7812187393   -0.5472373038   -1.9175560344
13   
Frame  36 IRC: Energy =  -286.8929630000 ; -9.4321 kcal/mol
C        1.5475140643    0.3214982282    0.0174031524
C        1.0448432017   -0.9999731974    0.3515695427
C       -0.2127901268   -1.4184812409    0.0557127776
C       -1.4284790779    0.6084899914   -0.1143096701
C       -0.4768916526    1.5229586564    0.2110863427
N        0.8815030185    1.4433980126   -0.0291817973
H        2.6307348151    0.4263979975   -0.0720732335
H        1.7120326390   -1.6496648767    0.9185360567
H       -0.6381390217   -2.3066680349    0.5269140390
H       -2.4576774968    0.7456293793    0.2217626282
H       -0.7826651908    2.4579434533    0.6764743661
C       -1.0267553125   -0.5977465486   -0.8493851048
H       -0.7932298596   -0.5537818202   -1.9145090995
13   
Frame  37 IRC: Energy =  -286.8939910000 ; -10.0772 kcal/mol
C        1.5475463808    0.3230129370    0.0243473328
C        1.0469732028   -1.0010333937    0.3619208410
C       -0.2038681661   -1.4237093494    0.0567534248
C       -1.4302910231    0.6157201324   -0.1152419634
C       -0.4790629646    1.5248684565    0.2180719959
N        0.8857020007    1.4454744491   -0.0230398308
H        2.6314546559    0.4264553941   -0.0788087909
H        1.7135610595   -1.6468331797    0.9257307222
H       -0.6190441749   -2.3264874643    0.5049624967
H       -2.4606590365    0.7681375809    0.1961333253
H       -0.7802864933    2.4618031995    0.6814486532
C       -1.0301036554   -0.5960690167   -0.8383406091
H       -0.8219217857   -0.5713397458   -1.9139375977
13   
Frame  38 IRC: Energy =  -286.8942490000 ; -10.2391 kcal/mol
C        1.5487923017    0.3240514967    0.0258491242
C        1.0471144758   -0.9989944290    0.3627607656
C       -0.2042258897   -1.4234186277    0.0550044645
C       -1.4284757465    0.6172923053   -0.1160492027
C       -0.4763552639    1.5259391586    0.2195075077
N        0.8838861505    1.4450385584   -0.0213107537
H        2.6309504039    0.4261341356   -0.0798642208
H        1.7153567248   -1.6477784982    0.9279648260
H       -0.6154597707   -2.3309741380    0.5008580000
H       -2.4633006087    0.7728863883    0.1919080692
H       -0.7799886622    2.4626723994    0.6826177873
C       -1.0289520388   -0.5975823270   -0.8379189064
H       -0.8293420762   -0.5752664224   -1.9113274610
13   