
Running Job 1 of 1 irc_product.in
qchem irc_product.in_45302.0 ./irc_product.d/ 1
/home/leeping/opt/qchem/5.0.2-openmp/exe/qcprog.exe_s irc_product.in_45302.0 ./irc_product.d/
Check license passed

                  Welcome to Q-Chem
     A Quantum Leap Into The Future Of Chemistry


 Q-Chem 5.0, Q-Chem, Inc., Pleasanton, CA (2017)

 Yihan Shao,  Zhengting Gan,  E. Epifanovsky,  A. T. B. Gilbert,  M. Wormit,  
 J. Kussmann,  A. W. Lange,  A. Behn,  Jia Deng,  Xintian Feng,  D. Ghosh,  
 M. Goldey,  P. R. Horn,  L. D. Jacobson,  I. Kaliman,  T. Kus,  A. Landau,  
 Jie Liu,  E. I. Proynov,  R. M. Richard,  R. P. Steele,  E. J. Sundstrom,  
 H. L. Woodcock III,  P. M. Zimmerman,  D. Zuev,  B. Albrecht,  E. Alguire,  
 S. A. Baeppler,  D. Barton,  Z. Benda,  Y. A. Bernard,  E. J. Berquist,  
 K. B. Bravaya,  H. Burton,  D. Casanova,  Chun-Min Chang,  Yunqing Chen,  
 A. Chien,  K. D. Closser,  M. P. Coons,  S. Dasgupta,  A. L. Dempwolff,  
 M. Diedenhofen,  Hainam Do,  R. G. Edgar,  Po-Tung Fang,  S. Fatehi,  
 Qingguo Feng,  J. Fosso-Tande,  Qinghui Ge,  A. Ghysels,  G. Gidofalvi,  
 J. Gomes,  J. Gonthier,  A. Gunina,  M. W. D. Hanson-Heine,  
 P. H. P. Harbach,  A. W. Hauser,  J. E. Herr,  E. G. Hohenstein,  
 Z. C. Holden,  Kerwin Hui,  T.-C. Jagau,  Hyunjun Ji,  B. Kaduk,  
 K. Khistyaev,  Jaehoon Kim,  P. Klunzinger,  K. Koh,  D. Kosenkov,  
 L. Koulias,  T. Kowalczyk,  C. M. Krauter,  A. Kunitsa,  Ka Un Lao,  
 A. Laurent,  K. V. Lawler,  Joonho Lee,  D. Lefrancois,  S. Lehtola,  
 D. S. Levine,  Yi-Pei Li,  You-Sheng Lin,  Fenglai Liu,  E. Livshits,  
 A. Luenser,  P. Manohar,  E. Mansoor,  S. F. Manzer,  Shan-Ping Mao,  
 Yuezhi Mao,  N. Mardirossian,  A. V. Marenich,  T. Markovich,  
 L. A. Martinez-Martinez,  S. A. Maurer,  N. J. Mayhall,  S. C. McKenzie,  
 J.-M. Mewes,  A. F. Morrison,  J. W. Mullinax,  K. Nanda,  
 T. S. Nguyen-Beck,  R. Olivares-Amaya,  J. A. Parkhill,  T. M. Perrine,  
 F. Plasser,  S. Prager,  A. Prociuk,  E. Ramos,  D. R. Rehn,  F. Rob,  
 M. Schneider,  N. Sergueev,  S. M. Sharada,  S. Sharma,  D. W. Small,  
 T. Stauch,  T. Stein,  Yu-Chuan Su,  A. J. W. Thom,  A. Tkatchenko,  
 T. Tsuchimochi,  L. Vogt,  O. Vydrov,  M. A. Watson,  J. Wenzel,  
 M. de Wergifosse,  T. A. Wesolowski,  A. White,  J. Witte,  A. Yamada,  
 Jun Yang,  K. Yao,  S. Yeganeh,  S. R. Yost,  Zhi-Qiang You,  A. Zech,  
 Igor Ying Zhang,  Xing Zhang,  Yan Zhao,  Ying Zhu,  B. R. Brooks,  
 G. K. L. Chan,  C. J. Cramer,  M. S. Gordon,  W. J. Hehre,  A. Klamt,  
 M. W. Schmidt,  C. D. Sherrill,  D. G. Truhlar,  A. Aspuru-Guzik,  R. Baer,  
 A. T. Bell,  N. A. Besley,  Jeng-Da Chai,  R. A. DiStasio Jr.,  A. Dreuw,  
 B. D. Dunietz,  T. R. Furlani,  Chao-Ping Hsu,  Yousung Jung,  Jing Kong,  
 D. S. Lambrecht,  WanZhen Liang,  C. Ochsenfeld,  V. A. Rassolov,  
 L. V. Slipchenko,  J. E. Subotnik,  T. Van Voorhis,  J. M. Herbert,  
 A. I. Krylov,  P. M. W. Gill,  M. Head-Gordon

 Contributors to earlier versions of Q-Chem not listed above: 
 R. D. Adamson,  B. Austin,  J. Baker,  G. J. O. Beran,  K. Brandhorst,  
 S. T. Brown,  E. F. C. Byrd,  A. K. Chakraborty,  C.-L. Cheng,  
 Siu Hung Chien,  D. M. Chipman,  D. L. Crittenden,  H. Dachsel,  
 R. J. Doerksen,  A. D. Dutoi,  L. Fusti-Molnar,  W. A. Goddard III,  
 A. Golubeva-Zadorozhnaya,  S. R. Gwaltney,  G. Hawkins,  A. Heyden,  
 S. Hirata,  G. Kedziora,  F. J. Keil,  C. Kelley,  Jihan Kim,  R. A. King,  
 R. Z. Khaliullin,  P. P. Korambath,  W. Kurlancheek,  A. M. Lee,  M. S. Lee,  
 S. V. Levchenko,  Ching Yeh Lin,  D. Liotard,  R. C. Lochan,  I. Lotan,  
 P. E. Maslen,  N. Nair,  D. P. O'Neill,  D. Neuhauser,  E. Neuscamman,  
 C. M. Oana,  R. Olson,  B. Peters,  R. Peverati,  P. A. Pieniazek,  
 Y. M. Rhee,  J. Ritchie,  M. A. Rohrdanz,  E. Rosta,  N. J. Russ,  
 H. F. Schaefer III,  N. E. Schultz,  N. Shenvi,  A. C. Simmonett,  A. Sodt,  
 D. Stuck,  K. S. Thanthiriwatte,  V. Vanovschi,  Tao Wang,  A. Warshel,  
 C. F. Williams,  Q. Wu,  X. Xu,  W. Zhang

 Please cite Q-Chem as follows:
 Y. Shao et al., Mol. Phys. 113, 184-215 (2015)
 DOI: 10.1080/00268976.2014.952696

 Q-Chem 5.0.2 for Intel X86 EM64T Linux

 Parts of Q-Chem use Armadillo 5.200.1 (Boston Tea Smuggler).
 http://arma.sourceforge.net/

 Q-Chem begins on Wed Mar  2 17:45:14 2022  

Host: 
0

     Scratch files written to ./irc_product.d//
 Dec517 15110_ 26548  26544 5633   
Processing $rem in /home/leeping/opt/qchem/5.0.2-openmp/config/preferences.
 MEM_STATIC 2000
 MEM_TOTAL  8000
 SYMMETRY   OFF
 SYM_IGNORE TRUE 

Checking the input file for inconsistencies... 	...done.

--------------------------------------------------------------
User input:
--------------------------------------------------------------
$molecule
0 2
C        1.6001467524    0.3489082672    0.4301514786
C        1.2115734283   -0.9562291318    0.1797543043
C       -0.0928546554   -1.4431959535   -0.1907335979
C       -1.3504376679    0.7288335228   -0.2441763178
C       -0.3756399174    1.6476596892    0.1032134048
N        0.9386899421    1.5303951801    0.4121064916
H        2.6511267556    0.4722587728    0.6965076785
H        1.9942862146   -1.7040560990    0.2778812028
H       -0.1756262958   -2.5181548914   -0.3345487966
H       -2.3362211410    1.1439337688   -0.4377813854
H       -0.7139673448    2.6842468035    0.1427987902
C       -1.2228534929   -0.7003799856   -0.3777570061
H       -2.1282225777   -1.2342199431   -0.6574162470
$end

$rem
method                b3lyp
basis                 6-31+g(d,p)
unrestricted          true
symmetry              off
sym_ignore            true
incdft                false
incfock               0
scf_convergence       8
thresh                14
jobtype               sp
scf_guess             core
scf_guess_mix         5
scf_algorithm         diis
max_scf_cycles        100
$end

--------------------------------------------------------------
 ----------------------------------------------------------------
             Standard Nuclear Orientation (Angstroms)
    I     Atom           X                Y                Z
 ----------------------------------------------------------------
    1      C       1.6001467524     0.3489082672     0.4301514786
    2      C       1.2115734283    -0.9562291318     0.1797543043
    3      C      -0.0928546554    -1.4431959535    -0.1907335979
    4      C      -1.3504376679     0.7288335228    -0.2441763178
    5      C      -0.3756399174     1.6476596892     0.1032134048
    6      N       0.9386899421     1.5303951801     0.4121064916
    7      H       2.6511267556     0.4722587728     0.6965076785
    8      H       1.9942862146    -1.7040560990     0.2778812028
    9      H      -0.1756262958    -2.5181548914    -0.3345487966
   10      H      -2.3362211410     1.1439337688    -0.4377813854
   11      H      -0.7139673448     2.6842468035     0.1427987902
   12      C      -1.2228534929    -0.7003799856    -0.3777570061
   13      H      -2.1282225777    -1.2342199431    -0.6574162470
 ----------------------------------------------------------------
 Nuclear Repulsion Energy =   260.5335369550 hartrees
 There are       25 alpha and       24 beta electrons
 Requested basis set is 6-31+G(d,p)
 There are 53 shells and 163 basis functions

 Total QAlloc Memory Limit   8000 MB
 Mega-Array Size      1956 MB
 MEM_STATIC part      2000 MB

                       Distance Matrix (Angstroms)
             C (  1)   C (  2)   C (  3)   C (  4)   C (  5)   N (  6)
   C (  2)  1.384584
   C (  3)  2.542320  1.440809
   C (  4)  3.050411  3.095651  2.510395
   C (  5)  2.386918  3.050466  3.117653  1.383890
   N (  6)  1.354165  2.512320  3.204644  2.512631  1.355223
   H (  7)  1.091201  2.092827  3.462022  4.118645  3.300740  2.032972
   H (  8)  2.095995  1.086974  2.154949  4.168774  4.108656  3.404993
   H (  9)  3.458061  2.151382  1.087691  3.454169  4.193525  4.264968
   H ( 10)  4.108572  4.168798  3.433215  1.086996  2.095303  3.405393
   H ( 11)  3.300228  4.118512  4.187220  2.092483  1.091121  2.033513
   C ( 12)  3.118181  2.510520  1.365156  1.441101  2.542124  3.205076
   H ( 13)  4.194024  3.454326  2.098615  2.151580  3.457649  4.265317
             H (  7)   H (  8)   H (  9)   H ( 10)   H ( 11)   C ( 12)
   H (  8)  2.311500
   H (  9)  4.242191  2.397154
   H ( 10)  5.158624  5.232257  4.253201
   H ( 11)  4.064891  5.158497  5.251919  2.311135
   C ( 12)  4.187702  3.433251  2.098299  2.155153  3.462029
   H ( 13)  5.252367  4.253305  2.359102  2.397315  4.242033  1.087606

 
 A cutoff of  1.0D-14 yielded   1361 shell pairs
 There are     13409 function pairs
 
 -------------------------------------------------------
 OpenMP Integral Computing Module                       
 Release: version 1.0, May 2013, Q-Chem Inc. Pittsburgh 
 -------------------------------------------------------
 Integral Job Info:
 Integral job number is                      11
 Integral operator is                         1
 short-range coefficients                     0
 long-range coefficients              100000000
 Omega coefficients                           0
 if combine SR and LR in K                    0
 Integral screening is                        0
 Integral computing path is                   2
 max size of driver memory is            800000
 size of driver memory is                593474
 size of scratch memory is              2361544
 max col of scratch BK array               1296
 max len of scratch array in speh3          155
 max len of scratch index in speh4           18
 max int batch size is                      520
 min int batch size is                       52
 fixed nKL is                                52
 max L of basis functions is                  2
 order of int derivative is                   0
 number of shells is                         53
 number of basis is                         163
 number of cartesian basis is               163
 number of contracted shell pairs          1361
 number of primitive shell pairs           4562
 maxK2 (contraction) of shell pair           36
 max number of K2 of shell pair               1
 max number of CS2 of shell pair            136
 max number of PS2 of shell pair            696
 mem total for path MDJ                  535308
 -------------------------------------------------------
 Smallest overlap matrix eigenvalue = 9.06E-06

 Scale SEOQF with 1.000000e-01/1.000000e-01/1.000000e-01

 Standard Electronic Orientation quadrupole field applied
 Nucleus-field energy     =     0.0000000075 hartrees
 Guess MOs from core Hamiltonian diagonalization
 Mixing HOMO and LUMO in initial guess
 Adding  50% of the LUMO to the HOMO
 An unrestricted hybrid HF-DFT SCF calculation will be
 performed using Pulay DIIS extrapolation
 Exchange:     0.2000 Hartree-Fock + 0.0800 Slater + 0.7200 B88
 Correlation:  0.1900 VWN1RPA + 0.8100 LYP
 Using SG-1 standard quadrature grid
 SCF converges when DIIS error is below 1.0E-08
 using 4 threads for integral computing
 -------------------------------------------------------
 OpenMP Integral computing Module                
 Release: version 1.0, May 2013, Q-Chem Inc. Pittsburgh 
 -------------------------------------------------------
 -------------------------------------------------------
 OpenMP BLAS3 based DFT computing Module                
 Release: version 1.0, May 2013, Q-Chem Inc. Pittsburgh 
 -------------------------------------------------------
 ---------------------------------------
  Cycle       Energy         DIIS Error
 ---------------------------------------
    1    -239.3305458260      9.11E-02
    2    -212.6003248316      7.34E-02
    3    -249.0345406175      7.56E-02
    4    -282.4866220942      3.37E-02
    5    -279.3205996019      4.21E-02
    6    -285.1677086228      1.91E-02
    7    -286.6395502516      8.23E-03
    8    -286.8305743327      5.62E-03
    9    -286.9427893622      7.59E-04
   10    -286.9439124065      6.73E-04
   11    -286.9457543189      1.84E-04
   12    -286.9459666035      9.03E-05
   13    -286.9461098248      2.96E-05
   14    -286.9461801513      1.91E-05
   15    -286.9461954200      9.06E-06
   16    -286.9462076492      4.92E-06
   17    -286.9462114858      2.28E-06
   18    -286.9462123507      1.54E-06
   19    -286.9462127028      6.35E-07
   20    -286.9462127535      3.10E-07
   21    -286.9462127656      9.01E-08
   22    -286.9462127675      1.75E-08
   23    -286.9462127675      3.13E-09 Convergence criterion met
 ---------------------------------------
 <S^2> = 0.7674
 SCF time:  CPU 111.95 s  wall 34.09 s
 SCF   energy in the final basis set = -286.94621277
 Total energy in the final basis set = -286.94621277
 
 --------------------------------------------------------------
 
                    Orbital Energies (a.u.)
 --------------------------------------------------------------
 
 Alpha MOs
 -- Occupied --
-14.337 -10.243 -10.243 -10.223 -10.222 -10.212 -10.212  -0.934
 -0.829  -0.795  -0.703  -0.678  -0.562  -0.547  -0.527  -0.458
 -0.449  -0.423  -0.405  -0.395  -0.359  -0.333  -0.310  -0.263
 -0.174
 -- Virtual --
 -0.087  -0.002   0.015   0.023   0.045   0.050   0.054   0.064
  0.072   0.075   0.077   0.084   0.091   0.094   0.128   0.132
  0.133   0.134   0.139   0.143   0.164   0.183   0.183   0.184
  0.205   0.207   0.213   0.228   0.229   0.247   0.248   0.259
  0.264   0.266   0.291   0.291   0.302   0.308   0.339   0.391
  0.408   0.411   0.460   0.595   0.613   0.623   0.647   0.682
  0.694   0.702   0.702   0.733   0.735   0.755   0.774   0.777
  0.894   0.914   0.919   0.940   0.943   0.977   0.978   0.998
  1.001   1.022   1.037   1.109   1.114   1.124   1.164   1.192
  1.217   1.265   1.275   1.279   1.298   1.339   1.365   1.382
  1.428   1.462   1.499   1.597   1.676   1.727   1.784   1.843
  1.853   1.893   1.905   1.943   1.950   1.976   2.003   2.029
  2.075   2.101   2.133   2.258   2.292   2.361   2.383   2.393
  2.399   2.418   2.449   2.450   2.455   2.472   2.503   2.513
  2.525   2.562   2.620   2.623   2.664   2.738   2.756   2.842
  3.009   3.072   3.117   3.245   3.261   3.290   3.346   3.350
  3.405   3.652   3.759   4.179   4.224   4.307   4.381   4.409
  4.649   4.713
 
 Beta MOs
 -- Occupied --
-14.329 -10.245 -10.245 -10.222 -10.221 -10.208 -10.208  -0.923
 -0.820  -0.788  -0.692  -0.676  -0.557  -0.544  -0.524  -0.456
 -0.448  -0.420  -0.392  -0.384  -0.357  -0.307  -0.287  -0.254
 -- Virtual --
 -0.093  -0.085  -0.002   0.016   0.023   0.045   0.050   0.058
  0.064   0.075   0.081   0.085   0.091   0.096   0.103   0.129
  0.132   0.133   0.140   0.142   0.143   0.165   0.183   0.184
  0.190   0.205   0.209   0.213   0.227   0.231   0.250   0.253
  0.259   0.268   0.269   0.292   0.293   0.307   0.310   0.338
  0.394   0.412   0.414   0.464   0.597   0.616   0.625   0.655
  0.686   0.703   0.704   0.706   0.736   0.751   0.757   0.776
  0.788   0.895   0.917   0.920   0.940   0.943   0.978   0.978
  1.001   1.025   1.028   1.039   1.115   1.118   1.130   1.163
  1.194   1.220   1.270   1.286   1.291   1.306   1.346   1.374
  1.387   1.429   1.467   1.513   1.608   1.679   1.733   1.796
  1.845   1.855   1.894   1.914   1.951   1.957   1.988   2.008
  2.036   2.080   2.114   2.131   2.260   2.294   2.364   2.386
  2.405   2.409   2.419   2.453   2.453   2.464   2.476   2.505
  2.518   2.526   2.572   2.624   2.624   2.671   2.749   2.757
  2.847   3.011   3.074   3.122   3.247   3.263   3.291   3.347
  3.351   3.405   3.654   3.761   4.192   4.231   4.314   4.385
  4.409   4.652   4.719
 --------------------------------------------------------------
 
          Ground-State Mulliken Net Atomic Charges

     Atom                 Charge (a.u.)    Spin (a.u.)
  --------------------------------------------------------
      1 C                    -0.235244      -0.115707
      2 C                     0.101336       0.372725
      3 C                    -0.164909       0.075687
      4 C                     0.101190       0.367883
      5 C                    -0.235212      -0.112920
      6 N                    -0.176414       0.375070
      7 H                     0.127017       0.003354
      8 H                     0.127370      -0.018776
      9 H                     0.132731      -0.006637
     10 H                     0.127380      -0.018574
     11 H                     0.126968       0.003223
     12 C                    -0.164923       0.081560
     13 H                     0.132710      -0.006887
  --------------------------------------------------------
  Sum of atomic charges =     0.000000
  Sum of spin   charges =     1.000000

 -----------------------------------------------------------------
                    Cartesian Multipole Moments
 -----------------------------------------------------------------
    Charge (ESU x 10^10)
                 0.0000
    Dipole Moment (Debye)
         X      -1.2243      Y      -1.9957      Z      -0.5382
       Tot       2.4024
    Quadrupole Moments (Debye-Ang)
        XX     -37.9635     XY      -4.0642     YY     -41.4130
        XZ       1.2483     YZ      -0.5656     ZZ     -44.9290
    Octopole Moments (Debye-Ang^2)
       XXX     -10.3724    XXY     -10.3888    XYY     -13.5307
       YYY     -28.3322    XXZ      -2.2608    XYZ      -2.4807
       YYZ      -5.4467    XZZ      -3.6933    YZZ      -6.2614
       ZZZ      -4.4573
    Hexadecapole Moments (Debye-Ang^3)
      XXXX    -371.9594   XXXY      -2.5272   XXYY    -142.1627
      XYYY     -24.2889   YYYY    -415.2362   XXXZ     -29.0502
      XXYZ      -8.3522   XYYZ     -16.6454   YYYZ     -23.9898
      XXZZ     -85.0124   XYZZ       1.6019   YYZZ     -92.6594
      XZZZ     -46.5068   YZZZ     -23.1629   ZZZZ     -83.8114
 -----------------------------------------------------------------
Archival summary:
1\1\c8-85\SP\ProcedureUnspecified\6-31+G**\166(2)\hpark21\WedMar217:45:502022WedMar217:45:502022\0\\#,ProcedureUnspecified,6-31+G**,\\0,2\N\C,1,1.35416\H,2,1.0912,1,112.029\C,1,1.35522,2,123.522,3,179.605,0\H,4,1.09112,1,112.003,2,-179.776,0\C,4,1.38389,1,133.071,2,0.264181,0\H,6,1.087,4,115.465,1,-179.977,0\C,2,1.38458,1,133.073,3,-179.875,0\H,8,1.08697,2,115.474,1,179.931,0\C,8,1.44081,2,128.256,1,-0.145542,0\H,10,1.08769,8,115.908,2,-179.676,0\C,10,1.36516,8,126.921,2,0.337985,0\H,12,1.08761,10,117.206,8,-180,0\\\@

 Total job time:  36.10s(wall), 113.51s(cpu) 
 Wed Mar  2 17:45:50 2022

        *************************************************************
        *                                                           *
        *  Thank you very much for using Q-Chem.  Have a nice day.  *
        *                                                           *
        *************************************************************


