
Running Job 1 of 1 qcts2.in
qchem qcts2.in_26250.0 ./qcts2.d/ 1
/home/leeping/opt/qchem/5.0.2-openmp/exe/qcprog.exe_s qcts2.in_26250.0 ./qcts2.d/
Check license passed

                  Welcome to Q-Chem
     A Quantum Leap Into The Future Of Chemistry


 Q-Chem 5.0, Q-Chem, Inc., Pleasanton, CA (2017)

 Yihan Shao,  Zhengting Gan,  E. Epifanovsky,  A. T. B. Gilbert,  M. Wormit,  
 J. Kussmann,  A. W. Lange,  A. Behn,  Jia Deng,  Xintian Feng,  D. Ghosh,  
 M. Goldey,  P. R. Horn,  L. D. Jacobson,  I. Kaliman,  T. Kus,  A. Landau,  
 Jie Liu,  E. I. Proynov,  R. M. Richard,  R. P. Steele,  E. J. Sundstrom,  
 H. L. Woodcock III,  P. M. Zimmerman,  D. Zuev,  B. Albrecht,  E. Alguire,  
 S. A. Baeppler,  D. Barton,  Z. Benda,  Y. A. Bernard,  E. J. Berquist,  
 K. B. Bravaya,  H. Burton,  D. Casanova,  Chun-Min Chang,  Yunqing Chen,  
 A. Chien,  K. D. Closser,  M. P. Coons,  S. Dasgupta,  A. L. Dempwolff,  
 M. Diedenhofen,  Hainam Do,  R. G. Edgar,  Po-Tung Fang,  S. Fatehi,  
 Qingguo Feng,  J. Fosso-Tande,  Qinghui Ge,  A. Ghysels,  G. Gidofalvi,  
 J. Gomes,  J. Gonthier,  A. Gunina,  M. W. D. Hanson-Heine,  
 P. H. P. Harbach,  A. W. Hauser,  J. E. Herr,  E. G. Hohenstein,  
 Z. C. Holden,  Kerwin Hui,  T.-C. Jagau,  Hyunjun Ji,  B. Kaduk,  
 K. Khistyaev,  Jaehoon Kim,  P. Klunzinger,  K. Koh,  D. Kosenkov,  
 L. Koulias,  T. Kowalczyk,  C. M. Krauter,  A. Kunitsa,  Ka Un Lao,  
 A. Laurent,  K. V. Lawler,  Joonho Lee,  D. Lefrancois,  S. Lehtola,  
 D. S. Levine,  Yi-Pei Li,  You-Sheng Lin,  Fenglai Liu,  E. Livshits,  
 A. Luenser,  P. Manohar,  E. Mansoor,  S. F. Manzer,  Shan-Ping Mao,  
 Yuezhi Mao,  N. Mardirossian,  A. V. Marenich,  T. Markovich,  
 L. A. Martinez-Martinez,  S. A. Maurer,  N. J. Mayhall,  S. C. McKenzie,  
 J.-M. Mewes,  A. F. Morrison,  J. W. Mullinax,  K. Nanda,  
 T. S. Nguyen-Beck,  R. Olivares-Amaya,  J. A. Parkhill,  T. M. Perrine,  
 F. Plasser,  S. Prager,  A. Prociuk,  E. Ramos,  D. R. Rehn,  F. Rob,  
 M. Schneider,  N. Sergueev,  S. M. Sharada,  S. Sharma,  D. W. Small,  
 T. Stauch,  T. Stein,  Yu-Chuan Su,  A. J. W. Thom,  A. Tkatchenko,  
 T. Tsuchimochi,  L. Vogt,  O. Vydrov,  M. A. Watson,  J. Wenzel,  
 M. de Wergifosse,  T. A. Wesolowski,  A. White,  J. Witte,  A. Yamada,  
 Jun Yang,  K. Yao,  S. Yeganeh,  S. R. Yost,  Zhi-Qiang You,  A. Zech,  
 Igor Ying Zhang,  Xing Zhang,  Yan Zhao,  Ying Zhu,  B. R. Brooks,  
 G. K. L. Chan,  C. J. Cramer,  M. S. Gordon,  W. J. Hehre,  A. Klamt,  
 M. W. Schmidt,  C. D. Sherrill,  D. G. Truhlar,  A. Aspuru-Guzik,  R. Baer,  
 A. T. Bell,  N. A. Besley,  Jeng-Da Chai,  R. A. DiStasio Jr.,  A. Dreuw,  
 B. D. Dunietz,  T. R. Furlani,  Chao-Ping Hsu,  Yousung Jung,  Jing Kong,  
 D. S. Lambrecht,  WanZhen Liang,  C. Ochsenfeld,  V. A. Rassolov,  
 L. V. Slipchenko,  J. E. Subotnik,  T. Van Voorhis,  J. M. Herbert,  
 A. I. Krylov,  P. M. W. Gill,  M. Head-Gordon

 Contributors to earlier versions of Q-Chem not listed above: 
 R. D. Adamson,  B. Austin,  J. Baker,  G. J. O. Beran,  K. Brandhorst,  
 S. T. Brown,  E. F. C. Byrd,  A. K. Chakraborty,  C.-L. Cheng,  
 Siu Hung Chien,  D. M. Chipman,  D. L. Crittenden,  H. Dachsel,  
 R. J. Doerksen,  A. D. Dutoi,  L. Fusti-Molnar,  W. A. Goddard III,  
 A. Golubeva-Zadorozhnaya,  S. R. Gwaltney,  G. Hawkins,  A. Heyden,  
 S. Hirata,  G. Kedziora,  F. J. Keil,  C. Kelley,  Jihan Kim,  R. A. King,  
 R. Z. Khaliullin,  P. P. Korambath,  W. Kurlancheek,  A. M. Lee,  M. S. Lee,  
 S. V. Levchenko,  Ching Yeh Lin,  D. Liotard,  R. C. Lochan,  I. Lotan,  
 P. E. Maslen,  N. Nair,  D. P. O'Neill,  D. Neuhauser,  E. Neuscamman,  
 C. M. Oana,  R. Olson,  B. Peters,  R. Peverati,  P. A. Pieniazek,  
 Y. M. Rhee,  J. Ritchie,  M. A. Rohrdanz,  E. Rosta,  N. J. Russ,  
 H. F. Schaefer III,  N. E. Schultz,  N. Shenvi,  A. C. Simmonett,  A. Sodt,  
 D. Stuck,  K. S. Thanthiriwatte,  V. Vanovschi,  Tao Wang,  A. Warshel,  
 C. F. Williams,  Q. Wu,  X. Xu,  W. Zhang

 Please cite Q-Chem as follows:
 Y. Shao et al., Mol. Phys. 113, 184-215 (2015)
 DOI: 10.1080/00268976.2014.952696

 Q-Chem 5.0.2 for Intel X86 EM64T Linux

 Parts of Q-Chem use Armadillo 5.200.1 (Boston Tea Smuggler).
 http://arma.sourceforge.net/

 Q-Chem begins on Wed Mar  2 13:45:18 2022  

Host: 
0

     Scratch files written to ./qcts2.d//
 Dec517 15110_ 26548  26544 5633   
Processing $rem in /home/leeping/opt/qchem/5.0.2-openmp/config/preferences.
 MEM_STATIC 2000
 MEM_TOTAL  8000
 SYMMETRY   OFF
 SYM_IGNORE TRUE 

Checking the input file for inconsistencies... 	...done.

--------------------------------------------------------------
User input:
--------------------------------------------------------------
$molecule
0 2
C        1.5648095227    0.3048914747    0.0235933355
C        1.0240268137   -0.9381479498    0.2910954512
C       -0.3629757636   -1.2134585017    0.1197093303
C       -1.3169449344    0.3973856552   -0.0345343821
C       -0.4277473817    1.4959225523    0.1639445795
N        0.8775844119    1.4834852468    0.0109339264
H        2.6472489530    0.4224683991    0.0216519709
H        1.6632111897   -1.7094665539    0.7161725188
H       -0.8522989283   -1.9928670905    0.7043253216
H       -2.2986960649    0.4270079013    0.4408609915
H       -0.8578519497    2.4280950330    0.5360782575
C       -1.0432680616   -0.6290720730   -1.0210526787
H       -0.6242527164   -0.4845809500   -2.0131344715
$end

$rem
method                b3lyp
basis                 6-31+g(d,p)
unrestricted          true
symmetry              off
sym_ignore            true
incdft                false
incfock               0
scf_convergence       8
thresh                14
jobtype               sp
scf_guess             core
scf_guess_mix         5
scf_algorithm         diis
max_scf_cycles        100
$end

--------------------------------------------------------------
 ----------------------------------------------------------------
             Standard Nuclear Orientation (Angstroms)
    I     Atom           X                Y                Z
 ----------------------------------------------------------------
    1      C       1.5648095227     0.3048914747     0.0235933355
    2      C       1.0240268137    -0.9381479498     0.2910954512
    3      C      -0.3629757636    -1.2134585017     0.1197093303
    4      C      -1.3169449344     0.3973856552    -0.0345343821
    5      C      -0.4277473817     1.4959225523     0.1639445795
    6      N       0.8775844119     1.4834852468     0.0109339264
    7      H       2.6472489530     0.4224683991     0.0216519709
    8      H       1.6632111897    -1.7094665539     0.7161725188
    9      H      -0.8522989283    -1.9928670905     0.7043253216
   10      H      -2.2986960649     0.4270079013     0.4408609915
   11      H      -0.8578519497     2.4280950330     0.5360782575
   12      C      -1.0432680616    -0.6290720730    -1.0210526787
   13      H      -0.6242527164    -0.4845809500    -2.0131344715
 ----------------------------------------------------------------
 Nuclear Repulsion Energy =   269.2394635702 hartrees
 There are       25 alpha and       24 beta electrons
 Requested basis set is 6-31+G(d,p)
 There are 53 shells and 163 basis functions

 Total QAlloc Memory Limit   8000 MB
 Mega-Array Size      1956 MB
 MEM_STATIC part      2000 MB

                       Distance Matrix (Angstroms)
             C (  1)   C (  2)   C (  3)   C (  4)   C (  5)   N (  6)
   C (  2)  1.381720
   C (  3)  2.455806  1.424410
   C (  4)  2.883824  2.714744  1.878475
   C (  5)  2.325626  2.836990  2.710516  1.427182
   N (  6)  1.364376  2.442180  2.970577  2.449008  1.314328
   H (  7)  1.088808  2.135118  3.427437  3.964671  3.260085  2.063391
   H (  8)  2.132367  1.088200  2.169614  3.726086  3.866728  3.362962
   H (  9)  3.403748  2.191755  1.090271  2.544625  3.555827  3.944403
   H ( 10)  3.887891  3.595354  2.557593  1.091198  2.172489  3.374869
   H ( 11)  3.261889  3.864334  3.698537  2.158737  1.091979  2.044457
   C ( 12)  2.960683  2.467989  1.451083  1.449735  2.509718  3.036045
   H ( 13)  3.092494  2.869150  2.269042  2.274323  2.949692  3.197757
             H (  7)   H (  8)   H (  9)   H ( 10)   H ( 11)   C ( 12)
   H (  8)  2.448640
   H (  9)  4.306591  2.531452
   H ( 10)  4.963681  4.509659  2.831479
   H ( 11)  4.070983  4.848465  4.424166  2.467681
   C ( 12)  3.976542  3.392674  2.207563  2.197407  3.435885
   H ( 13)  3.958007  3.765893  3.116331  3.107547  3.877723  1.086590

 
 A cutoff of  1.0D-14 yielded   1394 shell pairs
 There are     13498 function pairs
 
 -------------------------------------------------------
 OpenMP Integral Computing Module                       
 Release: version 1.0, May 2013, Q-Chem Inc. Pittsburgh 
 -------------------------------------------------------
 Integral Job Info:
 Integral job number is                      11
 Integral operator is                         1
 short-range coefficients                     0
 long-range coefficients              100000000
 Omega coefficients                           0
 if combine SR and LR in K                    0
 Integral screening is                        0
 Integral computing path is                   2
 max size of driver memory is            800000
 size of driver memory is                593474
 size of scratch memory is              2361544
 max col of scratch BK array               1296
 max len of scratch array in speh3          155
 max len of scratch index in speh4           18
 max int batch size is                      520
 min int batch size is                       52
 fixed nKL is                                52
 max L of basis functions is                  2
 order of int derivative is                   0
 number of shells is                         53
 number of basis is                         163
 number of cartesian basis is               163
 number of contracted shell pairs          1394
 number of primitive shell pairs           4712
 maxK2 (contraction) of shell pair           36
 max number of K2 of shell pair               1
 max number of CS2 of shell pair            126
 max number of PS2 of shell pair            684
 mem total for path MDJ                  535308
 -------------------------------------------------------
 Smallest overlap matrix eigenvalue = 3.10E-05

 Scale SEOQF with 1.000000e-01/1.000000e-01/1.000000e-01

 Standard Electronic Orientation quadrupole field applied
 Nucleus-field energy     =     0.0000000052 hartrees
 Guess MOs from core Hamiltonian diagonalization
 Mixing HOMO and LUMO in initial guess
 Adding  50% of the LUMO to the HOMO
 An unrestricted hybrid HF-DFT SCF calculation will be
 performed using Pulay DIIS extrapolation
 Exchange:     0.2000 Hartree-Fock + 0.0800 Slater + 0.7200 B88
 Correlation:  0.1900 VWN1RPA + 0.8100 LYP
 Using SG-1 standard quadrature grid
 SCF converges when DIIS error is below 1.0E-08
 using 4 threads for integral computing
 -------------------------------------------------------
 OpenMP Integral computing Module                
 Release: version 1.0, May 2013, Q-Chem Inc. Pittsburgh 
 -------------------------------------------------------
 -------------------------------------------------------
 OpenMP BLAS3 based DFT computing Module                
 Release: version 1.0, May 2013, Q-Chem Inc. Pittsburgh 
 -------------------------------------------------------
 ---------------------------------------
  Cycle       Energy         DIIS Error
 ---------------------------------------
    1    -239.5718258422      9.33E-02
    2    -221.0376329679      6.73E-02
    3    -250.0219177087      8.06E-02
    4    -281.4739820347      3.61E-02
    5    -280.1082248598      3.80E-02
    6    -285.1630686565      1.84E-02
    7    -285.7163067775      1.62E-02
    8    -286.5474953640      7.99E-03
    9    -286.7986701371      4.49E-03
   10    -286.8665301647      1.38E-03
   11    -286.8741923691      4.80E-04
   12    -286.8750066233      2.56E-04
   13    -286.8752723680      3.22E-05
   14    -286.8752978807      1.04E-05
   15    -286.8753038041      3.70E-06
   16    -286.8753063379      1.65E-06
   17    -286.8753078135      8.33E-07
   18    -286.8753087401      4.13E-07
   19    -286.8753091015      2.65E-07
   20    -286.8753091930      1.06E-07
   21    -286.8753092149      3.14E-08
   22    -286.8753092163      6.73E-09 Convergence criterion met
 ---------------------------------------
 <S^2> = 0.7540
 SCF time:  CPU 111.67 s  wall 45.50 s
 SCF   energy in the final basis set = -286.87530922
 Total energy in the final basis set = -286.87530922
 
 --------------------------------------------------------------
 
                    Orbital Energies (a.u.)
 --------------------------------------------------------------
 
 Alpha MOs
 -- Occupied --
-14.337 -10.240 -10.235 -10.234 -10.232 -10.224 -10.205  -0.944
 -0.863  -0.783  -0.680  -0.661  -0.583  -0.527  -0.509  -0.499
 -0.456  -0.439  -0.400  -0.390  -0.377  -0.286  -0.266  -0.249
 -0.229
 -- Virtual --
 -0.036  -0.018   0.002   0.017   0.025   0.029   0.047   0.050
  0.064   0.069   0.074   0.087   0.099   0.102   0.114   0.117
  0.121   0.124   0.132   0.153   0.159   0.173   0.179   0.187
  0.193   0.195   0.198   0.216   0.226   0.236   0.252   0.263
  0.271   0.282   0.289   0.298   0.304   0.316   0.320   0.330
  0.364   0.420   0.453   0.495   0.601   0.630   0.651   0.676
  0.689   0.708   0.725   0.727   0.737   0.745   0.758   0.784
  0.823   0.838   0.879   0.896   0.921   0.938   0.963   0.970
  0.986   1.004   1.042   1.068   1.093   1.103   1.109   1.141
  1.177   1.182   1.220   1.282   1.338   1.358   1.420   1.445
  1.507   1.527   1.586   1.657   1.729   1.766   1.787   1.806
  1.823   1.856   1.913   1.935   1.963   1.989   2.031   2.090
  2.142   2.160   2.208   2.219   2.259   2.299   2.371   2.404
  2.416   2.426   2.429   2.449   2.488   2.497   2.518   2.537
  2.562   2.612   2.627   2.645   2.672   2.695   2.707   2.780
  2.833   2.951   3.054   3.166   3.224   3.280   3.290   3.371
  3.414   3.575   3.694   4.184   4.319   4.353   4.429   4.488
  4.599   4.695
 
 Beta MOs
 -- Occupied --
-14.337 -10.241 -10.234 -10.234 -10.224 -10.218 -10.204  -0.941
 -0.852  -0.780  -0.670  -0.659  -0.572  -0.521  -0.503  -0.493
 -0.453  -0.434  -0.396  -0.383  -0.374  -0.277  -0.265  -0.237
 -- Virtual --
 -0.100  -0.030  -0.017   0.003   0.017   0.026   0.032   0.049
  0.051   0.066   0.069   0.077   0.089   0.099   0.103   0.115
  0.119   0.122   0.124   0.134   0.153   0.159   0.175   0.182
  0.190   0.194   0.195   0.200   0.220   0.229   0.242   0.255
  0.264   0.274   0.284   0.293   0.300   0.310   0.320   0.322
  0.331   0.370   0.431   0.457   0.496   0.610   0.641   0.661
  0.681   0.696   0.712   0.728   0.729   0.739   0.747   0.766
  0.808   0.827   0.841   0.880   0.898   0.922   0.939   0.966
  0.975   0.994   1.008   1.046   1.072   1.095   1.105   1.119
  1.143   1.179   1.186   1.223   1.289   1.340   1.365   1.422
  1.450   1.509   1.531   1.592   1.663   1.735   1.770   1.807
  1.823   1.828   1.865   1.917   1.940   1.972   1.996   2.051
  2.092   2.144   2.163   2.219   2.225   2.263   2.305   2.372
  2.406   2.422   2.428   2.434   2.459   2.490   2.506   2.519
  2.539   2.564   2.616   2.640   2.650   2.681   2.700   2.714
  2.788   2.837   2.956   3.059   3.168   3.225   3.281   3.295
  3.375   3.420   3.583   3.696   4.185   4.320   4.355   4.449
  4.500   4.602   4.696
 --------------------------------------------------------------
 
          Ground-State Mulliken Net Atomic Charges

     Atom                 Charge (a.u.)    Spin (a.u.)
  --------------------------------------------------------
      1 C                    -0.320274       0.018435
      2 C                     0.094324       0.014080
      3 C                    -0.196779      -0.061286
      4 C                    -0.031758      -0.061176
      5 C                    -0.152548       0.039044
      6 N                    -0.165174       0.019918
      7 H                     0.124626      -0.001640
      8 H                     0.138951       0.005386
      9 H                     0.153356       0.025604
     10 H                     0.153115       0.036601
     11 H                     0.132096       0.003442
     12 C                    -0.087267       0.985679
     13 H                     0.157331      -0.024087
  --------------------------------------------------------
  Sum of atomic charges =    -0.000000
  Sum of spin   charges =     1.000000

 -----------------------------------------------------------------
                    Cartesian Multipole Moments
 -----------------------------------------------------------------
    Charge (ESU x 10^10)
                -0.0000
    Dipole Moment (Debye)
         X      -1.4293      Y      -1.8681      Z       0.4039
       Tot       2.3866
    Quadrupole Moments (Debye-Ang)
        XX     -40.0058     XY      -4.0950     YY     -43.7139
        XZ      -1.0179     YZ      -0.8075     ZZ     -42.2588
    Octopole Moments (Debye-Ang^2)
       XXX      -1.6093    XXY      -6.5085    XYY      -9.9119
       YYY     -22.2619    XXZ       7.0488    XYZ      -1.1197
       YYZ       8.0643    XZZ      -2.7770    YZZ      -5.5730
       ZZZ       1.8742
    Hexadecapole Moments (Debye-Ang^3)
      XXXX    -336.1747   XXXY     -14.7957   XXYY    -124.1039
      XYYY     -29.7465   YYYY    -354.3797   XXXZ     -29.8887
      XXYZ      -6.3995   XYYZ     -10.6870   YYYZ     -10.7825
      XXZZ     -84.5829   XYZZ      -4.3222   YYZZ     -78.2044
      XZZZ     -22.7938   YZZZ      -7.0389   ZZZZ    -105.9911
 -----------------------------------------------------------------
Archival summary:
1\1\c8-85\SP\ProcedureUnspecified\6-31+G**\166(2)\hpark21\WedMar213:46:112022WedMar213:46:112022\0\\#,ProcedureUnspecified,6-31+G**,\\0,2\N\C,1,1.31433\H,2,1.09198,1,116.036\C,1,1.36438,2,120.487,3,156.478,0\H,4,1.08881,1,114.045,2,-172.269,0\C,4,1.38172,1,125.577,2,-5.29938,0\H,6,1.0882,4,118.907,1,-152.323,0\C,6,1.42441,4,122.12,1,23.0285,0\H,8,1.09027,6,120.709,4,-153.395,0\C,2,1.42718,1,126.534,3,-176.194,0\H,10,1.0912,2,118.625,1,159.2,0\C,10,1.44974,2,121.467,1,-31.53,0\H,12,1.08659,10,126.866,2,-39.2,0\\\@

 Total job time:  52.74s(wall), 113.35s(cpu) 
 Wed Mar  2 13:46:11 2022

        *************************************************************
        *                                                           *
        *  Thank you very much for using Q-Chem.  Have a nice day.  *
        *                                                           *
        *************************************************************


