
Running Job 1 of 1 qcts1.in
qchem qcts1.in_24640.0 ./qcts1.d/ 1
/home/leeping/opt/qchem/5.0.2-openmp/exe/qcprog.exe_s qcts1.in_24640.0 ./qcts1.d/
Check license passed

                  Welcome to Q-Chem
     A Quantum Leap Into The Future Of Chemistry


 Q-Chem 5.0, Q-Chem, Inc., Pleasanton, CA (2017)

 Yihan Shao,  Zhengting Gan,  E. Epifanovsky,  A. T. B. Gilbert,  M. Wormit,  
 J. Kussmann,  A. W. Lange,  A. Behn,  Jia Deng,  Xintian Feng,  D. Ghosh,  
 M. Goldey,  P. R. Horn,  L. D. Jacobson,  I. Kaliman,  T. Kus,  A. Landau,  
 Jie Liu,  E. I. Proynov,  R. M. Richard,  R. P. Steele,  E. J. Sundstrom,  
 H. L. Woodcock III,  P. M. Zimmerman,  D. Zuev,  B. Albrecht,  E. Alguire,  
 S. A. Baeppler,  D. Barton,  Z. Benda,  Y. A. Bernard,  E. J. Berquist,  
 K. B. Bravaya,  H. Burton,  D. Casanova,  Chun-Min Chang,  Yunqing Chen,  
 A. Chien,  K. D. Closser,  M. P. Coons,  S. Dasgupta,  A. L. Dempwolff,  
 M. Diedenhofen,  Hainam Do,  R. G. Edgar,  Po-Tung Fang,  S. Fatehi,  
 Qingguo Feng,  J. Fosso-Tande,  Qinghui Ge,  A. Ghysels,  G. Gidofalvi,  
 J. Gomes,  J. Gonthier,  A. Gunina,  M. W. D. Hanson-Heine,  
 P. H. P. Harbach,  A. W. Hauser,  J. E. Herr,  E. G. Hohenstein,  
 Z. C. Holden,  Kerwin Hui,  T.-C. Jagau,  Hyunjun Ji,  B. Kaduk,  
 K. Khistyaev,  Jaehoon Kim,  P. Klunzinger,  K. Koh,  D. Kosenkov,  
 L. Koulias,  T. Kowalczyk,  C. M. Krauter,  A. Kunitsa,  Ka Un Lao,  
 A. Laurent,  K. V. Lawler,  Joonho Lee,  D. Lefrancois,  S. Lehtola,  
 D. S. Levine,  Yi-Pei Li,  You-Sheng Lin,  Fenglai Liu,  E. Livshits,  
 A. Luenser,  P. Manohar,  E. Mansoor,  S. F. Manzer,  Shan-Ping Mao,  
 Yuezhi Mao,  N. Mardirossian,  A. V. Marenich,  T. Markovich,  
 L. A. Martinez-Martinez,  S. A. Maurer,  N. J. Mayhall,  S. C. McKenzie,  
 J.-M. Mewes,  A. F. Morrison,  J. W. Mullinax,  K. Nanda,  
 T. S. Nguyen-Beck,  R. Olivares-Amaya,  J. A. Parkhill,  T. M. Perrine,  
 F. Plasser,  S. Prager,  A. Prociuk,  E. Ramos,  D. R. Rehn,  F. Rob,  
 M. Schneider,  N. Sergueev,  S. M. Sharada,  S. Sharma,  D. W. Small,  
 T. Stauch,  T. Stein,  Yu-Chuan Su,  A. J. W. Thom,  A. Tkatchenko,  
 T. Tsuchimochi,  L. Vogt,  O. Vydrov,  M. A. Watson,  J. Wenzel,  
 M. de Wergifosse,  T. A. Wesolowski,  A. White,  J. Witte,  A. Yamada,  
 Jun Yang,  K. Yao,  S. Yeganeh,  S. R. Yost,  Zhi-Qiang You,  A. Zech,  
 Igor Ying Zhang,  Xing Zhang,  Yan Zhao,  Ying Zhu,  B. R. Brooks,  
 G. K. L. Chan,  C. J. Cramer,  M. S. Gordon,  W. J. Hehre,  A. Klamt,  
 M. W. Schmidt,  C. D. Sherrill,  D. G. Truhlar,  A. Aspuru-Guzik,  R. Baer,  
 A. T. Bell,  N. A. Besley,  Jeng-Da Chai,  R. A. DiStasio Jr.,  A. Dreuw,  
 B. D. Dunietz,  T. R. Furlani,  Chao-Ping Hsu,  Yousung Jung,  Jing Kong,  
 D. S. Lambrecht,  WanZhen Liang,  C. Ochsenfeld,  V. A. Rassolov,  
 L. V. Slipchenko,  J. E. Subotnik,  T. Van Voorhis,  J. M. Herbert,  
 A. I. Krylov,  P. M. W. Gill,  M. Head-Gordon

 Contributors to earlier versions of Q-Chem not listed above: 
 R. D. Adamson,  B. Austin,  J. Baker,  G. J. O. Beran,  K. Brandhorst,  
 S. T. Brown,  E. F. C. Byrd,  A. K. Chakraborty,  C.-L. Cheng,  
 Siu Hung Chien,  D. M. Chipman,  D. L. Crittenden,  H. Dachsel,  
 R. J. Doerksen,  A. D. Dutoi,  L. Fusti-Molnar,  W. A. Goddard III,  
 A. Golubeva-Zadorozhnaya,  S. R. Gwaltney,  G. Hawkins,  A. Heyden,  
 S. Hirata,  G. Kedziora,  F. J. Keil,  C. Kelley,  Jihan Kim,  R. A. King,  
 R. Z. Khaliullin,  P. P. Korambath,  W. Kurlancheek,  A. M. Lee,  M. S. Lee,  
 S. V. Levchenko,  Ching Yeh Lin,  D. Liotard,  R. C. Lochan,  I. Lotan,  
 P. E. Maslen,  N. Nair,  D. P. O'Neill,  D. Neuhauser,  E. Neuscamman,  
 C. M. Oana,  R. Olson,  B. Peters,  R. Peverati,  P. A. Pieniazek,  
 Y. M. Rhee,  J. Ritchie,  M. A. Rohrdanz,  E. Rosta,  N. J. Russ,  
 H. F. Schaefer III,  N. E. Schultz,  N. Shenvi,  A. C. Simmonett,  A. Sodt,  
 D. Stuck,  K. S. Thanthiriwatte,  V. Vanovschi,  Tao Wang,  A. Warshel,  
 C. F. Williams,  Q. Wu,  X. Xu,  W. Zhang

 Please cite Q-Chem as follows:
 Y. Shao et al., Mol. Phys. 113, 184-215 (2015)
 DOI: 10.1080/00268976.2014.952696

 Q-Chem 5.0.2 for Intel X86 EM64T Linux

 Parts of Q-Chem use Armadillo 5.200.1 (Boston Tea Smuggler).
 http://arma.sourceforge.net/

 Q-Chem begins on Wed Mar  2 13:31:49 2022  

Host: 
0

     Scratch files written to ./qcts1.d//
 Dec517 15110_ 26548  26544 5633   
Processing $rem in /home/leeping/opt/qchem/5.0.2-openmp/config/preferences.
 MEM_STATIC 2000
 MEM_TOTAL  8000
 SYMMETRY   OFF
 SYM_IGNORE TRUE 

Checking the input file for inconsistencies... 	...done.

--------------------------------------------------------------
User input:
--------------------------------------------------------------
$molecule
0 2
C        1.6111704990    0.3358593785    0.1605825598
C        1.0628683565   -0.9080813184    0.2815581989
C       -0.3290686396   -1.2123456998    0.0898206076
C       -1.2885989277    0.4193146227   -0.0296383863
C       -0.3825184481    1.5144614431    0.1621444326
N        0.9272854959    1.5299721336    0.1302061722
H        2.6873589480    0.4566735318    0.2703350687
H        1.7101194559   -1.7349458821    0.5683416955
H       -0.7262795607   -2.0885155966    0.6118896774
H       -2.2903398816    0.5565190679    0.3794029279
H       -0.8521649083    2.4733461088    0.4062682571
C       -1.0830336906   -0.6417582912   -0.9961770118
H       -1.0539536082   -0.7088363548   -2.0750900486
$end

$rem
method                b3lyp
basis                 6-31g(d)
unrestricted          true
symmetry              off
sym_ignore            true
incdft                false
incfock               0
scf_convergence       8
thresh                14
jobtype               freq
scf_guess             read
scf_algorithm         diis
max_scf_cycles        100
$end

--------------------------------------------------------------
 ----------------------------------------------------------------
             Standard Nuclear Orientation (Angstroms)
    I     Atom           X                Y                Z
 ----------------------------------------------------------------
    1      C       1.6111704990     0.3358593785     0.1605825598
    2      C       1.0628683565    -0.9080813184     0.2815581989
    3      C      -0.3290686396    -1.2123456998     0.0898206076
    4      C      -1.2885989277     0.4193146227    -0.0296383863
    5      C      -0.3825184481     1.5144614431     0.1621444326
    6      N       0.9272854959     1.5299721336     0.1302061722
    7      H       2.6873589480     0.4566735318     0.2703350687
    8      H       1.7101194559    -1.7349458821     0.5683416955
    9      H      -0.7262795607    -2.0885155966     0.6118896774
   10      H      -2.2903398816     0.5565190679     0.3794029279
   11      H      -0.8521649083     2.4733461088     0.4062682571
   12      C      -1.0830336906    -0.6417582912    -0.9961770118
   13      H      -1.0539536082    -0.7088363548    -2.0750900486
 ----------------------------------------------------------------
 Nuclear Repulsion Energy =   267.1888158720 hartrees
 There are       25 alpha and       24 beta electrons
 Requested basis set is 6-31G(d)
 There are 40 shells and 117 basis functions

 Total QAlloc Memory Limit   8000 MB
 Mega-Array Size      1956 MB
 MEM_STATIC part      2000 MB

                       Distance Matrix (Angstroms)
             C (  1)   C (  2)   C (  3)   C (  4)   C (  5)   N (  6)
   C (  2)  1.364793
   C (  3)  2.483239  1.437647
   C (  4)  2.907200  2.718128  1.896651
   C (  5)  2.316010  2.823494  2.728290  1.434263
   N (  6)  1.376418  2.446507  3.016681  2.483798  1.310285
   H (  7)  1.088496  2.121710  3.452107  3.987433  3.248810  2.066268
   H (  8)  2.112887  1.088524  2.158792  3.740418  3.886229  3.385924
   H (  9)  3.397785  2.168777  1.094535  2.648957  3.647175  4.007462
   H ( 10)  3.913867  3.660414  2.656939  1.090699  2.145842  3.370879
   H ( 11)  3.270662  3.888053  3.736053  2.144653  1.095274  2.032882
   C ( 12)  3.090722  2.511659  1.439939  1.449941  2.545921  3.166470
   H ( 13)  3.632149  3.174023  2.337909  2.347692  3.224763  3.714957
             H (  7)   H (  8)   H (  9)   H ( 10)   H ( 11)   C ( 12)
   H (  8)  2.418057
   H (  9)  4.271718  2.462305
   H ( 10)  4.979895  4.614129  3.081646
   H ( 11)  4.075988  4.929634  4.568228  2.396517
   C ( 12)  4.126314  3.382969  2.192318  2.187619  3.424037
   H ( 13)  4.566930  3.959890  3.038214  3.025609  4.040315  1.081387

 
 A cutoff of  1.0D-14 yielded    806 shell pairs
 There are      7078 function pairs
 Smallest overlap matrix eigenvalue = 1.68E-03
 Guess MOs from SCF MO coefficient file
 Reading MOs from coefficient file
 Reading MOs from coefficient file
 An unrestricted hybrid HF-DFT SCF calculation will be
 performed using Pulay DIIS extrapolation
 Exchange:     0.2000 Hartree-Fock + 0.0800 Slater + 0.7200 B88
 Correlation:  0.1900 VWN1RPA + 0.8100 LYP
 Using SG-1 standard quadrature grid
 SCF converges when DIIS error is below 1.0E-08
Using Q-Chem read-in guess as SCF_GUESS READ specified.

 -------------------------------------------------------
 OpenMP BLAS3 based DFT computing Module                
 -------------------------------------------------------
 ---------------------------------------
  Cycle       Energy         DIIS Error
 ---------------------------------------
    1    -286.8490382875      2.05E-09
    2    -286.8490382875      3.13E-09 Convergence criterion met
 ---------------------------------------
 <S^2> = 0.7536
 SCF time:  CPU 3.36 s  wall 4.44 s
 SCF   energy in the final basis set = -286.84903829
 Total energy in the final basis set = -286.84903829
 
 --------------------------------------------------------------
 
                    Orbital Energies (a.u.)
 --------------------------------------------------------------
 
 Alpha MOs
 -- Occupied --
-14.321 -10.231 -10.225 -10.223 -10.217 -10.210 -10.196  -0.927
 -0.849  -0.771  -0.671  -0.653  -0.568  -0.522  -0.496  -0.494
 -0.443  -0.433  -0.384  -0.376  -0.370  -0.263  -0.255  -0.235
 -0.215
 -- Virtual --
 -0.022  -0.002   0.098   0.102   0.128   0.140   0.160   0.177
  0.186   0.242   0.251   0.288   0.309   0.359   0.403   0.444
  0.492   0.519   0.528   0.530   0.552   0.573   0.591   0.609
  0.618   0.645   0.650   0.657   0.697   0.713   0.775   0.807
  0.828   0.841   0.864   0.869   0.876   0.882   0.896   0.923
  0.937   0.998   1.068   1.092   1.104   1.167   1.218   1.247
  1.300   1.423   1.464   1.478   1.543   1.573   1.612   1.686
  1.742   1.782   1.810   1.836   1.885   1.907   1.948   2.002
  2.026   2.077   2.118   2.176   2.222   2.247   2.307   2.381
  2.410   2.467   2.497   2.529   2.569   2.574   2.581   2.651
  2.755   2.799   2.908   3.017   3.234   4.029   4.107   4.145
  4.264   4.299   4.425   4.575
 
 Beta MOs
 -- Occupied --
-14.321 -10.232 -10.224 -10.224 -10.210 -10.203 -10.195  -0.925
 -0.836  -0.769  -0.661  -0.650  -0.555  -0.515  -0.491  -0.486
 -0.438  -0.428  -0.379  -0.371  -0.369  -0.262  -0.250  -0.231
 -- Virtual --
 -0.069  -0.018  -0.002   0.102   0.105   0.130   0.148   0.163
  0.179   0.188   0.248   0.252   0.298   0.314   0.367   0.410
  0.447   0.500   0.522   0.533   0.535   0.575   0.590   0.594
  0.611   0.621   0.647   0.658   0.663   0.701   0.719   0.789
  0.810   0.832   0.842   0.865   0.871   0.881   0.885   0.899
  0.924   0.940   1.011   1.078   1.093   1.108   1.169   1.226
  1.249   1.302   1.425   1.466   1.480   1.546   1.576   1.618
  1.690   1.770   1.797   1.812   1.841   1.894   1.921   1.951
  2.011   2.044   2.090   2.119   2.196   2.226   2.252   2.312
  2.394   2.418   2.471   2.503   2.537   2.574   2.577   2.590
  2.653   2.762   2.804   2.916   3.018   3.235   4.029   4.110
  4.146   4.293   4.300   4.430   4.576
 --------------------------------------------------------------
 
          Ground-State Mulliken Net Atomic Charges

     Atom                 Charge (a.u.)    Spin (a.u.)
  --------------------------------------------------------
      1 C                    -0.004328      -0.002788
      2 C                    -0.087828       0.030602
      3 C                    -0.177179      -0.051079
      4 C                    -0.194399      -0.060941
      5 C                     0.071971       0.030292
      6 N                    -0.394935       0.000782
      7 H                     0.135632       0.000132
      8 H                     0.141284       0.007604
      9 H                     0.160598       0.031330
     10 H                     0.158085       0.037749
     11 H                     0.141161       0.007872
     12 C                    -0.112327       1.001578
     13 H                     0.162265      -0.033134
  --------------------------------------------------------
  Sum of atomic charges =    -0.000000
  Sum of spin   charges =     1.000000

 -----------------------------------------------------------------
                    Cartesian Multipole Moments
 -----------------------------------------------------------------
    Charge (ESU x 10^10)
                 0.0000
    Dipole Moment (Debye)
         X      -1.4490      Y      -1.9615      Z      -0.1187
       Tot       2.4415
    Quadrupole Moments (Debye-Ang)
        XX     -38.5923     XY      -3.9300     YY     -41.6857
        XZ       0.0568     YZ      -0.4640     ZZ     -40.8749
    Octopole Moments (Debye-Ang^2)
       XXX      -4.2035    XXY      -6.7627    XYY     -10.1008
       YYY     -24.1980    XXZ       3.7545    XYZ      -1.7434
       YYZ       3.7699    XZZ      -4.8953    YZZ      -6.7632
       ZZZ      -3.0931
    Hexadecapole Moments (Debye-Ang^3)
      XXXX    -331.9474   XXXY     -17.7580   XXYY    -120.2536
      XYYY     -31.3866   YYYY    -343.2730   XXXZ     -32.8045
      XXYZ      -5.7181   XYYZ     -12.9481   YYYZ     -17.6851
      XXZZ     -78.1234   XYZZ      -2.5908   YYZZ     -74.6850
      XZZZ     -27.4198   YZZZ      -9.9888   ZZZZ     -91.2078
 -----------------------------------------------------------------
 Calculating MO derivatives via CPSCF
   1         3          39      0.256187    0.059265
   2         3          39      0.025242    0.005191
   3         3          39      0.002200    0.000391
   4         3          39      0.000249    0.000040
   5        39           3      0.000011    0.000004
   6        42           0      0.000000    0.000000    Roots Converged
 Time for AOints: 5.8 s (CPU) 6.4 s (wall)
 ------------------------------------------------------------------------------
                     AOints        : Timing summary (seconds)
 ------------------------------------------------------------------------------
     job step          cpu (% of tot)      sys (% of tot)     wall (% of tot)
 ------------------------------------------------------------------------------
  cpscf_lag         0.5463E+02 (29.6)   0.3100E-04 (40.3)   0.5593E+02 (29.3)
  iterzp            0.1237E+03 (67.1)   0.4400E-04 (57.1)   0.1284E+03 (67.3)
  make_fx           0.0000E+00 ( 0.0)   0.0000E+00 ( 0.0)   0.0000E+00 ( 0.0)
  AOints            0.5793E+01 ( 3.1)   0.2000E-05 ( 2.6)   0.6404E+01 ( 3.4)
 ------------------------------------------------------------------------------
   Grand Totals     0.1843E+03          0.7700E-04          0.1910E+03
 ------------------------------------------------------------------------------
 Calculating analytic Hessian of the SCF energy
 Polarizability Matrix (a.u.)
            1           2           3
    1 -74.9794339   3.3854548  -5.2224748
    2   3.3854548 -75.1829576  -1.3751051
    3  -5.2224748  -1.3751051 -38.7504326
 
 Direct stationary perturbation theory relativistic correction:
 
 rels  =       0.069270354989
 relv  =      -0.336719588044
 rel2e =       0.154589017982
 E_rel =      -0.112860215073
 
 Hessian of the SCF Energy
            1           2           3           4           5           6
    1   0.7183390   0.0755176   0.0319836  -0.1723984  -0.1427116   0.0072067
    2   0.0755176   0.6740771  -0.0321243  -0.0831993  -0.3509071   0.0435830
    3   0.0319836  -0.0321243   0.1504764  -0.0093130   0.0221788  -0.0615612
    4  -0.1723984  -0.0831993  -0.0093130   0.6065582   0.0383447   0.0814589
    5  -0.1427116  -0.3509071   0.0221788   0.0383447   0.7301678  -0.1154755
    6   0.0072067   0.0435830  -0.0615612   0.0814589  -0.1154755   0.1626178
    7  -0.0217622  -0.0678939   0.0136320  -0.2421030  -0.0135720  -0.0358760
    8  -0.0311093   0.0270211  -0.0075885  -0.0895547  -0.1161973   0.0076173
    9  -0.0021823   0.0013132   0.0082081  -0.0245095   0.0045742  -0.0638565
   10   0.0043146  -0.0080414  -0.0007120  -0.0109558   0.0088751   0.0071344
   11   0.0147141  -0.0557428   0.0072820   0.0438556   0.0315176   0.0002907
   12   0.0065677   0.0158618  -0.0097346  -0.0255020  -0.0052505  -0.0049915
   13  -0.0631297   0.0778552  -0.0038323  -0.0319350  -0.0430181  -0.0028691
   14   0.0378364   0.0052443   0.0008947  -0.0048165  -0.0124723   0.0010290
   15   0.0027170   0.0023645   0.0037714  -0.0003471  -0.0017065  -0.0012497
   16  -0.1493553   0.0537156  -0.0078738   0.0474847   0.0456172   0.0035502
   17   0.0777646  -0.2214033   0.0043725  -0.0117050  -0.0712354   0.0006620
   18  -0.0109503   0.0012162  -0.0667549   0.0020032   0.0054104   0.0146021
   19  -0.3235511  -0.0419561  -0.0276894  -0.0097833  -0.0002972  -0.0023592
   20  -0.0427593  -0.0600566  -0.0025892  -0.0299178  -0.0007764  -0.0041214
   21  -0.0319427   0.0000644  -0.0419181   0.0018184   0.0008852   0.0041393
   22   0.0111716  -0.0092224   0.0034994  -0.1558377   0.1256789  -0.0443870
   23   0.0204255  -0.0210578   0.0074180   0.1254395  -0.2108553   0.0637154
   24  -0.0055160  -0.0075584   0.0007131  -0.0357157   0.0725196  -0.0527175
   25  -0.0060167  -0.0006920  -0.0005223  -0.0047470  -0.0278602   0.0131607
   26  -0.0013277   0.0064566   0.0028350  -0.0076844  -0.0046594   0.0032294
   27  -0.0003417   0.0030348   0.0025792  -0.0070699  -0.0063819   0.0047832
   28   0.0004787   0.0012688   0.0002602  -0.0011835  -0.0008538   0.0004617
   29   0.0016357  -0.0040274   0.0004564   0.0013733   0.0011741  -0.0011922
   30  -0.0012963   0.0024140  -0.0000290  -0.0013289   0.0013786   0.0018696
   31  -0.0027353  -0.0001834   0.0021369  -0.0008926   0.0008394   0.0001702
   32  -0.0016068   0.0049554  -0.0035919  -0.0024748  -0.0010729   0.0002467
   33   0.0003658  -0.0071891   0.0116030   0.0054912   0.0042002   0.0005315
   34   0.0053726   0.0044111  -0.0025603  -0.0283169   0.0068549  -0.0286501
   35  -0.0092747  -0.0043376   0.0010709   0.0221044   0.0046935   0.0001832
   36   0.0033545  -0.0204997   0.0025899   0.0102299   0.0166402  -0.0050957
   37  -0.0007278  -0.0015798   0.0009910   0.0041102   0.0021028   0.0009986
   38   0.0008955  -0.0002218  -0.0006145  -0.0017651   0.0006229   0.0002325
   39   0.0000341  -0.0024805   0.0000567   0.0027845   0.0010270   0.0009286
            7           8           9          10          11          12
    1  -0.0217622  -0.0311093  -0.0021823   0.0043146   0.0147141   0.0065677
    2  -0.0678939   0.0270211   0.0013132  -0.0080414  -0.0557428   0.0158618
    3   0.0136320  -0.0075885   0.0082081  -0.0007120   0.0072820  -0.0097346
    4  -0.2421030  -0.0895547  -0.0245095  -0.0109558   0.0438556  -0.0255020
    5  -0.0135720  -0.1161973   0.0045742   0.0088751   0.0315176  -0.0052505
    6  -0.0358760   0.0076173  -0.0638565   0.0071344   0.0002907  -0.0049915
    7   0.4672960   0.1351863   0.1066329  -0.0032785  -0.0440700   0.0313793
    8   0.1351863   0.3902896  -0.2108646   0.0009134   0.0190445  -0.0246836
    9   0.1066329  -0.2108646   0.3669495  -0.0096431   0.0377999  -0.0056600
   10  -0.0032785   0.0009134  -0.0096431   0.5447234   0.0722904  -0.1195870
   11  -0.0440700   0.0190445   0.0377999   0.0722904   0.3642996   0.1945704
   12   0.0313793  -0.0246836  -0.0056600  -0.1195870   0.1945704   0.2830064
   13   0.0478232  -0.0264640  -0.0117405  -0.1713408  -0.0243733  -0.0146411
   14   0.0195161  -0.0281446  -0.0203001  -0.1125123  -0.1688280  -0.0264469
   15   0.0027192   0.0085774  -0.0038841  -0.0121808  -0.0401061  -0.0669782
   16  -0.0453141   0.0261190   0.0106794  -0.0393317  -0.0807899   0.0049989
   17   0.0323466  -0.0115485   0.0022738  -0.0253121   0.0277979  -0.0109797
   18   0.0024305  -0.0048495  -0.0086689  -0.0037469   0.0148782   0.0233795
   19   0.0014108  -0.0017528   0.0005818   0.0001786  -0.0003787  -0.0000419
   20  -0.0011243  -0.0040903   0.0022201   0.0004921  -0.0004921   0.0002013
   21  -0.0007855   0.0000370   0.0086003  -0.0004985  -0.0009250  -0.0007285
   22  -0.0135967   0.0201525  -0.0111112  -0.0008177   0.0020407  -0.0012620
   23  -0.0083496   0.0062035  -0.0031940  -0.0004305  -0.0005440   0.0003299
   24  -0.0164653   0.0058684   0.0018798   0.0020172  -0.0096379   0.0024128
   25  -0.0886830  -0.0739624   0.0440270   0.0012626  -0.0012709  -0.0033014
   26  -0.0829844  -0.2174244   0.1037186  -0.0034044   0.0021860   0.0039637
   27   0.0520319   0.1094919  -0.1013934  -0.0074351  -0.0022497   0.0021001
   28   0.0006579  -0.0020716   0.0014502  -0.2817604   0.0221787   0.0964811
   29  -0.0018880   0.0026024  -0.0046366   0.0347312  -0.0513738  -0.0139955
   30  -0.0048012  -0.0059327   0.0016271   0.1033133  -0.0102711  -0.0737269
   31  -0.0001995  -0.0009122  -0.0012095   0.0062312  -0.0168133  -0.0065499
   32   0.0016759  -0.0013811  -0.0010118   0.0088914  -0.0171046  -0.0094270
   33  -0.0065896   0.0040460   0.0006500  -0.0010487  -0.0150126   0.0065324
   34  -0.1009111   0.0435356  -0.0862252  -0.0491045   0.0159130   0.0297504
   35   0.0338186  -0.0684569   0.0782495   0.0242656  -0.1492398  -0.1044592
   36  -0.1443622   0.1174575  -0.1972751   0.0416052  -0.1745001  -0.1509241
   37  -0.0013397  -0.0000797  -0.0167498  -0.0001211  -0.0032963   0.0017080
   38  -0.0026611   0.0020821   0.0098576  -0.0007585  -0.0015205  -0.0196848
   39   0.0000540   0.0008234  -0.0071767   0.0007819  -0.0021187  -0.0046874
           13          14          15          16          17          18
    1  -0.0631297   0.0378364   0.0027170  -0.1493553   0.0777646  -0.0109503
    2   0.0778552   0.0052443   0.0023645   0.0537156  -0.2214033   0.0012162
    3  -0.0038323   0.0008947   0.0037714  -0.0078738   0.0043725  -0.0667549
    4  -0.0319350  -0.0048165  -0.0003471   0.0474847  -0.0117050   0.0020032
    5  -0.0430181  -0.0124723  -0.0017065   0.0456172  -0.0712354   0.0054104
    6  -0.0028691   0.0010290  -0.0012497   0.0035502   0.0006620   0.0146021
    7   0.0478232   0.0195161   0.0027192  -0.0453141   0.0323466   0.0024305
    8  -0.0264640  -0.0281446   0.0085774   0.0261190  -0.0115485  -0.0048495
    9  -0.0117405  -0.0203001  -0.0038841   0.0106794   0.0022738  -0.0086689
   10  -0.1713408  -0.1125123  -0.0121808  -0.0393317  -0.0253121  -0.0037469
   11  -0.0243733  -0.1688280  -0.0401061  -0.0807899   0.0277979   0.0148782
   12  -0.0146411  -0.0264469  -0.0669782   0.0049989  -0.0109797   0.0233795
   13   0.7385526  -0.0426144  -0.0268470  -0.4219346  -0.0026016  -0.0025346
   14  -0.0426144   0.6057672   0.1078129   0.0097530  -0.1109522  -0.0196628
   15  -0.0268470   0.1078129   0.1809580   0.0132646  -0.0087158  -0.0670322
   16  -0.4219346   0.0097530   0.0132646   0.6606928  -0.1000878   0.0058923
   17  -0.0026016  -0.1109522  -0.0087158  -0.1000878   0.3847803  -0.0029768
   18  -0.0025346  -0.0196628  -0.0670322   0.0058923  -0.0029768   0.0958793
   19   0.0011782   0.0017239  -0.0012034  -0.0183908   0.0101728  -0.0008731
   20   0.0037631  -0.0033356  -0.0000500   0.0366896  -0.0031917   0.0038953
   21   0.0014586   0.0018268   0.0068906  -0.0015985  -0.0028009  -0.0024327
   22  -0.0030497  -0.0021468   0.0001809   0.0019396  -0.0037426  -0.0018732
   23  -0.0003603   0.0003124   0.0007336  -0.0042425  -0.0023467   0.0017741
   24   0.0080911   0.0029682   0.0004821  -0.0053987   0.0061877   0.0097812
   25   0.0007251  -0.0001745  -0.0010812  -0.0006085   0.0016135   0.0005779
   26  -0.0022694  -0.0008723   0.0014357   0.0029608  -0.0024351  -0.0012174
   27   0.0005922  -0.0012166   0.0023250   0.0013105  -0.0014589  -0.0010859
   28  -0.0196765   0.0044395   0.0067882   0.0005697  -0.0057776   0.0004642
   29  -0.0226416   0.0109695   0.0083042  -0.0056028  -0.0015415  -0.0031746
   30  -0.0093239  -0.0042160   0.0026489   0.0029950  -0.0023041   0.0033593
   31  -0.0865426   0.0865554   0.0283203  -0.0325801   0.0315805   0.0067320
   32   0.0866220  -0.2643851  -0.0546256   0.0095844   0.0052890   0.0030145
   33   0.0360404  -0.0515895  -0.0529913  -0.0050423   0.0030687  -0.0048584
   34   0.0078715   0.0036688  -0.0130780  -0.0028101  -0.0051663   0.0018831
   35  -0.0078582  -0.0367594  -0.0241085   0.0084960   0.0069546   0.0006808
   36   0.0232007   0.0068899  -0.0056460  -0.0205890   0.0115121   0.0037127
   37   0.0014582  -0.0012287   0.0007473  -0.0003617   0.0009150  -0.0000050
   38   0.0039606   0.0034562   0.0000842  -0.0022123  -0.0001673   0.0010116
   39   0.0024057   0.0020104   0.0007054  -0.0021886   0.0011592   0.0001188
           19          20          21          22          23          24
    1  -0.3235511  -0.0427593  -0.0319427   0.0111716   0.0204255  -0.0055160
    2  -0.0419561  -0.0600566   0.0000644  -0.0092224  -0.0210578  -0.0075584
    3  -0.0276894  -0.0025892  -0.0419181   0.0034994   0.0074180   0.0007131
    4  -0.0097833  -0.0299178   0.0018184  -0.1558377   0.1254395  -0.0357157
    5  -0.0002972  -0.0007764   0.0008852   0.1256789  -0.2108553   0.0725196
    6  -0.0023592  -0.0041214   0.0041393  -0.0443870   0.0637154  -0.0527175
    7   0.0014108  -0.0011243  -0.0007855  -0.0135967  -0.0083496  -0.0164653
    8  -0.0017528  -0.0040903   0.0000370   0.0201525   0.0062035   0.0058684
    9   0.0005818   0.0022201   0.0086003  -0.0111112  -0.0031940   0.0018798
   10   0.0001786   0.0004921  -0.0004985  -0.0008177  -0.0004305   0.0020172
   11  -0.0003787  -0.0004921  -0.0009250   0.0020407  -0.0005440  -0.0096379
   12  -0.0000419   0.0002013  -0.0007285  -0.0012620   0.0003299   0.0024128
   13   0.0011782   0.0037631   0.0014586  -0.0030497  -0.0003603   0.0080911
   14   0.0017239  -0.0033356   0.0018268  -0.0021468   0.0003124   0.0029682
   15  -0.0012034  -0.0000500   0.0068906   0.0001809   0.0007336   0.0004821
   16  -0.0183908   0.0366896  -0.0015985   0.0019396  -0.0042425  -0.0053987
   17   0.0101728  -0.0031917  -0.0028009  -0.0037426  -0.0023467   0.0061877
   18  -0.0008731   0.0038953  -0.0024327  -0.0018732   0.0017741   0.0097812
   19   0.3496001   0.0326950   0.0312118   0.0007252  -0.0001761   0.0004986
   20   0.0326950   0.0717345   0.0018486   0.0002176   0.0004016  -0.0009135
   21   0.0312118   0.0018486   0.0291354   0.0008585  -0.0013664  -0.0041158
   22   0.0007252   0.0002176   0.0008585   0.1615533  -0.1326451   0.0530875
   23  -0.0001761   0.0004016  -0.0013664  -0.1326451   0.2267123  -0.0682086
   24   0.0004986  -0.0009135  -0.0041158   0.0530875  -0.0682086   0.0452673
   25  -0.0005086  -0.0015505  -0.0008656   0.0011181   0.0004677   0.0002679
   26  -0.0000258  -0.0002413  -0.0003013  -0.0002278   0.0004914  -0.0016679
   27  -0.0002174  -0.0000873   0.0000454   0.0002738  -0.0000199  -0.0009710
   28  -0.0000221   0.0000801  -0.0004048  -0.0000630  -0.0000253   0.0004435
   29  -0.0002500   0.0002444   0.0004274   0.0002471  -0.0000307  -0.0008326
   30   0.0001828  -0.0000742  -0.0006234  -0.0004712  -0.0001580   0.0004142
   31  -0.0005522   0.0009255  -0.0005087   0.0002918   0.0002994  -0.0003288
   32   0.0000012   0.0000668  -0.0001763  -0.0000411   0.0001392   0.0006400
   33   0.0000368  -0.0003648   0.0007436   0.0003795  -0.0006873  -0.0019016
   34  -0.0003112   0.0005231   0.0011983  -0.0034983  -0.0003493  -0.0014045
   35   0.0002715  -0.0003499   0.0004671  -0.0004194   0.0006692   0.0007167
   36  -0.0000778   0.0000442   0.0002368   0.0006874  -0.0003713  -0.0009808
   37   0.0000264  -0.0000344   0.0000588   0.0000637  -0.0000533   0.0004232
   38  -0.0000278   0.0000867   0.0000134   0.0001084  -0.0000951  -0.0000818
   39  -0.0000496  -0.0000091   0.0000271   0.0001376   0.0000346  -0.0002637
           25          26          27          28          29          30
    1  -0.0060167  -0.0013277  -0.0003417   0.0004787   0.0016357  -0.0012963
    2  -0.0006920   0.0064566   0.0030348   0.0012688  -0.0040274   0.0024140
    3  -0.0005223   0.0028350   0.0025792   0.0002602   0.0004564  -0.0000290
    4  -0.0047470  -0.0076844  -0.0070699  -0.0011835   0.0013733  -0.0013289
    5  -0.0278602  -0.0046594  -0.0063819  -0.0008538   0.0011741   0.0013786
    6   0.0131607   0.0032294   0.0047832   0.0004617  -0.0011922   0.0018696
    7  -0.0886830  -0.0829844   0.0520319   0.0006579  -0.0018880  -0.0048012
    8  -0.0739624  -0.2174244   0.1094919  -0.0020716   0.0026024  -0.0059327
    9   0.0440270   0.1037186  -0.1013934   0.0014502  -0.0046366   0.0016271
   10   0.0012626  -0.0034044  -0.0074351  -0.2817604   0.0347312   0.1033133
   11  -0.0012709   0.0021860  -0.0022497   0.0221787  -0.0513738  -0.0102711
   12  -0.0033014   0.0039637   0.0021001   0.0964811  -0.0139955  -0.0737269
   13   0.0007251  -0.0022694   0.0005922  -0.0196765  -0.0226416  -0.0093239
   14  -0.0001745  -0.0008723  -0.0012166   0.0044395   0.0109695  -0.0042160
   15  -0.0010812   0.0014357   0.0023250   0.0067882   0.0083042   0.0026489
   16  -0.0006085   0.0029608   0.0013105   0.0005697  -0.0056028   0.0029950
   17   0.0016135  -0.0024351  -0.0014589  -0.0057776  -0.0015415  -0.0023041
   18   0.0005779  -0.0012174  -0.0010859   0.0004642  -0.0031746   0.0033593
   19  -0.0005086  -0.0000258  -0.0002174  -0.0000221  -0.0002500   0.0001828
   20  -0.0015505  -0.0002413  -0.0000873   0.0000801   0.0002444  -0.0000742
   21  -0.0008656  -0.0003013   0.0000454  -0.0004048   0.0004274  -0.0006234
   22   0.0011181  -0.0002278   0.0002738  -0.0000630   0.0002471  -0.0004712
   23   0.0004677   0.0004914  -0.0000199  -0.0000253  -0.0000307  -0.0001580
   24   0.0002679  -0.0016679  -0.0009710   0.0004435  -0.0008326   0.0004142
   25   0.0922599   0.0904279  -0.0421001   0.0005327  -0.0004737   0.0012897
   26   0.0904279   0.2229862  -0.1219234  -0.0000330   0.0010200  -0.0009579
   27  -0.0421001  -0.1219234   0.1056801  -0.0001717   0.0015471  -0.0006848
   28   0.0005327  -0.0000330  -0.0001717   0.2980483  -0.0255312  -0.1088390
   29  -0.0004737   0.0010200   0.0015471  -0.0255312   0.0500816   0.0266904
   30   0.0012897  -0.0009579  -0.0006848  -0.1088390   0.0266904   0.0752820
   31   0.0000551  -0.0000196  -0.0002077   0.0007609   0.0003638   0.0000594
   32   0.0001063  -0.0002147  -0.0002249  -0.0002899   0.0007847   0.0002252
   33  -0.0003085   0.0004449  -0.0001742  -0.0010690   0.0008810  -0.0014763
   34   0.0039067   0.0059519   0.0043055   0.0026807   0.0163182   0.0174500
   35   0.0126840  -0.0062373   0.0175797   0.0069505  -0.0105261  -0.0048262
   36  -0.0109153   0.0108480  -0.0123786   0.0045699  -0.0145132  -0.0081301
   37   0.0007037  -0.0013640  -0.0009703  -0.0010235   0.0017180   0.0007702
   38   0.0006848  -0.0010557   0.0019091  -0.0003352   0.0006229  -0.0019681
   39  -0.0002288  -0.0004073  -0.0008252  -0.0004343   0.0000382  -0.0005307
           31          32          33          34          35          36
    1  -0.0027353  -0.0016068   0.0003658   0.0053726  -0.0092747   0.0033545
    2  -0.0001834   0.0049554  -0.0071891   0.0044111  -0.0043376  -0.0204997
    3   0.0021369  -0.0035919   0.0116030  -0.0025603   0.0010709   0.0025899
    4  -0.0008926  -0.0024748   0.0054912  -0.0283169   0.0221044   0.0102299
    5   0.0008394  -0.0010729   0.0042002   0.0068549   0.0046935   0.0166402
    6   0.0001702   0.0002467   0.0005315  -0.0286501   0.0001832  -0.0050957
    7  -0.0001995   0.0016759  -0.0065896  -0.1009111   0.0338186  -0.1443622
    8  -0.0009122  -0.0013811   0.0040460   0.0435356  -0.0684569   0.1174575
    9  -0.0012095  -0.0010118   0.0006500  -0.0862252   0.0782495  -0.1972751
   10   0.0062312   0.0088914  -0.0010487  -0.0491045   0.0242656   0.0416052
   11  -0.0168133  -0.0171046  -0.0150126   0.0159130  -0.1492398  -0.1745001
   12  -0.0065499  -0.0094270   0.0065324   0.0297504  -0.1044592  -0.1509241
   13  -0.0865426   0.0866220   0.0360404   0.0078715  -0.0078582   0.0232007
   14   0.0865554  -0.2643851  -0.0515895   0.0036688  -0.0367594   0.0068899
   15   0.0283203  -0.0546256  -0.0529913  -0.0130780  -0.0241085  -0.0056460
   16  -0.0325801   0.0095844  -0.0050423  -0.0028101   0.0084960  -0.0205890
   17   0.0315805   0.0052890   0.0030687  -0.0051663   0.0069546   0.0115121
   18   0.0067320   0.0030145  -0.0048584   0.0018831   0.0006808   0.0037127
   19  -0.0005522   0.0000012   0.0000368  -0.0003112   0.0002715  -0.0000778
   20   0.0009255   0.0000668  -0.0003648   0.0005231  -0.0003499   0.0000442
   21  -0.0005087  -0.0001763   0.0007436   0.0011983   0.0004671   0.0002368
   22   0.0002918  -0.0000411   0.0003795  -0.0034983  -0.0004194   0.0006874
   23   0.0002994   0.0001392  -0.0006873  -0.0003493   0.0006692  -0.0003713
   24  -0.0003288   0.0006400  -0.0019016  -0.0014045   0.0007167  -0.0009808
   25   0.0000551   0.0001063  -0.0003085   0.0039067   0.0126840  -0.0109153
   26  -0.0000196  -0.0002147   0.0004449   0.0059519  -0.0062373   0.0108480
   27  -0.0002077  -0.0002249  -0.0001742   0.0043055   0.0175797  -0.0123786
   28   0.0007609  -0.0002899  -0.0010690   0.0026807   0.0069505   0.0045699
   29   0.0003638   0.0007847   0.0008810   0.0163182  -0.0105261  -0.0145132
   30   0.0000594   0.0002252  -0.0014763   0.0174500  -0.0048262  -0.0081301
   31   0.1164853  -0.1003128  -0.0291483  -0.0002458  -0.0023385   0.0004089
   32  -0.1003128   0.2749898   0.0637490  -0.0023694  -0.0020068   0.0010304
   33  -0.0291483   0.0637490   0.0405511   0.0010187  -0.0021017   0.0011239
   34  -0.0002458  -0.0023694   0.0010187   0.1782199  -0.1081558   0.0744827
   35  -0.0023385  -0.0020068  -0.0021017  -0.1081558   0.2997003   0.0590867
   36   0.0004089   0.0010304   0.0011239   0.0744827   0.0590867   0.7298127
   37  -0.0000761   0.0002134  -0.0001262  -0.0128535   0.0194561   0.0174051
   38   0.0000157  -0.0000597   0.0005554   0.0188641  -0.0341038  -0.0136247
   39   0.0001250   0.0001517  -0.0003338   0.0018294  -0.0225390  -0.3570456
           37          38          39
    1  -0.0007278   0.0008955   0.0000341
    2  -0.0015798  -0.0002218  -0.0024805
    3   0.0009910  -0.0006145   0.0000567
    4   0.0041102  -0.0017651   0.0027845
    5   0.0021028   0.0006229   0.0010270
    6   0.0009986   0.0002325   0.0009286
    7  -0.0013397  -0.0026611   0.0000540
    8  -0.0000797   0.0020821   0.0008234
    9  -0.0167498   0.0098576  -0.0071767
   10  -0.0001211  -0.0007585   0.0007819
   11  -0.0032963  -0.0015205  -0.0021187
   12   0.0017080  -0.0196848  -0.0046874
   13   0.0014582   0.0039606   0.0024057
   14  -0.0012287   0.0034562   0.0020104
   15   0.0007473   0.0000842   0.0007054
   16  -0.0003617  -0.0022123  -0.0021886
   17   0.0009150  -0.0001673   0.0011592
   18  -0.0000050   0.0010116   0.0001188
   19   0.0000264  -0.0000278  -0.0000496
   20  -0.0000344   0.0000867  -0.0000091
   21   0.0000588   0.0000134   0.0000271
   22   0.0000637   0.0001084   0.0001376
   23  -0.0000533  -0.0000951   0.0000346
   24   0.0004232  -0.0000818  -0.0002637
   25   0.0007037   0.0006848  -0.0002288
   26  -0.0013640  -0.0010557  -0.0004073
   27  -0.0009703   0.0019091  -0.0008252
   28  -0.0010235  -0.0003352  -0.0004343
   29   0.0017180   0.0006229   0.0000382
   30   0.0007702  -0.0019681  -0.0005307
   31  -0.0000761   0.0000157   0.0001250
   32   0.0002134  -0.0000597   0.0001517
   33  -0.0001262   0.0005554  -0.0003338
   34  -0.0128535   0.0188641   0.0018294
   35   0.0194561  -0.0341038  -0.0225390
   36   0.0174051  -0.0136247  -0.3570456
   37   0.0101411  -0.0167690  -0.0052509
   38  -0.0167690   0.0303531   0.0223101
   39  -0.0052509   0.0223101   0.3690266
 Gradient time:  CPU 247.20 s  wall 260.17 s
 **********************************************************************
 **                                                                  **
 **                       VIBRATIONAL ANALYSIS                       **
 **                       --------------------                       **
 **                                                                  **
 **        VIBRATIONAL FREQUENCIES (CM**-1) AND NORMAL MODES         **
 **     FORCE CONSTANTS (mDYN/ANGSTROM) AND REDUCED MASSES (AMU)     **
 **                  INFRARED INTENSITIES (KM/MOL)                   **
 **                                                                  **
 **********************************************************************
 

 Mode:                 1                      2                      3
 Frequency:      -480.02                 -24.70                 265.83
 Force Cnst:      0.4411                 0.0004                 0.1218
 Red. Mass:       3.2489                 1.2324                 2.9257
 IR Active:          YES                    YES                    YES
 IR Intens:        3.710                  7.928                  2.309
 Raman Active:       YES                    YES                    YES
               X      Y      Z        X      Y      Z        X      Y      Z
 C         -0.020  0.034 -0.021   -0.027 -0.011 -0.063    0.012 -0.002  0.166
 C         -0.006 -0.035  0.038   -0.018 -0.024  0.027    0.021 -0.010  0.075
 C          0.162 -0.225 -0.090    0.013 -0.039  0.027    0.066 -0.042 -0.174
 C         -0.121  0.237 -0.117   -0.028  0.037  0.016   -0.018 -0.053  0.200
 C         -0.041  0.004  0.040   -0.030 -0.000  0.031   -0.004 -0.007 -0.110
 N          0.021 -0.035 -0.021   -0.017 -0.022 -0.054   -0.001 -0.014 -0.163
 H         -0.017  0.014  0.012   -0.021 -0.011 -0.112   -0.018  0.038  0.422
 H          0.024  0.085  0.323   -0.003  0.013  0.098   -0.032  0.010  0.243
 H          0.229 -0.320 -0.193   -0.032 -0.021  0.015    0.091 -0.151 -0.331
 H         -0.163  0.347 -0.254   -0.034 -0.017  0.008    0.048 -0.103  0.371
 H          0.062 -0.003  0.260    0.009 -0.003  0.110    0.016  0.067 -0.346
 C          0.023  0.033  0.150    0.045  0.027  0.014   -0.074  0.109  0.004
 H         -0.380 -0.205  0.149    0.843  0.481 -0.000   -0.122  0.399 -0.016
 TransDip   0.014 -0.060  0.006    0.069  0.033  0.047   -0.015  0.026  0.039

 Mode:                 4                      5                      6
 Frequency:       346.11                 455.83                 473.61
 Force Cnst:      0.2443                 0.7931                 0.4861
 Red. Mass:       3.4616                 6.4784                 3.6778
 IR Active:          YES                    YES                    YES
 IR Intens:        5.084                  1.699                  4.811
 Raman Active:       YES                    YES                    YES
               X      Y      Z        X      Y      Z        X      Y      Z
 C         -0.019 -0.041 -0.132    0.222 -0.063  0.030   -0.117 -0.077  0.037
 C         -0.037  0.007  0.202    0.244 -0.036 -0.024    0.069 -0.160 -0.129
 C         -0.029  0.077 -0.002    0.126  0.339  0.047    0.003 -0.047  0.099
 C          0.013 -0.066  0.050   -0.321  0.065 -0.062    0.006  0.037  0.083
 C         -0.031 -0.050  0.153   -0.099 -0.142 -0.044   -0.083  0.154 -0.120
 N         -0.047 -0.044 -0.147   -0.094 -0.265  0.028   -0.102 -0.031  0.034
 H         -0.007 -0.008 -0.293    0.196  0.167  0.049   -0.116 -0.018 -0.044
 H         -0.092  0.021  0.357    0.046 -0.161  0.058    0.202 -0.195 -0.519
 H         -0.155  0.059 -0.125    0.022  0.460  0.163   -0.079 -0.052  0.031
 H         -0.035 -0.173 -0.026   -0.330  0.167 -0.109   -0.056 -0.047 -0.035
 H         -0.009 -0.084  0.323    0.068 -0.041 -0.101   -0.056  0.270 -0.506
 C          0.229  0.160 -0.112   -0.064  0.087  0.014    0.262  0.144  0.073
 H         -0.550 -0.247 -0.094    0.003  0.113  0.013   -0.154 -0.127  0.087
 TransDip  -0.069 -0.021 -0.000    0.026  0.033 -0.000   -0.043 -0.016 -0.053

 Mode:                 7                      8                      9
 Frequency:       659.10                 680.18                 778.19
 Force Cnst:      0.7599                 0.6001                 0.7082
 Red. Mass:       2.9689                 2.2015                 1.9848
 IR Active:          YES                    YES                    YES
 IR Intens:       16.832                  9.378                 14.960
 Raman Active:       YES                    YES                    YES
               X      Y      Z        X      Y      Z        X      Y      Z
 C          0.043 -0.007 -0.185   -0.060 -0.051 -0.077    0.016  0.023 -0.087
 C         -0.026  0.061  0.191    0.077 -0.111  0.052   -0.087  0.050 -0.157
 C          0.023 -0.040 -0.045    0.089  0.022 -0.070   -0.017 -0.014  0.027
 C         -0.037 -0.056  0.065    0.103  0.044 -0.048   -0.021 -0.034  0.056
 C          0.015 -0.001 -0.162   -0.052  0.152 -0.036    0.005 -0.078 -0.100
 N          0.012 -0.010  0.223   -0.061 -0.025  0.071    0.027 -0.015  0.084
 H          0.090 -0.043 -0.619   -0.081  0.048  0.029   -0.029 -0.051  0.458
 H          0.016  0.009 -0.049    0.027  0.009  0.495   -0.208  0.266  0.716
 H          0.081 -0.207 -0.278   -0.138  0.326  0.263   -0.026  0.102  0.204
 H         -0.066  0.120 -0.057    0.261 -0.319  0.453   -0.012 -0.018  0.071
 H         -0.031  0.060 -0.483   -0.018  0.100  0.227    0.012 -0.107  0.010
 C         -0.034  0.042  0.001   -0.083 -0.041 -0.025    0.098  0.056  0.036
 H         -0.064  0.210 -0.012   -0.070  0.009 -0.030   -0.025 -0.015  0.045
 TransDip   0.037  0.013 -0.125   -0.021  0.030  0.091   -0.052 -0.045  0.103

 Mode:                10                     11                     12
 Frequency:       837.59                 868.42                 907.42
 Force Cnst:      0.5772                 0.9290                 0.9586
 Red. Mass:       1.3964                 2.0907                 1.9759
 IR Active:          YES                    YES                    YES
 IR Intens:        4.137                 22.377                  3.254
 Raman Active:       YES                    YES                    YES
               X      Y      Z        X      Y      Z        X      Y      Z
 C          0.053  0.006  0.019   -0.036  0.019  0.023   -0.070  0.035  0.037
 C         -0.072  0.073  0.013    0.056 -0.069  0.046   -0.006  0.018  0.016
 C         -0.015 -0.005  0.020   -0.003 -0.088 -0.019    0.018  0.035  0.044
 C         -0.076  0.041 -0.053   -0.113 -0.005 -0.036    0.159 -0.010 -0.007
 C         -0.002  0.019 -0.062    0.030 -0.135 -0.061   -0.010 -0.079 -0.158
 N          0.016 -0.049  0.008    0.074  0.158  0.006   -0.059 -0.080  0.006
 H          0.061 -0.046 -0.007   -0.014 -0.034 -0.137   -0.068  0.077 -0.043
 H         -0.058 -0.033 -0.314    0.203 -0.051 -0.214    0.078  0.002 -0.230
 H          0.110 -0.165 -0.144   -0.434  0.413  0.480    0.074 -0.064 -0.078
 H          0.166 -0.441  0.674    0.003 -0.036  0.255    0.129  0.288 -0.180
 H          0.101 -0.019  0.284   -0.062 -0.234  0.144   -0.016 -0.315  0.717
 C          0.057 -0.003  0.011    0.018  0.072 -0.004   -0.029  0.073  0.043
 H          0.059 -0.159  0.024   -0.151  0.200 -0.013   -0.119  0.257  0.033
 TransDip  -0.005 -0.055  0.035   -0.126 -0.081  0.021    0.041  0.037 -0.015

 Mode:                13                     14                     15
 Frequency:       924.25                 962.23                 974.67
 Force Cnst:      1.1721                 0.7864                 1.5643
 Red. Mass:       2.3288                 1.4415                 2.7948
 IR Active:          YES                    YES                    YES
 IR Intens:        3.102                  1.379                  3.095
 Raman Active:       YES                    YES                    YES
               X      Y      Z        X      Y      Z        X      Y      Z
 C          0.094  0.069  0.070    0.070 -0.013 -0.135    0.220  0.019  0.056
 C         -0.049  0.131 -0.020    0.019  0.027  0.086    0.089 -0.057 -0.038
 C         -0.029 -0.150 -0.044   -0.031 -0.061  0.003   -0.148 -0.130  0.067
 C          0.103  0.028 -0.032    0.009 -0.003 -0.001   -0.053 -0.056  0.056
 C         -0.018 -0.007  0.058   -0.015  0.032  0.014   -0.064  0.161 -0.081
 N         -0.073 -0.161 -0.018   -0.026 -0.010  0.002   -0.003  0.045 -0.008
 H          0.132  0.114 -0.340   -0.033  0.073  0.847    0.241  0.175 -0.257
 H         -0.011  0.134 -0.086    0.122 -0.070 -0.410   -0.031 -0.038  0.326
 H         -0.204  0.325  0.605   -0.074  0.032  0.122   -0.150 -0.211 -0.057
 H          0.097 -0.092 -0.006   -0.043  0.018 -0.131   -0.196 -0.066 -0.274
 H          0.005  0.113 -0.360    0.006  0.035  0.047    0.047  0.043  0.607
 C         -0.006  0.053  0.005   -0.017  0.017 -0.009   -0.027  0.014 -0.074
 H         -0.113  0.166 -0.003   -0.035  0.059 -0.014   -0.069  0.053 -0.082
 TransDip   0.000  0.056 -0.006    0.003 -0.010  0.036    0.035  0.035  0.027

 Mode:                16                     17                     18
 Frequency:      1006.32                1082.57                1087.78
 Force Cnst:      1.1190                 0.9229                 1.4034
 Red. Mass:       1.8755                 1.3366                 2.0130
 IR Active:          YES                    YES                    YES
 IR Intens:        2.842                  4.894                 12.777
 Raman Active:       YES                    YES                    YES
               X      Y      Z        X      Y      Z        X      Y      Z
 C         -0.029 -0.023  0.024   -0.017 -0.050  0.012   -0.146  0.052  0.003
 C         -0.069  0.052  0.020   -0.055  0.029 -0.014    0.074  0.051 -0.003
 C          0.074  0.020 -0.146    0.071  0.023  0.037   -0.027 -0.036  0.065
 C         -0.054 -0.023  0.148   -0.034 -0.049 -0.040   -0.088 -0.007  0.038
 C         -0.004  0.077 -0.057   -0.019  0.065  0.010    0.097  0.039  0.003
 N          0.033 -0.026  0.001    0.046  0.011 -0.008    0.043 -0.112  0.008
 H         -0.006 -0.146 -0.080    0.003 -0.235  0.002   -0.147  0.024  0.036
 H         -0.111 -0.065 -0.232   -0.110 -0.026 -0.059    0.616  0.506  0.066
 H         -0.025  0.362  0.342    0.264  0.025  0.179   -0.048 -0.075 -0.015
 H         -0.222  0.107 -0.297   -0.141 -0.282 -0.214   -0.078  0.046  0.052
 H          0.169  0.050  0.375    0.045  0.078  0.077    0.406  0.171  0.069
 C          0.038 -0.063 -0.002    0.028 -0.051  0.010   -0.016 -0.030 -0.121
 H          0.248 -0.438  0.027   -0.401  0.689 -0.047   -0.085  0.058 -0.140
 TransDip   0.019 -0.050 -0.007   -0.052  0.049 -0.002    0.008  0.114  0.004

 Mode:                19                     20                     21
 Frequency:      1196.53                1226.72                1267.10
 Force Cnst:      1.6953                 1.2236                 1.1853
 Red. Mass:       2.0097                 1.3801                 1.2530
 IR Active:          YES                    YES                    YES
 IR Intens:        0.345                  2.726                  2.214
 Raman Active:       YES                    YES                    YES
               X      Y      Z        X      Y      Z        X      Y      Z
 C         -0.019 -0.045  0.013    0.003 -0.042  0.004   -0.061  0.089 -0.018
 C         -0.006  0.012  0.002   -0.008 -0.004  0.004    0.017 -0.046  0.011
 C          0.060 -0.021  0.045    0.034 -0.043  0.063   -0.013 -0.010  0.006
 C          0.014 -0.097 -0.073   -0.020  0.011  0.025   -0.010 -0.007 -0.001
 C         -0.010  0.015  0.003   -0.001  0.000  0.005    0.067 -0.027 -0.007
 N          0.041  0.012 -0.008   -0.031  0.026 -0.003    0.019 -0.018  0.012
 H          0.006 -0.271 -0.008    0.001 -0.041 -0.011   -0.121  0.591 -0.002
 H          0.224  0.200  0.025   -0.146 -0.118  0.000   -0.396 -0.377 -0.001
 H          0.255 -0.060  0.120    0.636 -0.105  0.423    0.195 -0.037  0.126
 H         -0.137 -0.540 -0.288    0.134  0.460  0.264   -0.104 -0.323 -0.133
 H         -0.082 -0.021 -0.016   -0.077 -0.026 -0.012    0.339  0.102 -0.024
 C         -0.132  0.216  0.026   -0.019  0.041 -0.141   -0.016  0.028 -0.003
 H          0.264 -0.430  0.080    0.017 -0.086 -0.148    0.009 -0.021  0.001
 TransDip  -0.008 -0.012  0.012    0.051  0.002  0.012   -0.025  0.041  0.002

 Mode:                22                     23                     24
 Frequency:      1352.10                1401.91                1425.15
 Force Cnst:      2.1979                 3.1215                 1.6464
 Red. Mass:       2.0406                 2.6958                 1.3758
 IR Active:          YES                    YES                    YES
 IR Intens:        5.336                 18.379                  5.735
 Raman Active:       YES                    YES                    YES
               X      Y      Z        X      Y      Z        X      Y      Z
 C          0.012 -0.036 -0.001    0.007 -0.121  0.011    0.015 -0.009  0.001
 C          0.035 -0.023  0.026    0.013  0.010  0.014    0.051  0.017  0.005
 C         -0.135  0.039 -0.068   -0.148  0.043 -0.154   -0.034 -0.004 -0.021
 C          0.049  0.198  0.093   -0.052 -0.147 -0.113    0.031  0.011 -0.015
 C         -0.025 -0.089 -0.036    0.101  0.068  0.020   -0.012 -0.075 -0.008
 N          0.002  0.019  0.010   -0.054  0.026 -0.005   -0.112  0.071  0.006
 H          0.014  0.001 -0.035   -0.063  0.484 -0.062    0.071 -0.498 -0.004
 H          0.320  0.194  0.022    0.298  0.259  0.082   -0.051 -0.052  0.050
 H          0.508 -0.088  0.234    0.458 -0.009  0.222    0.061 -0.031  0.013
 H         -0.158 -0.529 -0.219    0.098  0.305  0.125    0.036 -0.017 -0.017
 H         -0.226 -0.190 -0.038    0.051  0.034  0.099    0.783  0.295  0.027
 C          0.026 -0.061 -0.020    0.067  0.020  0.172    0.002  0.004  0.024
 H         -0.029  0.022 -0.030    0.060  0.102  0.195    0.016 -0.001  0.027
 TransDip  -0.038 -0.057 -0.028    0.078  0.098  0.056    0.061 -0.045  0.012

 Mode:                25                     26                     27
 Frequency:      1480.83                1527.00                1637.61
 Force Cnst:      2.7015                 6.0178                 8.1427
 Red. Mass:       2.0909                 4.3804                 5.1534
 IR Active:          YES                    YES                    YES
 IR Intens:        4.023                  6.531                 20.332
 Raman Active:       YES                    YES                    YES
               X      Y      Z        X      Y      Z        X      Y      Z
 C          0.090 -0.116  0.017   -0.028 -0.222  0.020    0.115  0.304 -0.016
 C         -0.188 -0.062 -0.018    0.081  0.186 -0.039   -0.201 -0.295  0.025
 C          0.124  0.016  0.053    0.082 -0.077  0.054    0.048  0.056 -0.014
 C          0.026  0.035  0.027   -0.054  0.088  0.033   -0.056 -0.032  0.005
 C         -0.033 -0.055 -0.007    0.333  0.022 -0.020    0.283  0.063  0.003
 N         -0.041  0.079  0.003   -0.241  0.059 -0.001   -0.202 -0.025 -0.008
 H          0.004  0.664 -0.051   -0.094  0.069 -0.027    0.240 -0.535  0.057
 H          0.353  0.342 -0.083   -0.350 -0.090  0.088    0.353  0.078 -0.032
 H         -0.121  0.060 -0.087   -0.342 -0.008 -0.173    0.195  0.056  0.088
 H         -0.010 -0.040 -0.048   -0.185 -0.322 -0.165   -0.098 -0.100 -0.051
 H          0.391  0.151 -0.018   -0.355 -0.322  0.090   -0.221 -0.171 -0.006
 C         -0.022 -0.008 -0.047   -0.021 -0.010 -0.027    0.009 -0.014  0.002
 H         -0.031 -0.012 -0.057   -0.006  0.008 -0.042   -0.028  0.045 -0.002
 TransDip   0.052 -0.026 -0.026    0.074 -0.014  0.033    0.116  0.087 -0.001

 Mode:                28                     29                     30
 Frequency:      3098.11                3098.41                3132.72
 Force Cnst:      6.1386                 6.1385                 6.2881
 Red. Mass:       1.0855                 1.0853                 1.0875
 IR Active:          YES                    YES                    YES
 IR Intens:       18.074                 24.257                 24.540
 Raman Active:       YES                    YES                    YES
               X      Y      Z        X      Y      Z        X      Y      Z
 C          0.000  0.001  0.000    0.001  0.002 -0.000   -0.002 -0.000 -0.000
 C         -0.003  0.006 -0.001    0.000 -0.002  0.000   -0.000  0.000 -0.000
 C         -0.033 -0.066  0.039    0.002  0.004 -0.002    0.000 -0.002  0.001
 C          0.001  0.001  0.000   -0.019  0.002  0.008   -0.076  0.007  0.030
 C          0.002 -0.005 -0.002    0.033 -0.072 -0.018   -0.008  0.022  0.006
 N          0.001 -0.000 -0.000    0.001 -0.000  0.000    0.000 -0.001  0.000
 H         -0.008 -0.002 -0.001   -0.022 -0.003 -0.002    0.025  0.003  0.002
 H          0.054 -0.074  0.025   -0.009  0.011 -0.003    0.005 -0.005  0.002
 H          0.367  0.786 -0.477   -0.022 -0.048  0.030    0.007  0.017 -0.008
 H         -0.002 -0.001  0.003    0.239 -0.034 -0.102    0.883 -0.109 -0.365
 H         -0.027  0.057  0.016   -0.403  0.843  0.219    0.105 -0.228 -0.059
 C          0.000 -0.001 -0.001   -0.000  0.001 -0.000   -0.000  0.001 -0.001
 H         -0.003 -0.003  0.009   -0.000  0.000  0.008   -0.004  0.000  0.010
 TransDip  -0.052 -0.112  0.057    0.059 -0.143 -0.032   -0.133  0.066  0.057

 Mode:                31                     32                     33
 Frequency:      3165.23                3185.29                3248.31
 Force Cnst:      6.4048                 6.5461                 6.8036
 Red. Mass:       1.0850                 1.0951                 1.0944
 IR Active:          YES                    YES                    YES
 IR Intens:        6.583                 35.189                 14.747
 Raman Active:       YES                    YES                    YES
               X      Y      Z        X      Y      Z        X      Y      Z
 C         -0.048 -0.006 -0.004   -0.070 -0.013 -0.006    0.000 -0.000  0.000
 C          0.041 -0.051  0.018   -0.028  0.042 -0.014    0.001 -0.001  0.000
 C         -0.003 -0.006  0.003    0.003  0.004 -0.002    0.003 -0.001  0.002
 C          0.000  0.000 -0.001    0.001 -0.000 -0.001    0.000  0.003  0.002
 C          0.001 -0.001 -0.000    0.002 -0.003 -0.001    0.000  0.001  0.000
 N         -0.001  0.001  0.000    0.000  0.001  0.000   -0.000  0.000  0.000
 H          0.578  0.066  0.056    0.797  0.097  0.078   -0.002 -0.000 -0.000
 H         -0.479  0.607 -0.216    0.343 -0.442  0.157   -0.005  0.006 -0.003
 H          0.031  0.063 -0.036   -0.021 -0.040  0.021   -0.001 -0.010  0.004
 H         -0.008  0.000  0.003   -0.015  0.001  0.007   -0.012  0.005  0.004
 H         -0.004  0.007  0.001   -0.012  0.024  0.007    0.002 -0.004 -0.002
 C         -0.000  0.000  0.000   -0.000  0.000 -0.000   -0.001 -0.007 -0.088
 H          0.000 -0.001 -0.005    0.000  0.001  0.006   -0.020  0.064  0.994
 TransDip  -0.041 -0.065  0.028   -0.182  0.047 -0.028   -0.069 -0.050 -0.089

 STANDARD THERMODYNAMIC QUANTITIES AT   298.15 K  AND     1.00 ATM

   This Molecule has  2 Imaginary Frequencies
   Zero point vibrational energy:       62.548 kcal/mol

   Atom    1 Element C  Has Mass   12.00000
   Atom    2 Element C  Has Mass   12.00000
   Atom    3 Element C  Has Mass   12.00000
   Atom    4 Element C  Has Mass   12.00000
   Atom    5 Element C  Has Mass   12.00000
   Atom    6 Element N  Has Mass   14.00307
   Atom    7 Element H  Has Mass    1.00783
   Atom    8 Element H  Has Mass    1.00783
   Atom    9 Element H  Has Mass    1.00783
   Atom   10 Element H  Has Mass    1.00783
   Atom   11 Element H  Has Mass    1.00783
   Atom   12 Element C  Has Mass   12.00000
   Atom   13 Element H  Has Mass    1.00783
   Molecular Mass:    92.050050 amu
   Principal axes and moments of inertia in amu*Bohr^2:
                             1           2           3
    Eigenvalues --      403.46206   496.40073   806.30247
          X               0.76968    -0.59916    -0.22046
          Y               0.59752     0.79767    -0.08179
          Z               0.22486    -0.06878     0.97196
   Rotational Symmetry Number is   1
   The Molecule is an Asymmetric Top
   Translational Enthalpy:        0.889 kcal/mol
   Rotational Enthalpy:           0.889 kcal/mol
   Vibrational Enthalpy:         63.899 kcal/mol
   gas constant (RT):             0.592 kcal/mol
   Translational Entropy:        39.471  cal/mol.K
   Rotational Entropy:           26.582  cal/mol.K
   Vibrational Entropy:           6.459  cal/mol.K

   Total Enthalpy:               66.269 kcal/mol
   Total Entropy:                72.512  cal/mol.K
Archival summary:
1\1\c8-85\FREQ\ProcedureUnspecified\6-31G*\166(2)\hpark21\WedMar213:36:192022WedMar213:36:192022\0\\#,FREQ,ProcedureUnspecified,6-31G*,\\0,2\N\C,1,1.31029\H,2,1.09527,1,115.069\C,1,1.37642,2,119.069,3,164.2,0\H,4,1.0885,1,113.402,2,-171.939,0\C,4,1.36479,1,126.375,2,-3.08367,0\H,6,1.08852,4,118.478,1,-163.187,0\C,2,1.43426,1,129.59,3,-177.594,0\H,8,1.0907,2,115.723,1,159.234,0\C,6,1.43765,4,124.754,1,15.1656,0\H,10,1.09453,6,117.205,4,-154.055,0\C,10,1.43994,6,121.58,4,42.483,0\H,12,1.08139,10,135.546,6,64.8399,0\\\@

 Total job time:  269.58s(wall), 250.76s(cpu) 
 Wed Mar  2 13:36:19 2022

        *************************************************************
        *                                                           *
        *  Thank you very much for using Q-Chem.  Have a nice day.  *
        *                                                           *
        *************************************************************


