13
image # 1 Energy = -286.85685
C 1.58709   0.31156   0.12706   
C 1.02170   -0.90836  0.28526   
C -0.43267  -1.09469  0.17235   
C -1.24060  0.29005   0.03217   
C -0.40089  1.49721   0.16146   
N 0.88759   1.52388   0.11773   
H 2.66809   0.42492   0.13059   
H 1.64353   -1.77531  0.49397   
H -0.90302  -1.88949  0.75230   
H -2.22678  0.33609   0.49754   
H -0.91198  2.44287   0.35661   
C -1.06620  -0.65361  -1.07368  
H -0.62585  -0.50511  -2.05337  
13
image # 2 Energy = -286.85392
C 1.58748   0.30360   0.14543   
C 1.03913   -0.90206  0.27887   
C -0.42678  -1.11077  0.17105   
C -1.24404  0.30926   0.03706   
C -0.41286  1.50058   0.16020   
N 0.90562   1.53019   0.13218   
H 2.67467   0.43336   0.17237   
H 1.66277   -1.76696  0.48154   
H -0.86315  -1.94056  0.71816   
H -2.24426  0.38982   0.46816   
H -0.89662  2.45643   0.34272   
C -1.08433  -0.65958  -1.04826  
H -0.69845  -0.54317  -2.07108  
13
image # 3 Energy = -286.85304
C 1.60030   0.31408   0.16556   
C 1.04787   -0.90183  0.27293   
C -0.42123  -1.12343  0.16225   
C -1.25173  0.31271   0.03318   
C -0.38828  1.50381   0.15965   
N 0.90255   1.53526   0.14607   
H 2.67744   0.43987   0.21817   
H 1.68670   -1.76277  0.47063   
H -0.81880  -1.99537  0.68311   
H -2.26316  0.44808   0.43915   
H -0.88520  2.47736   0.33000   
C -1.09230  -0.65634  -1.02613  
H -0.79680  -0.59275  -2.07118  
13
image # 4 Energy = -286.85017
C 1.59635   0.32788   0.18180   
C 1.04756   -0.89306  0.27007   
C -0.39377  -1.14335  0.15059   
C -1.25689  0.33287   0.02545   
C -0.36983  1.52074   0.16293   
N 0.90189   1.52555   0.15806   
H 2.68649   0.44593   0.25774   
H 1.70774   -1.76100  0.46445   
H -0.77942  -2.04273  0.64976   
H -2.27953  0.49929   0.41158   
H -0.87066  2.48127   0.31945   
C -1.10399  -0.65795  -1.00727  
H -0.88868  -0.63793  -2.07154  
13
image # 5 Energy = -286.84658
C 1.60785   0.33690   0.19774   
C 1.05274   -0.90531  0.26982   
C -0.36092  -1.17053  0.14608   
C -1.27448  0.37479   0.02609   
C -0.37591  1.51386   0.16241   
N 0.92002   1.53352   0.16951   
H 2.68965   0.45191   0.29632   
H 1.72055   -1.74715  0.45966   
H -0.73658  -2.08695  0.61367   
H -2.28376  0.54834   0.37999   
H -0.85866  2.49344   0.31364   
C -1.11154  -0.65876  -1.00266  
H -0.99344  -0.68898  -2.06704  
13
image # 6 Energy = -286.84543
C 1.61829   0.32148   0.20554   
C 1.08485   -0.89696  0.27193   
C -0.34189  -1.21859  0.11126   
C -1.28342  0.42691   -0.00528  
C -0.38358  1.52095   0.15763   
N 0.92322   1.54345   0.17805   
H 2.68374   0.45427   0.31487   
H 1.73560   -1.74623  0.46997   
H -0.70353  -2.12163  0.57846   
H -2.30115  0.58847   0.35229   
H -0.85162  2.50643   0.32051   
C -1.11103  -0.65984  -0.98350  
H -1.07664  -0.72705  -2.01209  
13
image # 7 Energy = -286.84780
C 1.61745   0.36773   0.20423   
C 1.07365   -0.91130  0.27327   
C -0.28053  -1.27712  0.06542   
C -1.29783  0.47648   -0.06723  
C -0.37631  1.53496   0.16712   
N 0.93583   1.51398   0.17004   
H 2.69055   0.45729   0.34165   
H 1.74372   -1.74132  0.51061   
H -0.66836  -2.14956  0.56271   
H -2.31974  0.62797   0.34661   
H -0.84374  2.49939   0.34787   
C -1.09450  -0.63279  -0.94044  
H -1.19180  -0.77869  -2.02539  
13
image # 8 Energy = -286.85468
C 1.61265   0.37649   0.19782   
C 1.07294   -0.92818  0.27412   
C -0.21624  -1.32499  0.00608   
C -1.32644  0.55155   -0.12221  
C -0.38994  1.54213   0.16695   
N 0.94838   1.50677   0.16329   
H 2.69301   0.46020   0.35107   
H 1.75323   -1.73906  0.55148   
H -0.64126  -2.19222  0.54254   
H -2.33081  0.66387   0.32551   
H -0.83863  2.50365   0.37966   
C -1.07984  -0.62425  -0.90229  
H -1.27545  -0.81402  -1.98012  
13
image # 9 Energy = -286.86198
C 1.60807   0.37892   0.19228   
C 1.08060   -0.95455  0.27344   
C -0.17555  -1.37939  -0.02770  
C -1.35622  0.60624   -0.16224  
C -0.40582  1.55376   0.16240   
N 0.95556   1.50989   0.15449   
H 2.69617   0.46393   0.35222   
H 1.76672   -1.73832  0.58953   
H -0.60312  -2.23524  0.50156   
H -2.34272  0.70891   0.28768   
H -0.83200  2.51767   0.41192   
C -1.07922  -0.61322  -0.86444  
H -1.33889  -0.84315  -1.91787  
13
image # 10 Energy = -286.86930
C 1.60901   0.37829   0.18868   
C 1.08779   -0.97444  0.27357   
C -0.15423  -1.40210  -0.04966  
C -1.36324  0.64500   -0.18052  
C -0.42017  1.56313   0.15738   
N 0.95422   1.50870   0.14174   
H 2.69192   0.46749   0.34772   
H 1.78169   -1.73702  0.62800   
H -0.56126  -2.29396  0.45298   
H -2.36468  0.76331   0.24371   
H -0.82263  2.53422   0.44490   
C -1.07790  -0.61321  -0.83908  
H -1.39462  -0.87043  -1.85612  
13
image # 11 Energy = -286.87631
C 1.60534   0.37554   0.18508   
C 1.09940   -0.98855  0.28047   
C -0.14307  -1.41864  -0.06065  
C -1.37695  0.66321   -0.19045  
C -0.42618  1.58057   0.15737   
N 0.95531   1.50544   0.12608   
H 2.68751   0.47134   0.33907   
H 1.79046   -1.73169  0.66704   
H -0.51624  -2.34944  0.39617   
H -2.37935  0.81699   0.19485   
H -0.81127  2.54587   0.47887   
C -1.07460  -0.60843  -0.82008  
H -1.45074  -0.89892  -1.79953  
13
image # 12 Energy = -286.88320
C 1.60090   0.37118   0.18453   
C 1.10145   -0.99569  0.29353   
C -0.13229  -1.42663  -0.06087  
C -1.37184  0.67596   -0.19137  
C -0.43270  1.58791   0.15669   
N 0.95428   1.50439   0.10979   
H 2.68360   0.47480   0.32366   
H 1.79677   -1.72681  0.70609   
H -0.46889  -2.39843  0.32513   
H -2.39550  0.86882   0.14076   
H -0.79847  2.55686   0.51264   
C -1.07226  -0.60270  -0.80105  
H -1.51007  -0.93078  -1.74376  
13
image # 13 Energy = -286.88738
C 1.59668   0.37236   0.17793   
C 1.10571   -0.99558  0.30917   
C -0.12978  -1.42913  -0.06520  
C -1.37358  0.68473   -0.18966  
C -0.43257  1.59403   0.16405   
N 0.95312   1.49708   0.09327   
H 2.67940   0.47632   0.29850   
H 1.79256   -1.71956  0.75028   
H -0.44130  -2.42349  0.27824   
H -2.40392  0.89755   0.10400   
H -0.78694  2.55433   0.54609   
C -1.06405  -0.60434  -0.79703  
H -1.54202  -0.94675  -1.71276  
13
image # 14 Energy = -286.88918
C 1.59887   0.38177   0.21493   
C 1.09698   -0.98449  0.33940   
C -0.12564  -1.42826  -0.07020  
C -1.36217  0.69255   -0.20885  
C -0.42372  1.60633   0.15743   
N 0.96315   1.51027   0.10343   
H 2.68327   0.47063   0.31645   
H 1.79907   -1.73613  0.69447   
H -0.42899  -2.43308  0.23399   
H -2.38999  0.89332   0.09703   
H -0.79766  2.56635   0.51113   
C -1.07992  -0.60990  -0.77162  
H -1.58120  -0.97240  -1.65951  
13
image # 15 Energy = -286.89292
C 1.59974   0.38498   0.24703   
C 1.09485   -0.97867  0.35112   
C -0.12215  -1.42946  -0.06980  
C -1.35624  0.69958   -0.21697  
C -0.41709  1.61103   0.15365   
N 0.97117   1.51805   0.12665   
H 2.68641   0.47060   0.34990   
H 1.81856   -1.73908  0.63329   
H -0.39796  -2.45743  0.17878   
H -2.38677  0.92051   0.06081   
H -0.79652  2.58408   0.46917   
C -1.09748  -0.61927  -0.73357  
H -1.64540  -1.00699  -1.58928  
13
image # 16 Energy = -286.89681
C 1.60209   0.38863   0.27578   
C 1.09983   -0.97257  0.35374   
C -0.12485  -1.43233  -0.07061  
C -1.35215  0.70323   -0.22299  
C -0.41014  1.61727   0.15334   
N 0.97827   1.52062   0.15670   
H 2.68755   0.47201   0.38789   
H 1.84091   -1.73650  0.57151   
H -0.36676  -2.47882  0.12644   
H -2.38784  0.95210   0.02043   
H -0.79037  2.59913   0.42222   
C -1.11766  -0.63431  -0.69871  
H -1.70717  -1.03773  -1.51190  
13
image # 17 Energy = -286.90049
C 1.60958   0.38386   0.30242   
C 1.11049   -0.97080  0.34333   
C -0.12789  -1.43522  -0.07064  
C -1.34607  0.71045   -0.21933  
C -0.40646  1.61238   0.15004   
N 0.97848   1.53079   0.19440   
H 2.68745   0.47464   0.42983   
H 1.86396   -1.72834  0.50981   
H -0.33952  -2.49283  0.07959   
H -2.38961  0.98295   -0.02329  
H -0.78061  2.61473   0.37079   
C -1.13753  -0.65105  -0.66325  
H -1.76890  -1.06717  -1.43687  
13
image # 18 Energy = -286.90396
C 1.60223   0.38280   0.32608   
C 1.12523   -0.96303  0.32103   
C -0.13253  -1.43179  -0.07484  
C -1.34700  0.70966   -0.21185  
C -0.40500  1.61438   0.14701   
N 0.98841   1.53040   0.24081   
H 2.69212   0.47877   0.47769   
H 1.89260   -1.72227  0.44776   
H -0.31696  -2.50352  0.03588   
H -2.38830  1.01227   -0.07139  
H -0.76763  2.62611   0.31355   
C -1.15364  -0.66826  -0.62005  
H -1.83394  -1.09729  -1.36150  
13
image # 19 Energy = -286.90732
C 1.60569   0.37783   0.34447   
C 1.13871   -0.95231  0.30432   
C -0.13460  -1.43632  -0.08981  
C -1.34699  0.72325   -0.20665  
C -0.40644  1.61494   0.14039   
N 0.98792   1.53059   0.27073   
H 2.68706   0.48001   0.51015   
H 1.91664   -1.72228  0.41598   
H -0.29188  -2.51343  -0.01480  
H -2.38493  1.03991   -0.12342  
H -0.75797  2.63668   0.28171   
C -1.16480  -0.68385  -0.58288  
H -1.89027  -1.12370  -1.27600  
13
image # 20 Energy = -286.91226
C 1.60426   0.37133   0.36019   
C 1.16833   -0.96055  0.29110   
C -0.13633  -1.44639  -0.10975  
C -1.35244  0.71953   -0.21432  
C -0.38712  1.62207   0.13736   
N 0.97150   1.53863   0.29466   
H 2.68548   0.47985   0.54236   
H 1.92631   -1.71266  0.39162   
H -0.26392  -2.51920  -0.07005  
H -2.38254  1.06753   -0.17802  
H -0.75012  2.64828   0.25773   
C -1.17646  -0.68440  -0.54385  
H -1.94502  -1.14983  -1.17964  
13
image # 21 Energy = -286.91504
C 1.63372   0.35796   0.38485   
C 1.15709   -0.96098  0.24921   
C -0.11812  -1.43200  -0.11349  
C -1.36709  0.69605   -0.21692  
C -0.36986  1.64759   0.13035   
N 0.94804   1.54482   0.32657   
H 2.66233   0.47872   0.58197   
H 1.95231   -1.71644  0.36497   
H -0.24132  -2.51761  -0.12241  
H -2.36278  1.08728   -0.23420  
H -0.73779  2.65409   0.22579   
C -1.18788  -0.68626  -0.52106  
H -2.00189  -1.17560  -1.07213  
13
image # 22 Energy = -286.91924
C 1.60768   0.36037   0.39424   
C 1.17627   -0.96302  0.23978   
C -0.10822  -1.43028  -0.14684  
C -1.34466  0.72058   -0.22920  
C -0.38450  1.63420   0.12625   
N 0.95639   1.54007   0.35092   
H 2.67181   0.47930   0.61589   
H 1.96053   -1.70988  0.34242   
H -0.22373  -2.53290  -0.17070  
H -2.37129  1.10982   -0.28251  
H -0.73049  2.66059   0.20140   
C -1.20036  -0.69561  -0.47655  
H -2.03656  -1.19099  -0.97735  
13
image # 23 Energy = -286.92110
C 1.60806   0.35627   0.41084   
C 1.19050   -0.95211  0.22359   
C -0.09864  -1.46316  -0.16272  
C -1.35995  0.72965   -0.23852  
C -0.38148  1.63912   0.11676   
N 0.95521   1.53430   0.37338   
H 2.66008   0.47629   0.64728   
H 1.97224   -1.71079  0.32604   
H -0.20090  -2.51751  -0.23306  
H -2.35180  1.12262   -0.33894  
H -0.72610  2.66953   0.18293   
C -1.21084  -0.68779  -0.44438  
H -2.07479  -1.20965  -0.86930  
13
image # 24 Energy = -286.92341
C 1.60040   0.35296   0.42376   
C 1.19747   -0.95849  0.20511   
C -0.08944  -1.44289  -0.18116  
C -1.34488  0.72565   -0.24613  
C -0.37839  1.64307   0.11355   
N 0.94597   1.53397   0.39442   
H 2.65649   0.47377   0.68136   
H 1.98017   -1.70681  0.30689   
H -0.18750  -2.52671  -0.28567  
H -2.35231  1.13666   -0.38991  
H -0.71890  2.67426   0.16009   
C -1.22224  -0.69421  -0.41297  
H -2.09762  -1.21904  -0.77234  
13
image # 25 Energy = -286.92435
C 1.59529   0.34765   0.43871   
C 1.20968   -0.95573  0.18617   
C -0.09202  -1.44097  -0.19537  
C -1.34826  0.72944   -0.24742  
C -0.37428  1.64521   0.10244   
N 0.93788   1.53029   0.41579   
H 2.64514   0.46938   0.71464   
H 1.98991   -1.70584  0.29062   
H -0.17220  -2.51601  -0.34399  
H -2.33451  1.14354   -0.44290  
H -0.71341  2.68275   0.14072   
C -1.21932  -0.69890  -0.38587  
H -2.12391  -1.23081  -0.67354  
