13   
From optimize.out: Frame 2 / 3, Energy=    -286.8567767057
C        1.2762323032   -0.0344161555    0.0311421112
C        0.5639265049   -1.0674673373    0.8147103130
C       -0.8212684279   -1.0082271577    0.8734651133
C       -1.4462738638    0.0128801417    0.1709790399
C       -0.5997817113    0.9720388691   -0.5713043746
N        0.7461510193    1.3939038696    0.0092692356
H        2.3629562781   -0.0438134166    0.0861051046
H        1.1395610226   -1.8206073240    1.3425101071
H       -1.3935218229   -1.7291016916    1.4510486186
H       -2.5231111663    0.1454006781    0.1677329326
H       -1.1080484569    1.8196118488   -1.0267283693
C        0.6792492842    0.5509776372   -1.1963526825
H        1.1239290367    0.8088200381   -2.1525771491
13   
From optimize.out: Frame 1 / 3, Energy=    -286.8567735930
C        1.2883093294   -0.0581492722    0.0203408468
C        0.5640598689   -1.0648042300    0.8172195338
C       -0.8192898351   -0.9971015000    0.8843828211
C       -1.4471401416    0.0270027203    0.1858317129
C       -0.6011008226    0.9678455639   -0.5683370785
N        0.7435709354    1.4153175373    0.0025968377
H        2.3718096747   -0.0383009648    0.1000001505
H        1.1267159173   -1.8313891806    1.3453515225
H       -1.3861499604   -1.7475540474    1.4298915088
H       -2.5232321401    0.1535482960    0.1690002512
H       -1.1115407073    1.8047477988   -1.0413645614
C        0.6880415316    0.5643194703   -1.1856760085
H        1.1059463496    0.8045178085   -2.1592375371
13   
From optimize.out: Frame 27 / 28, Energy=    -286.8567735930
C        1.2928928653   -0.0859934146    0.0112006606
C        0.5626544015   -1.0848892230    0.7981979601
C       -0.8173580834   -1.0071558170    0.8693420052
C       -1.4361454479    0.0390706226    0.1959867205
C       -0.5909083462    0.9968247097   -0.5378340684
N        0.7735006603    1.4339634296   -0.0032847987
H        2.3735649993   -0.0467993299    0.1074359781
H        1.1304648686   -1.7940871467    1.4011992931
H       -1.3874190369   -1.7531434142    1.4187796405
H       -2.5119208414    0.1163630842    0.0912158554
H       -1.1111891069    1.8387867387   -0.9915358794
C        0.6961298330    0.5958025255   -1.1683602012
H        1.0257332348    0.7512572350   -2.1923431657
13   
From optimize.out: Frame 26 / 28, Energy=    -286.8567687215
C        1.2950156376   -0.0917607042    0.0150960742
C        0.5639631204   -1.0950374652    0.7926623305
C       -0.8139537436   -1.0203807284    0.8521040053
C       -1.4250760119    0.0395070639    0.1836910784
C       -0.5779021856    1.0263699285   -0.5029701823
N        0.7968746150    1.4379098408    0.0019873164
H        2.3751883588   -0.0552155149    0.1169215313
H        1.1366789185   -1.7626603861    1.4403915170
H       -1.3905886334   -1.7532231266    1.4127247878
H       -2.4949396961    0.0889297164    0.0160207687
H       -1.1016260418    1.8738480738   -0.9430355946
C        0.7141681942    0.6147406414   -1.1608258510
H        0.9221974679    0.6969726609   -2.2247677818
13   
From optimize.out: Frame 25 / 28, Energy=    -286.8567517671
C        1.2924855951   -0.0953183813    0.0187635884
C        0.5647977596   -1.1061802000    0.7941846820
C       -0.8104793326   -1.0350852293    0.8412378128
C       -1.4062324582    0.0289010665    0.1629931133
C       -0.5565917354    1.0435021808   -0.4698259008
N        0.8210941108    1.4318544830    0.0032381588
H        2.3736679223   -0.0744036027    0.1179833444
H        1.1399669627   -1.7301480777    1.4811976632
H       -1.4030894924   -1.7397603541    1.4205303405
H       -2.4665359329    0.0631627300   -0.0634408728
H       -1.0773814551    1.8934581316   -0.9081649094
C        0.7310593383    0.6254771929   -1.1585521272
H        0.7972387178    0.6945400603   -2.2401448931
13   
From optimize.out: Frame 22 / 28, Energy=    -286.8562148562
C        1.2892902506   -0.0983599781    0.0175103651
C        0.5673010553   -1.1166176507    0.7979732019
C       -0.8064847996   -1.0493676375    0.8302493496
C       -1.3877640410    0.0147675791    0.1335994146
C       -0.5426880818    1.0597242973   -0.4361442772
N        0.8359123868    1.4153571735    0.0080072813
H        2.3726435868   -0.1013644891    0.1078051219
H        1.1443444336   -1.6894041746    1.5228451978
H       -1.4151005727   -1.7172649607    1.4348436889
H       -2.4372718541    0.0364931634   -0.1436853946
H       -1.0556799647    1.9169139964   -0.8683510896
C        0.7531465511    0.6246250064   -1.1632725348
H        0.6823510497    0.7044976745   -2.2413803250
13   
From optimize.out: Frame 21 / 28, Energy=    -286.8560712370
C        1.2828992395   -0.1024358809    0.0087180483
C        0.5700540923   -1.1296573709    0.7992018383
C       -0.8023752486   -1.0636388732    0.8194645623
C       -1.3694627196   -0.0036238478    0.0985234215
C       -0.5363422391    1.0740796790   -0.3991386451
N        0.8429993785    1.3923610244    0.0155816022
H        2.3688695281   -0.1347633201    0.0847312213
H        1.1444073616   -1.6411175809    1.5651006657
H       -1.4236384778   -1.6821284658    1.4613802826
H       -2.4073552739    0.0045957224   -0.2247154178
H       -1.0376673469    1.9415285594   -0.8224084001
C        0.7737920686    0.6175089083   -1.1728747169
H        0.5938196374    0.7272914461   -2.2335644623
13   
From optimize.out: Frame 20 / 28, Energy=    -286.8557605009
C        1.2731900852   -0.1064295746   -0.0076841535
C        0.5736998374   -1.1458058725    0.7950408771
C       -0.7976884561   -1.0759061924    0.8064037992
C       -1.3528328443   -0.0227630468    0.0561683317
C       -0.5416568319    1.0900895599   -0.3569758797
N        0.8375341613    1.3630416434    0.0307936978
H        2.3621269051   -0.1699145455    0.0498125120
H        1.1383626782   -1.5880264499    1.6033565475
H       -1.4204294703   -1.6342097425    1.4988300766
H       -2.3794566750   -0.0333953733   -0.3049465977
H       -1.0272132257    1.9717062428   -0.7665966490
C        0.7913319294    0.6090704339   -1.1820311564
H        0.5430319067    0.7425429175   -2.2221714058
13   
From optimize.out: Frame 19 / 28, Energy=    -286.8555629649
C        1.2626433502   -0.1087795878   -0.0279182705
C        0.5784114244   -1.1630425886    0.7874372409
C       -0.7929021983   -1.0837539757    0.7932992620
C       -1.3385004956   -0.0393562836    0.0092443040
C       -0.5532365383    1.1025323492   -0.3186963206
N        0.8207093822    1.3285630845    0.0549901767
H        2.3547532951   -0.2018875042    0.0076138222
H        1.1257976486   -1.5380542384    1.6337428273
H       -1.4041167899   -1.5790925930    1.5409639815
H       -2.3554594843   -0.0711945533   -0.3800989634
H       -1.0216165384    2.0018910616   -0.7071246061
C        0.8038365931    0.6068828485   -1.1836994444
H        0.5196803513    0.7452919808   -2.2097540096
13   
From optimize.out: Frame 17 / 28, Energy=    -286.8513388559
C        1.2540262189   -0.1031712433   -0.0498378468
C        0.5813901609   -1.1735755937    0.7754211467
C       -0.7888815106   -1.0883481415    0.7750054146
C       -1.3303193457   -0.0516024795   -0.0360810051
C       -0.5720437809    1.1139460361   -0.2754294454
N        0.7973935254    1.2983343098    0.0934837842
H        2.3474727309   -0.2254345649   -0.0301544906
H        1.1008336194   -1.4881561355    1.6582228035
H       -1.3749049963   -1.5279005574    1.5756713768
H       -2.3395223685   -0.1079449057   -0.4428949275
H       -1.0279823915    2.0335287200   -0.6283915732
C        0.8233139900    0.6028949104   -1.1957456704
H        0.5292241480    0.7174296450   -2.2192695667
13   
From optimize.out: Frame 16 / 28, Energy=    -286.8479984561
C        1.2524278577   -0.0912724043   -0.0710129384
C        0.5839797063   -1.1726698285    0.7634904211
C       -0.7841782398   -1.0855168091    0.7553707820
C       -1.3290014869   -0.0554165138   -0.0770818524
C       -0.5922769932    1.1224387721   -0.2341593521
N        0.7726245073    1.2712497337    0.1470969783
H        2.3457960428   -0.2348750290   -0.0609456101
H        1.0702783096   -1.4458046148    1.6779231758
H       -1.3409080345   -1.4910283424    1.5945109606
H       -2.3322579392   -0.1365299611   -0.4919913554
H       -1.0389905482    2.0618280637   -0.5438107073
C        0.8411592441    0.5902535798   -1.2155282008
H        0.5513475740    0.6673433538   -2.2438623010
13   
From optimize.out: Frame 15 / 28, Energy=    -286.8426714924
C        1.2562084918   -0.0749590681   -0.0870395204
C        0.5855783403   -1.1618086652    0.7531095062
C       -0.7799180003   -1.0809397210    0.7354799096
C       -1.3362572760   -0.0505662189   -0.1068919915
C       -0.6154692485    1.1326900180   -0.1923497501
N        0.7513644027    1.2520789022    0.2064202465
H        2.3492636463   -0.2256304716   -0.0760885123
H        1.0428019989   -1.4135398983    1.6931999058
H       -1.3106988084   -1.4778499390    1.5963371678
H       -2.3348671141   -0.1504716288   -0.5247708526
H       -1.0582600753    2.0885035365   -0.4549091002
C        0.8612902018    0.5663877728   -1.2521564264
H        0.5889634408    0.5961053813   -2.2903405825
13   
From optimize.out: Frame 14 / 28, Energy=    -286.8363399075
C        1.2611652313   -0.0573557079   -0.1012853301
C        0.5844547055   -1.1455465349    0.7436371875
C       -0.7778774496   -1.0750597179    0.7196274175
C       -1.3500891290   -0.0428219725   -0.1290248345
C       -0.6386152465    1.1396539955   -0.1518093334
N        0.7348394092    1.2342153881    0.2670911471
H        2.3535433879   -0.2103301810   -0.0872946191
H        1.0173619541   -1.3871829771    1.7065423358
H       -1.2838786637   -1.4766864041    1.5947026876
H       -2.3441495596   -0.1579722726   -0.5485453756
H       -1.0796088660    2.1080875612   -0.3686266772
C        0.8843182503    0.5471823671   -1.2978999696
H        0.6385359762    0.5238164562   -2.3471146358
13   
From optimize.out: Frame 12 / 28, Energy=    -286.8220185658
C        1.2655825889   -0.0396987095   -0.1161775178
C        0.5809091172   -1.1270235843    0.7348418775
C       -0.7781696095   -1.0686397450    0.7074907883
C       -1.3681702632   -0.0353165527   -0.1466090320
C       -0.6616795056    1.1424466482   -0.1118104247
N        0.7198976676    1.2136466552    0.3252645984
H        2.3572009821   -0.1946890093   -0.0993451027
H        0.9925586048   -1.3629582852    1.7196926806
H       -1.2593457866   -1.4792129768    1.5945431980
H       -2.3579491370   -0.1637034304   -0.5669010021
H       -1.1011280726    2.1213665795   -0.2841174503
C        0.9115345427    0.5366354191   -1.3487358878
H        0.6987588712    0.4571469911   -2.4081367254
13   
From optimize.out: Frame 10 / 28, Energy=    -286.8071496084
C        1.2692374835   -0.0236030914   -0.1327480554
C        0.5752138729   -1.1078564359    0.7260717839
C       -0.7807254653   -1.0619703521    0.6991135448
C       -1.3910596469   -0.0281681260   -0.1597609376
C       -0.6865487339    1.1413572389   -0.0737823290
N        0.7057029627    1.1891024696    0.3766310771
H        2.3598286408   -0.1812647688   -0.1127034060
H        0.9676876272   -1.3396621931    1.7323876419
H       -1.2353513857   -1.4824104348    1.5978367745
H       -2.3773294971   -0.1689837198   -0.5785791299
H       -1.1240685359    2.1285912709   -0.2023609810
C        0.9449911039    0.5328013211   -1.4021926134
H        0.7724215739    0.4020668214   -2.4699133699
13   
From optimize.out: Frame 9 / 28, Energy=    -286.7986464388
C        1.2721793695   -0.0098359378   -0.1514197816
C        0.5681072639   -1.0893647345    0.7167901864
C       -0.7849180058   -1.0553061083    0.6935258365
C       -1.4180430928   -0.0213445044   -0.1697765528
C       -0.7143031188    1.1376012746   -0.0381473907
N        0.6913712572    1.1605324830    0.4198765737
H        2.3613981797   -0.1713892473   -0.1274441996
H        0.9421197317   -1.3160424861    1.7446102484
H       -1.2103170668   -1.4838102429    1.6052196567
H       -2.4017443818   -0.1749614498   -0.5844021666
H       -1.1491176199    2.1315425104   -0.1230459054
C        0.9847859529    0.5324516971   -1.4559337830
H        0.8584815310    0.3599267459   -2.5298527219
13   
From optimize.out: Frame 8 / 28, Energy=    -286.7895099836
C        1.2765301217   -0.0004146894   -0.1713517777
C        0.5601753603   -1.0727277564    0.7081795242
C       -0.7899373478   -1.0479786014    0.6908148672
C       -1.4487669912   -0.0149324369   -0.1795514496
C       -0.7448949157    1.1314108885   -0.0058984286
N        0.6787306771    1.1279962211    0.4544565162
H        2.3636716179   -0.1680353980   -0.1437251172
H        0.9150089336   -1.2932488180    1.7597530996
H       -1.1831206319   -1.4809927028    1.6175434255
H       -2.4300485068   -0.1829510072   -0.5880843019
H       -1.1765678343    2.1304611204   -0.0466446200
C        1.0298036160    0.5350799249   -1.5077021033
H        0.9494159010    0.3363332553   -2.5877896342
13   
From optimize.out: Frame 7 / 28, Energy=    -286.7779462051
C        1.2833506603    0.0033289379   -0.1922889165
C        0.5512165349   -1.0583291928    0.7003301540
C       -0.7952218344   -1.0391370392    0.6908982390
C       -1.4834067275   -0.0091727161   -0.1900003912
C       -0.7785176858    1.1222773731    0.0222760766
N        0.6684343292    1.0911502605    0.4787026165
H        2.3675623934   -0.1730186314   -0.1614216992
H        0.8840896924   -1.2715813929    1.7790316736
H       -1.1516158445   -1.4723828745    1.6353329438
H       -2.4623365013   -0.1932842271   -0.5903399822
H       -1.2074300632    2.1241731412    0.0268578789
C        1.0805930562    0.5407089220   -1.5561569475
H        1.0432819904    0.3352674393   -2.6432216458
13   
From optimize.out: Frame 6 / 28, Energy=    -286.7617435798
C        1.2929720960    0.0027000094   -0.2118947972
C        0.5407930888   -1.0447808129    0.6916076968
C       -0.7980162005   -1.0267272509    0.6898957073
C       -1.5176197706   -0.0048197818   -0.2015411941
C       -0.8116068061    1.1106661919    0.0473667908
N        0.6595574487    1.0542734073    0.4946966807
H        2.3741098393   -0.1831995156   -0.1772885431
H        0.8426648550   -1.2507646073    1.7996080195
H       -1.1107830823   -1.4589610739    1.6535173150
H       -2.4948392594   -0.2030664656   -0.5920801677
H       -1.2421787993    2.1117474225    0.0989023863
C        1.1332664806    0.5464219365   -1.5984733104
H        1.1316801099    0.3465105404   -2.6943165838
13   
From optimize.out: Frame 4 / 28, Energy=    -286.7067395403
C        1.3048888623    0.0049207231   -0.2369978743
C        0.5316057378   -1.0365541625    0.6843846028
C       -0.7988009656   -1.0146125471    0.6822839498
C       -1.5560626048   -0.0055861444   -0.2111592956
C       -0.8452682938    1.0938661733    0.0706078072
N        0.6510898757    1.0133748851    0.5026313814
H        2.3843956659   -0.1924011872   -0.1882542226
H        0.8011289351   -1.2427533520    1.8138249512
H       -1.0591884542   -1.4224461260    1.6684459954
H       -2.5367684445   -0.2087452889   -0.5863375293
H       -1.2796361160    2.0928438112    0.1565882885
C        1.1832148374    0.5529509328   -1.6244862627
H        1.2194009646    0.3651422823   -2.7315317916
13   
From optimize.out: Frame 3 / 28, Energy=    -286.6716566119
C        1.3123433572    0.0256002472   -0.2754015646
C        0.5344014413   -1.0432009849    0.6875631370
C       -0.8006667407   -1.0166645757    0.6625265802
C       -1.5962916136   -0.0192581069   -0.2067835270
C       -0.8720699382    1.0740975595    0.0900501720
N        0.6413796290    0.9740708390    0.5076503120
H        2.3952731673   -0.1785247471   -0.1808493480
H        0.8104576178   -1.2678753339    1.7874325073
H       -1.0292128140   -1.3423484556    1.6693824733
H       -2.5962653877   -0.2017504245   -0.5592211421
H       -1.3000377789    2.0774248352    0.1570293754
C        1.2050413695    0.5570537697   -1.6160205274
H        1.2956476911    0.3613753780   -2.7233584481
13   
From optimize.out: Frame 2 / 28, Energy=    -286.6336623016
C        1.3173459070    0.0497762195   -0.3153913438
C        0.5441053418   -1.0543092293    0.6956197038
C       -0.8028480698   -1.0243323040    0.6414229050
C       -1.6307036454   -0.0392448695   -0.1940743029
C       -0.8918135843    1.0562765511    0.1042332003
N        0.6308923731    0.9427691772    0.5105350491
H        2.4039574740   -0.1518326236   -0.1603361952
H        0.8537644360   -1.2990517331    1.7302945576
H       -1.0305188655   -1.2559896477    1.6669134094
H       -2.6569269952   -0.1890330405   -0.5226631706
H       -1.3057748354    2.0652956360    0.1289826214
C        1.2116592092    0.5576325264   -1.5985303337
H        1.3568612547    0.3420433376   -2.6870061003
13   
C5H5N+CH->C6H6N atoms 1-13 frame 194 charge -0.000 sz -1.000 sz^2 0.829
C        1.3224631769    0.0706180112   -0.3532678899
C        0.5551850643   -1.0634801629    0.7020745088
C       -0.8052470852   -1.0318981705    0.6220573861
C       -1.6606538958   -0.0601278005   -0.1791266770
C       -0.9090539853    1.0408023399    0.1154505166
N        0.6188910270    0.9166343360    0.5132936334
H        2.4084685648   -0.1205309314   -0.1358780314
H        0.9121303569   -1.3249954112    1.6639431912
H       -1.0551032036   -1.1803654041    1.6677066496
H       -2.7114012635   -0.1752049592   -0.4833574889
H       -1.3047099989    2.0548214072    0.0976646393
C        1.2163846745    0.5573131143   -1.5884155595
H        1.4126465679    0.3164136311   -2.6421448782
13   
C5H5N+CH->C6H6N atoms 1-13 frame 196 charge +0.000 sz -1.000 sz^2 0.626
C        1.3276084123    0.0888692304   -0.3886361654
C        0.5656824965   -1.0708277747    0.7044205498
C       -0.8085821947   -1.0395539216    0.6032631124
C       -1.6877507372   -0.0803943969   -0.1627545316
C       -0.9249479255    1.0273633204    0.1241303980
N        0.6049370408    0.8941347682    0.5160778413
H        2.4068365029   -0.0860540021   -0.1105805240
H        0.9852783537   -1.3509368872    1.6021275715
H       -1.0976174092   -1.1151643332    1.6686959913
H       -2.7577135258   -0.1599708991   -0.4404697526
H       -1.2985494348    2.0466728767    0.0651509328
C        1.2189582384    0.5579120064   -1.5860794222
H        1.4658601827    0.2879500127   -2.5953460013
13   
C5H5N+CH->C6H6N atoms 1-13 frame 197 charge +0.000 sz -1.000 sz^2 0.631
C        1.3132839341    0.1082320018   -0.3939047314
C        0.5640813524   -1.0701811871    0.7036342557
C       -0.8134520806   -1.0618268466    0.6034728787
C       -1.6674572865   -0.0813189816   -0.1417219896
C       -0.9133150519    1.0373548829    0.1254772128
N        0.5885862546    0.9092326857    0.5340949192
H        2.3855577126   -0.0532824607   -0.0906917750
H        1.0352565795   -1.3662363510    1.5761087801
H       -1.1472650126   -1.1383539729    1.6653675010
H       -2.7353236800   -0.1417047039   -0.4196035378
H       -1.2723066592    2.0588115235    0.0282507961
C        1.1919820712    0.5554967302   -1.6048434050
H        1.4703718666    0.2437766796   -2.5856409050
13   
C5H5N+CH->C6H6N atoms 1-13 frame 198 charge +0.000 sz -1.000 sz^2 0.896
C        1.2873541354    0.1248936459   -0.3739172183
C        0.5572172440   -1.0609675072    0.6975340205
C       -0.8153129133   -1.0856230645    0.6122356167
C       -1.6184523410   -0.0654117041   -0.1218859476
C       -0.8848973839    1.0633716012    0.1238258892
N        0.5720907308    0.9485433890    0.5579545304
H        2.3567792825   -0.0251834056   -0.0767242079
H        1.0581498138   -1.3672018896    1.5685791201
H       -1.1843821258   -1.2174150016    1.6523445417
H       -2.6727137285   -0.1216723771   -0.4191310468
H       -1.2406105644    2.0829200425   -0.0023422385
C        1.1454234407    0.5440152025   -1.6273128775
H        1.4393544098    0.1797310685   -2.5911601820
13   
C5H5N+CH->C6H6N atoms 1-13 frame 199 charge -0.000 sz -1.000 sz^2 0.929
C        1.2631045787    0.1381398193   -0.3484031652
C        0.5549319078   -1.0465125120    0.6840199003
C       -0.8122696080   -1.0989401128    0.6128222645
C       -1.5743656729   -0.0448957624   -0.1049716387
C       -0.8593965463    1.0902694227    0.1249366186
N        0.5542039084    0.9867202026    0.5765595842
H        2.3317015410    0.0044509789   -0.0623023169
H        1.0817162972   -1.3618346293    1.5496664273
H       -1.2102323534   -1.2915204504    1.6276288369
H       -2.6177521055   -0.0984136375   -0.4195554929
H       -1.2166349820    2.1058999692   -0.0246570898
C        1.0962159506    0.5221088903   -1.6386939958
H        1.4087770843    0.0945278214   -2.5770499326
13   
C5H5N+CH->C6H6N atoms 1-13 frame 200 charge +0.000 sz -1.000 sz^2 0.972
C        1.2449411493    0.1498535124   -0.3230948895
C        0.5571450195   -1.0264901392    0.6641668299
C       -0.8067633848   -1.1021132354    0.6052511724
C       -1.5479638270   -0.0213234464   -0.0865966119
C       -0.8454666920    1.1199606026    0.1302140770
N        0.5395102505    1.0282323109    0.5859398801
H        2.3150044348    0.0373947110   -0.0492441345
H        1.1055817154   -1.3551885048    1.5203261808
H       -1.2243466385   -1.3605504025    1.5914140785
H       -2.5850008167   -0.0742692996   -0.4118430422
H       -1.2094349211    2.1305532463   -0.0358975663
C        1.0577595493    0.4868608116   -1.6476593243
H        1.3990341612   -0.0129201670   -2.5429766500
13   
C5H5N+CH->C6H6N atoms 1-13 frame 202 charge +0.000 sz -1.000 sz^2 0.683
C        1.2298998753    0.1615934626   -0.2998079013
C        0.5610610328   -1.0060570204    0.6434399460
C       -0.8002975145   -1.0998952674    0.5963933818
C       -1.5310366628    0.0032225358   -0.0671281688
C       -0.8385006972    1.1506747063    0.1355961990
N        0.5272948331    1.0716687638    0.5891772732
H        2.3023623282    0.0730417748   -0.0388959102
H        1.1283008988   -1.3529529874    1.4873696888
H       -1.2326736322   -1.4258656261    1.5511008530
H       -2.5638667771   -0.0506914678   -0.3990808737
H       -1.2114175815    2.1558065873   -0.0438760946
C        1.0270208179    0.4456825275   -1.6563948326
H        1.4018530791   -0.1262279890   -2.4978935607
13   
C5H5N+CH->C6H6N atoms 1-13 frame 203 charge +0.000 sz -1.000 sz^2 0.674
C        1.2172120437    0.1736182033   -0.2790290010
C        0.5659268823   -0.9868442022    0.6233960071
C       -0.7932203176   -1.0935298398    0.5880270760
C       -1.5211016634    0.0279552274   -0.0470524324
C       -0.8369625863    1.1814973990    0.1399402200
N        0.5172387723    1.1160503730    0.5870670063
H        2.2925909166    0.1108318268   -0.0315299326
H        1.1494060431   -1.3564499539    1.4526652805
H       -1.2367609453   -1.4868874914    1.5089888628
H       -2.5512991849   -0.0281813147   -0.3824862537
H       -1.2202148529    2.1809072980   -0.0506549037
C        1.0029788116    0.4010339513   -1.6648716143
H        1.4142060810   -0.2400014768   -2.4444603149
13   
From optimize.out: Frame 1 / 54, Energy=    -286.5811491054
C        1.2068398886    0.1886979264   -0.2628122132
C        0.5702838810   -0.9740756560    0.6073630042
C       -0.7859986776   -1.0832928164    0.5839648034
C       -1.5173400978    0.0517105231   -0.0255601870
C       -0.8405324084    1.2119716069    0.1401367002
N        0.5096813210    1.1649908246    0.5742764220
H        2.2850475087    0.1530390306   -0.0287981890
H        1.1667788338   -1.3744784241    1.4165098909
H       -1.2376604413   -1.5407547337    1.4670914233
H       -2.5472104228   -0.0082000990   -0.3594579592
H       -1.2369632716    2.2044987616   -0.0598310741
C        0.9892084281    0.3534952700   -1.6728517861
H        1.4378654583   -0.3476022140   -2.3800308354
13   
From optimize.out: Frame 3 / 54, Energy=    -286.6621245938
C        1.1963857209    0.2055533554   -0.2477672865
C        0.5744049706   -0.9665481704    0.5934312171
C       -0.7776891441   -1.0725809705    0.5812216886
C       -1.5128121192    0.0743128771   -0.0061070913
C       -0.8450086863    1.2426198370    0.1375024401
N        0.5033459774    1.2185171824    0.5544755093
H        2.2770547262    0.1958207505   -0.0274918143
H        1.1823049869   -1.4001751324    1.3795329657
H       -1.2369874302   -1.5867093641    1.4260639459
H       -2.5435020625    0.0097475500   -0.3355671950
H       -1.2580503019    2.2270847258   -0.0690322214
C        0.9783407086    0.3030047119   -1.6781972575
H        1.4622126537   -0.4506473528   -2.3080649007
13   
From optimize.out: Frame 5 / 54, Energy=    -286.7000759993
C        1.1853895047    0.2232323214   -0.2328930129
C        0.5785434082   -0.9627711086    0.5806844482
C       -0.7681916747   -1.0623626116    0.5785457585
C       -1.5061334889    0.0959029343    0.0109210169
C       -0.8490039109    1.2733731327    0.1329432163
N        0.4979697055    1.2750132834    0.5300881524
H        2.2682472647    0.2380136288   -0.0274052304
H        1.1965263055   -1.4296333902    1.3424834124
H       -1.2350429940   -1.6258522015    1.3855667905
H       -2.5382145029    0.0261891427   -0.3126568891
H       -1.2811278341    2.2488295758   -0.0781784021
C        0.9672417418    0.2498718441   -1.6804496569
H        1.4837964750   -0.5498065514   -2.2296496038
13   
From optimize.out: Frame 6 / 54, Energy=    -286.7113361270
C        1.1732832749    0.2400279439   -0.2169361750
C        0.5834196218   -0.9609797806    0.5680126598
C       -0.7568650040   -1.0542502580    0.5736270408
C       -1.4952466874    0.1165991824    0.0252807130
C       -0.8496589217    1.3039715785    0.1272116641
N        0.4942233497    1.3311755971    0.5037380726
H        2.2584349753    0.2783728796   -0.0316238893
H        1.2090506454   -1.4564419224    1.3075202182
H       -1.2308965441   -1.6584380268    1.3436514978
H       -2.5283502276    0.0418479251   -0.2940317977
H       -1.3010994154    2.2694790116   -0.0896412022
C        0.9486917868    0.1926793776   -1.6769818869
H        1.4950131463   -0.6440435079   -2.1398269152
13   
From optimize.out: Frame 7 / 54, Energy=    -286.7214160013
C        1.1618441528    0.2559110433   -0.2005438370
C        0.5892496222   -0.9573796639    0.5565971323
C       -0.7459270300   -1.0464336714    0.5677605501
C       -1.4830548828    0.1359778951    0.0389605995
C       -0.8473402511    1.3337627259    0.1205565663
N        0.4913399261    1.3854998658    0.4738452087
H        2.2490175302    0.3171212859   -0.0387496027
H        1.2217008682   -1.4798023551    1.2738924710
H       -1.2280686949   -1.6887210822    1.2984247810
H       -2.5172299763    0.0568754193   -0.2763034421
H       -1.3186155436    2.2889548599   -0.1006525061
C        0.9261658963    0.1319335569   -1.6695960260
H        1.5009183829   -0.7336998795   -2.0441918951
13   
From optimize.out: Frame 8 / 54, Energy=    -286.7318495863
C        1.1513605465    0.2709702968   -0.1839666374
C        0.5959269725   -0.9515811025    0.5465777033
C       -0.7357715283   -1.0385511445    0.5613574892
C       -1.4702960603    0.1540371958    0.0523328806
C       -0.8425210277    1.3626267102    0.1131193997
N        0.4890862591    1.4378372062    0.4405425673
H        2.2402296914    0.3543726922   -0.0481170660
H        1.2347428292   -1.5000571331    1.2413806858
H       -1.2270571561   -1.7175615391    1.2501305067
H       -2.5056821038    0.0712916171   -0.2587601952
H       -1.3341409859    2.3073096527   -0.1106794553
C        0.9009741486    0.0683510816   -1.6591214618
H        1.5031484150   -0.8190455336   -1.9447964170
13   
From optimize.out: Frame 9 / 54, Energy=    -286.7409247229
C        1.1443261648    0.2860343288   -0.1771840710
C        0.6019732418   -0.9373193531    0.5405101075
C       -0.7326766252   -1.0235978232    0.5652318234
C       -1.4710076131    0.1703555814    0.0719831904
C       -0.8483685071    1.3862295226    0.1026109188
N        0.4797020809    1.4785749980    0.3939224574
H        2.2323787913    0.3883278000   -0.0539707575
H        1.2526928718   -1.5175256389    1.2000481702
H       -1.2330686992   -1.7465868763    1.1983007316
H       -2.5100072826    0.0837609053   -0.2240794640
H       -1.3614106858    2.3228860102   -0.1082517044
C        0.9082283797    0.0021425167   -1.6538625626
H        1.5372378827   -0.8932819714   -1.8552588397
13   
From optimize.out: Frame 10 / 54, Energy=    -286.7478307256
C        1.1474369793    0.3016806144   -0.1557983395
C        0.6084250569   -0.9222747615    0.5425895715
C       -0.7286489404   -1.0086023797    0.5694086023
C       -1.4641119625    0.1812070517    0.0973846979
C       -0.8347021598    1.4066289757    0.0816314277
N        0.4811022235    1.5208906703    0.3387170488
H        2.2363879660    0.4191276153   -0.0595980791
H        1.2619129060   -1.5415147836    1.1643714126
H       -1.2445102225   -1.7756071947    1.1322172926
H       -2.5066715798    0.0927176274   -0.1874704069
H       -1.3716663524    2.3307308723   -0.1294378594
C        0.8808125221   -0.0539902367   -1.6323393442
H        1.5342335637   -0.9509940709   -1.7616760244
13   
From optimize.out: Frame 13 / 54, Energy=    -286.7666607320
C        1.1499033583    0.3200309668   -0.1421631718
C        0.6148774644   -0.9022718974    0.5399149258
C       -0.7283910000   -0.9899327811    0.5717123584
C       -1.4659350305    0.1908614771    0.1243738946
C       -0.8301842153    1.4246654786    0.0635066632
N        0.4765340011    1.5534967097    0.2809780556
H        2.2389051566    0.4492080259   -0.0628631084
H        1.2727499143   -1.5572716855    1.1195511651
H       -1.2525253361   -1.7968352112    1.0662699068
H       -2.5133185091    0.0996986579   -0.1421387250
H       -1.3888092556    2.3389116299   -0.1388481848