13   
From optimize.out: Frame 27 / 28, Energy=    -286.8567735930
C        1.2763835397   -0.0341859732    0.0319749185
C        0.5636919009   -1.0680140030    0.8142759777
C       -0.8212630411   -1.0079822156    0.8738671216
C       -1.4465363319    0.0137130622    0.1718519945
C       -0.5998576492    0.9726167234   -0.5705815700
N        0.7471698652    1.3939334237    0.0092859506
H        2.3631103388   -0.0435835032    0.0863750253
H        1.1396400289   -1.8211457670    1.3422433810
H       -1.3929959713   -1.7296931111    1.4510534711
H       -2.5234708014    0.1451232383    0.1667822130
H       -1.1076250069    1.8192608899   -1.0282359927
C        0.6790403761    0.5512810618   -1.1959907200
H        1.1227127520    0.8086761738   -2.1529017703
13   
From optimize.out: Frame 26 / 28, Energy=    -286.8567687215
C        1.2768834966   -0.0333338954    0.0328902591
C        0.5633298203   -1.0671189716    0.8146622270
C       -0.8211622738   -1.0080009510    0.8733242022
C       -1.4465249499    0.0133866650    0.1713763538
C       -0.5998483245    0.9711446737   -0.5729761226
N        0.7471665450    1.3937359290    0.0076369239
H        2.3634744138   -0.0425477285    0.0886618757
H        1.1382949531   -1.8222235734    1.3411428057
H       -1.3925321427   -1.7301939842    1.4503630750
H       -2.5231370851    0.1467308534    0.1694335381
H       -1.1093151221    1.8191159921   -1.0263146060
C        0.6798238895    0.5515502845   -1.1964802848
H        1.1235467799    0.8077547065   -2.1537202473
13   
From optimize.out: Frame 25 / 28, Energy=    -286.8567517671
C        1.2776806074   -0.0322780117    0.0356325063
C        0.5631056537   -1.0648537013    0.8168558262
C       -0.8207065873   -1.0063977427    0.8746678435
C       -1.4473666765    0.0138975882    0.1707379219
C       -0.6000672735    0.9700871408   -0.5738925193
N        0.7460260504    1.3942193560    0.0065618233
H        2.3639087772   -0.0378965307    0.0951242157
H        1.1365127752   -1.8295494161    1.3324509427
H       -1.3903738882   -1.7313448145    1.4501299356
H       -2.5233082351    0.1512776287    0.1751923097
H       -1.1094801572    1.8155238268   -1.0322773188
C        0.6813773548    0.5488652715   -1.1968184447
H        1.1226915989    0.8084494051   -2.1543650420
13   
From optimize.out: Frame 24 / 28, Energy=    -286.8567202969
C        1.2790681373   -0.0324805518    0.0358417693
C        0.5635010982   -1.0642735793    0.8177544731
C       -0.8202072108   -1.0053519774    0.8768123990
C       -1.4473980930    0.0145782267    0.1711621563
C       -0.5997213302    0.9668389485   -0.5766434065
N        0.7428490601    1.3951015313    0.0064317142
H        2.3649787207   -0.0336917122    0.0995948760
H        1.1340158142   -1.8354850202    1.3279681428
H       -1.3899412896   -1.7321524185    1.4500912706
H       -2.5226981326    0.1565890677    0.1789803868
H       -1.1103316745    1.8114806773   -1.0351874997
C        0.6839216198    0.5486059839   -1.1971288107
H        1.1219632803    0.8102408241   -2.1556774712
13   
From optimize.out: Frame 23 / 28, Energy=    -286.8566726773
C        1.2817723998   -0.0367155153    0.0329819543
C        0.5638959063   -1.0628933606    0.8177431725
C       -0.8197847184   -1.0044665870    0.8765487337
C       -1.4490511440    0.0163371564    0.1742956574
C       -0.6012871370    0.9678871186   -0.5747716946
N        0.7443050020    1.3988111745    0.0047966789
H        2.3674286066   -0.0367622867    0.0989492915
H        1.1305390836   -1.8364908988    1.3293108836
H       -1.3876292409   -1.7337400405    1.4486478248
H       -2.5247664617    0.1551955123    0.1806544854
H       -1.1119017711    1.8083624726   -1.0413692950
C        0.6824756143    0.5528357377   -1.1947631703
H        1.1240038605    0.8116395169   -2.1530245222
13   
From optimize.out: Frame 22 / 28, Energy=    -286.8562148562
C        1.2754460257   -0.0286982241    0.0325181183
C        0.5596008310   -1.0586701121    0.8177899999
C       -0.8228165709   -1.0046542444    0.8810722811
C       -1.4506166164    0.0095770913    0.1789528336
C       -0.6050221036    0.9658708505   -0.5697217042
N        0.7466058134    1.4027168004   -0.0113556872
H        2.3609562701   -0.0379501164    0.1002534151
H        1.1261692873   -1.8346529987    1.3204701696
H       -1.3930252179   -1.7361184081    1.4470463168
H       -2.5257445228    0.1537696948    0.1950600637
H       -1.1232961513    1.8044564392   -1.0318209060
C        0.6997532736    0.5546189542   -1.2031763288
H        1.1519896817    0.8097342734   -2.1570885718
13   
From optimize.out: Frame 21 / 28, Energy=    -286.8560712370
C        1.2815887671   -0.0333273724    0.0459000277
C        0.5664780658   -1.0566913356    0.8331902441
C       -0.8174807369   -1.0050431216    0.8709324219
C       -1.4443601470    0.0121578127    0.1522417912
C       -0.5996659112    0.9706562083   -0.5856901384
N        0.7385248925    1.3937659620    0.0022870948
H        2.3670340637   -0.0239372915    0.1135348584
H        1.1385084162   -1.8456477262    1.3164249710
H       -1.3855584450   -1.7344051846    1.4426922526
H       -2.5163880668    0.1718101435    0.1897199646
H       -1.1141709776    1.8196211914   -1.0332430446
C        0.6788223537    0.5219255063   -1.1962742289
H        1.1066677256    0.8091152077   -2.1517162144
13   
From optimize.out: Frame 20 / 28, Energy=    -286.8557605009
C        1.2867424109   -0.0374135160    0.0279516077
C        0.5656144249   -1.0585180188    0.8217362329
C       -0.8195664657   -0.9940963470    0.8910121142
C       -1.4537486386    0.0224232868    0.1774479504
C       -0.5986154566    0.9497242730   -0.5811917491
N        0.7252334150    1.3989467462    0.0290686115
H        2.3717955587   -0.0272142900    0.0974675104
H        1.1228479577   -1.8569996007    1.3111656418
H       -1.3820615159   -1.7382090800    1.4500334930
H       -2.5271954511    0.1732709684    0.1948376969
H       -1.0957778606    1.7817218162   -1.0764618993
C        0.6813535816    0.5604314139   -1.1934835326
H        1.1233780396    0.8259323482   -2.1495836778
13   
From optimize.out: Frame 19 / 28, Energy=    -286.8555629649
C        1.2883931790   -0.0638370973    0.0182420407
C        0.5635740381   -1.0647248612    0.8180703353
C       -0.8193892299   -0.9972223004    0.8831357176
C       -1.4454982560    0.0272814061    0.1879368618
C       -0.6038264032    0.9728088125   -0.5662046658
N        0.7481653123    1.4204215154   -0.0094106039
H        2.3715863905   -0.0425279400    0.1002998041
H        1.1282048288   -1.8241685556    1.3538304716
H       -1.3879878765   -1.7513476103    1.4214805430
H       -2.5228226499    0.1493606687    0.1674898996
H       -1.1193274960    1.8114750893   -1.0309835754
C        0.6905263008    0.5613633675   -1.1845464248
H        1.1084018621    0.8011175053   -2.1593404039
13   
From optimize.out: Frame 18 / 28, Energy=    -286.8540933327
C        1.2926257867   -0.0811268401    0.0111785981
C        0.5631091474   -1.0786944594    0.8030271260
C       -0.8183633354   -1.0003174238    0.8764402000
C       -1.4416444524    0.0392737479    0.1969992215
C       -0.5988815575    0.9857272427   -0.5533864242
N        0.7587518844    1.4291838086   -0.0012520268
H        2.3738641961   -0.0418730655    0.1044264148
H        1.1303182447   -1.8087242437    1.3806258102
H       -1.3844981733   -1.7537783197    1.4195239421
H       -2.5196228144    0.1310286386    0.1256530059
H       -1.1153323285    1.8270069766   -1.0123373016
C        0.6913910149    0.5827422880   -1.1734802033
H        1.0682823872    0.7695516496   -2.1774183627
13   
From optimize.out: Frame 17 / 28, Energy=    -286.8513388559
C        1.2918615564   -0.0906204828    0.0097093180
C        0.5613124484   -1.0900590022    0.7940393898
C       -0.8172922610   -1.0120218673    0.8667126211
C       -1.4316339763    0.0373868672    0.1988939422
C       -0.5832363094    0.9996031926   -0.5293982528
N        0.7861433592    1.4386013869   -0.0090988590
H        2.3720351713   -0.0516711351    0.1072923830
H        1.1276768877   -1.7854895747    1.4157042263
H       -1.3915562025   -1.7508039190    1.4216822461
H       -2.5061986311    0.1061337416    0.0707351774
H       -1.1071885107    1.8397740823   -0.9825039631
C        0.6953268398    0.6067941041   -1.1642562866
H        1.0027496280    0.7523726065   -2.1995119424
13   
From optimize.out: Frame 16 / 28, Energy=    -286.8479984561
C        1.2962522610   -0.0909685036    0.0148565720
C        0.5643661383   -1.0929379980    0.7922384081
C       -0.8142038075   -1.0180478671    0.8522114027
C       -1.4288144423    0.0424589482    0.1856568756
C       -0.5829867449    1.0268194066   -0.5067193196
N        0.7918716303    1.4386060188    0.0039589601
H        2.3762514497   -0.0513930810    0.1177244746
H        1.1376315819   -1.7663828297    1.4343379177
H       -1.3871461076   -1.7566458512    1.4093567091
H       -2.5002192928    0.0925057749    0.0266360042
H       -1.1070939783    1.8753414082   -0.9445140100
C        0.7137219078    0.6125352039   -1.1613061813
H        0.9403694045    0.6881093701   -2.2244378132
13   
From optimize.out: Frame 15 / 28, Energy=    -286.8426714924
C        1.2931933418   -0.0945354110    0.0184297949
C        0.5639929269   -1.1030773439    0.7928521180
C       -0.8117800735   -1.0304351500    0.8450599321
C       -1.4121197245    0.0329379585    0.1720149037
C       -0.5615415326    1.0377267447   -0.4807359818
N        0.8157083510    1.4364442978    0.0017934905
H        2.3737327098   -0.0665172876    0.1198548504
H        1.1381963260   -1.7427126829    1.4678344274
H       -1.3991644031   -1.7456985057    1.4172818841
H       -2.4758043608    0.0713922411   -0.0375173779
H       -1.0843921245    1.8855422470   -0.9210797658
C        0.7235541185    0.6250872603   -1.1574543338
H        0.8364244452    0.6938456315   -2.2383339418
13   
From optimize.out: Frame 14 / 28, Energy=    -286.8363399075
C        1.2923305017   -0.0958159321    0.0201354728
C        0.5658380413   -1.1092931366    0.7957951782
C       -0.8089227808   -1.0406358819    0.8360412089
C       -1.3997377912    0.0251239834    0.1529921061
C       -0.5506305106    1.0515086270   -0.4567626474
N        0.8279947041    1.4276046436    0.0048711646
H        2.3741713392   -0.0822290859    0.1178235870
H        1.1425708764   -1.7158737368    1.4967814494
H       -1.4074846084   -1.7350321565    1.4218432694
H       -2.4562947163    0.0541352007   -0.0938423743
H       -1.0700017567    1.9041274255   -0.8914781631
C        0.7409482601    0.6268790654   -1.1592747614
H        0.7492184412    0.6895009843   -2.2449254901
13   
From optimize.out: Frame 13 / 28, Energy=    -286.8292690655
C        1.2889584003   -0.0987236328    0.0182602654
C        0.5673881861   -1.1176696179    0.7986543286
C       -0.8060815165   -1.0508093278    0.8293597485
C       -1.3854106599    0.0135654186    0.1312214051
C       -0.5398939999    1.0612634328   -0.4329184453
N        0.8386114963    1.4142722872    0.0082452652
H        2.3725009943   -0.1037863606    0.1081731826
H        1.1451626212   -1.6864242400    1.5270419033
H       -1.4168647895   -1.7157355100    1.4357852444
H       -2.4337932251    0.0340554747   -0.1520675369
H       -1.0519891358    1.9183072654   -0.8664644668
C        0.7549444300    0.6252387953   -1.1632604648
H        0.6664671985    0.7064460151   -2.2420304293
13   
From optimize.out: Frame 12 / 28, Energy=    -286.8220185658
C        1.2850969070   -0.1017482647    0.0121899354
C        0.5694384986   -1.1263164931    0.8002523963
C       -0.8033390507   -1.0606065364    0.8227005605
C       -1.3729352096    0.0006228917    0.1073124571
C       -0.5348355644    1.0700247959   -0.4092743585
N        0.8438953455    1.3980506203    0.0124746860
H        2.3704991058   -0.1272484634    0.0915784934
H        1.1457963120   -1.6530616770    1.5565860591
H       -1.4240898185   -1.6920792091    1.4535799778
H       -2.4133023717    0.0130255724   -0.2076182933
H       -1.0393515638    1.9345621807   -0.8354138556
C        0.7691967936    0.6201167146   -1.1695280914
H        0.6039306163    0.7246578681   -2.2348399667
13   
From optimize.out: Frame 11 / 28, Energy=    -286.8147391797
C        1.2794182372   -0.1054965722    0.0031939888
C        0.5712744877   -1.1366698455    0.7989478890
C       -0.8003489388   -1.0699498496    0.8146990838
C       -1.3607924995   -0.0126714101    0.0815921209
C       -0.5341280919    1.0800814154   -0.3823784735
N        0.8457601481    1.3814216535    0.0204890102
H        2.3664946501   -0.1513623489    0.0711831705
H        1.1427836229   -1.6185112975    1.5847146261
H       -1.4260202173   -1.6632395153    1.4765189662
H       -2.3930727465   -0.0115883528   -0.2615346112
H       -1.0289114027    1.9519392957   -0.8033679735
C        0.7795485160    0.6142636527   -1.1771048950
H        0.5579942348    0.7417831746   -2.2269529024
13   
From optimize.out: Frame 10 / 28, Energy=    -286.8071496084
C        1.2723922205   -0.1042081667   -0.0079161961
C        0.5731354506   -1.1447856736    0.7939422203
C       -0.7978909345   -1.0782148023    0.8032223933
C       -1.3539000966   -0.0234644572    0.0565750205
C       -0.5457000302    1.0946542469   -0.3490414558
N        0.8367328121    1.3647901042    0.0298721169
H        2.3612013514   -0.1695464703    0.0531057598
H        1.1384374221   -1.5831780490    1.6046726380
H       -1.4211679814   -1.6355948873    1.4972170551
H       -2.3804300529   -0.0349244242   -0.3055744809
H       -1.0326923242    1.9772663364   -0.7549197348
C        0.8000761342    0.6037522627   -1.1903412677
H        0.5498060288    0.7334539802   -2.2308140688
13   
From optimize.out: Frame 9 / 28, Energy=    -286.7986464388
C        1.2651851105   -0.1110429449   -0.0233997485
C        0.5780989028   -1.1607299464    0.7908626454
C       -0.7934664411   -1.0813062361    0.7988494417
C       -1.3395786968   -0.0365640740    0.0182484818
C       -0.5468652477    1.0982012189   -0.3310947926
N        0.8266230981    1.3334635482    0.0472479605
H        2.3570441942   -0.1977713030    0.0135107001
H        1.1317944410   -1.5502421924    1.6288148908
H       -1.4111010659   -1.5894871243    1.5340389827
H       -2.3580359775   -0.0632078519   -0.3677766075
H       -1.0167738306    1.9927349397   -0.7293997699
C        0.7959473731    0.6091277350   -1.1772654682
H        0.5111281398    0.7568242312   -2.2026367163
13   
From optimize.out: Frame 8 / 28, Energy=    -286.7895099836
C        1.2569371482   -0.1074943360   -0.0374341984
C        0.5802157717   -1.1708032995    0.7819649817
C       -0.7910292750   -1.0893164006    0.7839043552
C       -1.3334401596   -0.0465479973   -0.0119916044
C       -0.5632936407    1.1110569350   -0.2955846492
N        0.8100935360    1.3149156509    0.0682711443
H        2.3504325609   -0.2137390652   -0.0086002589
H        1.1171175477   -1.5126228948    1.6467865552
H       -1.3930181057   -1.5542225968    1.5593830901
H       -2.3463033684   -0.0884386347   -0.4125287044
H       -1.0257297427    2.0200653522   -0.6682254808
C        0.8150516417    0.6034764583   -1.1914858535
H        0.5229660860    0.7336708285   -2.2144593769
13   
From optimize.out: Frame 7 / 28, Energy=    -286.7779462051
C        1.2504816076   -0.1028162788   -0.0575746987
C        0.5817439330   -1.1780973461    0.7717114992
C       -0.7881304486   -1.0882979517    0.7719259688
C       -1.3264770855   -0.0571403477   -0.0509126217
C       -0.5747156269    1.1138160287   -0.2664356451
N        0.7913021035    1.2873936158    0.1038046979
H        2.3438760475   -0.2381020752   -0.0467542574
H        1.0922096179   -1.4734030101    1.6651470053
H       -1.3652489761   -1.5076213481    1.5904872294
H       -2.3332418665   -0.1223378225   -0.4629592455
H       -1.0256871290    2.0389716073   -0.6122104631
C        0.8265238882    0.6087296215   -1.1921727238
H        0.5273639349    0.7189053072   -2.2140567452
13   
From optimize.out: Frame 6 / 28, Energy=    -286.7617435798
C        1.2533703810   -0.0845493009   -0.0794825630
C        0.5855822062   -1.1701070128    0.7584130652
C       -0.7816132747   -1.0839968579    0.7450618566
C       -1.3298009371   -0.0548202249   -0.0936589979
C       -0.6028349998    1.1278589253   -0.2145332835
N        0.7607854289    1.2611091812    0.1727466124
H        2.3467710767   -0.2339124291   -0.0702682237
H        1.0568369685   -1.4284545311    1.6858485322
H       -1.3258556813   -1.4794015255    1.5976267759
H       -2.3309683472   -0.1459008965   -0.5103970743
H       -1.0466604725    2.0762732791   -0.5022875602
C        0.8497830490    0.5790190484   -1.2285557301
H        0.5646046024    0.6368823447   -2.2605134097
13   
From optimize.out: Frame 5 / 28, Energy=    -286.7376045249
C        1.2615252032   -0.0570192605   -0.1013435910
C        0.5855764200   -1.1462758088    0.7430741839
C       -0.7767269857   -1.0751730551    0.7175372974
C       -1.3483918463   -0.0425043561   -0.1316172888
C       -0.6391464360    1.1417980625   -0.1506193172
N        0.7337628360    1.2350790331    0.2696023008
H        2.3539244160   -0.2102065079   -0.0872342648
H        1.0165278460   -1.3856292836    1.7068780904
H       -1.2821764198   -1.4748995209    1.5940034437
H       -2.3422431194   -0.1589156321   -0.5515495735
H       -1.0799664280    2.1115333261   -0.3658137151
C        0.8828122335    0.5426517524   -1.2965340507
H        0.6345222806    0.5195612508   -2.3463835151
13   
From optimize.out: Frame 4 / 28, Energy=    -286.7067395403
C        1.2686297086   -0.0267029708   -0.1274527654
C        0.5773937647   -1.1125567671    0.7285715502
C       -0.7792540814   -1.0636934579    0.6999566505
C       -1.3830885051   -0.0298320059   -0.1578048907
C       -0.6786153331    1.1429689412   -0.0824903318
N        0.7095304485    1.1974541009    0.3671832664
H        2.3596535996   -0.1831040202   -0.1086534083
H        0.9745598329   -1.3459541586    1.7292481783
H       -1.2420899554   -1.4824361624    1.5950150558
H       -2.3698360256   -0.1671888196   -0.5782960398
H       -1.1169969481    2.1288348437   -0.2224236636
C        0.9331041407    0.5320852982   -1.3881344434
H        0.7470093537    0.4101251784   -2.4547191581
13   
From optimize.out: Frame 3 / 28, Energy=    -286.6716566119
C        1.2737216784   -0.0024493900   -0.1620578713
C        0.5640266814   -1.0791933921    0.7115338552
C       -0.7874048327   -1.0515981392    0.6907183288
C       -1.4334233641   -0.0175376205   -0.1749368416
C       -0.7299454853    1.1352833878   -0.0185389774
N        0.6834572873    1.1442595416    0.4430760121
H        2.3621437036   -0.1663113699   -0.1358880355
H        0.9279214451   -1.3029598542    1.7512535926
H       -1.1962940076   -1.4844156645    1.6097452080
H       -2.4158226139   -0.1782464781   -0.5869181248
H       -1.1631517092    2.1328070713   -0.0791660181
C        1.0074231210    0.5325889035   -1.4858409825
H        0.9073480961    0.3377730041   -2.5629801455
13   
From optimize.out: Frame 2 / 28, Energy=    -286.6336623016
C        1.2851983955    0.0057294099   -0.2004592791
C        0.5482469143   -1.0528132294    0.6975693549
C       -0.7977773382   -1.0366991912    0.6912145482
C       -1.4963829458   -0.0066396709   -0.1935289158
C       -0.7910893486    1.1195082836    0.0335504445
N        0.6643367415    1.0774425828    0.4896728430
H        2.3683525994   -0.1736986269   -0.1685770628
H        0.8751960497   -1.2634018803    1.7857977752
H       -1.1421129994   -1.4703390673    1.6418787318
H       -2.4743156682   -0.1971541528   -0.5911585547
H       -1.2178784085    2.1233546395    0.0546198433
C        1.0989239385    0.5427755222   -1.5756769109
H        1.0793020698    0.3319353807   -2.6649028176
13   
From optimize.out: Frame 1 / 28, Energy=    -286.5875619395
C        1.3071119853   -0.0029343817   -0.2329659143
C        0.5272171677   -1.0302321106    0.6805750230
C       -0.7984340839   -1.0085127662    0.6875567002
C       -1.5563799114   -0.0013415170   -0.2158955638
C       -0.8489056698    1.0946174324    0.0727727839
N        0.6510274885    1.0119273562    0.5038170030
H        2.3845606336   -0.2007411938   -0.1935875194
H        0.7835274062   -1.2279224520    1.8245648488
H       -1.0535136837   -1.4382172231    1.6748301413
H       -2.5323838685   -0.2135676579   -0.5933528295
H       -1.2862707531    2.0906943339    0.1800038565
C        1.1956730619    0.5530695400   -1.6401976356
H        1.2267702273    0.3731606398   -2.7481208940
13   
C5H5N+CH->C6H6N atoms 1-13 frame 194 charge -0.000 sz -1.000 sz^2 0.829
C        1.3071119853   -0.0029343817   -0.2329659143
C        0.5272171677   -1.0302321106    0.6805750230
C       -0.7984340839   -1.0085127662    0.6875567002
C       -1.5563799114   -0.0013415170   -0.2158955638
C       -0.8489056698    1.0946174324    0.0727727839
N        0.6510274885    1.0119273562    0.5038170030
H        2.3845606336   -0.2007411938   -0.1935875194
H        0.7835274062   -1.2279224520    1.8245648488
H       -1.0535136837   -1.4382172231    1.6748301413
H       -2.5323838685   -0.2135676579   -0.5933528295
H       -1.2862707531    2.0906943339    0.1800038565
C        1.1956730619    0.5530695400   -1.6401976356
H        1.2267702273    0.3731606398   -2.7481208940
13   
C5H5N+CH->C6H6N atoms 1-13 frame 195 charge +0.000 sz -1.000 sz^2 0.710
C        1.3092153686    0.0090803621   -0.2498503675
C        0.5293638076   -1.0355732900    0.6826787767
C       -0.7992883447   -1.0117611676    0.6767834612
C       -1.5729236420   -0.0075888843   -0.2133251644
C       -0.8585764486    1.0861768886    0.0800920755
N        0.6474666158    0.9958633792    0.5056300363
H        2.3888437935   -0.1931379281   -0.1911110405
H        0.7901263067   -1.2454229882    1.8155703142
H       -1.0386677205   -1.3998507349    1.6724458141
H       -2.5571439056   -0.2091269606   -0.5807085636
H       -1.2933321691    2.0854358624    0.1726133514
C        1.2000310295    0.5557902501   -1.6295886081
H        1.2548853088    0.3701152111   -2.7412300853
13   
C5H5N+CH->C6H6N atoms 1-13 frame 196 charge +0.000 sz -1.000 sz^2 0.626
C        1.3113168777    0.0205272479   -0.2671021160
C        0.5322410514   -1.0409098113    0.6855284985
C       -0.8002106100   -1.0150787441    0.6667856916
C       -1.5891442782   -0.0148399553   -0.2095334094
C       -0.8679416517    1.0778385273    0.0871661658
N        0.6436203498    0.9804826056    0.5071104628
H        2.3932361141   -0.1842552075   -0.1857005477
H        0.8010291145   -1.2616636653    1.8004297910
H       -1.0285051752   -1.3606985282    1.6701030085
H       -2.5832084807   -0.2043412659   -0.5668072132
H       -1.2988890640    2.0800627568    0.1633106583
C        1.2036352253    0.5571208270   -1.6198541978
H        1.2828205271    0.3657552132   -2.7314367925
13   
C5H5N+CH->C6H6N atoms 1-13 frame 197 charge +0.000 sz -1.000 sz^2 0.631
C        1.3134235657    0.0316249368   -0.2845479528
C        0.5358781435   -1.0460690070    0.6890176535
C       -0.8011495150   -1.0183998190    0.6572825068
C       -1.6048890096   -0.0229720899   -0.2047418423
C       -0.8769813181    1.0697156225    0.0939024499
N        0.6394498318    0.9658766564    0.5084314952
H        2.3976352623   -0.1740270744   -0.1782344693
H        0.8159656612   -1.2765916813    1.7796611217
H       -1.0233762575   -1.3216297285    1.6680553424
H       -2.6100688410   -0.1991557765   -0.5518414177
H       -1.3029976570    2.0746304059    0.1523585582
C        1.2068864479    0.5577748496   -1.6108411872
H        1.3102236858    0.3592227054   -2.7185022586
13   
C5H5N+CH->C6H6N atoms 1-13 frame 198 charge +0.000 sz -1.000 sz^2 0.896
C        1.3155813783    0.0423321499   -0.3021656002
C        0.5401967482   -1.0510145325    0.6928633464
C       -0.8020948714   -1.0217289361    0.6481044614
C       -1.6201173880   -0.0318655754   -0.1990919996
C       -0.8857026485    1.0618238616    0.1002026110
N        0.6349277762    0.9520518113    0.5095916528
H        2.4017442709   -0.1624772954   -0.1690386868
H        0.8348208796   -1.2902588981    1.7539852240
H       -1.0234585356   -1.2831454969    1.6667202237
H       -2.6372528118   -0.1935814033   -0.5358128706
H       -1.3056512168    2.0691889494    0.1399155645
C        1.2098074958    0.5579079863   -1.6027860871
H        1.3371989230    0.3507673792   -2.7024878394
13   
C5H5N+CH->C6H6N atoms 1-13 frame 199 charge -0.000 sz -1.000 sz^2 0.929
C        1.3178452494    0.0526366168   -0.3199799520
C        0.5450878545   -1.0557177375    0.6966805928
C       -0.8030693051   -1.0251442321    0.6390705411
C       -1.6348204757   -0.0413429111   -0.1927182121
C       -0.8941137624    1.0541798379    0.1060925653
N        0.6299518942    0.9389398971    0.5108003985
H        2.4053012156   -0.1494037273   -0.1584279972
H        0.8574496629   -1.3028828604    1.7243892566
H       -1.0287980148   -1.2456149846    1.6663080987
H       -2.6642343580   -0.1876179007   -0.5187346547
H       -1.3068423159    2.0638578151    0.1262297970
C        1.2124365174    0.5577053177   -1.5960139641
H        1.3638058378    0.3404048691   -2.6836964699
13   
C5H5N+CH->C6H6N atoms 1-13 frame 200 charge +0.000 sz -1.000 sz^2 0.972
C        1.3202338702    0.0625333210   -0.3378959969
C        0.5503906012   -1.0601413734    0.7001359637
C       -0.8041127063   -1.0286659446    0.6300470070
C       -1.6490008194   -0.0512336903   -0.1857552043
C       -0.9022435947    1.0468024251    0.1115199392
N        0.6244836689    0.9265052910    0.5120801983
H        2.4079820350   -0.1349072968   -0.1468080705
H        0.8837945895   -1.3148052960    1.6922792096
H       -1.0392492640   -1.2094108803    1.6667576043
H       -2.6904838398   -0.1812525271   -0.5005935741
H       -1.3066312431    2.0587508463    0.1115340206
C        1.2147849992    0.5573719203   -1.5907067990
H        1.3900517034    0.3284532048   -2.6625942979
13   
C5H5N+CH->C6H6N atoms 1-13 frame 201 charge -0.000 sz -1.000 sz^2 0.668
C        1.3227401026    0.0720366985   -0.3557813346
C        0.5558960575   -1.0642431634    0.7028876162
C       -0.8052940592   -1.0323080079    0.6209421645
C       -1.6626885385   -0.0613334301   -0.1783155640
C       -0.9101338500    1.0397260172    0.1164665975
N        0.6184784807    0.9147041021    0.5134648242
H        2.4094677688   -0.1191356636   -0.1345994968
H        0.9138789938   -1.3264987944    1.6593335148
H       -1.0545084525   -1.1748512882    1.6677534602
H       -2.7155179153   -0.1744608142   -0.4813674584
H       -1.3051048932    2.0540054430    0.0960981554
C        1.2168287568    0.5571323435   -1.5870252782
H        1.4159575485    0.3152265574   -2.6398572008
13   
C5H5N+CH->C6H6N atoms 1-13 frame 202 charge +0.000 sz -1.000 sz^2 0.683
C        1.3252765011    0.0811340294   -0.3733655917
C        0.5613202542   -1.0679993919    0.7046487601
C       -0.8066952906   -1.0360206225    0.6117511532
C       -1.6759572866   -0.0714365018   -0.1704715795
C       -0.9178650565    1.0330006259    0.1208684320
N        0.6119397293    0.9035496452    0.5148048436
H        2.4094093610   -0.1024902022   -0.1222084215
H        0.9478732307   -1.3385069945    1.6273594835
H       -1.0740815325   -1.1422062723    1.6687968249
H       -2.7389612175   -0.1672199937   -0.4609879060
H       -1.3024366477    2.0497276907    0.0801979921
C        1.2183908961    0.5572160007   -1.5850753840
H        1.4417870589    0.3012519870   -2.6163186066
13   
C5H5N+CH->C6H6N atoms 1-13 frame 203 charge +0.000 sz -1.000 sz^2 0.674
C        1.3277855788    0.0898543514   -0.3904013279
C        0.5663840308   -1.0713500372    0.7051836879
C       -0.8084391513   -1.0397857776    0.6025102415
C       -1.6888804003   -0.0812937609   -0.1622702048
C       -0.9255030300    1.0266941630    0.1247714177
N        0.6048041842    0.8930069099    0.5161754241
H        2.4075849850   -0.0851658537   -0.1099573654
H        0.9858768473   -1.3513603562    1.5979500226
H       -1.0974251610   -1.1117030322    1.6692764178
H       -2.7604995988   -0.1595148450   -0.4394284224
H       -1.2987581460    2.0460652275    0.0641274995
C        1.2193849141    0.5578330982   -1.5849597108
H        1.4676849471    0.2867199126   -2.5929776798
13   
From optimize.out: Frame 1 / 54, Energy=    -286.5811491054
C        1.3302900462    0.0978186724   -0.4066280577
C        0.5707943222   -1.0742878107    0.7042677493
C       -0.8107414703   -1.0436163196    0.5934579272
C       -1.7015661344   -0.0906883998   -0.1536667498
C       -0.9331032387    1.0207941651    0.1281907629
N        0.5970545482    0.8829740475    0.5175293997
H        2.4042093483   -0.0672986077   -0.0972684383
H        1.0280034142   -1.3654133563    1.5721552453
H       -1.1240622261   -1.0832787789    1.6687213843
H       -2.7799592575   -0.1513821590   -0.4165469788
H       -1.2940569476    2.0431082529    0.0479640799
C        1.2195855882    0.5585631055   -1.5869972051
H        1.4935520072    0.2727071887   -2.5711791190
13   
From optimize.out: Frame 2 / 54, Energy=    -286.6297173087
C        1.2930990318    0.1220938683   -0.3814398210
C        0.5567002765   -1.0658062457    0.7025833809
C       -0.8171503359   -1.0844731289    0.6140812718
C       -1.6283839071   -0.0714281320   -0.1256007816
C       -0.8905624852    1.0564597153    0.1229472523
N        0.5771637671    0.9392026525    0.5543480019
H        2.3623979569   -0.0334834972   -0.0808565371
H        1.0513029864   -1.3698189358    1.5762784723
H       -1.1797974303   -1.2001131793    1.6612908726
H       -2.6847121056   -0.1283290105   -0.4190638153
H       -1.2449934338    2.0774208816    0.0019034596