13   
From optimize.out: Frame 2 / 3, Energy=    -286.8567767057
C        1.2762323032   -0.0344161555    0.0311421112
C        0.5639265049   -1.0674673373    0.8147103130
C       -0.8212684279   -1.0082271577    0.8734651133
C       -1.4462738638    0.0128801417    0.1709790399
C       -0.5997817113    0.9720388691   -0.5713043746
N        0.7461510193    1.3939038696    0.0092692356
H        2.3629562781   -0.0438134166    0.0861051046
H        1.1395610226   -1.8206073240    1.3425101071
H       -1.3935218229   -1.7291016916    1.4510486186
H       -2.5231111663    0.1454006781    0.1677329326
H       -1.1080484569    1.8196118488   -1.0267283693
C        0.6792492842    0.5509776372   -1.1963526825
H        1.1239290367    0.8088200381   -2.1525771491
13   
From optimize.out: Frame 1 / 3, Energy=    -286.8567735930
C        1.2763835397   -0.0341859732    0.0319749185
C        0.5636919009   -1.0680140029    0.8142759778
C       -0.8212630411   -1.0079822155    0.8738671216
C       -1.4465363319    0.0137130622    0.1718519944
C       -0.5998576492    0.9726167233   -0.5705815701
N        0.7471698652    1.3939334237    0.0092859505
H        2.3631103388   -0.0435835032    0.0863750254
H        1.1396400288   -1.8211457669    1.3422433812
H       -1.3929959714   -1.7296931110    1.4510534712
H       -2.5234708014    0.1451232383    0.1667822128
H       -1.1076250068    1.8192608898   -1.0282359930
C        0.6790403762    0.5512810617   -1.1959907200
H        1.1227127521    0.8086761736   -2.1529017703
13   
From optimize.out: Frame 27 / 28, Energy=    -286.8567735930
C        1.2763835397   -0.0341859732    0.0319749185
C        0.5636919009   -1.0680140029    0.8142759778
C       -0.8212630411   -1.0079822155    0.8738671216
C       -1.4465363319    0.0137130622    0.1718519944
C       -0.5998576492    0.9726167233   -0.5705815701
N        0.7471698652    1.3939334237    0.0092859505
H        2.3631103388   -0.0435835032    0.0863750254
H        1.1396400288   -1.8211457669    1.3422433812
H       -1.3929959714   -1.7296931110    1.4510534712
H       -2.5234708014    0.1451232383    0.1667822128
H       -1.1076250068    1.8192608898   -1.0282359930
C        0.6790403762    0.5512810617   -1.1959907200
H        1.1227127521    0.8086761736   -2.1529017703
13   
From optimize.out: Frame 26 / 28, Energy=    -286.8567687215
C        1.2812654347   -0.0330845114    0.0451941195
C        0.5661163205   -1.0567963885    0.8323782345
C       -0.8177612645   -1.0050227042    0.8714664732
C       -1.4446893160    0.0120227572    0.1536495350
C       -0.5999479259    0.9704050489   -0.5848482360
N        0.7389511507    1.3942366876    0.0015689839
H        2.3667142316   -0.0246764881    0.1128330210
H        1.1378592055   -1.8450705016    1.3166354459
H       -1.3859509569   -1.7344954403    1.4429219019
H       -2.5168802841    0.1708619075    0.1900040215
H       -1.1146513758    1.8188242537   -1.0331657540
C        0.6799231641    0.5236468854   -1.1966379945
H        1.1090516160    0.8091484937   -2.1519997519
13   
From optimize.out: Frame 25 / 28, Energy=    -286.8567517671
C        1.2878430864   -0.0550336952    0.0214750420
C        0.5642542486   -1.0626578094    0.8192901222
C       -0.8194477780   -0.9961803362    0.8857611409
C       -1.4482470818    0.0256641024    0.1844444446
C       -0.6020899710    0.9651176402   -0.5711969004
N        0.7405255455    1.4132648365    0.0034110446
H        2.3716562314   -0.0374278803    0.0993516010
H        1.1264202078   -1.8351107219    1.3396103419
H       -1.3860124229   -1.7469689743    1.4309963621
H       -2.5242792508    0.1573308224    0.1766075369
H       -1.1114801656    1.8015626582   -1.0461346076
C        0.6874681972    0.5610528433   -1.1875253485
H        1.1133891532    0.8093865143   -2.1560907798
13   
From optimize.out: Frame 23 / 28, Energy=    -286.8566726773
C        1.2923187196   -0.0849412299    0.0105874978
C        0.5623883285   -1.0832620660    0.7994138062
C       -0.8179316276   -1.0050229167    0.8725301577
C       -1.4376211676    0.0385139723    0.1977613279
C       -0.5925947827    0.9913039530   -0.5437444505
N        0.7697593291    1.4329694434   -0.0044048171
H        2.3731291890   -0.0458089296    0.1055772587
H        1.1292588281   -1.7993863204    1.3947219812
H       -1.3873326939   -1.7525852991    1.4203904819
H       -2.5142276619    0.1210210030    0.1035824903
H       -1.1120613268    1.8321379581   -1.0003452334
C        0.6929718384    0.5924103606   -1.1697728750
H        1.0419430278    0.7626500712   -2.1862976256
13   
From optimize.out: Frame 22 / 28, Energy=    -286.8562148562
C        1.2955757716   -0.0909101336    0.0140658883
C        0.5638977253   -1.0924927103    0.7925164735
C       -0.8146779877   -1.0171225755    0.8544441935
C       -1.4292496065    0.0416717748    0.1876942167
C       -0.5830278534    1.0226224698   -0.5102156408
N        0.7909834018    1.4386081944    0.0019488976
H        2.3756014829   -0.0514273384    0.1161215261
H        1.1361005347   -1.7693248148    1.4314669079
H       -1.3878225060   -1.7557514112    1.4112523938
H       -2.5011413769    0.0945972507    0.0334282193
H       -1.1071133398    1.8698556037   -0.9503709429
C        0.7108867207    0.6116536601   -1.1617589650
H        0.9499870334    0.6980200302   -2.2205931680
13   
From optimize.out: Frame 21 / 28, Energy=    -286.8560712370
C        1.2931037025   -0.0946640023    0.0186124626
C        0.5641863371   -1.1037236125    0.7931601917
C       -0.8114816430   -1.0315019545    0.8441161170
C       -1.4108300599    0.0321181410    0.1700269540
C       -0.5604064714    1.0391613281   -0.4782388740
N        0.8169834061    1.4355261132    0.0021184535
H        2.3737782205   -0.0681458988    0.1196522314
H        1.1386531465   -1.7399123377    1.4708543592
H       -1.4000304027   -1.7445931986    1.4177505885
H       -2.4737711697    0.0695844204   -0.0433970066
H       -1.0828959562    1.8874757837   -0.9179974611
C        0.7253690218    0.6252775983   -1.1576408035
H        0.8273418684    0.6933976196   -2.2390172128
13   
From optimize.out: Frame 20 / 28, Energy=    -286.8557605009
C        1.2906558420   -0.0972555074    0.0192109586
C        0.5666077239   -1.1134523158    0.7972174303
C       -0.8075122423   -1.0456926227    0.8327173095
C       -1.3926224030    0.0193777183    0.1421711787
C       -0.5452991590    1.0563521948   -0.4449213877
N        0.8332628287    1.4209855357    0.0065527675
H        2.3733414121   -0.0929279775    0.1130430198
H        1.1438561884   -1.7012434165    1.5118164401
H       -1.4121451659   -1.7254539208    1.4287591044
H       -2.4451178154    0.0441529139   -0.1227757496
H       -1.0610571471    1.9111673836   -0.8790580875
C        0.7479041040    0.6260680428   -1.1612498741
H        0.7081258335    0.6979219716   -2.2434831100
13   
From optimize.out: Frame 19 / 28, Energy=    -286.8555629649
C        1.2853717495   -0.1015292052    0.0126305914
C        0.5692905375   -1.1257004317    0.8001418533
C       -0.8035366005   -1.0599129216    0.8231676536
C       -1.3738231971    0.0015389992    0.1090031367
C       -0.5351957175    1.0694003887   -0.4109587672
N        0.8435151704    1.3992068502    0.0121809410
H        2.3706412097   -0.1255726666    0.0927752179
H        1.1457454305   -1.6554320211    1.5544917044
H       -1.4235809751   -1.6937671208    1.4523031206
H       -2.4147582334    0.0145138658   -0.2036846478
H       -1.0402503903    1.9334036345   -0.8376278573
C        0.7681895090    0.6204842805   -1.1690764655
H        0.6083915074    0.7233663480   -2.2353464811
13   
From optimize.out: Frame 17 / 28, Energy=    -286.8513388559
C        1.2761841667   -0.1048983151   -0.0019080007
C        0.5721278256   -1.1404039951    0.7966488578
C       -0.7992211408   -1.0737581598    0.8094073618
C       -1.3576201284   -0.0176455891    0.0700616341
C       -0.5394560693    1.0867881319   -0.3670364559
N        0.8415985427    1.3737684926    0.0248174351
H        2.3640578300   -0.1597241534    0.0628845856
H        1.1407733096   -1.6022410902    1.5939134714
H       -1.4237946490   -1.6505191218    1.4860328852
H       -2.3872496267   -0.0223408961   -0.2818327430
H       -1.0306520770    1.9635949875   -0.7810739798
C        0.7890080220    0.6094281150   -1.1831903622
H        0.5542439948    0.7379515935   -2.2287246894
13   
From optimize.out: Frame 16 / 28, Energy=    -286.8479984561
C        1.2663607706   -0.1099222826   -0.0208592002
C        0.5772854991   -1.1581272204    0.7913731728
C       -0.7941924970   -1.0808057217    0.7995528590
C       -1.3419133456   -0.0344356511    0.0244785693
C       -0.5466766353    1.0976199128   -0.3340283282
N        0.8282635590    1.3385743644    0.0444251830
H        2.3577225850   -0.1931581988    0.0199959217
H        1.1328641772   -1.5556037357    1.6248956192
H       -1.4127537060   -1.5970090583    1.5280196776
H       -2.3616814346   -0.0586099512   -0.3576678689
H       -1.0193694186    1.9902075139   -0.7335747539
C        0.7966326183    0.6082545854   -1.1793870797
H        0.5174578280    0.7530154432   -2.2072237716
13   
From optimize.out: Frame 15 / 28, Energy=    -286.8426714924
C        1.2558418842   -0.1066888908   -0.0408336852
C        0.5804714396   -1.1720358436    0.7802359821
C       -0.7905414424   -1.0891481595    0.7818575572
C       -1.3322562776   -0.0483591702   -0.0186286092
C       -0.5652386665    1.1115202399   -0.2906445762
N        0.8068881109    1.3102462487    0.0743200983
H        2.3493206235   -0.2178588141   -0.0150407120
H        1.1128685881   -1.5059453309    1.6499298544
H       -1.3883145173   -1.5463122736    1.5646471360
H       -2.3440756809   -0.0942195903   -0.4211393377
H       -1.0257279132    2.0232675116   -0.6587308924
C        0.8170171278    0.6043730915   -1.1915894322
H        0.5237467238    0.7311609811   -2.2143833831
13   
From optimize.out: Frame 14 / 28, Energy=    -286.8363399075
C        1.2512701740   -0.0978317160   -0.0635054945
C        0.5827847114   -1.1759128199    0.7681125846
C       -0.7863618577   -1.0871337736    0.7646043718
C       -1.3273792270   -0.0565255818   -0.0625724442
C       -0.5823734384    1.1176282143   -0.2523340086
N        0.7829814508    1.2802528724    0.1225728341
H        2.3446677674   -0.2369339912   -0.0530960824
H        1.0825654321   -1.4611534601    1.6708108836
H       -1.3545503406   -1.4999529415    1.5924053543
H       -2.3326107790   -0.1287789136   -0.4759182947
H       -1.0314045219    2.0491044712   -0.5823387431
C        0.8328721585    0.6006511415   -1.2020545309
H        0.5375384704    0.6965864982   -2.2266864300
13   
From optimize.out: Frame 13 / 28, Energy=    -286.8292690655
C        1.2539777581   -0.0824908349   -0.0810638619
C        0.5855795587   -1.1683281298    0.7573022946
C       -0.7812548243   -1.0833520262    0.7430089039
C       -1.3311733592   -0.0539316998   -0.0965069664
C       -0.6055358165    1.1288791197   -0.2098272245
N        0.7587586896    1.2591963823    0.1799297644
H        2.3473065716   -0.2321185020   -0.0714545136
H        1.0538283792   -1.4252556673    1.6874450725
H       -1.3226437920   -1.4790801395    1.5973299343
H       -2.3317855594   -0.1469070199   -0.5135098785
H       -1.0491466775    2.0788623376   -0.4922295902
C        0.8522539476    0.5763333827   -1.2335666742
H        0.5698351242    0.6281927970   -2.2668572604
13   
From optimize.out: Frame 12 / 28, Energy=    -286.8220185658
C        1.2591719382   -0.0649533976   -0.0949779591
C        0.5855767216   -1.1531478002    0.7475395437
C       -0.7781420796   -1.0777350639    0.7254779223
C       -1.3430110693   -0.0460953035   -0.1206881091
C       -0.6286654415    1.1377526539   -0.1691315789
N        0.7415413692    1.2426235961    0.2416118613
H        2.3518635470   -0.2170113659   -0.0822446063
H        1.0281538650   -1.3979759372    1.7008449868
H       -1.2948303444   -1.4762156635    1.5950183146
H       -2.3389608443   -0.1552070785   -0.5397306356
H       -1.0703668835    2.1013115087   -0.4053302248
C        0.8732945276    0.5531754020   -1.2768522172
H        0.6143746940    0.5534784495   -2.3215372977
13   
From optimize.out: Frame 10 / 28, Energy=    -286.8071496084
C        1.2637834022   -0.0473762174   -0.1095699999
C        0.5829809484   -1.1355623477    0.7385114810
C       -0.7775298608   -1.0715456775    0.7119428370
C       -1.3593860908   -0.0385224846   -0.1399750413
C       -0.6516842174    1.1421513890   -0.1290567345
N        0.7260364507    1.2231712899    0.3005579380
H        2.3557498425   -0.2015545105   -0.0939277613
H        1.0031868855   -1.3730065302    1.7140257475
H       -1.2694937391   -1.4773047173    1.5942881146
H       -2.3509648860   -0.1616043279   -0.5601234497
H       -1.0917481190    2.1169878394   -0.3204169288
C        0.8987978015    0.5393105748   -1.3255459852
H        0.6702715822    0.4848557202   -2.3807102175
13   
From optimize.out: Frame 9 / 28, Energy=    -286.7986464388
C        1.2679102663   -0.0297660209   -0.1247259190
C        0.5782287092   -1.1159766562    0.7300943698
C       -0.7789972771   -1.0648802278    0.7017310008
C       -1.3795346863   -0.0311689146   -0.1551916821
C       -0.6746107962    1.1428286366   -0.0894982074
N        0.7119556867    1.2013242674    0.3572285593
H        2.3590783775   -0.1858068451   -0.1063537265
H        0.9788083873   -1.3499584824    1.7270242109
H       -1.2462169885   -1.4816817659    1.5948732093
H       -2.3669849324   -0.1664191204   -0.5756693835
H       -1.1132632809    2.1270315247   -0.2371554126
C        0.9280125567    0.5331744669   -1.3787375607
H        0.7356139775    0.4212991378   -2.4436194583
13   
From optimize.out: Frame 8 / 28, Energy=    -286.7895099836
C        1.2709422577   -0.0156869774   -0.1430522698
C        0.5713413981   -1.0974262355    0.7209048826
C       -0.7829452758   -1.0582326963    0.6957514943
C       -1.4058631431   -0.0243136951   -0.1656300211
C       -0.7018826879    1.1394672690   -0.0535957137
N        0.6976715100    1.1734039051    0.4015530796
H        2.3607923334   -0.1754305963   -0.1208593954
H        0.9534033155   -1.3264368914    1.7392768220
H       -1.2213948166   -1.4833463901    1.6016433929
H       -2.3906168070   -0.1722778775   -0.5823166195
H       -1.1379475900    2.1305947221   -0.1576684866
C        0.9667995825    0.5323220255   -1.4323199861
H        0.8196999231    0.3773634379   -2.5036871791
13   
From optimize.out: Frame 7 / 28, Energy=    -286.7779462051
C        1.2737529773   -0.0023934076   -0.1620632677
C        0.5639934408   -1.0791104945    0.7115562873
C       -0.7874273209   -1.0515834845    0.6906947968
C       -1.4335360052   -0.0175676898   -0.1750509467
C       -0.7301019235    1.1352277274   -0.0184971033
N        0.6833573273    1.1441600169    0.4431840826
H        2.3621688170   -0.1662486461   -0.1358200794
H        0.9277669982   -1.3028207887    1.7513943740
H       -1.1962261542   -1.4844002642    1.6097686690
H       -2.4158986718   -0.1783749572   -0.5870549852
H       -1.1633259128    2.1327480982   -0.0790059359
C        1.0076646399    0.5326166396   -1.4859705642
H        0.9078117879    0.3377472505   -2.5631353273
13   
From optimize.out: Frame 6 / 28, Energy=    -286.7617435798
C        1.2800655935    0.0021043377   -0.1831766091
C        0.5553147144   -1.0646021473    0.7038807018
C       -0.7931327629   -1.0433893687    0.6909677240
C       -1.4681569515   -0.0115776015   -0.1852808603
C       -0.7637272835    1.1265518232    0.0101404412
N        0.6728406734    1.1074187379    0.4688070014
H        2.3655847738   -0.1703100406   -0.1537887054
H        0.8987671510   -1.2810631243    1.7703942596
H       -1.1664365146   -1.4766546725    1.6274411576
H       -2.4480620970   -0.1887765938   -0.5893946838
H       -1.1934255958    2.1275496603   -0.0054467207
C        1.0579878627    0.5382158351   -1.5353676583
H        1.0023804365    0.3345331545   -2.6191760481
13   
From optimize.out: Frame 4 / 28, Energy=    -286.7067395403
C        1.2874848806    0.0048700836   -0.2037566546
C        0.5460590214   -1.0504347489    0.6958618288
C       -0.7978509077   -1.0337855297    0.6908107930
C       -1.5025984019   -0.0061461944   -0.1959398685
C       -0.7971312433    1.1168980249    0.0375486395
N        0.6628889938    1.0706765618    0.4911561386
H        2.3700512058   -0.1764273628   -0.1710277375
H        0.8656182731   -1.2596487390    1.7899017634
H       -1.1329641954   -1.4670068641    1.6452646694
H       -2.4803006812   -0.1989570336   -0.5915296297
H       -1.2250545303    2.1199238292    0.0675128598
C        1.1090414419    0.5438464443   -1.5823200379
H        1.0947561432    0.3361915285   -2.6734827642
13   
From optimize.out: Frame 3 / 28, Energy=    -286.6716566119
C        1.2997774280    0.0000086486   -0.2219878515
C        0.5342621952   -1.0377687112    0.6863316544
C       -0.7982211993   -1.0179734609    0.6887608035
C       -1.5362495117   -0.0031747439   -0.2084880475
C       -0.8295596300    1.1029373732    0.0595434187
N        0.6554256135    1.0339299534    0.4990877174
H        2.3791434213   -0.1915984474   -0.1850532942
H        0.8141976597   -1.2397463654    1.8116458731
H       -1.0832737121   -1.4489825567    1.6637523778
H       -2.5128702361   -0.2081630488   -0.5927629538
H       -1.2634165909    2.1016069125    0.1378321778
C        1.1633107600    0.5496161030   -1.6185068567
H        1.1774738024    0.3593083436   -2.7201550191
13   
From optimize.out: Frame 2 / 28, Energy=    -286.6336623016
C        1.3092247261    0.0090874764   -0.2497303892
C        0.5293523513   -1.0355239002    0.6827329821
C       -0.7992927625   -1.0117615930    0.6767898451
C       -1.5728694083   -0.0076316571   -0.2134252286
C       -0.8585934431    1.0861713691    0.0799933686
N        0.6474120101    0.9959386883    0.5056373564
H        2.3888509745   -0.1930821253   -0.1909694663
H        0.7900431605   -1.2453040811    1.8156733924
H       -1.0387577122   -1.3999361336    1.6724274387
H       -2.5570405185   -0.2092391842   -0.5808870504
H       -1.2933946124    2.0854103570    0.1724984882
C        1.2000988198    0.5557797607   -1.6295583987
H        1.2549664147    0.3700910231   -2.7411823382
13   
From optimize.out: Frame 1 / 28, Energy=    -286.5875619395
C        1.3142242089    0.0355591277   -0.2908838946
C        0.5374465562   -1.0478310479    0.6904762118
C       -0.8014953894   -1.0196215730    0.6539243807
C       -1.6104175859   -0.0262700387   -0.2027779053
C       -0.8801976356    1.0668158242    0.0961154474
N        0.6377414895    0.9608823016    0.5088643289
H        2.3991464028   -0.1697451673   -0.1747458874
H        0.8227696121   -1.2814880953    1.7704003811
H       -1.0234562695   -1.3076172282    1.6675460495
H       -2.6199219736   -0.1972339407   -0.5461543957
H       -1.3040442840    2.0726087532    0.1476999269
C        1.2080222296    0.5578221268   -1.6078558140
H        1.3201826388    0.3561189576   -2.7126088293
13   
C5H5N+CH->C6H6N atoms 1-13 frame 194 charge -0.000 sz -1.000 sz^2 0.829
C        1.3192053181    0.0582445011   -0.3299889835
C        0.5480715870   -1.0581678993    0.6986833781
C       -0.8036537816   -1.0271382082    0.6339765145
C       -1.6427868526   -0.0469732096   -0.1888900811
C       -0.8987325187    1.0499989288    0.1090684661
N        0.6268127590    0.9319802591    0.5115301984
H        2.4068231448   -0.1411631796   -0.1517531928
H        0.8722262214   -1.3095133545    1.7064058879
H       -1.0347256367   -1.2252381481    1.6665365830
H       -2.6789687004   -0.1841482488   -0.5086708357
H       -1.3068056227    2.0609396441    0.1178338284
C        1.2138255430    0.5575195927   -1.5929756961
H        1.3787085393    0.3336593223   -2.6717560672
13   
C5H5N+CH->C6H6N atoms 1-13 frame 196 charge +0.000 sz -1.000 sz^2 0.626
C        1.3243887781    0.0779315406   -0.3670272003
C        0.5593895806   -1.0666200476    0.7040788821
C       -0.8061888287   -1.0347116102    0.6150124252
C       -1.6712144516   -0.0679029981   -0.1733558859
C       -0.9151546268    1.0353665726    0.1192227133
N        0.6142087809    0.9075639219    0.5143359353
H        2.4094411124   -0.1083359639   -0.1264948040
H        0.9357162323   -1.3341462889    1.6388450439
H       -1.0671476383   -1.1538427660    1.6683982331
H       -2.7305709656   -0.1699189078   -0.4683956952
H       -1.3034713524    2.0512051411    0.0857433691
C        1.2178972835    0.5571910725   -1.5857202294
H        1.4327060956    0.3062203336   -2.6246427871
13   
C5H5N+CH->C6H6N atoms 1-13 frame 197 charge +0.000 sz -1.000 sz^2 0.631
C        1.3294986137    0.0952905923   -0.4013224809
C        0.5693769777   -1.0732980713    0.7046211380
C       -0.8099873058   -1.0423967737    0.5963652582
C       -1.6974589549   -0.0877279192   -0.1565306276
C       -0.9306974317    1.0226647251    0.1270116298
N        0.5994937343    0.8862507034    0.5171004896
H        2.4053073738   -0.0729725798   -0.1012374769
H        1.0143755691   -1.3607944083    1.5805712665
H       -1.1155057777   -1.0924567764    1.6688708009
H       -2.7736485363   -0.1541305649   -0.4240748296
H       -1.2956598471    2.0440120488    0.0530614069
C        1.2195811099    0.5583352565   -1.5862902992
H        1.4853244750    0.2772237676   -2.5781462756
13   
C5H5N+CH->C6H6N atoms 1-13 frame 198 charge +0.000 sz -1.000 sz^2 0.896
C        1.3081702916    0.1123133493   -0.3915653870
C        0.5624112648   -1.0691982117    0.7033230215
C       -0.8145447707   -1.0679545314    0.6057144173
C       -1.6579956253   -0.0792977875   -0.1370517721
C       -0.9078331505    1.0419877351    0.1249933019
N        0.5851463500    0.9164805403    0.5394544723
H        2.3793292388   -0.0470727648   -0.0873659647
H        1.0418418482   -1.3679525828    1.5747014406
H       -1.1572809597   -1.1528286254    1.6642626613
H       -2.7232371253   -0.1377859455   -0.4181934212
H       -1.2649417370    2.0634788512    0.0204262448
C        1.1832781301    0.5546015408   -1.6106945197
H        1.4656562450    0.2332284323   -2.5880044950
13   
C5H5N+CH->C6H6N atoms 1-13 frame 199 charge -0.000 sz -1.000 sz^2 0.929
C        1.2828789118    0.1275982586   -0.3701230740
C        0.5561005919   -1.0591980046    0.6962894548
C       -0.8154780547   -1.0894215869    0.6136375962
C       -1.6099510098   -0.0624263630   -0.1186254775
C       -0.8799664696    1.0679688755    0.1235749095
N        0.5692839295    0.9554365164    0.5619318207
H        2.3519313127   -0.0204774562   -0.0744363580
H        1.0616558305   -1.3670404996    1.5672628947
H       -1.1902085510   -1.2313002967    1.6497822891
H       -2.6618518051   -0.1182081534   -0.4193326251
H       -1.2353796546    2.0870996651   -0.0072371889
C        1.1372851372    0.5417392669   -1.6308856248
H        1.4336998312    0.1682297779   -2.5918386168
13   
C5H5N+CH->C6H6N atoms 1-13 frame 200 charge +0.000 sz -1.000 sz^2 0.972
C        1.2589839250    0.1403365114   -0.3438770848
C        0.5546883728   -1.0438690590    0.6814631221
C       -0.8116010192   -1.1009236208    0.6126523625
C       -1.5669502599   -0.0412426666   -0.1021263978
C       -0.8551101045    1.0949164988    0.1252203769
N        0.5510614741    0.9932392206    0.5796077753
H        2.3274859813    0.0096456646   -0.0597737776
H        1.0858965764   -1.3607498094    1.5459996059
H       -1.2144049924   -1.3040693638    1.6230124131
H       -2.6085624359   -0.0942887781   -0.4196019350
H       -1.2127288931    2.1098176507   -0.0282871175
C        1.0876577913    0.5180182349   -1.6403211349
H        1.4035835839    0.0791695167   -2.5739682082
13   
C5H5N+CH->C6H6N atoms 1-13 frame 202 charge +0.000 sz -1.000 sz^2 0.683
C        1.2420314373    0.1518254682   -0.3187887462
C        0.5576540452   -1.0228891666    0.6605829780
C       -0.8057610101   -1.1023597276    0.6037176201
C       -1.5440297720   -0.0171961146   -0.0833787863
C       -0.8434685434    1.1251498281    0.1312487891
N        0.5371167967    1.0354830009    0.5872519143
H        2.3124182149    0.0431444100   -0.0470623558
H        1.1096605448   -1.3540361831    1.5150065578
H       -1.2264065822   -1.3722534703    1.5848667936
H       -2.5801187672   -0.0701211939   -0.4102353726
H       -1.2087523986    2.1348497338   -0.0374744778
C        1.0515645295    0.4804048850   -1.6491798227
H        1.3980915049   -0.0320014700   -2.5365550913
13   
C5H5N+CH->C6H6N atoms 1-13 frame 203 charge +0.000 sz -1.000 sz^2 0.674
C        1.2275020454    0.1635241281   -0.2960562955
C        0.5617344314   -1.0027301097    0.6400515880
C       -0.7992176426   -1.0994081614    0.5949457300
C       -1.5284685461    0.0072583270   -0.0639161986
C       -0.8375187915    1.1557197546    0.1364554742
N        0.5253535004    1.0788209595    0.5895578247
H        2.3003747600    0.0789510547   -0.0372817942
H        1.1319852058   -1.3527388914    1.4819072008
H       -1.2339123284   -1.4364621867    1.5444269405
H       -2.5606545356   -0.0468511397   -0.3968761624
H       -1.2119443607    2.1599487555   -0.0451413883
C        1.0221696993    0.4388195772   -1.6578208951
H        1.4025965625   -0.1448520679   -2.4902520241
13   
From optimize.out: Frame 1 / 54, Energy=    -286.5811491054
C        1.2152040301    0.1755879834   -0.2757062572
C        0.5667450064   -0.9837441912    0.6201458003
C       -0.7920499864   -1.0923827312    0.5866769545
C       -1.5196640736    0.0319940662   -0.0437615998
C       -0.8368540472    1.1865277054    0.1406202409
N        0.5156552463    1.1233154030    0.5865809426
H        2.2910719602    0.1170531110   -0.0304075017
H        1.1528055837   -1.3571741388    1.4469589476
H       -1.2373168307   -1.4967275967    1.5020733981
H       -2.5494735611   -0.0245380438   -0.3796781752
H       -1.2218287750    2.1849971943   -0.0517308233
C        0.9992338594    0.3936603809   -1.6662475072
H        1.4164715881   -0.2585691425   -2.4355244196
13   
From optimize.out: Frame 2 / 54, Energy=    -286.6297173087
C        1.2052058861    0.1912590595   -0.2602932577
C        0.5709752287   -0.9721868297    0.6048657819
C       -0.7848165057   -1.0815170282    0.5834349628
C       -1.5168860904    0.0555622919   -0.0220043942
C       -0.8412510059    1.2169422782    0.1400422366
N        0.5085142665    1.1731324543    0.5718726346
H        2.2838705836    0.1600691703   -0.0284837967
H        1.1695086209   -1.3778589558    1.4105614221
H       -1.2377275684   -1.5493557900    1.4602574124
H       -2.5467683005   -0.0050083497   -0.3555077769
H       -1.2399199175    2.2083085501   -0.0614135234
C        0.9872498793    0.3456486916   -1.6741419853
H        1.4420449234   -0.3649955426   -2.3691897162
13   
From optimize.out: Frame 3 / 54, Energy=    -286.6621245938
C        1.1946898662    0.2083017221   -0.2453589159
C        0.5750644076   -0.9654640244    0.5912326914
C       -0.7763187651   -1.0708628332    0.5807961420
C       -1.5120288161    0.0779180552   -0.0030505142
C       -0.8457311761    1.2475568655    0.1370141130
N        0.5023522695    1.2272433116    0.5511305611
H        2.2757442402    0.2026947128   -0.0273010857
H        1.1847653463   -1.4044658674    1.3735671192
H       -1.2368451237   -1.5938913420    1.4194895623
H       -2.5428740623    0.0125846694   -0.3317332159
H       -1.2615362340    2.2306948243   -0.0704970698
C        0.9766277409    0.2948055468   -1.6789769653
H        1.4660903066   -0.4671156407   -2.2963124222
13   
From optimize.out: Frame 5 / 54, Energy=    -286.7000759993
C        1.1836214844    0.2260706629   -0.2305232158
C        0.5792047743   -0.9622591790    0.5786792027
C       -0.7666466960   -1.0607466998    0.5781179553
C       -1.5050127736    0.0993219015    0.0135770373
C       -0.8496260653    1.2782808650    0.1321693294
N        0.4971365700    1.2840944659    0.5260879417
H        2.2668220723    0.2447278366   -0.0274250285
H        1.1987620911   -1.4344177946    1.3365743277
H       -1.2347004050   -1.6319280350    1.3791179929
H       -2.5373287099    0.0287753846   -0.3090304352
H       -1.2848522427    2.2522770342   -0.0796386412
C        0.9654574416    0.2413298430   -1.6807296190
H        1.4871624587   -0.5655262854   -2.2169768474
13   
From optimize.out: Frame 6 / 54, Energy=    -286.7113361270
C        1.1713172576    0.2426821999   -0.2143523275
C        0.5842211593   -0.9607364774    0.5659842035
C       -0.7550048196   -1.0530148297    0.5727730037
C       -1.4933894709    0.1198848028    0.0275064009
C       -0.8496651700    1.3088571813    0.1262688649
N        0.4936693426    1.3401290156    0.4994877981
H        2.2568400011    0.2847711572   -0.0324223866
H        1.2110072197   -1.4606302507    1.3019949984
H       -1.2301731639   -1.6634794318    1.3369068346
H       -2.5266427896    0.0443339300   -0.2911795069
H       -1.3041891401    2.2727503116   -0.0915433892
C        0.9455034623    0.1834275188   -1.6762691807
H        1.4965061115   -0.6589751277   -2.1251553131
13   
From optimize.out: Frame 7 / 54, Energy=    -286.7214160013
C        1.1600632263    0.2583980417   -0.1979478660
C        0.5901949640   -0.9567485891    0.5548323801
C       -0.7442204221   -1.0451964257    0.5668182180
C       -1.4811119991    0.1390033671    0.0411139680
C       -0.8469031706    1.3384449228    0.1194826646
N        0.4909020000    1.3940295029    0.4690244487
H        2.2475469199    0.3232030511   -0.0399391078
H        1.2237112547   -1.4834066758    1.2686092471
H       -1.2276730585   -1.6934664664    1.2911902251
H       -2.5154603845    0.0592331964   -0.2735067691
H       -1.3213276811    2.2920012854   -0.1023650035