13   
From optimize.out: Frame 27 / 28, Energy=    -286.8567735930
C        1.2763835397   -0.0341859732    0.0319749185
C        0.5636919009   -1.0680140030    0.8142759777
C       -0.8212630411   -1.0079822156    0.8738671216
C       -1.4465363319    0.0137130622    0.1718519945
C       -0.5998576492    0.9726167234   -0.5705815700
N        0.7471698652    1.3939334237    0.0092859506
H        2.3631103388   -0.0435835032    0.0863750253
H        1.1396400289   -1.8211457670    1.3422433810
H       -1.3929959713   -1.7296931111    1.4510534711
H       -2.5234708014    0.1451232383    0.1667822130
H       -1.1076250069    1.8192608899   -1.0282359927
C        0.6790403761    0.5512810618   -1.1959907200
H        1.1227127520    0.8086761738   -2.1529017703
13   
From optimize.out: Frame 26 / 28, Energy=    -286.8567687215
C        1.2812654043   -0.0330836873    0.0451955846
C        0.5661160382   -1.0567955013    0.8323795529
C       -0.8177616230   -1.0050226505    0.8714661988
C       -1.4446894966    0.0120219598    0.1536478992
C       -0.5999478689    0.9704043001   -0.5848495369
N        0.7389502839    1.3942371471    0.0015689190
H        2.3667141198   -0.0246749469    0.1128357040
H        1.1378588666   -1.8450689478    1.3166379161
H       -1.3859515067   -1.7344953712    1.4429214568
H       -2.5168806042    0.1708604681    0.1900010752
H       -1.1146513400    1.8188228969   -1.0331681812
C        0.6799241877    0.5236465368   -1.1966375655
H        1.1090535390    0.8091477963   -2.1519990231
13   
From optimize.out: Frame 25 / 28, Energy=    -286.8567517671
C        1.2878431091   -0.0550322166    0.0214774681
C        0.5642539369   -1.0626566137    0.8192918878
C       -0.8194482885   -0.9961806684    0.8857602949
C       -1.4482474531    0.0256625808    0.1844417409
C       -0.6020900086    0.9651165692   -0.5711986702
N        0.7405239325    1.4132656806    0.0034114620
H        2.3716560896   -0.0374251169    0.0993560256
H        1.1264198092   -1.8351085350    1.3396136729
H       -1.3860130913   -1.7469695818    1.4309949731
H       -2.5242797572    0.1573280723    0.1766027481
H       -1.1114802732    1.8015606868   -1.0461378882
C        0.6874697621    0.5610528214   -1.1875244529
H        1.1133922325    0.8093863213   -2.1560892621
13   
From optimize.out: Frame 23 / 28, Energy=    -286.8566726773
C        1.2923186403   -0.0849423621    0.0105880903
C        0.5623870490   -1.0832619015    0.7994149292
C       -0.8179328676   -1.0050214730    0.8725306583
C       -1.4376212135    0.0385154052    0.1977607151
C       -0.5925936877    0.9913040265   -0.5437455098
N        0.7697605961    1.4329687601   -0.0044056910
H        2.3731291058   -0.0458109376    0.1055782555
H        1.1292566758   -1.7993861640    1.3947239255
H       -1.3873348153   -1.7525828996    1.4203913706
H       -2.5142275969    0.1210233086    0.1035813743
H       -1.1120593049    1.8321381127   -1.0003471979
C        0.6929728342    0.5924087814   -1.1697730849
H        1.0419445846    0.7626473433   -2.1862978353
13   
From optimize.out: Frame 22 / 28, Energy=    -286.8562148562
C        1.2955754696   -0.0909148590    0.0140631646
C        0.5638954369   -1.0924942242    0.7925160148
C       -0.8146798675   -1.0171190082    0.8544466476
C       -1.4292490505    0.0416771281    0.1876972618
C       -0.5830252132    1.0226242485   -0.5102150928
N        0.7909886639    1.4386053048    0.0019462035
H        2.3756015446   -0.0514359408    0.1161164525
H        1.1360971467   -1.7693279791    1.4314656857
H       -1.3878258879   -1.7557453649    1.4112565904
H       -2.5011409592    0.0946064152    0.0334335332
H       -1.1071085497    1.8698589941   -0.9503698524
C        0.7108864576    0.6116502601   -1.1617609160
H        0.9499848087    0.6980150254   -2.2205956929
13   
From optimize.out: Frame 21 / 28, Energy=    -286.8560712370
C        1.2931034170   -0.0946688664    0.0186075600
C        0.5641852239   -1.1037251511    0.7931588425
C       -0.8114822877   -1.0314982658    0.8441200046
C       -1.4108292848    0.0321235894    0.1700323559
C       -0.5604043906    1.0391630866   -0.4782374913
N        0.8169888294    1.4355230329    0.0021142444
H        2.3737784235   -0.0681547644    0.1196431530
H        1.1386522397   -1.7399155396    1.4708512735
H       -1.4000315313   -1.7445868634    1.4177572697
H       -2.4737710741    0.0695937198   -0.0433875446
H       -1.0828923666    1.8874791863   -0.9179946996
C        0.7253669284    0.6252740015   -1.1576440580
H        0.8273358732    0.6933928342   -2.2390209101
13   
From optimize.out: Frame 20 / 28, Energy=    -286.8557605009
C        1.2906555929   -0.0972601750    0.0192040650
C        0.5666079918   -1.1134537002    0.7972153064
C       -0.8075115366   -1.0456889904    0.8327225551
C       -1.3926215643    0.0193828920    0.1421786889
C       -0.5452977301    1.0563537987   -0.4449193308
N        0.8332680209    1.4209825173    0.0065470664
H        2.3733416858   -0.0929364951    0.1130302711
H        1.1438581854   -1.7012462935    1.5118116917
H       -1.4121437056   -1.7254475920    1.4287681907
H       -2.4451183187    0.0441616838   -0.1227625718
H       -1.0610549624    1.9111704933   -0.8790539636
C        0.7479000998    0.6260643500   -1.1612544438
H        0.7081162411    0.6979175111   -2.2434875253
13   
From optimize.out: Frame 19 / 28, Energy=    -286.8555629649
C        1.2853715249   -0.1015331619    0.0126216391
C        0.5692926865   -1.1257015532    0.8001387465
C       -0.8035340866   -1.0599097883    0.8231741420
C       -1.3738224263    0.0015433255    0.1090127900
C       -0.5351953052    1.0694017140   -0.4109558552
N        0.8435195739    1.3992042568    0.0121739022
H        2.3706414741   -0.1255799089    0.0927586580
H        1.1457512458   -1.6554343227    1.5544849671
H       -1.4235759961   -1.6937615744    1.4523144696
H       -2.4147596199    0.0145211562   -0.2036676897
H       -1.0402503101    1.9334061797   -0.8376220821
C        0.7681832082    0.6204809816   -1.1690823566
H        0.6083780309    0.7233626956   -2.2353513309
13   
From optimize.out: Frame 17 / 28, Energy=    -286.8513388559
C        1.2761837264   -0.1049034393   -0.0019207177
C        0.5721312042   -1.1404060641    0.7966434696
C       -0.7992173671   -1.0737547194    0.8094156521
C       -1.3576194994   -0.0176401184    0.0700751996
C       -0.5394553721    1.0867901927   -0.3670313787
N        0.8416043060    1.3737651209    0.0248086356
H        2.3640578167   -0.1597336266    0.0628610183
H        1.1407827974   -1.6022452140    1.5939025356
H       -1.4237864325   -1.6505129802    1.4860475790
H       -2.3872525313   -0.0223313924   -0.2818088919
H       -1.0306519951    1.9635989018   -0.7810642474
C        0.7889986505    0.6094246086   -1.1831984175
H        0.5542246962    0.7379487304   -2.2287304365
13   
From optimize.out: Frame 16 / 28, Energy=    -286.8479984561
C        1.2663599297   -0.1099288189   -0.0208758000
C        0.5772898186   -1.1581308966    0.7913646419
C       -0.7941876705   -1.0808023066    0.7995622694
C       -1.3419132047   -0.0344287269    0.0244960282
C       -0.5466753075    1.0976230328   -0.3340202488
N        0.8282710661    1.3385700389    0.0444155526
H        2.3577218456   -0.1931704192    0.0199650260
H        1.1328773025   -1.5556110125    1.6248795017
H       -1.4127420573   -1.5970030753    1.5280367006
H       -2.3616863991   -0.0585974166   -0.3576371406
H       -1.0193686782    1.9902134280   -0.7335597376
C        0.7966203957    0.6082514881   -1.1793969329
H        0.5174329592    0.7530146849   -2.2072298604
13   
From optimize.out: Frame 15 / 28, Energy=    -286.8426714924
C        1.2558402478   -0.1066994587   -0.0408563939
C        0.5804754309   -1.1720426756    0.7802227498
C       -0.7905367177   -1.0891433497    0.7818690343
C       -1.3322570211   -0.0483478083   -0.0186049123
C       -0.5652344202    1.1115257494   -0.2906317637
N        0.8069005688    1.3102392137    0.0743088676
H        2.3493185037   -0.2178787331   -0.0150832380
H        1.1128852891   -1.5059588045    1.6499062915
H       -1.3882996832   -1.5463042938    1.5646681845
H       -2.3440840088   -0.0941986529   -0.4210976659
H       -1.0257225019    2.0232778296   -0.6587076268
C        0.8170009612    0.6043690553   -1.1916025639
H        0.5237133514    0.7311619285   -2.2143909633
13   
From optimize.out: Frame 14 / 28, Energy=    -286.8363399075
C        1.2512675163   -0.0978466343   -0.0635348689
C        0.5827881590   -1.1759235264    0.7680935778
C       -0.7863574110   -1.0871278125    0.7646174206
C       -1.3273813599   -0.0565091439   -0.0625420383
C       -0.5823656766    1.1176364857   -0.2523152860
N        0.7829998530    1.2802427724    0.1225607730
H        2.3446636581   -0.2369622560   -0.0531513776
H        1.0825862694   -1.4611744978    1.6707789840
H       -1.3545317861   -1.4999439705    1.5924295873
H       -2.3326233415   -0.1287483029   -0.4758650009
H       -1.0313930571    2.0491197583   -0.5823052561
C        0.8328516870    0.6006466759   -1.2020709462
H        0.5374954893    0.6965904519   -2.2266955687
13   
From optimize.out: Frame 13 / 28, Energy=    -286.8292690655
C        1.2539740144   -0.0825114820   -0.0811007523
C        0.5855817779   -1.1683429878    0.7572776559
C       -0.7812515835   -1.0833437055    0.7430244433
C       -1.3311770668   -0.0539085840   -0.0964687331
C       -0.6055228322    1.1288907232   -0.2098022663
N        0.7587851720    1.2591823868    0.1799160301
H        2.3473005786   -0.2321576777   -0.0715240781
H        1.0538532208   -1.4252845357    1.6874051748
H       -1.3226224704   -1.4790682797    1.5973585709
H       -2.3318029244   -0.1468642687   -0.5134432501
H       -1.0491258342    2.0788832859   -0.4921855412
C        0.8522279236    0.5763270812   -1.2335875974
H        0.5697800242    0.6281980440   -2.2668696564
13   
From optimize.out: Frame 12 / 28, Energy=    -286.8220185658
C        1.2591672294   -0.0649795952   -0.0950224561
C        0.5855780931   -1.1531666218    0.7475094345
C       -0.7781398604   -1.0777244652    0.7254960472
C       -1.3430162691   -0.0460655001   -0.1206416165
C       -0.6286469533    1.1377675491   -0.1691000951
N        0.7415764418    1.2426056726    0.2415963959
H        2.3518560218   -0.2170610952   -0.0823285196
H        1.0281832631   -1.3980122405    1.7007973757
H       -1.2948063155   -1.4762012794    1.5950511333
H       -2.3389830094   -0.1551524102   -0.5396502932
H       -1.0703359825    2.1013378535   -0.4052752439
C        0.8732618166    0.5531673871   -1.2768780613
H        0.6143055243    0.5534847453   -2.3215541008
13   
From optimize.out: Frame 10 / 28, Energy=    -286.8071496084
C        1.2637777528   -0.0474071985   -0.1096217480
C        0.5829820329   -1.1355848725    0.7384759888
C       -0.7775282250   -1.0715333418    0.7119631895
C       -1.3593927453   -0.0384864694   -0.1399203119
C       -0.6516604175    1.1421693005   -0.1290183877
N        0.7260797318    1.2231496978    0.3005412550
H        2.3557409070   -0.2016134117   -0.0940254038
H        1.0032214964   -1.3730499156    1.7139707351
H       -1.2694666328   -1.4772890833    1.5943241848
H       -2.3509917074   -0.1615387233   -0.5600297898
H       -1.0917072994    2.1170189335   -0.3203505634
C        0.8987577512    0.5393015597   -1.3255768086
H        0.6701873551    0.4848635246   -2.3807323400
13   
From optimize.out: Frame 9 / 28, Energy=    -286.7986464388
C        1.2679036714   -0.0298011109   -0.1247845669
C        0.5782299822   -1.1160026477    0.7300536310
C       -0.7789958276   -1.0648666028    0.7017532855
C       -1.3795427180   -0.0311270429   -0.1551286774
C       -0.6745818523    1.1428492846   -0.0894526990
N        0.7120068509    1.2012991397    0.3572110863
H        2.3590681119   -0.1858737293   -0.1064645023
H        0.9788487081   -1.3500087146    1.7269620916
H       -1.2461865478   -1.4816659636    1.5949116752
H       -2.3670161987   -0.1663433502   -0.5755627139
H       -1.1132126546    2.1270667341   -0.2370772531
C        0.9279646143    0.5331651254   -1.3787734414
H        0.7355138603    0.4213088782   -2.4436479155
13   
From optimize.out: Frame 8 / 28, Energy=    -286.7895099836
C        1.2709345553   -0.0157247464   -0.1431165398
C        0.5713432420   -1.0974550540    0.7208595492
C       -0.7829434656   -1.0582185912    0.6957749847
C       -1.4058722492   -0.0242670329   -0.1655595560
C       -0.7018495902    1.1394901258   -0.0535431703
N        0.6977286029    1.1733759322    0.4015356205
H        2.3607807288   -0.1755029371   -0.1209809838
H        0.9534492722   -1.3264930684    1.7392087849
H       -1.2213607197   -1.4833321711    1.6016825627
H       -2.3906515535   -0.1721939962   -0.5821987701
H       -1.1378885983    2.1306328465   -0.1575790290
C        0.9667441402    0.5323132518   -1.4323606681
H        0.8195856349    0.3773754408   -2.5037227847
13   
From optimize.out: Frame 7 / 28, Energy=    -286.7779462051
C        1.2737440584   -0.0024334411   -0.1621327554
C        0.5639959103   -1.0791419498    0.7115066240
C       -0.7874250595   -1.0515690858    0.6907192964
C       -1.4335461374   -0.0175163691   -0.1749730968
C       -0.7300647179    1.1352526258   -0.0184374013
N        0.6834200016    1.1441292463    0.4431668775
H        2.3621558112   -0.1663257753   -0.1359517802
H        0.9278186288   -1.3028827148    1.7513209549
H       -1.1961883528   -1.4843882147    1.6098078695
H       -2.4159366774   -0.1782833487   -0.5869263938
H       -1.1632584281    2.1327886388   -0.0789051311
C        1.0076015507    0.5326087678   -1.4860161656
H        0.9076834122    0.3377616205   -2.5631788982
13   
From optimize.out: Frame 6 / 28, Energy=    -286.7617435798
C        1.2800551686    0.0020641263   -0.1832499021
C        0.5553185290   -1.0646353523    0.7038274679
C       -0.7931289577   -1.0433760717    0.6909921702
C       -1.4681679600   -0.0115235263   -0.1851969813
C       -0.7636880669    1.1265778087    0.0102068603
N        0.6729055076    1.1073862307    0.4687907328
H        2.3655701174   -0.1703880688   -0.1539276573
H        0.8988246419   -1.2811295659    1.7703169922
H       -1.1663939164   -1.4766474159    1.6274782721
H       -2.4481023318   -0.1886807837   -0.5892582297
H       -1.1933529430    2.1275906942   -0.0053355452
C        1.0579183568    0.5382104458   -1.5354174400
H        1.0022418544    0.3345514791   -2.6192267399
13   
From optimize.out: Frame 4 / 28, Energy=    -286.7067395403
C        1.2874729015    0.0048301576   -0.2038332830
C        0.5460641462   -1.0504694377    0.6958054398
C       -0.7978455047   -1.0337736006    0.6908348843
C       -1.5026102896   -0.0060897526   -0.1958504466
C       -0.7970903539    1.1169247548    0.0376215003
N        0.6629553167    1.0706424749    0.4911409264
H        2.3700349012   -0.1765054915   -0.1711730059
H        0.8656813658   -1.2597193174    1.7898215769
H       -1.1329168943   -1.4670050026    1.6452989007
H       -2.4803428171   -0.1988577813   -0.5913863080
H       -1.2249771449    2.1199646855    0.0676339908
C        1.1089659473    0.5438439827   -1.5823737952
H        1.0946084259    0.3362143282   -2.6735403807
13   
From optimize.out: Frame 3 / 28, Energy=    -286.6716566119
C        1.2997640751   -0.0000293003   -0.2220660190
C        0.5342687138   -1.0378038519    0.6862734423
C       -0.7982138686   -1.0179640392    0.6887832239
C       -1.5362621526   -0.0031180565   -0.2083957373
C       -0.8295191093    1.1029636568    0.0596210261
N        0.6554902532    1.0338954593    0.4990742832
H        2.3791258700   -0.1916734712   -0.1852011897
H        0.8142650883   -1.2398191633    1.8115657474
H       -1.0832221805   -1.4489880931    1.6637811074
H       -2.5129128497   -0.2080639973   -0.5926170608
H       -1.2633379151    2.1016457569    0.1379609747
C        1.1632318291    0.5496178226   -1.6185630018
H        1.1773222462    0.3593372771   -2.7202167963
13   
From optimize.out: Frame 2 / 28, Energy=    -286.6336623016
C        1.3092101246    0.0090504074   -0.2498082719
C        0.5293584557   -1.0355599736    0.6826735317
C       -0.7992862149   -1.0117530688    0.6768103206
C       -1.5728823958   -0.0075733086   -0.2133315728
C       -0.8585523378    1.0861979322    0.0800738273
N        0.6474754937    0.9959034293    0.5056255161
H        2.3888331149   -0.1931568843   -0.1911172147
H        0.7901098545   -1.2453793565    1.8155927390
H       -1.0387047339   -1.3999463887    1.6724517586
H       -2.5570821749   -0.2091380319   -0.5807400878
H       -1.2933145639    2.0854489726    0.1726317771
C        1.2000201644    0.5557834669   -1.6296150581
H        1.2548152134    0.3701228039   -2.7412472652
13   
From optimize.out: Frame 1 / 28, Energy=    -286.5875619395
C        1.3142087289    0.0355209703   -0.2909584859
C        0.5374495541   -1.0478685353    0.6904169857
C       -0.8014935018   -1.0196111848    0.6539428916
C       -1.6104301594   -0.0262081623   -0.2026860341
C       -0.8801547484    1.0668440475    0.0961948894
N        0.6378043915    0.9608462102    0.5088536418
H        2.3991304072   -0.1698244565   -0.1748884000
H        0.8228265093   -1.2815647712    1.7703184332
H       -1.0234061961   -1.3076264717    1.6675695328
H       -2.6199602720   -0.1971274294   -0.5460091105
H       -1.3039632078    2.0726504232    0.1478309263
C        1.2079493295    0.5578232940   -1.6079101781
H        1.3200391650    0.3561460660   -2.7126750921
13   
C5H5N+CH->C6H6N atoms 1-13 frame 194 charge -0.000 sz -1.000 sz^2 0.829
C        1.3191892019    0.0582049768   -0.3300603773
C        0.5480714339   -1.0582066870    0.6986247500
C       -0.8036563726   -1.0271257163    0.6339934684
C       -1.6427990165   -0.0469079374   -0.1888004903
C       -0.8986879956    1.0500289520    0.1091462659
N        0.6268752086    0.9319435919    0.5115204752
H        2.4068095730   -0.1412473408   -0.1518900697
H        0.8722725810   -1.3095909939    1.7063226055
H       -1.0346783884   -1.2252448208    1.6665610121
H       -2.6790035742   -0.1840364365   -0.5085276135
H       -1.3067235562    2.0609843897    0.1179612490
C        1.2137578858    0.5575177323   -1.5930278987
H        1.3785730194    0.3336802901   -2.6718233768
13   
C5H5N+CH->C6H6N atoms 1-13 frame 196 charge +0.000 sz -1.000 sz^2 0.626
C        1.3243721495    0.0778903807   -0.3670959338
C        0.5593862597   -1.0666601105    0.7040208251
C       -0.8061956823   -1.0346968916    0.6150282036
C       -1.6712263212   -0.0678342567   -0.1732683482
C       -0.9151084987    1.0353985607    0.1192989602
N        0.6142711178    0.9075267611    0.5143270603
H        2.4094301863   -0.1084251330   -0.1266264531
H        0.9357526029   -1.3342254769    1.6387598080
H       -1.0671027608   -1.1538458361    1.6684248138
H       -2.7306025201   -0.1698017045   -0.4682542250
H       -1.3033880093    2.0512529211    0.0858671872
C        1.2178339161    0.5571861727   -1.5857706177
H        1.4325775601    0.3062346130   -2.6247112804
13   
C5H5N+CH->C6H6N atoms 1-13 frame 197 charge +0.000 sz -1.000 sz^2 0.631
C        1.3294815013    0.0952474626   -0.4013894032
C        0.5693704991   -1.0733393768    0.7045634519
C       -0.8099981872   -1.0423796634    0.5963803859
C       -1.6974706586   -0.0876554247   -0.1564442983
C       -0.9306495793    1.0226989267    0.1270868579
N        0.5995564489    0.8862130673    0.5170922808
H        2.4052991424   -0.0730668882   -0.1013649449
H        1.0144032289   -1.3608764709    1.5804828584
H       -1.1154626879   -1.0924552948    1.6689005719
H       -2.7736768808   -0.1540077239   -0.4239340482
H       -1.2955746874    2.0440628857    0.0531822953
C        1.2195208024    0.5583274292   -1.5863394183
H        1.4852010583    0.2772310713   -2.5782165893
13   
C5H5N+CH->C6H6N atoms 1-13 frame 198 charge +0.000 sz -1.000 sz^2 0.896
C        1.3081532121    0.1122677535   -0.3916355165
C        0.5624052649   -1.0692394140    0.7032651796
C       -0.8145561550   -1.0679351079    0.6057333535
C       -1.6580066121   -0.0792243040   -0.1369613254
C       -0.9077821332    1.0420230124    0.1250697207
N        0.5852151583    0.9164424355    0.5394445666
H        2.3793223736   -0.0471711791   -0.0874997471
H        1.0418717846   -1.3680356452    1.5746094723
H       -1.1572369321   -1.1528209459    1.6642985954
H       -2.7232662516   -0.1376604649   -0.4180450501
H       -1.2648533649    2.0635318143    0.0205478794
C        1.1832117989    0.5545914356   -1.6107467264
H        1.4655218565    0.2332306097   -2.5880804020
13   
C5H5N+CH->C6H6N atoms 1-13 frame 199 charge -0.000 sz -1.000 sz^2 0.929
C        1.2828626386    0.1275494022   -0.3701963107
C        0.5560945271   -1.0592390221    0.6962318990
C       -0.8154903775   -1.0893992918    0.6136608009
C       -1.6099608452   -0.0623515466   -0.1185313054
C       -0.8799113191    1.0680054039    0.1236519016
N        0.5693600725    0.9553980178    0.5619201330
H        2.3519259687   -0.0205810161   -0.0745765167
H        1.0616877109   -1.3671243183    1.5671681830
H       -1.1901656870   -1.2312852224    1.6498244621
H       -2.6618819938   -0.1180792849   -0.4191772701
H       -1.2352866495    2.0871551315   -0.0071154891
C        1.1372125265    0.5417261250   -1.6309406221
H        1.4335534277    0.1682256218   -2.5919198656
13   
C5H5N+CH->C6H6N atoms 1-13 frame 200 charge +0.000 sz -1.000 sz^2 0.972
C        1.2589693131    0.1402834625   -0.3439522179
C        0.5546806142   -1.0439101060    0.6814065577
C       -0.8116157776   -1.1008977182    0.6126793566
C       -1.5669585681   -0.0411653919   -0.1020300540
C       -0.8550498496    1.0949548274    0.1252966619
N        0.5511450421    0.9932005060    0.5795946586
H        2.3274827280    0.0095353713   -0.0599179775
H        1.0859272647   -1.3608346640    1.5459033583
H       -1.2143668022   -1.3040455940    1.6230600860
H       -2.6085929806   -0.0941548395   -0.4194420911
H       -1.2126295132    2.1098763770   -0.0281671106
C        1.0875808493    0.5180009088   -1.6403776221
H        1.4034276798    0.0791568607   -2.5740536057
13   
C5H5N+CH->C6H6N atoms 1-13 frame 202 charge +0.000 sz -1.000 sz^2 0.683
C        1.2420192760    0.1517674036   -0.3188637672
C        0.5576426045   -1.0229307879    0.6605281832
C       -0.8057801255   -1.1023297376    0.6037468659
C       -1.5440358896   -0.0171146495   -0.0832822040
C       -0.8434021126    1.1251909077    0.1313235005
N        0.5372072073    1.0354438576    0.5872382340
H        2.3124174846    0.0430257308   -0.0472066655
H        1.1096856052   -1.3541228858    1.5149107062
H       -1.2263780713   -1.3722207120    1.5849172183
H       -2.5801481341   -0.0699798210   -0.4100747810
H       -1.2086443375    2.1349129680   -0.0373573025
C        1.0514858583    0.4803824148   -1.6492365283
H        1.3979306348   -0.0320246888   -2.5366434596
13   
C5H5N+CH->C6H6N atoms 1-13 frame 203 charge +0.000 sz -1.000 sz^2 0.674
C        1.2274926015    0.1634612347   -0.2961301740
C        0.5617187935   -1.0027726580    0.6399986508
C       -0.7992414647   -1.0993743505    0.5949762060
C       -1.5284721358    0.0073443203   -0.0638204620
C       -0.8374460879    1.1557638280    0.1365283760
N        0.5254502714    1.0787813239    0.5895441113
H        2.3003768033    0.0788240027   -0.0374242839
H        1.1320027916   -1.3528280448    1.4818123792
H       -1.2338954719   -1.4364210983    1.5444786224
H       -2.5606819524   -0.0467019294   -0.3967168211
H       -1.2118272602    2.1600168388   -0.0450272400
C        1.0220903619    0.4387922593   -1.6578770404
H        1.4024327497   -0.1448857268   -2.4903423241
13   
From optimize.out: Frame 1 / 54, Energy=    -286.5811491054
C        1.2151975099    0.1755204528   -0.2757779856
C        0.5667247415   -0.9837880031    0.6200948167
C       -0.7920787442   -1.0923454101    0.5867076182
C       -1.5196648577    0.0320849085   -0.0436677614
C       -0.8367750426    1.1865750184    0.1406911442
N        0.5157578801    1.1232751691    0.5865677569
H        2.2910770266    0.1169177411   -0.0305462550
H        1.1528139385   -1.3572663098    1.4468658336
H       -1.2373133593   -1.4966789302    1.5021247493
H       -2.5494983201   -0.0243806025   -0.3795220324
H       -1.2217023654    2.1850705008   -0.0516198563
C        0.9991548907    0.3936285369   -1.6663023843
H        1.4163067021   -0.2586130719   -2.4356156439
13   
From optimize.out: Frame 2 / 54, Energy=    -286.6297173087
C        1.2052026057    0.1911875388   -0.2603609799
C        0.5709496925   -0.9722323925    0.6048166510
C       -0.7848501625   -1.0814770932    0.5834637135
C       -1.5168838875    0.0556579166   -0.0219144057
C       -0.8411663430    1.2169928659    0.1401111669
N        0.5086215367    1.1730913393    0.5718615803
H        2.2838789558    0.1599261828   -0.0286153771
H        1.1695049262   -1.3779550353    1.4104706273
H       -1.2377391067   -1.5493014740    1.4603052608
H       -2.5467894867   -0.0048426905   -0.3553582670
H       -1.2397848198    2.2083874069   -0.0613052761
C        0.9871732529    0.3456135412   -1.6741944266
H        1.4418828365   -0.3650481059   -2.3692802672
13   
From optimize.out: Frame 3 / 54, Energy=    -286.6621245938
C        1.1946900606    0.2082264771   -0.2454218305
C        0.5750332069   -0.9655116044    0.5911853375
C       -0.7763575247   -1.0708206862    0.5808220407
C       -1.5120238157    0.0780183099   -0.0029654172
C       -0.8456408952    1.2476107164    0.1370809934
N        0.5024641635    1.2272011877    0.5511223579
H        2.2757561510    0.2025443304   -0.0274240400
H        1.1847484324   -1.4045663855    1.3734789222
H       -1.2368720358   -1.5938321092    1.4195326212
H       -2.5428916146    0.0127585062   -0.3315919995
H       -1.2613923029    2.2307795536   -0.0703913848
C        0.9765541696    0.2947677191   -1.6790263995
H        1.4659320049   -0.4671760151   -2.2964012012
13   
From optimize.out: Frame 5 / 54, Energy=    -286.7000759993
C        1.1836253259    0.2259919101   -0.2305807026
C        0.5791676032   -0.9623089468    0.5786336458
C       -0.7666907556   -1.0607026540    0.5781403403
C       -1.5050051437    0.0994265783    0.0136564157
C       -0.8495301373    1.2783379326    0.1322339906
N        0.4972532518    1.2840512667    0.5260831084
H        2.2668377042    0.2445702867   -0.0275381825
H        1.1987311686   -1.4345230553    1.3364890884
H       -1.2347428865   -1.6318643768    1.3791552848
H       -2.5373426622    0.0289572534   -0.3088988614
H       -1.2846993699    2.2523678748   -0.0795356726
C        0.9653874157    0.2412898539   -1.6807755831
H        1.4870084856   -0.5655939236   -2.2170628717
13   
From optimize.out: Frame 6 / 54, Energy=    -286.7113361270
C        1.1713248037    0.2426001302   -0.2144039867
C        0.5841778464   -0.9607883985    0.5659407722
C       -0.7550545465   -1.0529690250    0.5727916612
C       -1.4933794008    0.1199934520    0.0275792748
C       -0.8495635520    1.3089171872    0.1263305848
N        0.4937909627    1.3400847893    0.4994862375
H        2.2568592570    0.2846068137   -0.0325249067
H        1.2109623344   -1.4607399807    1.3019136395
H       -1.2302312013   -1.6634113923    1.3369380872
H       -2.5266533680    0.0445232681   -0.2910588005
H       -1.3040274458    2.2728470772   -0.0914443458
C        0.9454372604    0.1833858225   -1.6763110823
H        1.4963570500   -0.6590497435   -2.1252371351
13   
From optimize.out: Frame 7 / 54, Energy=    -286.7214160013
C        1.1600744187    0.2583129288   -0.1979933549
C        0.5901458762   -0.9568025460    0.5547915473
C       -0.7442757261   -1.0451489711    0.5668331050
C       -1.4810996483    0.1391154743    0.0411796685
C       -0.8467961358    1.3385074618    0.1195406968
N        0.4910282337    1.3939844944    0.4690260814
H        2.2475698105    0.3230325649   -0.0400301240
H        1.2236526354   -1.4835204737    1.2685327170
H       -1.2277466959   -1.6933939756    1.2912152815
H       -2.5154675796    0.0594291772   -0.2733980603
H       -1.3211575396    2.2921035524   -0.1022711496
C        0.9224683158    0.1222096662   -1.6683790111
H        1.5016040348   -0.7478293536   -2.0290473978
13   
From optimize.out: Frame 8 / 54, Energy=    -286.7318495863
C        1.1497401233    0.2732446044   -0.1813786660
C        0.5969494336   -0.9506660796    0.5449889280
C       -0.7342448507   -1.0372535241    0.5603425212
C       -1.4682493688    0.1569770770    0.0544987587
C       -0.8415854081    1.3672349972    0.1119774841
N        0.4888757678    1.4460227589    0.4351957796
H        2.2388814154    0.3600531521   -0.0497323546
H        1.2367434642   -1.5033031870    1.2361938426
H       -1.2270306056   -1.7220118227    1.2424343505
H       -2.5038486731    0.0737592418   -0.2558937511
H       -1.3363702185    2.3102933787   -0.1121541819
C        0.8968659234    0.0581790642   -1.6574219968
H        1.5032729972   -0.8325296611   -1.9290507143
13   
From optimize.out: Frame 9 / 54, Energy=    -286.7409247229
C        1.1433700580    0.2882358269   -0.1764658519
C        0.6028110100   -0.9349794099    0.5396616162
C       -0.7324693814   -1.0210758645    0.5661223965
C       -1.4714861872    0.1729069566    0.0751962105
C       -0.8494563569    1.3897341249    0.1009800430
N        0.4782029862    1.4843933362    0.3864876677
H        2.2312407586    0.3932166004   -0.0548132182
H        1.2554713735   -1.5202324764    1.1934522602
H       -1.2342778039   -1.7509248605    1.1903547132
H       -2.5111187175    0.0858074683   -0.2182437539
H       -1.3657106658    2.3252886274   -0.1074520561