
Running Job 1 of 1 optimize.in
qchem optimize.in_31807.0 ./optimize.d/ 1
/home/leeping/opt/qchem/5.0.2-openmp/exe/qcprog.exe_s optimize.in_31807.0 ./optimize.d/
Check license passed

                  Welcome to Q-Chem
     A Quantum Leap Into The Future Of Chemistry


 Q-Chem 5.0, Q-Chem, Inc., Pleasanton, CA (2017)

 Yihan Shao,  Zhengting Gan,  E. Epifanovsky,  A. T. B. Gilbert,  M. Wormit,  
 J. Kussmann,  A. W. Lange,  A. Behn,  Jia Deng,  Xintian Feng,  D. Ghosh,  
 M. Goldey,  P. R. Horn,  L. D. Jacobson,  I. Kaliman,  T. Kus,  A. Landau,  
 Jie Liu,  E. I. Proynov,  R. M. Richard,  R. P. Steele,  E. J. Sundstrom,  
 H. L. Woodcock III,  P. M. Zimmerman,  D. Zuev,  B. Albrecht,  E. Alguire,  
 S. A. Baeppler,  D. Barton,  Z. Benda,  Y. A. Bernard,  E. J. Berquist,  
 K. B. Bravaya,  H. Burton,  D. Casanova,  Chun-Min Chang,  Yunqing Chen,  
 A. Chien,  K. D. Closser,  M. P. Coons,  S. Dasgupta,  A. L. Dempwolff,  
 M. Diedenhofen,  Hainam Do,  R. G. Edgar,  Po-Tung Fang,  S. Fatehi,  
 Qingguo Feng,  J. Fosso-Tande,  Qinghui Ge,  A. Ghysels,  G. Gidofalvi,  
 J. Gomes,  J. Gonthier,  A. Gunina,  M. W. D. Hanson-Heine,  
 P. H. P. Harbach,  A. W. Hauser,  J. E. Herr,  E. G. Hohenstein,  
 Z. C. Holden,  Kerwin Hui,  T.-C. Jagau,  Hyunjun Ji,  B. Kaduk,  
 K. Khistyaev,  Jaehoon Kim,  P. Klunzinger,  K. Koh,  D. Kosenkov,  
 L. Koulias,  T. Kowalczyk,  C. M. Krauter,  A. Kunitsa,  Ka Un Lao,  
 A. Laurent,  K. V. Lawler,  Joonho Lee,  D. Lefrancois,  S. Lehtola,  
 D. S. Levine,  Yi-Pei Li,  You-Sheng Lin,  Fenglai Liu,  E. Livshits,  
 A. Luenser,  P. Manohar,  E. Mansoor,  S. F. Manzer,  Shan-Ping Mao,  
 Yuezhi Mao,  N. Mardirossian,  A. V. Marenich,  T. Markovich,  
 L. A. Martinez-Martinez,  S. A. Maurer,  N. J. Mayhall,  S. C. McKenzie,  
 J.-M. Mewes,  A. F. Morrison,  J. W. Mullinax,  K. Nanda,  
 T. S. Nguyen-Beck,  R. Olivares-Amaya,  J. A. Parkhill,  T. M. Perrine,  
 F. Plasser,  S. Prager,  A. Prociuk,  E. Ramos,  D. R. Rehn,  F. Rob,  
 M. Schneider,  N. Sergueev,  S. M. Sharada,  S. Sharma,  D. W. Small,  
 T. Stauch,  T. Stein,  Yu-Chuan Su,  A. J. W. Thom,  A. Tkatchenko,  
 T. Tsuchimochi,  L. Vogt,  O. Vydrov,  M. A. Watson,  J. Wenzel,  
 M. de Wergifosse,  T. A. Wesolowski,  A. White,  J. Witte,  A. Yamada,  
 Jun Yang,  K. Yao,  S. Yeganeh,  S. R. Yost,  Zhi-Qiang You,  A. Zech,  
 Igor Ying Zhang,  Xing Zhang,  Yan Zhao,  Ying Zhu,  B. R. Brooks,  
 G. K. L. Chan,  C. J. Cramer,  M. S. Gordon,  W. J. Hehre,  A. Klamt,  
 M. W. Schmidt,  C. D. Sherrill,  D. G. Truhlar,  A. Aspuru-Guzik,  R. Baer,  
 A. T. Bell,  N. A. Besley,  Jeng-Da Chai,  R. A. DiStasio Jr.,  A. Dreuw,  
 B. D. Dunietz,  T. R. Furlani,  Chao-Ping Hsu,  Yousung Jung,  Jing Kong,  
 D. S. Lambrecht,  WanZhen Liang,  C. Ochsenfeld,  V. A. Rassolov,  
 L. V. Slipchenko,  J. E. Subotnik,  T. Van Voorhis,  J. M. Herbert,  
 A. I. Krylov,  P. M. W. Gill,  M. Head-Gordon

 Contributors to earlier versions of Q-Chem not listed above: 
 R. D. Adamson,  B. Austin,  J. Baker,  G. J. O. Beran,  K. Brandhorst,  
 S. T. Brown,  E. F. C. Byrd,  A. K. Chakraborty,  C.-L. Cheng,  
 Siu Hung Chien,  D. M. Chipman,  D. L. Crittenden,  H. Dachsel,  
 R. J. Doerksen,  A. D. Dutoi,  L. Fusti-Molnar,  W. A. Goddard III,  
 A. Golubeva-Zadorozhnaya,  S. R. Gwaltney,  G. Hawkins,  A. Heyden,  
 S. Hirata,  G. Kedziora,  F. J. Keil,  C. Kelley,  Jihan Kim,  R. A. King,  
 R. Z. Khaliullin,  P. P. Korambath,  W. Kurlancheek,  A. M. Lee,  M. S. Lee,  
 S. V. Levchenko,  Ching Yeh Lin,  D. Liotard,  R. C. Lochan,  I. Lotan,  
 P. E. Maslen,  N. Nair,  D. P. O'Neill,  D. Neuhauser,  E. Neuscamman,  
 C. M. Oana,  R. Olson,  B. Peters,  R. Peverati,  P. A. Pieniazek,  
 Y. M. Rhee,  J. Ritchie,  M. A. Rohrdanz,  E. Rosta,  N. J. Russ,  
 H. F. Schaefer III,  N. E. Schultz,  N. Shenvi,  A. C. Simmonett,  A. Sodt,  
 D. Stuck,  K. S. Thanthiriwatte,  V. Vanovschi,  Tao Wang,  A. Warshel,  
 C. F. Williams,  Q. Wu,  X. Xu,  W. Zhang

 Please cite Q-Chem as follows:
 Y. Shao et al., Mol. Phys. 113, 184-215 (2015)
 DOI: 10.1080/00268976.2014.952696

 Q-Chem 5.0.2 for Intel X86 EM64T Linux

 Parts of Q-Chem use Armadillo 5.200.1 (Boston Tea Smuggler).
 http://arma.sourceforge.net/

 Q-Chem begins on Tue Mar  1 11:35:41 2022  

Host: 
0

     Scratch files written to ./optimize.d//
 Dec517 15110_ 26548  26544 5633   
Processing $rem in /home/leeping/opt/qchem/5.0.2-openmp/config/preferences.
 MEM_STATIC 2000
 MEM_TOTAL  8000
 SYMMETRY   OFF
 SYM_IGNORE TRUE 

Checking the input file for inconsistencies... 	...done.

--------------------------------------------------------------
User input:
--------------------------------------------------------------
$molecule
0 2
C        1.4090609578    0.1151334842   -0.7732763413
C        0.5190307498   -1.1372887726   -1.0123533554
C       -0.8987606479   -0.6331430171   -2.0919285003
C       -1.2955713485   -0.1056761840   -0.3864921887
C       -0.7211027643    0.7873538797   -1.5798674164
N        0.8959485932    1.2665150460   -1.4341122921
H        2.1062818758    0.0363339826    0.0465336203
H        0.7968202176   -2.1881787403   -0.9634699251
H       -1.6234774409   -1.0697542412   -2.9591726869
H       -2.3043495700    0.0055975375    0.0300093673
H       -1.3979260839    1.6494675281   -1.7078640879
C        0.0642760745   -0.3857264891    0.3246937073
H        0.6669639522   -0.4587339248    1.2775048002
$end

$rem
method                b3lyp
basis                 6-31g(d)
unrestricted          true
symmetry              off
sym_ignore            true
incdft                false
incfock               0
scf_convergence       8
thresh                14
jobtype               opt
scf_guess             read
scf_algorithm         diis
max_scf_cycles        100
geom_opt_tol_gradient 600
geom_opt_tol_displacement 2400
geom_opt_tol_energy   200
geom_opt_max_cycles   100
$end

--------------------------------------------------------------
 ----------------------------------------------------------------
             Standard Nuclear Orientation (Angstroms)
    I     Atom           X                Y                Z
 ----------------------------------------------------------------
    1      C       1.4090609578     0.1151334842    -0.7732763413
    2      C       0.5190307498    -1.1372887726    -1.0123533554
    3      C      -0.8987606479    -0.6331430171    -2.0919285003
    4      C      -1.2955713485    -0.1056761840    -0.3864921887
    5      C      -0.7211027643     0.7873538797    -1.5798674164
    6      N       0.8959485932     1.2665150460    -1.4341122921
    7      H       2.1062818758     0.0363339826     0.0465336203
    8      H       0.7968202176    -2.1881787403    -0.9634699251
    9      H      -1.6234774409    -1.0697542412    -2.9591726869
   10      H      -2.3043495700     0.0055975375     0.0300093673
   11      H      -1.3979260839     1.6494675281    -1.7078640879
   12      C       0.0642760745    -0.3857264891     0.3246937073
   13      H       0.6669639522    -0.4587339248     1.2775048002
 ----------------------------------------------------------------
 Nuclear Repulsion Energy =   269.3716539587 hartrees
 There are       25 alpha and       24 beta electrons
 Requested basis set is 6-31G(d)
 There are 40 shells and 117 basis functions

 Total QAlloc Memory Limit   8000 MB
 Mega-Array Size      1956 MB
 MEM_STATIC part      2000 MB
 A cutoff of  1.0D-14 yielded    810 shell pairs
 There are      7082 function pairs
 
 -------------------------------------------------------
 OpenMP Integral Computing Module                       
 Release: version 1.0, May 2013, Q-Chem Inc. Pittsburgh 
 -------------------------------------------------------
 Integral Job Info:
 Integral job number is                      11
 Integral operator is                         1
 short-range coefficients                     0
 long-range coefficients              100000000
 Omega coefficients                           0
 if combine SR and LR in K                    0
 Integral screening is                        0
 Integral computing path is                   2
 max size of driver memory is            800000
 size of driver memory is                593474
 size of scratch memory is              2361544
 max col of scratch BK array               1296
 max len of scratch array in speh3          155
 max len of scratch index in speh4           18
 max int batch size is                      520
 min int batch size is                       52
 fixed nKL is                                52
 max L of basis functions is                  2
 order of int derivative is                   0
 number of shells is                         40
 number of basis is                         117
 number of cartesian basis is               117
 number of contracted shell pairs           810
 number of primitive shell pairs           3551
 maxK2 (contraction) of shell pair           36
 max number of K2 of shell pair               1
 max number of CS2 of shell pair             84
 max number of PS2 of shell pair            420
 mem total for path MDJ                  535308
 -------------------------------------------------------
 Smallest overlap matrix eigenvalue = 2.32E-03

 Scale SEOQF with 1.000000e-01/1.000000e-01/1.000000e-01

 Standard Electronic Orientation quadrupole field applied
 Nucleus-field energy     =    -0.0000000043 hartrees
 Guess MOs from SCF MO coefficient file
 Reading MOs from coefficient file
 Reading MOs from coefficient file
 An unrestricted hybrid HF-DFT SCF calculation will be
 performed using Pulay DIIS extrapolation
 Exchange:     0.2000 Hartree-Fock + 0.0800 Slater + 0.7200 B88
 Correlation:  0.1900 VWN1RPA + 0.8100 LYP
 Using SG-1 standard quadrature grid
 SCF converges when DIIS error is below 1.0E-08
Using Q-Chem read-in guess as SCF_GUESS READ specified.

 using 4 threads for integral computing
 -------------------------------------------------------
 OpenMP Integral computing Module                
 Release: version 1.0, May 2013, Q-Chem Inc. Pittsburgh 
 -------------------------------------------------------
 -------------------------------------------------------
 OpenMP BLAS3 based DFT computing Module                
 Release: version 1.0, May 2013, Q-Chem Inc. Pittsburgh 
 -------------------------------------------------------
 ---------------------------------------
  Cycle       Energy         DIIS Error
 ---------------------------------------
    1    -286.6473065449      1.25E-09
    2    -286.6473065449      1.71E-09 Convergence criterion met
 ---------------------------------------
 <S^2> = 0.7725
 SCF time:  CPU 5.26 s  wall 5.89 s
 SCF   energy in the final basis set = -286.64730654
 Total energy in the final basis set = -286.64730654
 
 --------------------------------------------------------------
 
                    Orbital Energies (a.u.)
 --------------------------------------------------------------
 
 Alpha MOs
 -- Occupied --
-14.346 -10.250 -10.243 -10.237 -10.234 -10.234 -10.231  -0.914
 -0.795  -0.757  -0.640  -0.576  -0.557  -0.544  -0.512  -0.442
 -0.424  -0.386  -0.363  -0.360  -0.328  -0.304  -0.256  -0.220
 -0.190
 -- Virtual --
  0.017   0.023   0.040   0.079   0.093   0.116   0.140   0.147
  0.157   0.173   0.180   0.190   0.254   0.272   0.293   0.313
  0.482   0.505   0.519   0.536   0.539   0.552   0.581   0.601
  0.611   0.641   0.667   0.684   0.690   0.702   0.756   0.774
  0.784   0.796   0.810   0.826   0.861   0.878   0.901   0.930
  0.962   0.983   1.058   1.099   1.147   1.204   1.254   1.344
  1.383   1.464   1.492   1.530   1.559   1.617   1.645   1.661
  1.730   1.742   1.780   1.814   1.840   1.870   1.926   1.939
  1.983   2.027   2.069   2.095   2.152   2.213   2.290   2.346
  2.369   2.395   2.406   2.506   2.520   2.551   2.573   2.591
  2.616   2.657   2.700   2.749   2.831   3.756   4.112   4.215
  4.293   4.425   4.487   4.529
 
 Beta MOs
 -- Occupied --
-14.331 -10.250 -10.243 -10.239 -10.235 -10.234 -10.225  -0.903
 -0.781  -0.745  -0.635  -0.572  -0.556  -0.539  -0.507  -0.440
 -0.420  -0.380  -0.354  -0.347  -0.322  -0.292  -0.237  -0.197
 -- Virtual --
 -0.071   0.019   0.024   0.053   0.083   0.100   0.118   0.144
  0.150   0.162   0.175   0.182   0.195   0.258   0.275   0.298
  0.318   0.486   0.507   0.520   0.535   0.542   0.559   0.587
  0.605   0.616   0.647   0.670   0.688   0.694   0.713   0.758
  0.778   0.800   0.804   0.813   0.828   0.865   0.886   0.906
  0.933   0.965   0.998   1.063   1.103   1.152   1.208   1.257
  1.347   1.390   1.471   1.506   1.537   1.565   1.631   1.653
  1.665   1.734   1.745   1.792   1.822   1.847   1.876   1.938
  1.949   1.998   2.035   2.076   2.098   2.158   2.217   2.298
  2.357   2.373   2.401   2.422   2.509   2.525   2.552   2.584
  2.595   2.625   2.662   2.707   2.753   2.836   3.780   4.119
  4.220   4.292   4.426   4.488   4.534
 --------------------------------------------------------------
 
          Ground-State Mulliken Net Atomic Charges

     Atom                 Charge (a.u.)    Spin (a.u.)
  --------------------------------------------------------
      1 C                     0.028981      -0.139502
      2 C                    -0.187717       0.007166
      3 C                    -0.121696       0.047760
      4 C                    -0.162939      -0.040886
      5 C                    -0.067699      -0.014888
      6 N                    -0.326795       0.768664
      7 H                     0.169934       0.006525
      8 H                     0.156527       0.014129
      9 H                     0.167582      -0.003596
     10 H                     0.156024       0.000137
     11 H                     0.152672       0.001212
     12 C                    -0.137814       0.369640
     13 H                     0.172941      -0.016362
  --------------------------------------------------------
  Sum of atomic charges =    -0.000000
  Sum of spin   charges =     1.000000

 -----------------------------------------------------------------
                    Cartesian Multipole Moments
 -----------------------------------------------------------------
    Charge (ESU x 10^10)
                 0.0000
    Dipole Moment (Debye)
         X      -1.2533      Y      -2.0233      Z       1.2625
       Tot       2.6942
    Quadrupole Moments (Debye-Ang)
        XX     -37.9423     XY      -3.6708     YY     -44.2908
        XZ       5.6613     YZ       3.4191     ZZ     -41.4711
    Octopole Moments (Debye-Ang^2)
       XXX      -1.3401    XXY       0.3454    XYY      -3.0420
       YYY      -3.2654    XXZ      40.5803    XYZ       2.8544
       YYZ      42.5646    XZZ     -10.2199    YZZ      -6.4240
       ZZZ     119.9768
    Hexadecapole Moments (Debye-Ang^3)
      XXXX    -280.1766   XXXY     -12.4303   XXYY     -88.4524
      XYYY     -25.6110   YYYY    -215.4680   XXXZ     -12.4709
      XXYZ       8.2027   XYYZ       2.4510   YYYZ      21.3380
      XXZZ    -115.3879   XYZZ      -2.4136   YYZZ    -114.5170
      XZZZ       8.8180   YZZZ      29.6709   ZZZZ    -435.9494
 -----------------------------------------------------------------
 Calculating analytic gradient of the SCF energy
 Gradient of SCF Energy
            1           2           3           4           5           6
    1   0.0890497   0.0049534  -0.0123411  -0.0508510  -0.0006583   0.0340936
    2  -0.0035518  -0.0191069  -0.0170291  -0.0279597  -0.0003408   0.0373584
    3   0.0213660  -0.0165779  -0.0841326   0.0394065  -0.0080694  -0.0233286
            7           8           9          10          11          12
    1  -0.0271509  -0.0064966  -0.0440297  -0.0095739  -0.0115833  -0.0044074
    2  -0.0102542  -0.0026192  -0.0140676  -0.0072232   0.0071904   0.0487976
    3   0.0175018   0.0061923  -0.0460528   0.0027463   0.0190341   0.0586622
           13
    1   0.0389956
    2   0.0088062
    3   0.0132524
 Max gradient component =       8.905E-02
 RMS gradient           =       3.141E-02
 Gradient time:  CPU 7.92 s  wall 2.81 s
 Geometry Optimization Parameters
   NAtoms,    NIC,     NZ,  NCons,   NDum,   NFix, NCnnct, MaxDiis
       13     151       0       0       0       0       0       0


** GEOMETRY OPTIMIZATION IN DELOCALIZED INTERNAL COORDINATES **
   Searching for a Minimum

   Optimization Cycle:   1

                       Coordinates (Angstroms)
     ATOM                X               Y               Z
      1  C         1.4090609578    0.1151334842   -0.7732763413
      2  C         0.5190307498   -1.1372887726   -1.0123533554
      3  C        -0.8987606479   -0.6331430171   -2.0919285003
      4  C        -1.2955713485   -0.1056761840   -0.3864921887
      5  C        -0.7211027643    0.7873538797   -1.5798674164
      6  N         0.8959485932    1.2665150460   -1.4341122921
      7  H         2.1062818758    0.0363339826    0.0465336203
      8  H         0.7968202176   -2.1881787403   -0.9634699251
      9  H        -1.6234774409   -1.0697542412   -2.9591726869
     10  H        -2.3043495700    0.0055975375    0.0300093673
     11  H        -1.3979260839    1.6494675281   -1.7078640879
     12  C         0.0642760745   -0.3857264891    0.3246937073
     13  H         0.6669639522   -0.4587339248    1.2775048002
   Point Group: c1    Number of degrees of freedom:    33


   Energy is   -286.647306545


 Attempting to Generate Delocalized Internal Coordinates

 33 Hessian modes will be used to form the next step
  Hessian Eigenvalues:
     0.005157    0.009516    0.010495    0.013299    0.017061    0.019792
     0.022104    0.025945    0.053993    0.056392    0.059876    0.063753
     0.087102    0.088595    0.095015    0.102323    0.111316    0.113056
     0.127200    0.140802    0.164964    0.180007    0.190126    0.208043
     0.231539    0.238381    0.241489    0.305920    0.332980    0.340120
     0.350350    0.361056    0.368081

 Minimum Search - Taking Simple RFO Step
 Searching for Lamda that Minimizes Along All modes
 Value Taken    Lamda =  -0.10555916
 Calculated Step too Large.  Step scaled by  0.439644
 Step Taken.  Stepsize is  0.300000

                             Maximum     Tolerance    Cnvgd?
         Gradient           0.076040      0.000600      NO
         Displacement       0.138774      0.002400      NO
         Energy change     *********      0.000002      NO


 New Cartesian Coordinates Obtained by Inverse Iteration

 Displacement from previous Coordinates is:  0.311318
 ----------------------------------------------------------------
             Standard Nuclear Orientation (Angstroms)
    I     Atom           X                Y                Z
 ----------------------------------------------------------------
    1      C       1.3753445599     0.1159312559    -0.7895789821
    2      C       0.5119968490    -1.1334676847    -1.0115224286
    3      C      -0.8731413346    -0.6260396081    -2.0412317818
    4      C      -1.2806043245    -0.0937684293    -0.3904485741
    5      C      -0.7143774769     0.7912501617    -1.5685945757
    6      N       0.8590073777     1.2586107504    -1.4300578691
    7      H       2.1113379884     0.0514449586    -0.0006890100
    8      H       0.7972492190    -2.1823258712    -0.9770889111
    9      H      -1.5605051763    -1.0631754421    -2.8783612094
   10      H      -2.2871207689     0.0249965792     0.0168523185
   11      H      -1.3846909403     1.6462705421    -1.7268469741
   12      C       0.0482221298    -0.4092078719     0.3074527085
   13      H       0.6144764632    -0.4986192516     1.2603199900
 ----------------------------------------------------------------
 Nuclear Repulsion Energy =   273.3618144184 hartrees
 There are       25 alpha and       24 beta electrons
 Applying Cartesian multipole field
    Component          Value
    ---------          -----
     (2,0,0)        1.00000E-11
     (0,2,0)        2.00000E-11
     (0,0,2)       -3.00000E-11
 Nucleus-field energy     =    -0.0000000042 hartrees
 Requested basis set is 6-31G(d)
 There are 40 shells and 117 basis functions
 A cutoff of  1.0D-14 yielded    812 shell pairs
 There are      7084 function pairs
 Smallest overlap matrix eigenvalue = 1.89E-03
 Guess MOs from SCF MO coefficient file
 Reading MOs from coefficient file
 Reading MOs from coefficient file
 An unrestricted hybrid HF-DFT SCF calculation will be
 performed using Pulay DIIS extrapolation
 Exchange:     0.2000 Hartree-Fock + 0.0800 Slater + 0.7200 B88
 Correlation:  0.1900 VWN1RPA + 0.8100 LYP
 Using SG-1 standard quadrature grid
 SCF converges when DIIS error is below 1.0E-08
 Geometry optimization detected.  Setting ReadMinima to 0
 Setting SaveMinima to 0
Using Q-Chem read-in guess as SCF_GUESS READ specified.

 using 4 threads for integral computing
 -------------------------------------------------------
 OpenMP Integral computing Module                
 Release: version 1.0, May 2013, Q-Chem Inc. Pittsburgh 
 -------------------------------------------------------
 -------------------------------------------------------
 OpenMP BLAS3 based DFT computing Module                
 Release: version 1.0, May 2013, Q-Chem Inc. Pittsburgh 
 -------------------------------------------------------
 ---------------------------------------
  Cycle       Energy         DIIS Error
 ---------------------------------------
    1    -286.7838511048      2.14E-03
    2    -286.6889936488      8.96E-04
    3    -286.6883015002      1.12E-03
    4    -286.6904460561      2.76E-04
    5    -286.6905798995      6.27E-05
    6    -286.6905860103      3.23E-05
    7    -286.6905880160      7.81E-06
    8    -286.6905881719      3.13E-06
    9    -286.6905882205      1.29E-06
   10    -286.6905882432      6.70E-07
   11    -286.6905882485      4.17E-07
   12    -286.6905882505      1.75E-07
   13    -286.6905882508      6.27E-08
   14    -286.6905882509      2.52E-08
   15    -286.6905882509      5.50E-09 Convergence criterion met
 ---------------------------------------
 <S^2> = 0.7713
 SCF time:  CPU 39.45 s  wall 35.61 s
 SCF   energy in the final basis set = -286.69058825
 Total energy in the final basis set = -286.69058825
 
 --------------------------------------------------------------
 
                    Orbital Energies (a.u.)
 --------------------------------------------------------------
 
 Alpha MOs
 -- Occupied --
-14.341 -10.241 -10.237 -10.234 -10.229 -10.228 -10.226  -0.927
 -0.803  -0.764  -0.646  -0.575  -0.562  -0.546  -0.519  -0.446
 -0.429  -0.389  -0.369  -0.366  -0.334  -0.304  -0.258  -0.221
 -0.191
 -- Virtual --
  0.028   0.043   0.053   0.086   0.106   0.123   0.147   0.154
  0.166   0.180   0.182   0.203   0.260   0.282   0.303   0.329
  0.481   0.506   0.521   0.538   0.543   0.550   0.584   0.601
  0.611   0.646   0.667   0.692   0.697   0.707   0.770   0.779
  0.783   0.797   0.813   0.828   0.862   0.876   0.908   0.931
  0.967   0.987   1.073   1.100   1.154   1.211   1.268   1.371
  1.395   1.473   1.500   1.555   1.577   1.627   1.662   1.678
  1.733   1.765   1.788   1.838   1.855   1.896   1.945   1.967
  2.003   2.049   2.097   2.115   2.161   2.253   2.326   2.361
  2.405   2.424   2.427   2.525   2.554   2.557   2.602   2.622
  2.635   2.672   2.730   2.775   2.858   3.784   4.132   4.236
  4.311   4.441   4.509   4.567
 
 Beta MOs
 -- Occupied --
-14.327 -10.240 -10.237 -10.236 -10.229 -10.229 -10.220  -0.917
 -0.788  -0.753  -0.640  -0.570  -0.560  -0.540  -0.514  -0.443
 -0.424  -0.383  -0.360  -0.353  -0.327  -0.292  -0.240  -0.200
 -- Virtual --
 -0.073   0.031   0.045   0.065   0.090   0.111   0.126   0.149
  0.158   0.172   0.183   0.184   0.208   0.263   0.285   0.308
  0.334   0.484   0.510   0.523   0.537   0.546   0.557   0.591
  0.603   0.617   0.653   0.670   0.695   0.702   0.719   0.772
  0.784   0.800   0.804   0.815   0.831   0.866   0.883   0.913
  0.934   0.971   1.000   1.078   1.105   1.159   1.216   1.271
  1.375   1.401   1.481   1.513   1.563   1.581   1.642   1.668
  1.685   1.738   1.769   1.798   1.847   1.862   1.902   1.954
  1.976   2.018   2.057   2.102   2.121   2.168   2.257   2.335
  2.374   2.410   2.429   2.443   2.527   2.558   2.561   2.614
  2.624   2.643   2.678   2.735   2.779   2.863   3.807   4.139
  4.241   4.310   4.443   4.510   4.571
 --------------------------------------------------------------
 
          Ground-State Mulliken Net Atomic Charges

     Atom                 Charge (a.u.)    Spin (a.u.)
  --------------------------------------------------------
      1 C                     0.032385      -0.139148
      2 C                    -0.194815       0.008756
      3 C                    -0.113544       0.049545
      4 C                    -0.155082      -0.035815
      5 C                    -0.072899      -0.012557
      6 N                    -0.328943       0.748738
      7 H                     0.166406       0.006333
      8 H                     0.155103       0.015001
      9 H                     0.164080      -0.003361
     10 H                     0.153695       0.000149
     11 H                     0.152270       0.001212
     12 C                    -0.128773       0.378050
     13 H                     0.170117      -0.016902
  --------------------------------------------------------
  Sum of atomic charges =    -0.000000
  Sum of spin   charges =     1.000000

 -----------------------------------------------------------------
                    Cartesian Multipole Moments
 -----------------------------------------------------------------
    Charge (ESU x 10^10)
                -0.0000
    Dipole Moment (Debye)
         X      -1.2168      Y      -2.0473      Z       1.2260
       Tot       2.6787
    Quadrupole Moments (Debye-Ang)
        XX     -38.0013     XY      -3.6736     YY     -44.0026
        XZ       5.2813     YZ       3.3222     ZZ     -41.3950
    Octopole Moments (Debye-Ang^2)
       XXX      -0.2426    XXY       0.5646    XYY      -2.8015
       YYY      -3.3603    XXZ      40.3780    XYZ       3.0702
       YYZ      42.1305    XZZ      -9.0869    YZZ      -6.1144
       ZZZ     119.6984
    Hexadecapole Moments (Debye-Ang^3)
      XXXX    -270.0806   XXXY     -11.1171   XXYY     -86.2151
      XYYY     -23.6308   YYYY    -213.7777   XXXZ     -11.7750
      XXYZ       7.7509   XYYZ       2.8913   YYYZ      22.3952
      XXZZ    -113.6398   XYZZ      -3.1706   YYZZ    -111.8835
      XZZZ       6.8320   YZZZ      28.9775   ZZZZ    -427.0916
 -----------------------------------------------------------------
 Calculating analytic gradient of the SCF energy
 Gradient of SCF Energy
            1           2           3           4           5           6
    1   0.0715229   0.0108060  -0.0133069  -0.0391539  -0.0074513   0.0336709
    2  -0.0042030  -0.0132884  -0.0102450  -0.0250044  -0.0108424   0.0324250
    3   0.0116409  -0.0094145  -0.0837435   0.0391509  -0.0061187  -0.0212170
            7           8           9          10          11          12
    1  -0.0238758  -0.0075935  -0.0340199  -0.0069032  -0.0082139  -0.0070361
    2  -0.0096229  -0.0024428  -0.0092289  -0.0067305   0.0063803   0.0460079
    3   0.0175928   0.0064398  -0.0350648   0.0011693   0.0185860   0.0537662
           13
    1   0.0315548
    2   0.0067951
    3   0.0072127
 Max gradient component =       8.374E-02
 RMS gradient           =       2.761E-02
 Gradient time:  CPU 7.65 s  wall 2.46 s
 Geometry Optimization Parameters
   NAtoms,    NIC,     NZ,  NCons,   NDum,   NFix, NCnnct, MaxDiis
       13     151       0       0       0       0       0       0

 Cartesian Hessian Update
 Hessian Updated using BFGS Update


** GEOMETRY OPTIMIZATION IN DELOCALIZED INTERNAL COORDINATES **
   Searching for a Minimum

   Optimization Cycle:   2

                       Coordinates (Angstroms)
     ATOM                X               Y               Z
      1  C         1.3753445599    0.1159312559   -0.7895789821
      2  C         0.5119968490   -1.1334676847   -1.0115224286
      3  C        -0.8731413346   -0.6260396081   -2.0412317818
      4  C        -1.2806043245   -0.0937684293   -0.3904485741
      5  C        -0.7143774769    0.7912501617   -1.5685945757
      6  N         0.8590073777    1.2586107504   -1.4300578691
      7  H         2.1113379884    0.0514449586   -0.0006890100
      8  H         0.7972492190   -2.1823258712   -0.9770889111
      9  H        -1.5605051763   -1.0631754421   -2.8783612094
     10  H        -2.2871207689    0.0249965792    0.0168523185
     11  H        -1.3846909403    1.6462705421   -1.7268469741
     12  C         0.0482221298   -0.4092078719    0.3074527085
     13  H         0.6144764632   -0.4986192516    1.2603199900
   Point Group: c1    Number of degrees of freedom:    33


   Energy is   -286.690588251

 Hessian Updated using BFGS Update

 33 Hessian modes will be used to form the next step
  Hessian Eigenvalues:
     0.005177    0.009459    0.010432    0.013221    0.016681    0.019630
     0.022092    0.026076    0.053076    0.056083    0.059173    0.063731
     0.070475    0.087287    0.088742    0.098507    0.105968    0.111345
     0.121296    0.134323    0.153465    0.180048    0.189871    0.207729
     0.232593    0.239225    0.264785    0.314231    0.333856    0.341340
     0.350425    0.360968    0.365365

 Minimum Search - Taking Simple RFO Step
 Searching for Lamda that Minimizes Along All modes
 Value Taken    Lamda =  -0.10556168
 Calculated Step too Large.  Step scaled by  0.377002
 Step Taken.  Stepsize is  0.300000

                             Maximum     Tolerance    Cnvgd?
         Gradient           0.057638      0.000600      NO
         Displacement       0.131842      0.002400      NO
         Energy change     -0.043282      0.000002      NO


 New Cartesian Coordinates Obtained by Inverse Iteration

 Displacement from previous Coordinates is:  0.303943
 ----------------------------------------------------------------
             Standard Nuclear Orientation (Angstroms)
    I     Atom           X                Y                Z
 ----------------------------------------------------------------
    1      C       1.3451960322     0.1163807273    -0.8038720187
    2      C       0.5016652639    -1.1305132379    -1.0131520848
    3      C      -0.8481498266    -0.6206723604    -1.9857636303
    4      C      -1.2682349598    -0.0857414681    -0.3995287718
    5      C      -0.7031166698     0.7994079078    -1.5561993675
    6      N       0.8203775333     1.2476975892    -1.4219099587
    7      H       2.1167941372     0.0705701007    -0.0456965005
    8      H       0.7940853953    -2.1777080370    -0.9948351600
    9      H      -1.5033646643    -1.0611053873    -2.7964589697
   10      H      -2.2749912628     0.0396508342    -0.0032303989
   11      H      -1.3672558629     1.6481458057    -1.7434169754
   12      C       0.0358618040    -0.4324164802     0.2887055882
   13      H       0.5683276457    -0.5317959051     1.2455629490
 ----------------------------------------------------------------
 Nuclear Repulsion Energy =   277.5045323928 hartrees
 There are       25 alpha and       24 beta electrons
 Applying Cartesian multipole field
    Component          Value
    ---------          -----
     (2,0,0)        1.00000E-11
     (0,2,0)        2.00000E-11
     (0,0,2)       -3.00000E-11
 Nucleus-field energy     =    -0.0000000040 hartrees
 Requested basis set is 6-31G(d)
 There are 40 shells and 117 basis functions
 A cutoff of  1.0D-14 yielded    813 shell pairs
 There are      7085 function pairs
 Smallest overlap matrix eigenvalue = 1.54E-03
 Guess MOs from SCF MO coefficient file
 Reading MOs from coefficient file
 Reading MOs from coefficient file
 An unrestricted hybrid HF-DFT SCF calculation will be
 performed using Pulay DIIS extrapolation
 Exchange:     0.2000 Hartree-Fock + 0.0800 Slater + 0.7200 B88
 Correlation:  0.1900 VWN1RPA + 0.8100 LYP
 Using SG-1 standard quadrature grid
 SCF converges when DIIS error is below 1.0E-08
 Geometry optimization detected.  Setting ReadMinima to 0
 Setting SaveMinima to 0
Using Q-Chem read-in guess as SCF_GUESS READ specified.

 using 4 threads for integral computing
 -------------------------------------------------------
 OpenMP Integral computing Module                
 Release: version 1.0, May 2013, Q-Chem Inc. Pittsburgh 
 -------------------------------------------------------
 -------------------------------------------------------
 OpenMP BLAS3 based DFT computing Module                
 Release: version 1.0, May 2013, Q-Chem Inc. Pittsburgh 
 -------------------------------------------------------
 ---------------------------------------
  Cycle       Energy         DIIS Error
 ---------------------------------------
    1    -286.8173745160      2.40E-03
    2    -286.7257082184      8.60E-04
    3    -286.7251771488      1.05E-03
    4    -286.7270477318      2.23E-04
    5    -286.7271296079      6.50E-05
    6    -286.7271368633      2.64E-05
    7    -286.7271381885      7.40E-06
    8    -286.7271383368      2.79E-06
    9    -286.7271383715      1.13E-06
   10    -286.7271383877      4.75E-07
   11    -286.7271383917      2.62E-07
   12    -286.7271383924      1.37E-07
   13    -286.7271383925      4.04E-08
   14    -286.7271383925      1.99E-08
   15    -286.7271383926      4.41E-09 Convergence criterion met
 ---------------------------------------
 <S^2> = 0.7700
 SCF time:  CPU 39.50 s  wall 33.95 s
 SCF   energy in the final basis set = -286.72713839
 Total energy in the final basis set = -286.72713839
 
 --------------------------------------------------------------
 
                    Orbital Energies (a.u.)
 --------------------------------------------------------------
 
 Alpha MOs
 -- Occupied --
-14.337 -10.231 -10.231 -10.230 -10.224 -10.222 -10.221  -0.942
 -0.812  -0.770  -0.650  -0.575  -0.568  -0.546  -0.525  -0.449
 -0.433  -0.392  -0.376  -0.371  -0.340  -0.302  -0.260  -0.223
 -0.192
 -- Virtual --
  0.040   0.060   0.068   0.094   0.115   0.133   0.148   0.164
  0.175   0.184   0.189   0.216   0.263   0.290   0.318   0.345
  0.479   0.509   0.524   0.540   0.548   0.551   0.585   0.601
  0.613   0.651   0.668   0.699   0.705   0.712   0.776   0.783
  0.786   0.799   0.816   0.829   0.864   0.873   0.913   0.932
  0.970   0.995   1.088   1.101   1.160   1.219   1.282   1.401
  1.410   1.486   1.507   1.577   1.598   1.633   1.668   1.700
  1.741   1.785   1.806   1.865   1.877   1.927   1.960   1.992
  2.027   2.069   2.109   2.150   2.172   2.291   2.364   2.376
  2.434   2.444   2.458   2.539   2.564   2.592   2.623   2.652
  2.662   2.691   2.760   2.803   2.885   3.816   4.154   4.254
  4.327   4.458   4.533   4.606
 
 Beta MOs
 -- Occupied --
-14.323 -10.232 -10.231 -10.230 -10.225 -10.222 -10.215  -0.932
 -0.796  -0.761  -0.644  -0.570  -0.565  -0.540  -0.520  -0.446
 -0.428  -0.386  -0.365  -0.360  -0.331  -0.292  -0.243  -0.202
 -- Virtual --
 -0.074   0.045   0.065   0.077   0.097   0.120   0.137   0.151
  0.168   0.180   0.187   0.194   0.221   0.267   0.293   0.322
  0.350   0.482   0.513   0.525   0.540   0.553   0.554   0.591
  0.604   0.620   0.658   0.670   0.702   0.710   0.724   0.781
  0.790   0.799   0.806   0.818   0.832   0.867   0.880   0.920
  0.935   0.975   1.006   1.093   1.105   1.165   1.226   1.285
  1.407   1.415   1.495   1.518   1.584   1.602   1.649   1.676
  1.703   1.749   1.791   1.813   1.870   1.886   1.932   1.967
  1.997   2.044   2.077   2.114   2.155   2.180   2.296   2.373
  2.389   2.442   2.454   2.466   2.540   2.566   2.600   2.636
  2.657   2.667   2.696   2.764   2.807   2.890   3.839   4.160
  4.260   4.325   4.461   4.535   4.610
 --------------------------------------------------------------
 
          Ground-State Mulliken Net Atomic Charges

     Atom                 Charge (a.u.)    Spin (a.u.)
  --------------------------------------------------------
      1 C                     0.032237      -0.137634
      2 C                    -0.197919       0.011036
      3 C                    -0.106471       0.051169
      4 C                    -0.145222      -0.028337
      5 C                    -0.075655      -0.012686
      6 N                    -0.328638       0.728698
      7 H                     0.162694       0.006106
      8 H                     0.153618       0.015630
      9 H                     0.159095      -0.003258
     10 H                     0.151335       0.000014
     11 H                     0.151779       0.001158
     12 C                    -0.123412       0.385541
     13 H                     0.166559      -0.017434
  --------------------------------------------------------
  Sum of atomic charges =    -0.000000
  Sum of spin   charges =     1.000000

 -----------------------------------------------------------------
                    Cartesian Multipole Moments
 -----------------------------------------------------------------
    Charge (ESU x 10^10)
                -0.0000
    Dipole Moment (Debye)
         X      -1.1803      Y      -2.0536      Z       1.1787
       Tot       2.6457
    Quadrupole Moments (Debye-Ang)
        XX     -38.0382     XY      -3.6094     YY     -43.6952
        XZ       4.9156     YZ       3.2235     ZZ     -41.3327
    Octopole Moments (Debye-Ang^2)
       XXX       0.7184    XXY       0.8079    XYY      -2.5885
       YYY      -3.2861    XXZ      40.1166    XYZ       3.2096
       YYZ      41.6133    XZZ      -7.9518    YZZ      -5.7347
       ZZZ     119.3682
    Hexadecapole Moments (Debye-Ang^3)
      XXXX    -260.5096   XXXY      -9.7248   XXYY     -84.1411
      XYYY     -21.7481   YYYY    -212.2949   XXXZ     -11.1357
      XXYZ       7.2923   XYYZ       3.1896   YYYZ      23.0532
      XXZZ    -111.6720   XYZZ      -3.7217   YYZZ    -109.1482
      XZZZ       4.6998   YZZZ      28.0509   ZZZZ    -417.8155
 -----------------------------------------------------------------
 Calculating analytic gradient of the SCF energy
 Gradient of SCF Energy
            1           2           3           4           5           6
    1   0.0541996   0.0129257  -0.0126695  -0.0272338  -0.0109896   0.0305492
    2  -0.0038400  -0.0059510  -0.0048689  -0.0230103  -0.0200928   0.0242307
    3   0.0021246  -0.0033727  -0.0813859   0.0369727  -0.0028904  -0.0184582
            7           8           9          10          11          12
    1  -0.0204811  -0.0086286  -0.0233552  -0.0052014  -0.0052011  -0.0093095
    2  -0.0085083  -0.0024996  -0.0037750  -0.0061110   0.0063362   0.0426611
    3   0.0177196   0.0067494  -0.0228098  -0.0003091   0.0182336   0.0448737
           13
    1   0.0253953
    2   0.0054288
    3   0.0025527
 Max gradient component =       8.139E-02
 RMS gradient           =       2.380E-02
 Gradient time:  CPU 7.75 s  wall 4.57 s
 Geometry Optimization Parameters
   NAtoms,    NIC,     NZ,  NCons,   NDum,   NFix, NCnnct, MaxDiis
       13     151       0       0       0       0       0       0

 Cartesian Hessian Update
 Hessian Updated using BFGS Update


** GEOMETRY OPTIMIZATION IN DELOCALIZED INTERNAL COORDINATES **
   Searching for a Minimum

   Optimization Cycle:   3

                       Coordinates (Angstroms)
     ATOM                X               Y               Z
      1  C         1.3451960322    0.1163807273   -0.8038720187
      2  C         0.5016652639   -1.1305132379   -1.0131520848
      3  C        -0.8481498266   -0.6206723604   -1.9857636303
      4  C        -1.2682349598   -0.0857414681   -0.3995287718
      5  C        -0.7031166698    0.7994079078   -1.5561993675
      6  N         0.8203775333    1.2476975892   -1.4219099587
      7  H         2.1167941372    0.0705701007   -0.0456965005
      8  H         0.7940853953   -2.1777080370   -0.9948351600
      9  H        -1.5033646643   -1.0611053873   -2.7964589697
     10  H        -2.2749912628    0.0396508342   -0.0032303989
     11  H        -1.3672558629    1.6481458057   -1.7434169754
     12  C         0.0358618040   -0.4324164802    0.2887055882
     13  H         0.5683276457   -0.5317959051    1.2455629490
   Point Group: c1    Number of degrees of freedom:    33


   Energy is   -286.727138393

 Hessian Updated using BFGS Update

 33 Hessian modes will be used to form the next step
  Hessian Eigenvalues:
     0.005182    0.009469    0.010440    0.013230    0.016767    0.019627
     0.022105    0.026048    0.053258    0.056150    0.059332    0.063040
     0.071132    0.087267    0.088748    0.098916    0.105878    0.111359
     0.123211    0.134592    0.153221    0.180277    0.189814    0.207747
     0.232588    0.239918    0.288345    0.326155    0.335603    0.343668
     0.350517    0.361081    0.380319

 Minimum Search - Taking Simple RFO Step
 Searching for Lamda that Minimizes Along All modes
 Value Taken    Lamda =  -0.08214656
 Calculated Step too Large.  Step scaled by  0.383883
 Step Taken.  Stepsize is  0.300000

                             Maximum     Tolerance    Cnvgd?
         Gradient           0.047877      0.000600      NO
         Displacement       0.135385      0.002400      NO
         Energy change     -0.036550      0.000002      NO


 New Cartesian Coordinates Obtained by Inverse Iteration

 Displacement from previous Coordinates is:  0.285189
 ----------------------------------------------------------------
             Standard Nuclear Orientation (Angstroms)
    I     Atom           X                Y                Z
 ----------------------------------------------------------------
    1      C       1.3201756959     0.1188791585    -0.8123447851
    2      C       0.4931150209    -1.1298533647    -1.0147135746
    3      C      -0.8275004601    -0.6177393455    -1.9296140580
    4      C      -1.2591205335    -0.0753850109    -0.4088959518
    5      C      -0.6922741774     0.8126982488    -1.5464936437
    6      N       0.7838593034     1.2418053301    -1.4094021354
    7      H       2.1274754533     0.0914280970    -0.0895069938
    8      H       0.7951248005    -2.1746404725    -1.0164681436
    9      H      -1.4585321453    -1.0677792840    -2.7235938830
   10      H      -2.2666189455     0.0580268067    -0.0233898164
   11      H      -1.3515751680     1.6530055665    -1.7676362628
   12      C       0.0265630119    -0.4588662841     0.2743306268
   13      H       0.5265027093    -0.5696793569     1.2379333225
 ----------------------------------------------------------------
 Nuclear Repulsion Energy =   280.9307553255 hartrees
 There are       25 alpha and       24 beta electrons
 Applying Cartesian multipole field
    Component          Value
    ---------          -----
     (2,0,0)        1.00000E-11
     (0,2,0)        2.00000E-11
     (0,0,2)       -3.00000E-11
 Nucleus-field energy     =    -0.0000000039 hartrees
 Requested basis set is 6-31G(d)
 There are 40 shells and 117 basis functions
 A cutoff of  1.0D-14 yielded    813 shell pairs
 There are      7085 function pairs
 Smallest overlap matrix eigenvalue = 1.31E-03
 Guess MOs from SCF MO coefficient file
 Reading MOs from coefficient file
 Reading MOs from coefficient file
 An unrestricted hybrid HF-DFT SCF calculation will be
 performed using Pulay DIIS extrapolation
 Exchange:     0.2000 Hartree-Fock + 0.0800 Slater + 0.7200 B88
 Correlation:  0.1900 VWN1RPA + 0.8100 LYP
 Using SG-1 standard quadrature grid
 SCF converges when DIIS error is below 1.0E-08
 Geometry optimization detected.  Setting ReadMinima to 0
 Setting SaveMinima to 0
Using Q-Chem read-in guess as SCF_GUESS READ specified.

 using 4 threads for integral computing
 -------------------------------------------------------
 OpenMP Integral computing Module                
 Release: version 1.0, May 2013, Q-Chem Inc. Pittsburgh 
 -------------------------------------------------------
 -------------------------------------------------------
 OpenMP BLAS3 based DFT computing Module                
 Release: version 1.0, May 2013, Q-Chem Inc. Pittsburgh 
 -------------------------------------------------------
 ---------------------------------------
  Cycle       Energy         DIIS Error
 ---------------------------------------
    1    -286.8290270148      2.41E-03
    2    -286.7547579385      7.36E-04
    3    -286.7544203925      8.85E-04
    4    -286.7557397177      1.65E-04
    5    -286.7557814766      6.29E-05
    6    -286.7557886302      1.80E-05
    7    -286.7557892584      6.98E-06
    8    -286.7557893919      2.01E-06
    9    -286.7557894097      6.53E-07
   10    -286.7557894168      1.86E-07
   11    -286.7557894184      1.14E-07
   12    -286.7557894187      4.88E-08
   13    -286.7557894188      1.45E-08
   14    -286.7557894188      1.05E-08
   15    -286.7557894188      2.75E-09 Convergence criterion met
 ---------------------------------------
 <S^2> = 0.7688
 SCF time:  CPU 39.69 s  wall 36.59 s
 SCF   energy in the final basis set = -286.75578942
 Total energy in the final basis set = -286.75578942
 
 --------------------------------------------------------------
 
                    Orbital Energies (a.u.)
 --------------------------------------------------------------
 
 Alpha MOs
 -- Occupied --
-14.334 -10.227 -10.225 -10.223 -10.221 -10.217 -10.216  -0.956
 -0.820  -0.776  -0.652  -0.576  -0.572  -0.544  -0.530  -0.450
 -0.436  -0.395  -0.383  -0.375  -0.344  -0.299  -0.262  -0.224
 -0.194
 -- Virtual --
  0.051   0.074   0.080   0.102   0.121   0.142   0.150   0.171
  0.181   0.188   0.199   0.228   0.263   0.295   0.334   0.357
  0.478   0.514   0.526   0.539   0.549   0.559   0.584   0.600
  0.617   0.651   0.669   0.705   0.714   0.717   0.771   0.787
  0.791   0.801   0.819   0.828   0.863   0.871   0.917   0.932
  0.970   1.003   1.098   1.106   1.167   1.225   1.295   1.420
  1.431   1.496   1.520   1.592   1.616   1.637   1.673   1.701
  1.757   1.793   1.835   1.879   1.907   1.955   1.970   2.003
  2.055   2.083   2.113   2.179   2.188   2.319   2.385   2.398
  2.452   2.459   2.490   2.553   2.567   2.614   2.639   2.669
  2.692   2.718   2.786   2.829   2.906   3.843   4.174   4.270
  4.336   4.470   4.557   4.639
 
 Beta MOs
 -- Occupied --
-14.320 -10.229 -10.225 -10.222 -10.221 -10.217 -10.211  -0.945
 -0.803  -0.768  -0.645  -0.573  -0.568  -0.539  -0.525  -0.447
 -0.430  -0.390  -0.369  -0.367  -0.334  -0.290  -0.246  -0.206
 -- Virtual --
 -0.076   0.058   0.081   0.085   0.106   0.125   0.146   0.152
  0.174   0.184   0.194   0.205   0.232   0.268   0.297   0.339
  0.362   0.480   0.518   0.528   0.541   0.553   0.562   0.590
  0.605   0.624   0.659   0.670   0.709   0.719   0.727   0.782
  0.794   0.801   0.806   0.822   0.830   0.866   0.877   0.924
  0.936   0.977   1.012   1.103   1.111   1.171   1.233   1.297
  1.428   1.434   1.508   1.530   1.599   1.621   1.649   1.683
  1.704   1.768   1.798   1.841   1.882   1.915   1.960   1.979
  2.009   2.067   2.093   2.119   2.183   2.197   2.324   2.399
  2.408   2.461   2.474   2.495   2.554   2.570   2.629   2.646
  2.673   2.697   2.721   2.790   2.834   2.911   3.866   4.179
  4.275   4.334   4.472   4.560   4.644
 --------------------------------------------------------------
 
          Ground-State Mulliken Net Atomic Charges

     Atom                 Charge (a.u.)    Spin (a.u.)
  --------------------------------------------------------
      1 C                     0.027044      -0.137017
      2 C                    -0.195340       0.014415
      3 C                    -0.103915       0.054356
      4 C                    -0.134792      -0.018308
      5 C                    -0.075352      -0.017329
      6 N                    -0.325088       0.714148
      7 H                     0.159487       0.005863
      8 H                     0.152060       0.015509
      9 H                     0.154146      -0.003283
     10 H                     0.149326      -0.000253
     11 H                     0.151372       0.001049
     12 C                    -0.121839       0.388642
     13 H                     0.162891      -0.017792
  --------------------------------------------------------
  Sum of atomic charges =    -0.000000
  Sum of spin   charges =     1.000000

 -----------------------------------------------------------------
                    Cartesian Multipole Moments
 -----------------------------------------------------------------
    Charge (ESU x 10^10)
                -0.0000
    Dipole Moment (Debye)
         X      -1.1421      Y      -2.0494      Z       1.1181
       Tot       2.5989
    Quadrupole Moments (Debye-Ang)
        XX     -38.0422     XY      -3.5387     YY     -43.4044
        XZ       4.5879     YZ       3.0942     ZZ     -41.2618
    Octopole Moments (Debye-Ang^2)
       XXX       1.6161    XXY       1.0141    XYY      -2.3788
       YYY      -3.2560    XXZ      39.7586    XYZ       3.2961
       YYZ      40.9983    XZZ      -6.9598    YZZ      -5.3400
       ZZZ     118.8461
    Hexadecapole Moments (Debye-Ang^3)
      XXXX    -252.6017   XXXY      -8.4361   XXYY     -82.5678
      XYYY     -20.0739   YYYY    -212.2610   XXXZ     -10.7831
      XXYZ       6.9655   XYYZ       3.3608   YYYZ      23.6824
      XXZZ    -109.7666   XYZZ      -4.0856   YYZZ    -106.5981
      XZZZ       2.6697   YZZZ      27.1981   ZZZZ    -408.9738
 -----------------------------------------------------------------
 Calculating analytic gradient of the SCF energy
 Gradient of SCF Energy
            1           2           3           4           5           6
    1   0.0396482   0.0128302  -0.0086649  -0.0180247  -0.0114996   0.0239844
    2  -0.0032857   0.0001788  -0.0007538  -0.0208474  -0.0243028   0.0168071
    3  -0.0056620   0.0008798  -0.0726712   0.0324414  -0.0005601  -0.0160169
            7           8           9          10          11          12
    1  -0.0169143  -0.0094953  -0.0153023  -0.0039341  -0.0026098  -0.0103906
    2  -0.0072072  -0.0027102  -0.0002609  -0.0050591   0.0066418   0.0366358
    3   0.0171564   0.0070595  -0.0136843  -0.0016646   0.0174810   0.0358485
           13
    1   0.0203727
    2   0.0041636
    3  -0.0006075
 Max gradient component =       7.267E-02
 RMS gradient           =       1.997E-02
 Gradient time:  CPU 7.62 s  wall 3.58 s
 Geometry Optimization Parameters
   NAtoms,    NIC,     NZ,  NCons,   NDum,   NFix, NCnnct, MaxDiis
       13     151       0       0       0       0       0       0

 Cartesian Hessian Update
 Hessian Updated using BFGS Update


** GEOMETRY OPTIMIZATION IN DELOCALIZED INTERNAL COORDINATES **
   Searching for a Minimum

   Optimization Cycle:   4

                       Coordinates (Angstroms)
     ATOM                X               Y               Z
      1  C         1.3201756959    0.1188791585   -0.8123447851
      2  C         0.4931150209   -1.1298533647   -1.0147135746
      3  C        -0.8275004601   -0.6177393455   -1.9296140580
      4  C        -1.2591205335   -0.0753850109   -0.4088959518
      5  C        -0.6922741774    0.8126982488   -1.5464936437
      6  N         0.7838593034    1.2418053301   -1.4094021354
      7  H         2.1274754533    0.0914280970   -0.0895069938
      8  H         0.7951248005   -2.1746404725   -1.0164681436
      9  H        -1.4585321453   -1.0677792840   -2.7235938830
     10  H        -2.2666189455    0.0580268067   -0.0233898164
     11  H        -1.3515751680    1.6530055665   -1.7676362628
     12  C         0.0265630119   -0.4588662841    0.2743306268
     13  H         0.5265027093   -0.5696793569    1.2379333225
   Point Group: c1    Number of degrees of freedom:    33


   Energy is   -286.755789419

 Hessian Updated using BFGS Update

 33 Hessian modes will be used to form the next step
  Hessian Eigenvalues:
     0.005184    0.009526    0.010509    0.013279    0.017383    0.019590
     0.022110    0.025923    0.053634    0.056193    0.059463    0.062679
     0.074370    0.087263    0.088798    0.099965    0.105754    0.111368
     0.125388    0.137212    0.153984    0.180398    0.189872    0.207793
     0.232588    0.239911    0.294006    0.329965    0.337311    0.346596
     0.350662    0.361124    0.401663

 Minimum Search - Taking Simple RFO Step
 Searching for Lamda that Minimizes Along All modes
 Value Taken    Lamda =  -0.06042048
 Calculated Step too Large.  Step scaled by  0.401094
 Step Taken.  Stepsize is  0.300000

                             Maximum     Tolerance    Cnvgd?
         Gradient           0.037721      0.000600      NO
         Displacement       0.147452      0.002400      NO
         Energy change     -0.028651      0.000002      NO


 New Cartesian Coordinates Obtained by Inverse Iteration

 Displacement from previous Coordinates is:  0.267539
 ----------------------------------------------------------------
             Standard Nuclear Orientation (Angstroms)
    I     Atom           X                Y                Z
 ----------------------------------------------------------------
    1      C       1.3002190094     0.1222322263    -0.8141566740
    2      C       0.4870431455    -1.1314165135    -1.0165566088
    3      C      -0.8132922590    -0.6166189491    -1.8757106032
    4      C      -1.2525411558    -0.0621350369    -0.4170849808
    5      C      -0.6833881549     0.8289422820    -1.5397988112
    6      N       0.7537535779     1.2401542503    -1.3930286177
    7      H       2.1423273184     0.1121896968    -0.1307660729
    8      H       0.8028474788    -2.1721133967    -1.0430925796
    9      H      -1.4251944331    -1.0799133486    -2.6598399401
   10      H      -2.2602474609     0.0800834927    -0.0396677407
   11      H      -1.3398629851     1.6571877513    -1.8001786596
   12      C       0.0191626578    -0.4871049978     0.2637035236
   13      H       0.4863678264    -0.6095873678     1.2363824660
 ----------------------------------------------------------------
 Nuclear Repulsion Energy =   283.5239319869 hartrees
 There are       25 alpha and       24 beta electrons
 Applying Cartesian multipole field
    Component          Value
    ---------          -----
     (2,0,0)        1.00000E-11
     (0,2,0)        2.00000E-11
     (0,0,2)       -3.00000E-11
 Nucleus-field energy     =    -0.0000000037 hartrees
 Requested basis set is 6-31G(d)
 There are 40 shells and 117 basis functions
 A cutoff of  1.0D-14 yielded    814 shell pairs
 There are      7086 function pairs
 Smallest overlap matrix eigenvalue = 1.16E-03
 Guess MOs from SCF MO coefficient file
 Reading MOs from coefficient file
 Reading MOs from coefficient file
 An unrestricted hybrid HF-DFT SCF calculation will be
 performed using Pulay DIIS extrapolation
 Exchange:     0.2000 Hartree-Fock + 0.0800 Slater + 0.7200 B88
 Correlation:  0.1900 VWN1RPA + 0.8100 LYP
 Using SG-1 standard quadrature grid
 SCF converges when DIIS error is below 1.0E-08
 Geometry optimization detected.  Setting ReadMinima to 0
 Setting SaveMinima to 0
Using Q-Chem read-in guess as SCF_GUESS READ specified.

 using 4 threads for integral computing
 -------------------------------------------------------
 OpenMP Integral computing Module                
 Release: version 1.0, May 2013, Q-Chem Inc. Pittsburgh 
 -------------------------------------------------------
 -------------------------------------------------------
 OpenMP BLAS3 based DFT computing Module                
 Release: version 1.0, May 2013, Q-Chem Inc. Pittsburgh 
 -------------------------------------------------------
 ---------------------------------------
  Cycle       Energy         DIIS Error
 ---------------------------------------
    1    -286.8334622084      2.30E-03
    2    -286.7767210800      6.05E-04
    3    -286.7765236979      7.21E-04
    4    -286.7773924770      1.20E-04
    5    -286.7774133213      5.52E-05
    6    -286.7774190056      1.23E-05
    7    -286.7774194019      6.71E-06
    8    -286.7774195500      1.73E-06
    9    -286.7774195738      8.60E-07
   10    -286.7774195849      4.16E-07
   11    -286.7774195882      1.69E-07
   12    -286.7774195887      1.03E-07
   13    -286.7774195889      2.97E-08
   14    -286.7774195889      1.44E-08
   15    -286.7774195889      6.82E-09 Convergence criterion met
 ---------------------------------------
 <S^2> = 0.7677
 SCF time:  CPU 40.13 s  wall 33.59 s
 SCF   energy in the final basis set = -286.77741959
 Total energy in the final basis set = -286.77741959
 
 --------------------------------------------------------------
 
                    Orbital Energies (a.u.)
 --------------------------------------------------------------
 
 Alpha MOs
 -- Occupied --
-14.332 -10.225 -10.220 -10.218 -10.217 -10.214 -10.212  -0.966
 -0.827  -0.779  -0.652  -0.581  -0.574  -0.542  -0.533  -0.451
 -0.438  -0.397  -0.389  -0.378  -0.346  -0.296  -0.264  -0.227
 -0.196
 -- Virtual --
  0.059   0.083   0.090   0.110   0.125   0.147   0.152   0.175
  0.184   0.194   0.207   0.238   0.263   0.298   0.350   0.366
  0.476   0.518   0.527   0.537   0.554   0.567   0.585   0.598
  0.623   0.647   0.672   0.710   0.718   0.726   0.764   0.790
  0.794   0.803   0.822   0.825   0.861   0.868   0.918   0.933
  0.971   1.007   1.099   1.122   1.176   1.230   1.307   1.431
  1.450   1.502   1.538   1.600   1.627   1.640   1.675   1.699
  1.762   1.806   1.856   1.890   1.928   1.966   1.992   2.010
  2.069   2.096   2.118   2.193   2.215   2.337   2.391   2.424
  2.465   2.474   2.514   2.566   2.571   2.618   2.655   2.680
  2.715   2.745   2.808   2.851   2.922   3.863   4.191   4.283
  4.340   4.473   4.581   4.662
 
 Beta MOs
 -- Occupied --
-14.318 -10.227 -10.220 -10.218 -10.216 -10.212 -10.209  -0.956
 -0.809  -0.773  -0.646  -0.579  -0.569  -0.536  -0.528  -0.448
 -0.433  -0.392  -0.374  -0.371  -0.334  -0.288  -0.249  -0.210
 -- Virtual --
 -0.077   0.070   0.087   0.095   0.114   0.129   0.149   0.154
  0.178   0.186   0.201   0.214   0.242   0.268   0.299   0.355
  0.371   0.479   0.522   0.530   0.540   0.556   0.571   0.591
  0.603   0.630   0.655   0.673   0.715   0.727   0.730   0.780
  0.794   0.805   0.807   0.825   0.827   0.864   0.873   0.925
  0.937   0.978   1.015   1.103   1.126   1.180   1.238   1.308
  1.440   1.453   1.515   1.546   1.608   1.635   1.648   1.687
  1.703   1.773   1.811   1.862   1.893   1.934   1.971   1.998
  2.018   2.075   2.107   2.127   2.199   2.223   2.342   2.406
  2.435   2.476   2.488   2.520   2.569   2.573   2.638   2.658
  2.684   2.719   2.748   2.811   2.856   2.926   3.885   4.197
  4.288   4.339   4.476   4.584   4.667
 --------------------------------------------------------------
 
          Ground-State Mulliken Net Atomic Charges

     Atom                 Charge (a.u.)    Spin (a.u.)
  --------------------------------------------------------
      1 C                     0.018864      -0.137046
      2 C                    -0.188502       0.018596
      3 C                    -0.105115       0.059023
      4 C                    -0.125779      -0.006283
      5 C                    -0.072750      -0.025047
      6 N                    -0.319917       0.703843
      7 H                     0.156896       0.005587
      8 H                     0.150320       0.014678
      9 H                     0.150284      -0.003352
     10 H                     0.147796      -0.000639
     11 H                     0.150951       0.000922
     12 C                    -0.122510       0.387687
     13 H                     0.159462      -0.017969
  --------------------------------------------------------
  Sum of atomic charges =     0.000000
  Sum of spin   charges =     1.000000

 -----------------------------------------------------------------
                    Cartesian Multipole Moments
 -----------------------------------------------------------------
    Charge (ESU x 10^10)
                 0.0000
    Dipole Moment (Debye)
         X      -1.1117      Y      -2.0433      Z       1.0473
       Tot       2.5510
    Quadrupole Moments (Debye-Ang)
        XX     -38.0111     XY      -3.4857     YY     -43.1590
        XZ       4.3084     YZ       2.9569     ZZ     -41.1734
    Octopole Moments (Debye-Ang^2)
       XXX       2.4412    XXY       1.1675    XYY      -2.1802
       YYY      -3.2916    XXZ      39.3161    XYZ       3.3798
       YYZ      40.3222    XZZ      -6.1702    YZZ      -4.9515
       ZZZ     118.1279
    Hexadecapole Moments (Debye-Ang^3)
      XXXX    -246.5208   XXXY      -7.3434   XXYY     -81.4902
      XYYY     -18.6681   YYYY    -213.4585   XXXZ     -10.6931
      XXYZ       6.7653   XYYZ       3.4301   YYYZ      24.3015
      XXZZ    -108.0229   XYZZ      -4.3790   YYZZ    -104.2530
      XZZZ       0.9297   YZZZ      26.3854   ZZZZ    -400.6682
 -----------------------------------------------------------------
 Calculating analytic gradient of the SCF energy
 Gradient of SCF Energy
            1           2           3           4           5           6
    1   0.0286366   0.0111066  -0.0033011  -0.0115148  -0.0100046   0.0159015
    2  -0.0027255   0.0047791   0.0021272  -0.0182762  -0.0237952   0.0105232
    3  -0.0111299   0.0033777  -0.0580314   0.0253240   0.0007838  -0.0135099
            7           8           9          10          11          12
    1  -0.0134009  -0.0098426  -0.0097047  -0.0029557  -0.0007909  -0.0104715
    2  -0.0056177  -0.0030294   0.0012931  -0.0036695   0.0068740   0.0283915
    3   0.0158420   0.0071014  -0.0077591  -0.0027179   0.0161466   0.0270306
           13
    1   0.0163422
    2   0.0031253
    3  -0.0024578
 Max gradient component =       5.803E-02
 RMS gradient           =       1.590E-02
 Gradient time:  CPU 8.06 s  wall 3.23 s
 Geometry Optimization Parameters
   NAtoms,    NIC,     NZ,  NCons,   NDum,   NFix, NCnnct, MaxDiis
       13     151       0       0       0       0       0       0

 Cartesian Hessian Update
 Hessian Updated using BFGS Update


** GEOMETRY OPTIMIZATION IN DELOCALIZED INTERNAL COORDINATES **
   Searching for a Minimum

   Optimization Cycle:   5

                       Coordinates (Angstroms)
     ATOM                X               Y               Z
      1  C         1.3002190094    0.1222322263   -0.8141566740
      2  C         0.4870431455   -1.1314165135   -1.0165566088
      3  C        -0.8132922590   -0.6166189491   -1.8757106032
      4  C        -1.2525411558   -0.0621350369   -0.4170849808
      5  C        -0.6833881549    0.8289422820   -1.5397988112
      6  N         0.7537535779    1.2401542503   -1.3930286177
      7  H         2.1423273184    0.1121896968   -0.1307660729
      8  H         0.8028474788   -2.1721133967   -1.0430925796
      9  H        -1.4251944331   -1.0799133486   -2.6598399401
     10  H        -2.2602474609    0.0800834927   -0.0396677407
     11  H        -1.3398629851    1.6571877513   -1.8001786596
     12  C         0.0191626578   -0.4871049978    0.2637035236
     13  H         0.4863678264   -0.6095873678    1.2363824660
   Point Group: c1    Number of degrees of freedom:    33


   Energy is   -286.777419589

 Hessian Updated using BFGS Update

 33 Hessian modes will be used to form the next step
  Hessian Eigenvalues:
     0.005186    0.009581    0.010613    0.013360    0.018164    0.019532
     0.022114    0.025683    0.053970    0.056163    0.059372    0.062634
     0.077660    0.087264    0.088976    0.101542    0.105538    0.111669
     0.126877    0.142006    0.156699    0.180675    0.189873    0.207844
     0.232598    0.239927    0.295718    0.330780    0.337930    0.348176
     0.350845    0.361150    0.416260

 Minimum Search - Taking Simple RFO Step
 Searching for Lamda that Minimizes Along All modes
 Value Taken    Lamda =  -0.04156586
 Calculated Step too Large.  Step scaled by  0.425008
 Step Taken.  Stepsize is  0.300000

                             Maximum     Tolerance    Cnvgd?
         Gradient           0.027131      0.000600      NO
         Displacement       0.155260      0.002400      NO
         Energy change     -0.021630      0.000002      NO


 New Cartesian Coordinates Obtained by Inverse Iteration

 Displacement from previous Coordinates is:  0.251138
 ----------------------------------------------------------------
             Standard Nuclear Orientation (Angstroms)
    I     Atom           X                Y                Z
 ----------------------------------------------------------------
    1      C       1.2841355904     0.1256679692    -0.8088412073
    2      C       0.4837404524    -1.1347664827    -1.0190268380
    3      C      -0.8065735193    -0.6168629234    -1.8276989932
    4      C      -1.2478701324    -0.0459296188    -0.4218501421
    5      C      -0.6769574388     0.8455601132    -1.5365646240
    6      N       0.7323773481     1.2418911514    -1.3738427801
    7      H       2.1597256372     0.1304381842    -0.1687101503
    8      H       0.8192557834    -2.1684415455    -1.0752547212
    9      H      -1.4024550037    -1.0937286384    -2.6062146024
   10      H      -2.2545309838     0.1049416984    -0.0476207893
   11      H      -1.3323433035     1.6572267337    -1.8416204163
   12      C       0.0125389733    -0.5152344879     0.2569781052
   13      H       0.4461511621    -0.6488620643     1.2404718600
 ----------------------------------------------------------------
 Nuclear Repulsion Energy =   285.2178710349 hartrees
 There are       25 alpha and       24 beta electrons
 Applying Cartesian multipole field
    Component          Value
    ---------          -----
     (2,0,0)        1.00000E-11
     (0,2,0)        2.00000E-11
     (0,0,2)       -3.00000E-11
 Nucleus-field energy     =    -0.0000000035 hartrees
 Requested basis set is 6-31G(d)
 There are 40 shells and 117 basis functions
 A cutoff of  1.0D-14 yielded    812 shell pairs
 There are      7084 function pairs
 Smallest overlap matrix eigenvalue = 1.08E-03
 Guess MOs from SCF MO coefficient file
 Reading MOs from coefficient file
 Reading MOs from coefficient file
 An unrestricted hybrid HF-DFT SCF calculation will be
 performed using Pulay DIIS extrapolation
 Exchange:     0.2000 Hartree-Fock + 0.0800 Slater + 0.7200 B88
 Correlation:  0.1900 VWN1RPA + 0.8100 LYP
 Using SG-1 standard quadrature grid
 SCF converges when DIIS error is below 1.0E-08
 Geometry optimization detected.  Setting ReadMinima to 0
 Setting SaveMinima to 0
Using Q-Chem read-in guess as SCF_GUESS READ specified.

 using 4 threads for integral computing
 -------------------------------------------------------
 OpenMP Integral computing Module                
 Release: version 1.0, May 2013, Q-Chem Inc. Pittsburgh 
 -------------------------------------------------------
 -------------------------------------------------------
 OpenMP BLAS3 based DFT computing Module                
 Release: version 1.0, May 2013, Q-Chem Inc. Pittsburgh 
 -------------------------------------------------------
 ---------------------------------------
  Cycle       Energy         DIIS Error
 ---------------------------------------
    1    -286.8310655537      1.99E-03
    2    -286.7924849134      4.50E-04
    3    -286.7923935303      5.34E-04
    4    -286.7928679761      8.61E-05
    5    -286.7928788317      4.24E-05
    6    -286.7928822816      9.04E-06
    7    -286.7928825949      5.69E-06
    8    -286.7928827133      1.43E-06
    9    -286.7928827404      7.34E-07
   10    -286.7928827493      3.91E-07
   11    -286.7928827519      1.05E-07
   12    -286.7928827523      7.95E-08
   13    -286.7928827523      2.37E-08
   14    -286.7928827523      1.03E-08
   15    -286.7928827523      6.37E-09 Convergence criterion met
 ---------------------------------------
 <S^2> = 0.7668
 SCF time:  CPU 39.74 s  wall 30.89 s
 SCF   energy in the final basis set = -286.79288275
 Total energy in the final basis set = -286.79288275
 
 --------------------------------------------------------------
 
                    Orbital Energies (a.u.)
 --------------------------------------------------------------
 
 Alpha MOs
 -- Occupied --
-14.330 -10.223 -10.217 -10.216 -10.213 -10.212 -10.209  -0.973
 -0.833  -0.782  -0.652  -0.586  -0.574  -0.540  -0.535  -0.451
 -0.440  -0.399  -0.395  -0.380  -0.346  -0.294  -0.265  -0.231
 -0.198
 -- Virtual --
  0.067   0.087   0.101   0.114   0.130   0.148   0.154   0.177
  0.185   0.200   0.211   0.245   0.262   0.298   0.362   0.372
  0.476   0.520   0.527   0.537   0.558   0.573   0.588   0.596
  0.627   0.641   0.675   0.714   0.722   0.733   0.757   0.791
  0.796   0.805   0.821   0.825   0.858   0.866   0.916   0.936
  0.973   1.007   1.099   1.137   1.187   1.232   1.319   1.438
  1.465   1.505   1.552   1.601   1.629   1.648   1.672   1.697
  1.759   1.824   1.860   1.906   1.931   1.974   2.001   2.018
  2.067   2.108   2.129   2.207   2.238   2.348   2.393   2.443
  2.474   2.489   2.531   2.564   2.587   2.617   2.667   2.686
  2.733   2.764   2.825   2.867   2.931   3.874   4.204   4.296
  4.342   4.470   4.600   4.673
 
 Beta MOs
 -- Occupied --
-14.316 -10.225 -10.217 -10.216 -10.211 -10.209 -10.207  -0.963
 -0.814  -0.776  -0.645  -0.583  -0.569  -0.534  -0.530  -0.448
 -0.435  -0.394  -0.379  -0.373  -0.332  -0.286  -0.251  -0.215
 -- Virtual --
 -0.078   0.080   0.089   0.106   0.119   0.133   0.151   0.156
  0.179   0.187   0.206   0.218   0.249   0.268   0.299   0.366
  0.378   0.478   0.525   0.530   0.539   0.560   0.577   0.593
  0.601   0.635   0.649   0.676   0.721   0.729   0.736   0.777
  0.794   0.805   0.809   0.823   0.829   0.861   0.869   0.922
  0.941   0.980   1.016   1.103   1.141   1.191   1.241   1.320
  1.448   1.469   1.519   1.559   1.611   1.637   1.653   1.685
  1.701   1.769   1.829   1.867   1.910   1.935   1.980   2.004
  2.030   2.072   2.115   2.143   2.213   2.245   2.352   2.409
  2.453   2.487   2.500   2.538   2.567   2.590   2.636   2.670
  2.690   2.737   2.767   2.827   2.872   2.936   3.897   4.211
  4.300   4.340   4.473   4.604   4.677
 --------------------------------------------------------------
 
          Ground-State Mulliken Net Atomic Charges

     Atom                 Charge (a.u.)    Spin (a.u.)
  --------------------------------------------------------
      1 C                     0.010104      -0.137191
      2 C                    -0.179997       0.022948
      3 C                    -0.107697       0.064284
      4 C                    -0.120475       0.005701
      5 C                    -0.068619      -0.033204
      6 N                    -0.314805       0.696178
      7 H                     0.154827       0.005208
      8 H                     0.148513       0.013420
      9 H                     0.147633      -0.003431
     10 H                     0.146762      -0.001064
     11 H                     0.150517       0.000818
     12 C                    -0.123387       0.384346
     13 H                     0.156623      -0.018013
  --------------------------------------------------------
  Sum of atomic charges =     0.000000
  Sum of spin   charges =     1.000000

 -----------------------------------------------------------------
                    Cartesian Multipole Moments
 -----------------------------------------------------------------
    Charge (ESU x 10^10)
                 0.0000
    Dipole Moment (Debye)
         X      -1.0909      Y      -2.0419      Z       0.9673
       Tot       2.5090
    Quadrupole Moments (Debye-Ang)
        XX     -37.9562     XY      -3.4687     YY     -42.9863
        XZ       4.0767     YZ       2.8295     ZZ     -41.0452
    Octopole Moments (Debye-Ang^2)
       XXX       3.2201    XXY       1.2519    XYY      -1.9792
       YYY      -3.4043    XXZ      38.8013    XYZ       3.4992
       YYZ      39.6208    XZZ      -5.6120    YZZ      -4.5942
       ZZZ     117.1797
    Hexadecapole Moments (Debye-Ang^3)
      XXXX    -242.1904   XXXY      -6.5172   XXYY     -80.8488
      XYYY     -17.5790   YYYY    -215.5770   XXXZ     -10.8685
      XXYZ       6.6836   XYYZ       3.4068   YYYZ      24.9174
      XXZZ    -106.4836   XYZZ      -4.6984   YYZZ    -102.1380
      XZZZ      -0.3588   YZZZ      25.5848   ZZZZ    -393.0727
 -----------------------------------------------------------------
 Calculating analytic gradient of the SCF energy
 Gradient of SCF Energy
            1           2           3           4           5           6
    1   0.0209885   0.0091524   0.0004831  -0.0071108  -0.0082673   0.0091967
    2  -0.0021618   0.0073185   0.0035390  -0.0151540  -0.0199756   0.0059328
    3  -0.0140098   0.0043048  -0.0409262   0.0171836   0.0007951  -0.0105548
            7           8           9          10          11          12
    1  -0.0101636  -0.0094247  -0.0055959  -0.0022125   0.0000876  -0.0102180
    2  -0.0038076  -0.0033596   0.0016388  -0.0021643   0.0067238   0.0190990
    3   0.0138004   0.0066015  -0.0040047  -0.0033004   0.0140505   0.0192466
           13
    1   0.0130845
    2   0.0023710
    3  -0.0031865
 Max gradient component =       4.093E-02
 RMS gradient           =       1.193E-02
 Gradient time:  CPU 8.07 s  wall 3.04 s
 Geometry Optimization Parameters
   NAtoms,    NIC,     NZ,  NCons,   NDum,   NFix, NCnnct, MaxDiis
       13     151       0       0       0       0       0       0

 Cartesian Hessian Update
 Hessian Updated using BFGS Update


** GEOMETRY OPTIMIZATION IN DELOCALIZED INTERNAL COORDINATES **
   Searching for a Minimum

   Optimization Cycle:   6

                       Coordinates (Angstroms)
     ATOM                X               Y               Z
      1  C         1.2841355904    0.1256679692   -0.8088412073
      2  C         0.4837404524   -1.1347664827   -1.0190268380
      3  C        -0.8065735193   -0.6168629234   -1.8276989932
      4  C        -1.2478701324   -0.0459296188   -0.4218501421
      5  C        -0.6769574388    0.8455601132   -1.5365646240
      6  N         0.7323773481    1.2418911514   -1.3738427801
      7  H         2.1597256372    0.1304381842   -0.1687101503
      8  H         0.8192557834   -2.1684415455   -1.0752547212
      9  H        -1.4024550037   -1.0937286384   -2.6062146024
     10  H        -2.2545309838    0.1049416984   -0.0476207893
     11  H        -1.3323433035    1.6572267337   -1.8416204163
     12  C         0.0125389733   -0.5152344879    0.2569781052
     13  H         0.4461511621   -0.6488620643    1.2404718600
   Point Group: c1    Number of degrees of freedom:    33


   Energy is   -286.792882752

 Hessian Updated using BFGS Update

 33 Hessian modes will be used to form the next step
  Hessian Eigenvalues:
     0.005185    0.009619    0.010744    0.013439    0.019021    0.019560
     0.022122    0.025291    0.054296    0.055940    0.058899    0.062657
     0.079594    0.087271    0.089384    0.102924    0.105120    0.112976
     0.127463    0.145512    0.161252    0.181160    0.189897    0.207845
     0.232599    0.239937    0.296461    0.331121    0.338202    0.349078
     0.351056    0.361161    0.423980

 Minimum Search - Taking Simple RFO Step
 Searching for Lamda that Minimizes Along All modes
 Value Taken    Lamda =  -0.02687175
 Calculated Step too Large.  Step scaled by  0.455404
 Step Taken.  Stepsize is  0.300000

                             Maximum     Tolerance    Cnvgd?
         Gradient           0.019439      0.000600      NO
         Displacement       0.154180      0.002400      NO
         Energy change     -0.015463      0.000002      NO


 New Cartesian Coordinates Obtained by Inverse Iteration

 Displacement from previous Coordinates is:  0.236474
 ----------------------------------------------------------------
             Standard Nuclear Orientation (Angstroms)
    I     Atom           X                Y                Z
 ----------------------------------------------------------------
    1      C       1.2696323449     0.1287271192    -0.7970829796
    2      C       0.4821288637    -1.1387989235    -1.0218136947
    3      C      -0.8057794679    -0.6178342013    -1.7882758974
    4      C      -1.2443258504    -0.0279390747    -0.4217225091
    5      C      -0.6717323975     0.8600403285    -1.5357039135
    6      N       0.7183861707     1.2455169685    -1.3534597749
    7      H       2.1774889527     0.1438297982    -0.2040383173
    8      H       0.8435707486    -2.1614459269    -1.1117218026
    9      H      -1.3890872798    -1.1059399246    -2.5644400578
   10      H      -2.2485973902     0.1297016513    -0.0451731399
   11      H      -1.3262621557     1.6507354180    -1.8899675657
   12      C       0.0062186093    -0.5403525249     0.2542645232
   13      H       0.4055534171    -0.6843406188     1.2493398304
 ----------------------------------------------------------------
 Nuclear Repulsion Energy =   286.1929867761 hartrees
 There are       25 alpha and       24 beta electrons
 Applying Cartesian multipole field
    Component          Value
    ---------          -----
     (2,0,0)        1.00000E-11
     (0,2,0)        2.00000E-11
     (0,0,2)       -3.00000E-11
 Nucleus-field energy     =    -0.0000000034 hartrees
 Requested basis set is 6-31G(d)
 There are 40 shells and 117 basis functions
 A cutoff of  1.0D-14 yielded    812 shell pairs
 There are      7084 function pairs
 Smallest overlap matrix eigenvalue = 1.04E-03
 Guess MOs from SCF MO coefficient file
 Reading MOs from coefficient file
 Reading MOs from coefficient file
 An unrestricted hybrid HF-DFT SCF calculation will be
 performed using Pulay DIIS extrapolation
 Exchange:     0.2000 Hartree-Fock + 0.0800 Slater + 0.7200 B88
 Correlation:  0.1900 VWN1RPA + 0.8100 LYP
 Using SG-1 standard quadrature grid
 SCF converges when DIIS error is below 1.0E-08
 Geometry optimization detected.  Setting ReadMinima to 0
 Setting SaveMinima to 0
Using Q-Chem read-in guess as SCF_GUESS READ specified.

 using 4 threads for integral computing
 -------------------------------------------------------
 OpenMP Integral computing Module                
 Release: version 1.0, May 2013, Q-Chem Inc. Pittsburgh 
 -------------------------------------------------------
 -------------------------------------------------------
 OpenMP BLAS3 based DFT computing Module                
 Release: version 1.0, May 2013, Q-Chem Inc. Pittsburgh 
 -------------------------------------------------------
 ---------------------------------------
  Cycle       Energy         DIIS Error
 ---------------------------------------
    1    -286.8263221661      1.59E-03
    2    -286.8031964393      3.00E-04
    3    -286.8031782560      3.45E-04
    4    -286.8033759911      5.80E-05
    5    -286.8033812289      2.80E-05
    6    -286.8033827870      7.28E-06
    7    -286.8033830313      4.44E-06
    8    -286.8033831068      1.14E-06
    9    -286.8033831301      5.84E-07
   10    -286.8033831365      3.02E-07
   11    -286.8033831379      9.49E-08
   12    -286.8033831381      5.84E-08
   13    -286.8033831382      1.96E-08
   14    -286.8033831382      6.80E-09 Convergence criterion met
 ---------------------------------------
 <S^2> = 0.7660
 SCF time:  CPU 36.96 s  wall 22.11 s
 SCF   energy in the final basis set = -286.80338314
 Total energy in the final basis set = -286.80338314
 
 --------------------------------------------------------------
 
                    Orbital Energies (a.u.)
 --------------------------------------------------------------
 
 Alpha MOs
 -- Occupied --
-14.329 -10.221 -10.215 -10.215 -10.213 -10.210 -10.207  -0.978
 -0.837  -0.783  -0.652  -0.589  -0.574  -0.540  -0.535  -0.451
 -0.441  -0.399  -0.399  -0.381  -0.344  -0.291  -0.266  -0.235
 -0.198
 -- Virtual --
  0.072   0.089   0.109   0.116   0.134   0.150   0.155   0.177
  0.185   0.204   0.213   0.250   0.262   0.298   0.367   0.379
  0.476   0.519   0.526   0.538   0.561   0.575   0.588   0.599
[...]
     0.079671    0.087179    0.090117    0.099496    0.109741    0.118779
     0.131144    0.149393    0.173813    0.182999    0.197480    0.216696
     0.236592    0.239137    0.294231    0.330748    0.338042    0.349705
     0.351501    0.361052    0.392872

 Minimum Search - Taking Simple RFO Step
 Searching for Lamda that Minimizes Along All modes
 Value Taken    Lamda =  -0.00000449
 Step Taken.  Stepsize is  0.016009

                             Maximum     Tolerance    Cnvgd?
         Gradient           0.000204      0.000600     YES
         Displacement       0.005890      0.002400      NO
         Energy change     -0.000009      0.000002      NO


 New Cartesian Coordinates Obtained by Inverse Iteration

 Displacement from previous Coordinates is:  0.010426
 ----------------------------------------------------------------
             Standard Nuclear Orientation (Angstroms)
    I     Atom           X                Y                Z
 ----------------------------------------------------------------
    1      C       1.1751359065     0.1400449291    -0.6220658343
    2      C       0.4697652169    -1.1632749682    -1.0465112298
    3      C      -0.8254432732    -0.6284661541    -1.7076395457
    4      C      -1.2152958047     0.0287956152    -0.4128592618
    5      C      -0.6561775380     0.8962429995    -1.5566019967
    6      N       0.6922441832     1.2604667098    -1.3348704581
    7      H       2.2116863898     0.1267820935    -0.3034078692
    8      H       0.9860282111    -2.0969647878    -1.2397980704
    9      H      -1.4330484937    -1.1002651443    -2.4718152438
   10      H      -2.1893129588     0.1744005226     0.0406889549
   11      H      -1.3021107580     1.5783409228    -2.0983781890
   12      C       0.0792760268    -0.5080697141     0.2485580285
   13      H       0.2244474575    -0.8261329352     1.2749054163
 ----------------------------------------------------------------
 Nuclear Repulsion Energy =   288.0171081422 hartrees
 There are       25 alpha and       24 beta electrons
 Applying Cartesian multipole field
    Component          Value
    ---------          -----
     (2,0,0)        1.00000E-11
     (0,2,0)        2.00000E-11
     (0,0,2)       -3.00000E-11
 Nucleus-field energy     =    -0.0000000032 hartrees
 Requested basis set is 6-31G(d)
 There are 40 shells and 117 basis functions
 A cutoff of  1.0D-14 yielded    812 shell pairs
 There are      7084 function pairs
 Smallest overlap matrix eigenvalue = 1.00E-03
 Guess MOs from SCF MO coefficient file
 Reading MOs from coefficient file
 Reading MOs from coefficient file
 An unrestricted hybrid HF-DFT SCF calculation will be
 performed using Pulay DIIS extrapolation
 Exchange:     0.2000 Hartree-Fock + 0.0800 Slater + 0.7200 B88
 Correlation:  0.1900 VWN1RPA + 0.8100 LYP
 Using SG-1 standard quadrature grid
 SCF converges when DIIS error is below 1.0E-08
 Geometry optimization detected.  Setting ReadMinima to 0
 Setting SaveMinima to 0
Using Q-Chem read-in guess as SCF_GUESS READ specified.

 using 4 threads for integral computing
 -------------------------------------------------------
 OpenMP Integral computing Module                
 Release: version 1.0, May 2013, Q-Chem Inc. Pittsburgh 
 -------------------------------------------------------
 -------------------------------------------------------
 OpenMP BLAS3 based DFT computing Module                
 Release: version 1.0, May 2013, Q-Chem Inc. Pittsburgh 
 -------------------------------------------------------
 ---------------------------------------
  Cycle       Energy         DIIS Error
 ---------------------------------------
    1    -286.8244470581      5.79E-05
    2    -286.8249541829      1.04E-05
    3    -286.8249542065      1.11E-05
    4    -286.8249544048      2.22E-06
    5    -286.8249544140      6.42E-07
    6    -286.8249544155      3.78E-07
    7    -286.8249544163      1.05E-07
    8    -286.8249544165      5.77E-08
    9    -286.8249544165      2.37E-08
   10    -286.8249544165      7.05E-09 Convergence criterion met
 ---------------------------------------
 <S^2> = 0.7558
 SCF time:  CPU 26.37 s  wall 26.99 s
 SCF   energy in the final basis set = -286.82495442
 Total energy in the final basis set = -286.82495442
 
 --------------------------------------------------------------
 
                    Orbital Energies (a.u.)
 --------------------------------------------------------------
 
 Alpha MOs
 -- Occupied --
-14.335 -10.215 -10.215 -10.207 -10.207 -10.207 -10.206  -0.986
 -0.837  -0.793  -0.649  -0.588  -0.574  -0.542  -0.533  -0.455
 -0.427  -0.415  -0.395  -0.384  -0.337  -0.275  -0.274  -0.248
 -0.212
 -- Virtual --
  0.090   0.094   0.117   0.147   0.150   0.156   0.167   0.180
  0.184   0.197   0.217   0.251   0.255   0.301   0.364   0.378
  0.477   0.520   0.537   0.541   0.561   0.565   0.574   0.608
  0.621   0.630   0.676   0.728   0.729   0.742   0.743   0.781
  0.786   0.801   0.828   0.831   0.848   0.856   0.918   0.938
  0.983   1.005   1.137   1.162   1.195   1.235   1.399   1.455
  1.490   1.538   1.622   1.629   1.653   1.658   1.667   1.691
  1.754   1.824   1.854   1.941   1.968   1.974   1.978   1.984
  2.043   2.128   2.134   2.241   2.272   2.403   2.412   2.489
  2.517   2.522   2.536   2.560   2.570   2.638   2.709   2.719
  2.757   2.769   2.837   2.881   2.932   3.847   4.233   4.317
  4.370   4.460   4.639   4.672
 
 Beta MOs
 -- Occupied --
-14.319 -10.217 -10.217 -10.205 -10.205 -10.205 -10.205  -0.975
 -0.812  -0.789  -0.644  -0.585  -0.568  -0.537  -0.529  -0.453
 -0.423  -0.392  -0.390  -0.378  -0.322  -0.269  -0.257  -0.244
 -- Virtual --
 -0.078   0.091   0.101   0.120   0.147   0.152   0.157   0.176
  0.182   0.188   0.202   0.225   0.259   0.259   0.302   0.367
  0.384   0.479   0.522   0.540   0.542   0.568   0.568   0.576
  0.613   0.621   0.639   0.679   0.732   0.733   0.743   0.782
  0.787   0.794   0.801   0.830   0.839   0.849   0.857   0.919
  0.944   1.003   1.007   1.140   1.164   1.205   1.236   1.401
  1.474   1.507   1.541   1.626   1.634   1.658   1.660   1.690
  1.697   1.758   1.827   1.858   1.946   1.970   1.979   1.982
  1.987   2.058   2.130   2.156   2.247   2.282   2.403   2.431
  2.502   2.523   2.529   2.541   2.565   2.603   2.639   2.713
  2.720   2.761   2.772   2.839   2.887   2.937   3.873   4.239
  4.320   4.369   4.462   4.641   4.676
 --------------------------------------------------------------
 
          Ground-State Mulliken Net Atomic Charges

     Atom                 Charge (a.u.)    Spin (a.u.)
  --------------------------------------------------------
      1 C                    -0.044532      -0.080646
      2 C                    -0.124985       0.089515
      3 C                    -0.124543       0.089353
      4 C                    -0.124837       0.088638
      5 C                    -0.045053      -0.080189
      6 N                    -0.285835       0.810924
      7 H                     0.149301       0.001049
      8 H                     0.143983      -0.002486
      9 H                     0.143985      -0.002538
     10 H                     0.143994      -0.002469
     11 H                     0.149336       0.001045
     12 C                    -0.124769       0.090311
     13 H                     0.143956      -0.002506
  --------------------------------------------------------
  Sum of atomic charges =     0.000000
  Sum of spin   charges =     1.000000

 -----------------------------------------------------------------
                    Cartesian Multipole Moments
 -----------------------------------------------------------------
    Charge (ESU x 10^10)
                 0.0000
    Dipole Moment (Debye)
         X      -1.1241      Y      -1.9311      Z       0.6384
       Tot       2.3238
    Quadrupole Moments (Debye-Ang)
        XX     -37.6660     XY      -3.4028     YY     -42.8127
        XZ       3.2902     YZ       2.3924     ZZ     -40.3049
    Octopole Moments (Debye-Ang^2)
       XXX       5.9198    XXY      -0.0675    XYY      -0.8101
       YYY      -4.6304    XXZ      35.9550    XYZ       4.3420
       YYZ      37.7473    XZZ      -5.6868    YZZ      -4.1604
       ZZZ     111.4110
    Hexadecapole Moments (Debye-Ang^3)
      XXXX    -227.2521   XXXY      -4.3071   XXYY     -78.5272
      XYYY     -13.8896   YYYY    -223.6476   XXXZ     -16.8627
      XXYZ       7.8713   XYYZ       1.2791   YYYZ      26.7045
      XXZZ     -99.8439   XYZZ      -6.4727   YYZZ     -96.5260
      XZZZ      -3.4458   YZZZ      22.3107   ZZZZ    -371.5866
 -----------------------------------------------------------------
 Calculating analytic gradient of the SCF energy
 Gradient of SCF Energy
            1           2           3           4           5           6
    1   0.0001706  -0.0001679  -0.0000484  -0.0000128  -0.0000487   0.0002462
    2   0.0004195  -0.0000586  -0.0001514   0.0001393   0.0000293  -0.0000603
    3  -0.0003162   0.0000458   0.0000171   0.0000081  -0.0000255   0.0001677
            7           8           9          10          11          12
    1   0.0000114   0.0000983  -0.0000312   0.0000030   0.0000060  -0.0000512
    2  -0.0000051   0.0000643  -0.0000469  -0.0000005  -0.0000581  -0.0002360
    3   0.0000101  -0.0000420   0.0000034   0.0000172  -0.0000884   0.0001754
           13
    1  -0.0001753
    2  -0.0000354
    3   0.0000272
 Max gradient component =       4.195E-04
 RMS gradient           =       1.274E-04
 Gradient time:  CPU 8.03 s  wall 5.45 s
 Geometry Optimization Parameters
   NAtoms,    NIC,     NZ,  NCons,   NDum,   NFix, NCnnct, MaxDiis
       13     151       0       0       0       0       0       0

 Cartesian Hessian Update
 Hessian Updated using BFGS Update


** GEOMETRY OPTIMIZATION IN DELOCALIZED INTERNAL COORDINATES **
   Searching for a Minimum

   Optimization Cycle:  19

                       Coordinates (Angstroms)
     ATOM                X               Y               Z
      1  C         1.1751359065    0.1400449291   -0.6220658343
      2  C         0.4697652169   -1.1632749682   -1.0465112298
      3  C        -0.8254432732   -0.6284661541   -1.7076395457
      4  C        -1.2152958047    0.0287956152   -0.4128592618
      5  C        -0.6561775380    0.8962429995   -1.5566019967
      6  N         0.6922441832    1.2604667098   -1.3348704581
      7  H         2.2116863898    0.1267820935   -0.3034078692
      8  H         0.9860282111   -2.0969647878   -1.2397980704
      9  H        -1.4330484937   -1.1002651443   -2.4718152438
     10  H        -2.1893129588    0.1744005226    0.0406889549
     11  H        -1.3021107580    1.5783409228   -2.0983781890
     12  C         0.0792760268   -0.5080697141    0.2485580285
     13  H         0.2244474575   -0.8261329352    1.2749054163
   Point Group: c1    Number of degrees of freedom:    33


   Energy is   -286.824954417

 Hessian Updated using BFGS Update

 33 Hessian modes will be used to form the next step
  Hessian Eigenvalues:
     0.007888    0.010511    0.011940    0.014505    0.016842    0.020965
     0.023816    0.032545    0.034668    0.052797    0.056958    0.065443
     0.081044    0.086817    0.089800    0.099466    0.108947    0.112022
     0.130633    0.150567    0.174277    0.188543    0.200194    0.221914
     0.234706    0.248573    0.296977    0.330705    0.338802    0.349554
     0.353086    0.361053    0.390652

 Minimum Search - Taking Simple RFO Step
 Searching for Lamda that Minimizes Along All modes
 Value Taken    Lamda =  -0.00000225
 Step Taken.  Stepsize is  0.008441

                             Maximum     Tolerance    Cnvgd?
         Gradient           0.000211      0.000600     YES
         Displacement       0.004305      0.002400      NO
         Energy change     -0.000002      0.000002     YES


                       Distance Matrix (Angstroms)
             C (  1)   C (  2)   C (  3)   C (  4)   C (  5)   N (  6)
   C (  2)  1.541540
   C (  3)  2.402373  1.549412
   C (  4)  2.402146  2.159161  1.503474
   C (  5)  2.190640  2.401990  1.541493  1.540528
   N (  6)  1.413018  2.450953  2.451612  2.450679  1.414237
   H (  7)  1.084507  2.291449  3.430222  3.430129  3.222919  2.158208
   H (  8)  2.328426  1.084280  2.378401  3.169939  3.428775  3.371601
   H (  9)  3.429660  2.378269  1.084317  2.358282  2.329633  3.373806
   H ( 10)  3.429277  3.168924  2.358260  1.084258  2.328712  3.372696
   H ( 11)  3.222568  3.429639  2.291263  2.291201  1.084439  2.159037
   C ( 12)  1.542384  1.502990  2.158639  1.549714  2.402413  2.451672
   H ( 13)  2.331482  2.358563  3.168109  2.377459  3.429215  3.373968
             H (  7)   H (  8)   H (  9)   H ( 10)   H ( 11)   C ( 12)
   H (  8)  2.706310
   H (  9)  4.414944  2.891921
   H ( 10)  4.414687  4.108715  2.917085
   H ( 11)  4.204249  4.413685  2.707680  2.708096
   C ( 12)  2.292352  2.358387  3.168320  2.378123  3.430663
   H ( 13)  2.710763  2.918690  4.106137  2.889740  4.414852  1.084264

 
 Final energy is   -286.824954416536     


 ******************************
 **  OPTIMIZATION CONVERGED  **
 ******************************

                       Coordinates (Angstroms)
     ATOM                X               Y               Z
      1  C         1.1751359065    0.1400449291   -0.6220658343
      2  C         0.4697652169   -1.1632749682   -1.0465112298
      3  C        -0.8254432732   -0.6284661541   -1.7076395457
      4  C        -1.2152958047    0.0287956152   -0.4128592618
      5  C        -0.6561775380    0.8962429995   -1.5566019967
      6  N         0.6922441832    1.2604667098   -1.3348704581
      7  H         2.2116863898    0.1267820935   -0.3034078692
      8  H         0.9860282111   -2.0969647878   -1.2397980704
      9  H        -1.4330484937   -1.1002651443   -2.4718152438
     10  H        -2.1893129588    0.1744005226    0.0406889549
     11  H        -1.3021107580    1.5783409228   -2.0983781890
     12  C         0.0792760268   -0.5080697141    0.2485580285
     13  H         0.2244474575   -0.8261329352    1.2749054163

Z-matrix Print:
$molecule
0 2
N 
C  1 1.413018
H  2 1.084507 1 118.983185
C  1 1.414237 2 101.579114 3 179.985319 0
H  4 1.084439 1 118.963824 2 -179.905509 0
C  4 1.540528 1 112.003515 2 31.772351 0
H  6 1.084258 4 124.123885 1 135.365001 0
C  6 1.503474 4 60.834672 1 -103.060833 0
H  8 1.084317 6 130.680550 4 -111.510117 0
C  2 1.541540 1 112.031974 3 -148.268273 0
H  10 1.084280 2 124.004557 1 135.255894 0
C  10 1.502990 2 60.860687 1 -103.054130 0
H  12 1.084264 10 130.765979 2 -111.650991 0
$end

 
 --------------------------------------------------------------
 
                    Orbital Energies (a.u.)
 --------------------------------------------------------------
 
 Alpha MOs
 -- Occupied --
-14.335 -10.215 -10.215 -10.207 -10.207 -10.207 -10.206  -0.986
 -0.837  -0.793  -0.649  -0.588  -0.574  -0.542  -0.533  -0.455
 -0.427  -0.415  -0.395  -0.384  -0.337  -0.275  -0.274  -0.248
 -0.212
 -- Virtual --
  0.090   0.094   0.117   0.147   0.150   0.156   0.167   0.180
  0.184   0.197   0.217   0.251   0.255   0.301   0.364   0.378
  0.477   0.520   0.537   0.541   0.561   0.565   0.574   0.608
  0.621   0.630   0.676   0.728   0.729   0.742   0.743   0.781
  0.786   0.801   0.828   0.831   0.848   0.856   0.918   0.938
  0.983   1.005   1.137   1.162   1.195   1.235   1.399   1.455
  1.490   1.538   1.622   1.629   1.653   1.658   1.667   1.691
  1.754   1.824   1.854   1.941   1.968   1.974   1.978   1.984
  2.043   2.128   2.134   2.241   2.272   2.403   2.412   2.489
  2.517   2.522   2.536   2.560   2.570   2.638   2.709   2.719
  2.757   2.769   2.837   2.881   2.932   3.847   4.233   4.317
  4.370   4.460   4.639   4.672
 
 Beta MOs
 -- Occupied --
-14.319 -10.217 -10.217 -10.205 -10.205 -10.205 -10.205  -0.975
 -0.812  -0.789  -0.644  -0.585  -0.568  -0.537  -0.529  -0.453
 -0.423  -0.392  -0.390  -0.378  -0.322  -0.269  -0.257  -0.244
 -- Virtual --
 -0.078   0.091   0.101   0.120   0.147   0.152   0.157   0.176
  0.182   0.188   0.202   0.225   0.259   0.259   0.302   0.367
  0.384   0.479   0.522   0.540   0.542   0.568   0.568   0.576
  0.613   0.621   0.639   0.679   0.732   0.733   0.743   0.782
  0.787   0.794   0.801   0.830   0.839   0.849   0.857   0.919
  0.944   1.003   1.007   1.140   1.164   1.205   1.236   1.401
  1.474   1.507   1.541   1.626   1.634   1.658   1.660   1.690
  1.697   1.758   1.827   1.858   1.946   1.970   1.979   1.982
  1.987   2.058   2.130   2.156   2.247   2.282   2.403   2.431
  2.502   2.523   2.529   2.541   2.565   2.603   2.639   2.713
  2.720   2.761   2.772   2.839   2.887   2.937   3.873   4.239
  4.320   4.369   4.462   4.641   4.676
 --------------------------------------------------------------
 
          Ground-State Mulliken Net Atomic Charges

     Atom                 Charge (a.u.)    Spin (a.u.)
  --------------------------------------------------------
      1 C                    -0.044532      -0.080646
      2 C                    -0.124985       0.089515
      3 C                    -0.124543       0.089353
      4 C                    -0.124837       0.088638
      5 C                    -0.045053      -0.080189
      6 N                    -0.285835       0.810924
      7 H                     0.149301       0.001049
      8 H                     0.143983      -0.002486
      9 H                     0.143985      -0.002538
     10 H                     0.143994      -0.002469
     11 H                     0.149336       0.001045
     12 C                    -0.124769       0.090311
     13 H                     0.143956      -0.002506
  --------------------------------------------------------
  Sum of atomic charges =     0.000000
  Sum of spin   charges =     1.000000

 -----------------------------------------------------------------
                    Cartesian Multipole Moments
 -----------------------------------------------------------------
    Charge (ESU x 10^10)
                 0.0000
    Dipole Moment (Debye)
         X      -1.1241      Y      -1.9311      Z       0.6384
       Tot       2.3238
    Quadrupole Moments (Debye-Ang)
        XX     -37.6660     XY      -3.4028     YY     -42.8127
        XZ       3.2902     YZ       2.3924     ZZ     -40.3049
    Octopole Moments (Debye-Ang^2)
       XXX       5.9198    XXY      -0.0675    XYY      -0.8101
       YYY      -4.6304    XXZ      35.9550    XYZ       4.3420
       YYZ      37.7473    XZZ      -5.6868    YZZ      -4.1604
       ZZZ     111.4110
    Hexadecapole Moments (Debye-Ang^3)
      XXXX    -227.2521   XXXY      -4.3071   XXYY     -78.5272
      XYYY     -13.8896   YYYY    -223.6476   XXXZ     -16.8627
      XXYZ       7.8713   XYYZ       1.2791   YYYZ      26.7045
      XXZZ     -99.8439   XYZZ      -6.4727   YYZZ     -96.5260
      XZZZ      -3.4458   YZZZ      22.3107   ZZZZ    -371.5866
 -----------------------------------------------------------------
Archival summary:
1\1\c8-66\OPT\ProcedureUnspecified\6-31G*\166(2)\hpark21\TueMar111:46:462022TueMar111:46:462022\0\\#,OPT,ProcedureUnspecified,6-31G*,\\0,2\N\C,1,1.41302\H,2,1.08451,1,118.983\C,1,1.41424,2,101.579,3,179.985,0\H,4,1.08444,1,118.964,2,-179.906,0\C,4,1.54053,1,112.004,2,31.7724,0\H,6,1.08426,4,124.124,1,135.365,0\C,6,1.50347,4,60.8347,1,-103.061,0\H,8,1.08432,6,130.681,4,-111.51,0\C,2,1.54154,1,112.032,3,-148.268,0\H,10,1.08428,2,124.005,1,135.256,0\C,10,1.50299,2,60.8607,1,-103.054,0\H,12,1.08426,10,130.766,2,-111.651,0\\\@

 Total job time:  665.06s(wall), 815.29s(cpu) 
 Tue Mar  1 11:46:46 2022

        *************************************************************
        *                                                           *
        *  Thank you very much for using Q-Chem.  Have a nice day.  *
        *                                                           *
        *************************************************************


