13   
From optimize.out: Frame 1 / 19, Energy=    -286.6473065449
C        1.4090609578    0.1151334842   -0.7732763413
C        0.5190307498   -1.1372887726   -1.0123533554
C       -0.8987606479   -0.6331430171   -2.0919285003
C       -1.2955713485   -0.1056761840   -0.3864921887
C       -0.7211027643    0.7873538797   -1.5798674164
N        0.8959485932    1.2665150460   -1.4341122921
H        2.1062818758    0.0363339826    0.0465336203
H        0.7968202176   -2.1881787403   -0.9634699251
H       -1.6234774409   -1.0697542412   -2.9591726869
H       -2.3043495700    0.0055975375    0.0300093673
H       -1.3979260839    1.6494675281   -1.7078640879
C        0.0642760745   -0.3857264891    0.3246937073
H        0.6669639522   -0.4587339248    1.2775048002
13   
From optimize.out: Frame 2 / 19, Energy=    -286.6905882509
C        1.3753445599    0.1159312559   -0.7895789821
C        0.5119968490   -1.1334676847   -1.0115224286
C       -0.8731413346   -0.6260396081   -2.0412317818
C       -1.2806043245   -0.0937684293   -0.3904485741
C       -0.7143774769    0.7912501617   -1.5685945757
N        0.8590073777    1.2586107504   -1.4300578691
H        2.1113379884    0.0514449586   -0.0006890100
H        0.7972492190   -2.1823258712   -0.9770889111
H       -1.5605051763   -1.0631754421   -2.8783612094
H       -2.2871207689    0.0249965792    0.0168523185
H       -1.3846909403    1.6462705421   -1.7268469741
C        0.0482221298   -0.4092078719    0.3074527085
H        0.6144764632   -0.4986192516    1.2603199900
13   
From optimize.out: Frame 3 / 19, Energy=    -286.7271383926
C        1.3451960322    0.1163807273   -0.8038720187
C        0.5016652639   -1.1305132379   -1.0131520848
C       -0.8481498266   -0.6206723604   -1.9857636303
C       -1.2682349598   -0.0857414681   -0.3995287718
C       -0.7031166698    0.7994079078   -1.5561993675
N        0.8203775333    1.2476975892   -1.4219099587
H        2.1167941372    0.0705701007   -0.0456965005
H        0.7940853953   -2.1777080370   -0.9948351600
H       -1.5033646643   -1.0611053873   -2.7964589697
H       -2.2749912628    0.0396508342   -0.0032303989
H       -1.3672558629    1.6481458057   -1.7434169754
C        0.0358618040   -0.4324164802    0.2887055882
H        0.5683276457   -0.5317959051    1.2455629490
13   
From optimize.out: Frame 4 / 19, Energy=    -286.7557894188
C        1.3201756959    0.1188791585   -0.8123447851
C        0.4931150209   -1.1298533647   -1.0147135746
C       -0.8275004601   -0.6177393455   -1.9296140580
C       -1.2591205335   -0.0753850109   -0.4088959518
C       -0.6922741774    0.8126982488   -1.5464936437
N        0.7838593034    1.2418053301   -1.4094021354
H        2.1274754533    0.0914280970   -0.0895069938
H        0.7951248005   -2.1746404725   -1.0164681436
H       -1.4585321453   -1.0677792840   -2.7235938830
H       -2.2666189455    0.0580268067   -0.0233898164
H       -1.3515751680    1.6530055665   -1.7676362628
C        0.0265630119   -0.4588662841    0.2743306268
H        0.5265027093   -0.5696793569    1.2379333225
13   
From optimize.out: Frame 5 / 19, Energy=    -286.7774195889
C        1.3002190094    0.1222322263   -0.8141566740
C        0.4870431455   -1.1314165135   -1.0165566088
C       -0.8132922590   -0.6166189491   -1.8757106032
C       -1.2525411558   -0.0621350369   -0.4170849808
C       -0.6833881549    0.8289422820   -1.5397988112
N        0.7537535779    1.2401542503   -1.3930286177
H        2.1423273184    0.1121896968   -0.1307660729
H        0.8028474788   -2.1721133967   -1.0430925796
H       -1.4251944331   -1.0799133486   -2.6598399401
H       -2.2602474609    0.0800834927   -0.0396677407
H       -1.3398629851    1.6571877513   -1.8001786596
C        0.0191626578   -0.4871049978    0.2637035236
H        0.4863678264   -0.6095873678    1.2363824660
13   
From optimize.out: Frame 6 / 19, Energy=    -286.7928827523
C        1.2841355904    0.1256679692   -0.8088412073
C        0.4837404524   -1.1347664827   -1.0190268380
C       -0.8065735193   -0.6168629234   -1.8276989932
C       -1.2478701324   -0.0459296188   -0.4218501421
C       -0.6769574388    0.8455601132   -1.5365646240
N        0.7323773481    1.2418911514   -1.3738427801
H        2.1597256372    0.1304381842   -0.1687101503
H        0.8192557834   -2.1684415455   -1.0752547212
H       -1.4024550037   -1.0937286384   -2.6062146024
H       -2.2545309838    0.1049416984   -0.0476207893
H       -1.3323433035    1.6572267337   -1.8416204163
C        0.0125389733   -0.5152344879    0.2569781052
H        0.4461511621   -0.6488620643    1.2404718600
13   
From optimize.out: Frame 7 / 19, Energy=    -286.8033831382
C        1.2696323449    0.1287271192   -0.7970829796
C        0.4821288637   -1.1387989235   -1.0218136947
C       -0.8057794679   -0.6178342013   -1.7882758974
C       -1.2443258504   -0.0279390747   -0.4217225091
C       -0.6717323975    0.8600403285   -1.5357039135
N        0.7183861707    1.2455169685   -1.3534597749
H        2.1774889527    0.1438297982   -0.2040383173
H        0.8435707486   -2.1614459269   -1.1117218026
H       -1.3890872798   -1.1059399246   -2.5644400578
H       -2.2485973902    0.1297016513   -0.0451731399
H       -1.3262621557    1.6507354180   -1.8899675657
C        0.0062186093   -0.5403525249    0.2542645232
H        0.4055534171   -0.6843406188    1.2493398304
13   
From optimize.out: Frame 8 / 19, Energy=    -286.8102267050
C        1.2554468955    0.1311687010   -0.7798112284
C        0.4807768223   -1.1422394019   -1.0240709763
C       -0.8081618009   -0.6184875318   -1.7578789962
C       -1.2412806531   -0.0100750329   -0.4179726774
C       -0.6668789926    0.8716326810   -1.5358505252
N        0.7090941304    1.2495683191   -1.3336532657
H        2.1944158851    0.1505498173   -0.2378016492
H        0.8723614253   -2.1498012004   -1.1492343361
H       -1.3834206193   -1.1140785727   -2.5329089061
H       -2.2422897414    0.1501231258   -0.0344529765
H       -1.3195589424    1.6376465115   -1.9418105858
C        0.0012749134   -0.5593433934    0.2545992437
H        0.3654152431   -0.7147639335    1.2610515801
13   
From optimize.out: Frame 9 / 19, Energy=    -286.8145446746
C        1.2413261599    0.1331730189   -0.7573626413
C        0.4791316639   -1.1445428007   -1.0253729093
C       -0.8112192052   -0.6180025960   -1.7354786903
C       -1.2379092535    0.0058700189   -0.4135678449
C       -0.6626985308    0.8811114616   -1.5367089537
N        0.7028395394    1.2533127609   -1.3173968271
H        2.2091226278    0.1510332466   -0.2688760607
H        0.9010118207   -2.1347442880   -1.1830708188
H       -1.3844430269   -1.1175184181   -2.5081347991
H       -2.2352604479    0.1630641293   -0.0196827145
H       -1.3123351656    1.6204788635   -1.9925861265
C        0.0003726744   -0.5690473760    0.2560475207
H        0.3272557093   -0.7422879319    1.2723955667
13   
From optimize.out: Frame 10 / 19, Energy=    -286.8174505746
C        1.2265224697    0.1347711801   -0.7303120068
C        0.4775530393   -1.1466968689   -1.0268565905
C       -0.8135777123   -0.6169131054   -1.7198378159
C       -1.2332498826    0.0187381656   -0.4106748807
C       -0.6597062970    0.8889641495   -1.5389088975
N        0.6979623852    1.2561313774   -1.3081662542
H        2.2182430940    0.1489641863   -0.2925141257
H        0.9249745095   -2.1207557572   -1.2094160682
H       -1.3900631141   -1.1174536130   -2.4883591858
H       -2.2264965318    0.1699022179   -0.0043715834
H       -1.3058913215    1.6035514255   -2.0364435609
C        0.0064953565   -0.5683679389    0.2564514082
H        0.2944285706   -0.7689353298    1.2796142621
13   
From optimize.out: Frame 11 / 19, Energy=    -286.8199501799
C        1.2093062847    0.1345706116   -0.6988435172
C        0.4760835074   -1.1505186351   -1.0304949878
C       -0.8155857933   -0.6162176581   -1.7085748011
C       -1.2270200973    0.0285100627   -0.4093825242
C       -0.6576473219    0.8953851370   -1.5422528729
N        0.6928662348    1.2577411521   -1.3038928677
H        2.2198620806    0.1462732093   -0.3064879150
H        0.9436691215   -2.1106954446   -1.2314881816
H       -1.3971346688   -1.1150742643   -2.4730935449
H       -2.2154471077    0.1738796761    0.0104556016
H       -1.3006166038    1.5886557812   -2.0723621829
C        0.0196853039   -0.5613531875    0.2545591128
H        0.2691736253   -0.7892563512    1.2820633819
13   
From optimize.out: Frame 12 / 19, Energy=    -286.8222658817
C        1.1902556530    0.1324807292   -0.6639679102
C        0.4744753974   -1.1554760294   -1.0366205809
C       -0.8178282099   -0.6165061725   -1.7006017795
C       -1.2201580460    0.0354752142   -0.4086906514
C       -0.6560562961    0.9001167016   -1.5465779257
N        0.6883000833    1.2591602462   -1.3018566236
H        2.2156948257    0.1419530948   -0.3120523519
H        0.9584941478   -2.1032642037   -1.2527074044
H       -1.4055066226   -1.1115729510   -2.4617647202
H       -2.2033365752    0.1757426102    0.0249538175
H       -1.2960556571    1.5752166117   -2.1026206694
C        0.0381489039   -0.5499276571    0.2511800493
H        0.2507669611   -0.8014981052    1.2815314514
13   
From optimize.out: Frame 13 / 19, Energy=    -286.8239136359
C        1.1745510188    0.1320686547   -0.6312187040
C        0.4729538684   -1.1587216061   -1.0429854668
C       -0.8206025892   -0.6185841673   -1.6960679835
C       -1.2147121933    0.0390138704   -0.4077807587
C       -0.6546419866    0.9020114291   -1.5520576335
N        0.6871236989    1.2616885673   -1.3048464717
H        2.2112488686    0.1363311919   -0.3131191756
H        0.9712016696   -2.0957971494   -1.2687922486
H       -1.4169484285   -1.1085805013   -2.4538368599
H       -2.1928358535    0.1764026978    0.0382552149
H       -1.2926231486    1.5641531599   -2.1256800634
C        0.0589306423   -0.5325001121    0.2491918702
H        0.2335489986   -0.8155859460    1.2791429815
13   
From optimize.out: Frame 14 / 19, Energy=    -286.8245969484
C        1.1701031854    0.1379988695   -0.6117173441
C        0.4723576388   -1.1593555899   -1.0455869146
C       -0.8241146907   -0.6237224325   -1.6966112997
C       -1.2127874152    0.0374677374   -0.4073841458
C       -0.6538972939    0.8997111653   -1.5578588386
N        0.6899488017    1.2651136990   -1.3192608592
H        2.2133030871    0.1313721348   -0.3146016605
H        0.9863634833   -2.0879590286   -1.2671259919
H       -1.4318998495   -1.1065407294   -2.4520201573
H       -2.1859309609    0.1804688583    0.0481828769
H       -1.2933873030    1.5604703128   -2.1319880641
C        0.0772002088   -0.5107988919    0.2515085201
H        0.2099356737   -0.8423260158    1.2746685798
13   
From optimize.out: Frame 15 / 19, Energy=    -286.8248504002
C        1.1719828406    0.1376331741   -0.6161791833
C        0.4715131675   -1.1635894009   -1.0462165338
C       -0.8252604091   -0.6257697778   -1.7030559844
C       -1.2146381910    0.0315118348   -0.4105582729
C       -0.6548271717    0.8977518246   -1.5568609362
N        0.6894082005    1.2624427821   -1.3272367331
H        2.2130095596    0.1275353306   -0.3117618840
H        0.9925949432   -2.0912007090   -1.2544565181
H       -1.4341465205   -1.1010612220   -2.4629032404
H       -2.1869405003    0.1790939717    0.0454852372
H       -1.2971677106    1.5697774464   -2.1148824859
C        0.0770180102   -0.5123035251    0.2508271303
H        0.2146483469   -0.8299216405    1.2780041056
13   
From optimize.out: Frame 16 / 19, Energy=    -286.8249299358
C        1.1772570644    0.1396373159   -0.6243005470
C        0.4673224038   -1.1622901327   -1.0457275084
C       -0.8249153442   -0.6281185314   -1.7061178393
C       -1.2153060974    0.0279593074   -0.4129935973
C       -0.6557531323    0.8966586060   -1.5567623558
N        0.6933709609    1.2609939712   -1.3354547895
H        2.2140332016    0.1236861259   -0.3069211612
H        0.9885289431   -2.0931382441   -1.2394568543
H       -1.4324013709   -1.1001824818   -2.4708615506
H       -2.1891373306    0.1720039296    0.0414388293
H       -1.3028556809    1.5780672947   -2.0982691142
C        0.0789936628   -0.5065293937    0.2495348183
H        0.2180572849   -0.8268476780    1.2760963710
13   
From optimize.out: Frame 17 / 19, Energy=    -286.8249437214
C        1.1739686155    0.1388035180   -0.6216586735
C        0.4691324214   -1.1652360820   -1.0477340258
C       -0.8265398614   -0.6291061681   -1.7089935664
C       -1.2148801836    0.0290460186   -0.4132559340
C       -0.6563181216    0.8960674288   -1.5572586293
N        0.6915984930    1.2594691499   -1.3360108918
H        2.2097716355    0.1253023880   -0.3010794830
H        0.9907744541   -2.0964584381   -1.2387696590
H       -1.4344845794   -1.0991030545   -2.4743936112
H       -2.1880370827    0.1753641733    0.0420705541
H       -1.3029458684    1.5797931929   -2.0962713387
C        0.0799028386   -0.5103159707    0.2475276859
H        0.2252518046   -0.8217260671    1.2760322738
13   
From optimize.out: Frame 18 / 19, Energy=    -286.8249527070
C        1.1745384844    0.1391879646   -0.6219537702
C        0.4692142489   -1.1643122528   -1.0464795188
C       -0.8255123666   -0.6282489626   -1.7079405725
C       -1.2154737603    0.0281836620   -0.4131996015
C       -0.6561990735    0.8964913795   -1.5560929915
N        0.6914566471    1.2601176600   -1.3339972670
H        2.2116022950    0.1253574650   -0.3051435755
H        0.9875041040   -2.0969784115   -1.2394825314
H       -1.4324595824   -1.0990858494   -2.4729605478
H       -2.1893777688    0.1733878233    0.0407491208
H       -1.3019252807    1.5788533072   -2.0977122985
C        0.0795456410   -0.5083736972    0.2484258563
H        0.2242809774   -0.8226799990    1.2759923987
