13   
From optimize.out: Frame 1 / 19, Energy=    -286.6473065449
C        0.0289810000   -0.1395020000   -0.0000000000
C       -0.1877170000    0.0071660000   -0.0000000000
C       -0.1216960000    0.0477600000   -0.0000000000
C       -0.1629390000   -0.0408860000   -0.0000000000
C       -0.0676990000   -0.0148880000   -0.0000000000
N       -0.3267950000    0.7686640000   -0.0000000000
H        0.1699340000    0.0065250000    0.0000000000
H        0.1565270000    0.0141290000   -0.0000000000
H        0.1675820000   -0.0035960000   -0.0000000000
H        0.1560240000    0.0001370000    0.0000000000
H        0.1526720000    0.0012120000   -0.0000000000
C       -0.1378140000    0.3696400000    0.0000000000
H        0.1729410000   -0.0163620000    0.0000000000
13   
From optimize.out: Frame 2 / 19, Energy=    -286.6905882509
C        0.0323850000   -0.1391480000   -0.0000000000
C       -0.1948150000    0.0087560000   -0.0000000000
C       -0.1135440000    0.0495450000   -0.0000000000
C       -0.1550820000   -0.0358150000   -0.0000000000
C       -0.0728990000   -0.0125570000   -0.0000000000
N       -0.3289430000    0.7487380000   -0.0000000000
H        0.1664060000    0.0063330000   -0.0000000000
H        0.1551030000    0.0150010000   -0.0000000000
H        0.1640800000   -0.0033610000   -0.0000000000
H        0.1536950000    0.0001490000    0.0000000000
H        0.1522700000    0.0012120000   -0.0000000000
C       -0.1287730000    0.3780500000    0.0000000000
H        0.1701170000   -0.0169020000    0.0000000000
13   
From optimize.out: Frame 3 / 19, Energy=    -286.7271383926
C        0.0322370000   -0.1376340000   -0.0000000000
C       -0.1979190000    0.0110360000   -0.0000000000
C       -0.1064710000    0.0511690000   -0.0000000000
C       -0.1452220000   -0.0283370000   -0.0000000000
C       -0.0756550000   -0.0126860000   -0.0000000000
N       -0.3286380000    0.7286980000   -0.0000000000
H        0.1626940000    0.0061060000   -0.0000000000
H        0.1536180000    0.0156300000   -0.0000000000
H        0.1590950000   -0.0032580000   -0.0000000000
H        0.1513350000    0.0000140000   -0.0000000000
H        0.1517790000    0.0011580000   -0.0000000000
C       -0.1234120000    0.3855410000    0.0000000000
H        0.1665590000   -0.0174340000    0.0000000000
13   
From optimize.out: Frame 4 / 19, Energy=    -286.7557894188
C        0.0270440000   -0.1370170000   -0.0000000000
C       -0.1953400000    0.0144150000   -0.0000000000
C       -0.1039150000    0.0543560000   -0.0000000000
C       -0.1347920000   -0.0183080000   -0.0000000000
C       -0.0753520000   -0.0173290000   -0.0000000000
N       -0.3250880000    0.7141480000   -0.0000000000
H        0.1594870000    0.0058630000   -0.0000000000
H        0.1520600000    0.0155090000   -0.0000000000
H        0.1541460000   -0.0032830000   -0.0000000000
H        0.1493260000   -0.0002530000   -0.0000000000
H        0.1513720000    0.0010490000   -0.0000000000
C       -0.1218390000    0.3886420000    0.0000000000
H        0.1628910000   -0.0177920000    0.0000000000
13   
From optimize.out: Frame 5 / 19, Energy=    -286.7774195889
C        0.0188640000   -0.1370460000   -0.0000000000
C       -0.1885020000    0.0185960000   -0.0000000000
C       -0.1051150000    0.0590230000   -0.0000000000
C       -0.1257790000   -0.0062830000   -0.0000000000
C       -0.0727500000   -0.0250470000   -0.0000000000
N       -0.3199170000    0.7038430000   -0.0000000000
H        0.1568960000    0.0055870000   -0.0000000000
H        0.1503200000    0.0146780000   -0.0000000000
H        0.1502840000   -0.0033520000   -0.0000000000
H        0.1477960000   -0.0006390000   -0.0000000000
H        0.1509510000    0.0009220000   -0.0000000000
C       -0.1225100000    0.3876870000    0.0000000000
H        0.1594620000   -0.0179690000    0.0000000000
13   
From optimize.out: Frame 6 / 19, Energy=    -286.7928827523
C        0.0101040000   -0.1371910000   -0.0000000000
C       -0.1799970000    0.0229480000   -0.0000000000
C       -0.1076970000    0.0642840000   -0.0000000000
C       -0.1204750000    0.0057010000   -0.0000000000
C       -0.0686190000   -0.0332040000   -0.0000000000
N       -0.3148050000    0.6961780000   -0.0000000000
H        0.1548270000    0.0052080000   -0.0000000000
H        0.1485130000    0.0134200000   -0.0000000000
H        0.1476330000   -0.0034310000   -0.0000000000
H        0.1467620000   -0.0010640000   -0.0000000000
H        0.1505170000    0.0008180000   -0.0000000000
C       -0.1233870000    0.3843460000    0.0000000000
H        0.1566230000   -0.0180130000    0.0000000000
13   
From optimize.out: Frame 7 / 19, Energy=    -286.8033831382
C        0.0019690000   -0.1366540000   -0.0000000000
C       -0.1718200000    0.0272520000   -0.0000000000
C       -0.1098070000    0.0692630000   -0.0000000000
C       -0.1197800000    0.0161140000   -0.0000000000
C       -0.0634390000   -0.0401270000   -0.0000000000
N       -0.3102220000    0.6910380000   -0.0000000000
H        0.1529890000    0.0046870000   -0.0000000000
H        0.1468410000    0.0119630000   -0.0000000000
H        0.1459270000   -0.0035400000   -0.0000000000
H        0.1460930000   -0.0014540000   -0.0000000000
H        0.1499290000    0.0007580000   -0.0000000000
C       -0.1232210000    0.3785920000    0.0000000000
H        0.1545420000   -0.0178920000    0.0000000000
13   
From optimize.out: Frame 8 / 19, Energy=    -286.8102267050
C       -0.0058300000   -0.1344880000   -0.0000000000
C       -0.1640730000    0.0321300000   -0.0000000000
C       -0.1111000000    0.0734570000   -0.0000000000
C       -0.1223010000    0.0255200000   -0.0000000000
C       -0.0578990000   -0.0460990000   -0.0000000000
N       -0.3058000000    0.6911810000   -0.0000000000
H        0.1513430000    0.0040430000   -0.0000000000
H        0.1453560000    0.0103080000   -0.0000000000
H        0.1448220000   -0.0036660000   -0.0000000000
H        0.1456030000   -0.0018170000   -0.0000000000
H        0.1492340000    0.0007370000   -0.0000000000
C       -0.1224160000    0.3660600000    0.0000000000
H        0.1530620000   -0.0173660000    0.0000000000
13   
From optimize.out: Frame 9 / 19, Energy=    -286.8145446746
C       -0.0141560000   -0.1294550000   -0.0000000000
C       -0.1556000000    0.0389280000   -0.0000000000
C       -0.1123520000    0.0768510000   -0.0000000000
C       -0.1253230000    0.0356880000   -0.0000000000
C       -0.0530120000   -0.0523980000   -0.0000000000
N       -0.3011190000    0.7014310000   -0.0000000000
H        0.1501110000    0.0033050000   -0.0000000000
H        0.1440700000    0.0082840000   -0.0000000000
H        0.1440730000   -0.0037510000   -0.0000000000
H        0.1451200000   -0.0021880000   -0.0000000000
H        0.1487680000    0.0007580000   -0.0000000000
C       -0.1223370000    0.3385450000    0.0000000000
H        0.1517570000   -0.0159970000    0.0000000000
13   
From optimize.out: Frame 10 / 19, Energy=    -286.8174505746
C       -0.0233460000   -0.1204730000   -0.0000000000
C       -0.1457040000    0.0485760000   -0.0000000000
C       -0.1146920000    0.0799540000   -0.0000000000
C       -0.1268840000    0.0481680000   -0.0000000000
C       -0.0492600000   -0.0599080000   -0.0000000000
N       -0.2960070000    0.7238690000   -0.0000000000
H        0.1493720000    0.0025420000   -0.0000000000
H        0.1431020000    0.0057850000   -0.0000000000
H        0.1435650000   -0.0037180000   -0.0000000000
H        0.1445890000   -0.0025450000   -0.0000000000
H        0.1487520000    0.0008250000   -0.0000000000
C       -0.1236820000    0.2904040000    0.0000000000
H        0.1501940000   -0.0134790000    0.0000000000
13   
From optimize.out: Frame 11 / 19, Energy=    -286.8199501799
C       -0.0329270000   -0.1080290000   -0.0000000000
C       -0.1351150000    0.0599800000   -0.0000000000
C       -0.1186030000    0.0827350000   -0.0000000000
C       -0.1275450000    0.0626840000   -0.0000000000
C       -0.0457880000   -0.0677890000   -0.0000000000
N       -0.2911100000    0.7529940000   -0.0000000000
H        0.1488800000    0.0018690000   -0.0000000000
H        0.1425200000    0.0030700000   -0.0000000000
H        0.1432500000   -0.0034710000   -0.0000000000
H        0.1440990000   -0.0027610000    0.0000000000
H        0.1490360000    0.0009140000   -0.0000000000
C       -0.1250240000    0.2279970000    0.0000000000
H        0.1483290000   -0.0101940000    0.0000000000
13   
From optimize.out: Frame 12 / 19, Energy=    -286.8222658817
C       -0.0412700000   -0.0947090000   -0.0000000000
C       -0.1259280000    0.0707820000   -0.0000000000
C       -0.1231880000    0.0846500000   -0.0000000000
C       -0.1280680000    0.0767950000   -0.0000000000
C       -0.0424640000   -0.0742950000   -0.0000000000
N       -0.2877570000    0.7810430000   -0.0000000000
H        0.1486030000    0.0013980000   -0.0000000000
H        0.1423180000    0.0006000000   -0.0000000000
H        0.1431400000   -0.0030010000   -0.0000000000
H        0.1437720000   -0.0027090000    0.0000000000
H        0.1494140000    0.0009830000   -0.0000000000
C       -0.1249830000    0.1653600000    0.0000000000
H        0.1464120000   -0.0068970000    0.0000000000
13   
From optimize.out: Frame 13 / 19, Energy=    -286.8239136359
C       -0.0461650000   -0.0842500000   -0.0000000000
C       -0.1211870000    0.0793830000   -0.0000000000
C       -0.1259610000    0.0856800000   -0.0000000000
C       -0.1281650000    0.0872950000   -0.0000000000
C       -0.0408910000   -0.0784070000   -0.0000000000
N       -0.2864980000    0.8021420000   -0.0000000000
H        0.1487110000    0.0011650000   -0.0000000000
H        0.1425410000   -0.0012730000   -0.0000000000
H        0.1432080000   -0.0025180000   -0.0000000000
H        0.1437310000   -0.0024850000    0.0000000000
H        0.1496770000    0.0010100000   -0.0000000000
C       -0.1237790000    0.1164900000    0.0000000000
H        0.1447780000   -0.0042320000    0.0000000000
13   
From optimize.out: Frame 14 / 19, Energy=    -286.8245969484
C       -0.0470300000   -0.0792310000   -0.0000000000
C       -0.1228990000    0.0858260000   -0.0000000000
C       -0.1244750000    0.0870980000   -0.0000000000
C       -0.1279630000    0.0922340000   -0.0000000000
C       -0.0422980000   -0.0804190000   -0.0000000000
N       -0.2861950000    0.8132770000   -0.0000000000
H        0.1491790000    0.0010900000   -0.0000000000
H        0.1432840000   -0.0024670000   -0.0000000000
H        0.1434160000   -0.0023180000   -0.0000000000
H        0.1440300000   -0.0023820000    0.0000000000
H        0.1496210000    0.0010170000   -0.0000000000
C       -0.1226110000    0.0887880000    0.0000000000
H        0.1439390000   -0.0025140000    0.0000000000
13   
From optimize.out: Frame 15 / 19, Energy=    -286.8248504002
C       -0.0465900000   -0.0798420000   -0.0000000000
C       -0.1239080000    0.0872260000   -0.0000000000
C       -0.1249870000    0.0888890000   -0.0000000000
C       -0.1265340000    0.0911980000   -0.0000000000
C       -0.0427330000   -0.0805580000   -0.0000000000
N       -0.2858590000    0.8116250000   -0.0000000000
H        0.1491750000    0.0010710000   -0.0000000000
H        0.1437340000   -0.0025170000   -0.0000000000
H        0.1438020000   -0.0023850000   -0.0000000000
H        0.1440870000   -0.0024120000    0.0000000000
H        0.1493750000    0.0010350000   -0.0000000000
C       -0.1234090000    0.0892280000    0.0000000000
H        0.1438460000   -0.0025570000    0.0000000000
13   
From optimize.out: Frame 16 / 19, Energy=    -286.8249299358
C       -0.0445020000   -0.0809440000   -0.0000000000
C       -0.1247660000    0.0888170000   -0.0000000000
C       -0.1237750000    0.0890870000   -0.0000000000
C       -0.1247050000    0.0887700000   -0.0000000000
C       -0.0454110000   -0.0802630000   -0.0000000000
N       -0.2860390000    0.8107070000   -0.0000000000
H        0.1494410000    0.0010520000   -0.0000000000
H        0.1439220000   -0.0025210000   -0.0000000000
H        0.1438420000   -0.0025780000   -0.0000000000
H        0.1440310000   -0.0024720000    0.0000000000
H        0.1493840000    0.0010470000   -0.0000000000
C       -0.1252900000    0.0917980000    0.0000000000
H        0.1438670000   -0.0024990000    0.0000000000
13   
From optimize.out: Frame 17 / 19, Energy=    -286.8249437214
C       -0.0449180000   -0.0804420000   -0.0000000000
C       -0.1249010000    0.0899910000   -0.0000000000
C       -0.1251240000    0.0897120000   -0.0000000000
C       -0.1251260000    0.0887090000   -0.0000000000
C       -0.0445660000   -0.0802920000   -0.0000000000
N       -0.2857940000    0.8109910000   -0.0000000000
H        0.1492660000    0.0010410000   -0.0000000000
H        0.1441260000   -0.0025470000   -0.0000000000
H        0.1441100000   -0.0025310000   -0.0000000000
H        0.1439830000   -0.0024250000    0.0000000000
H        0.1493530000    0.0010470000   -0.0000000000
C       -0.1242810000    0.0892210000    0.0000000000
H        0.1438720000   -0.0024760000    0.0000000000
13   
From optimize.out: Frame 18 / 19, Energy=    -286.8249527070
C       -0.0447190000   -0.0805040000   -0.0000000000
C       -0.1246290000    0.0895320000   -0.0000000000
C       -0.1250060000    0.0895260000   -0.0000000000
C       -0.1247410000    0.0890050000   -0.0000000000
C       -0.0446920000   -0.0802840000   -0.0000000000
N       -0.2858280000    0.8106740000   -0.0000000000
H        0.1492730000    0.0010470000   -0.0000000000
H        0.1440070000   -0.0025180000   -0.0000000000
H        0.1439920000   -0.0025250000   -0.0000000000
H        0.1440090000   -0.0024570000    0.0000000000
H        0.1493180000    0.0010460000   -0.0000000000
C       -0.1248730000    0.0899550000    0.0000000000
H        0.1438900000   -0.0024960000    0.0000000000
