13   
From optimize.out: Frame 23 / 24, Energy=    -286.8707992376
C        1.0182254745    0.4598106110   -1.4022864946
C       -1.0955307097   -0.5215895079   -0.5842454049
C       -1.6693171427   -0.7768051161    0.6358831098
C       -0.7533893595   -0.3293668196    1.6373208423
C        0.3460334653    0.1832789227    0.9933749780
N        0.1409794024    0.0681610131   -0.3703629470
H        0.6075246801    0.2601118465   -2.3914448729
H       -1.4453017255   -0.7022057706   -1.5907590313
H       -2.6369128068   -1.2322000025    0.7978683765
H       -0.8902570383   -0.3789841273    2.7093083715
H        1.2549405289    0.6213926643    1.3773203071
C        2.2091632495    1.0082448213   -1.2793551747
H        2.9138419820    1.3401514649   -0.5326220593
13   
From optimize.out: Frame 22 / 24, Energy=    -286.8707956459
C        1.0185556481    0.4591835062   -1.4007498885
C       -1.0962483883   -0.5203596054   -0.5841441001
C       -1.6700344380   -0.7762330840    0.6353865605
C       -0.7536014658   -0.3308062756    1.6377494759
C        0.3462330654    0.1817795931    0.9949288985
N        0.1404971754    0.0693178379   -0.3692106641
H        0.6090719303    0.2575390487   -2.3902687192
H       -1.4447831711   -0.7024233834   -1.5908511606
H       -2.6381806946   -1.2305566019    0.7968302706
H       -0.8911277185   -0.3810803551    2.7095977022
H        1.2545282234    0.6210829921    1.3796800858
C        2.2092567775    1.0085445252   -1.2811298138
H        2.9158330561    1.3440118024   -0.5378186472
13   
From optimize.out: Frame 21 / 24, Energy=    -286.8707808590
C        1.0211008042    0.4547712572   -1.3987470039
C       -1.0997587736   -0.5165289300   -0.5837668636
C       -1.6716752706   -0.7743737114    0.6356563139
C       -0.7516087074   -0.3335292547    1.6373998692
C        0.3464809805    0.1800684779    0.9936483096
N        0.1390646057    0.0693937648   -0.3705784063
H        0.6188368302    0.2475698106   -2.3903525434
H       -1.4496249251   -0.6999714446   -1.5896421149
H       -2.6409033594   -1.2261003032    0.7976462982
H       -0.8873880785   -0.3853970753    2.7093949004
H        1.2554174628    0.6185501894    1.3764350657
C        2.2090243986    1.0106900445   -1.2804205133
H        2.9110340325    1.3548571747   -0.5366733115
13   
From optimize.out: Frame 20 / 24, Energy=    -286.8707365981
C        1.0061983114    0.4876685903   -1.4006948038
C       -1.0884686106   -0.5312773256   -0.5838368052
C       -1.6579666361   -0.8007891295    0.6348379419
C       -0.7582336756   -0.3247795373    1.6384067617
C        0.3318391218    0.2109510035    0.9966061255
N        0.1347646662    0.0870189009   -0.3675943634
H        0.5614717829    0.3565475033   -2.3861660133
H       -1.4235612014   -0.7324929950   -1.5911508237
H       -2.6150489063   -1.2780711735    0.7960911694
H       -0.9002912424   -0.3675548280    2.7103025753
H        1.2202735319    0.6881052609    1.3837859827
C        2.2260928990    0.9719229994   -1.2870383100
H        2.9629299590    1.2327507306   -0.5435494372
13   
From optimize.out: Frame 19 / 24, Energy=    -286.8705090359
C        0.9862951361    0.5310877185   -1.4069643284
C       -1.0789051001   -0.5515274178   -0.5854410160
C       -1.6336294737   -0.8347244393    0.6377192243
C       -0.7542754013   -0.3112567525    1.6349548618
C        0.3119353201    0.2622057170    0.9858210851
N        0.1177630415    0.1170363345   -0.3761662840
H        0.5141475996    0.5159047900   -2.3880768406
H       -1.4010717557   -0.7855162561   -1.5896204268
H       -2.5726190186   -1.3448410477    0.8051871298
H       -0.8978048763   -0.3405146611    2.7070604444
H        1.1787942982    0.7852560276    1.3623782793
C        2.2420293825    0.9118327926   -1.2784464842
H        2.9873408477    1.0450571943   -0.5084056447
13   
From optimize.out: Frame 18 / 24, Energy=    -286.8700877818
C        0.9702894790    0.5756909615   -1.4106064830
C       -1.0637229665   -0.5702558548   -0.5863071590
C       -1.6070179690   -0.8688484687    0.6396591292
C       -0.7545683695   -0.2991014435    1.6338623402
C        0.2875988338    0.3149409436    0.9808478423
N        0.1037970772    0.1478055892   -0.3794981529
H        0.4739218218    0.6732227821   -2.3743744002
H       -1.3710542827   -0.8266191882   -1.5893905057
H       -2.5265693605   -1.4126034253    0.8101705958
H       -0.9029245475   -0.3192314893    2.7057090306
H        1.1300114265    0.8808770357    1.3523180767
C        2.2542615698    0.8481604362   -1.2791583395
H        3.0059772876    0.8559621216   -0.5032319745
13   
From optimize.out: Frame 17 / 24, Energy=    -286.8694067898
C        0.9542564907    0.6216299196   -1.4125891956
C       -1.0455877276   -0.5903027282   -0.5869533036
C       -1.5788807669   -0.8967482503    0.6423437521
C       -0.7514393622   -0.2859324742    1.6316494886
C        0.2651720437    0.3645909111    0.9732202633
N        0.0854388526    0.1836265059   -0.3856482372
H        0.4535074113    0.8335350038   -2.3560025995
H       -1.3375641519   -0.8740325048   -1.5873354849
H       -2.4789939862   -1.4713114424    0.8157585287
H       -0.9043178607   -0.2959682872    2.7026620432
H        1.0867877401    0.9637295240    1.3371245699
C        2.2566346788    0.7830701422   -1.2780076355
H        2.9949866384    0.6641136805   -0.4962221895
13   
From optimize.out: Frame 16 / 24, Energy=    -286.8685039504
C        0.9457678898    0.6629238541   -1.4117975179
C       -1.0305366933   -0.6021417316   -0.5873652185
C       -1.5491858142   -0.9249393768    0.6445062148
C       -0.7463145162   -0.2773879424    1.6307175900
C        0.2344502614    0.4213820745    0.9679975757
N        0.0642191001    0.2223526490   -0.3900637123
H        0.4536891642    0.9828556484   -2.3293729328
H       -1.3107172488   -0.9054896097   -1.5852921646
H       -2.4266275258   -1.5329660626    0.8203085501
H       -0.9010834579   -0.2874055497    2.7014700625
H        1.0321622733    1.0559802493    1.3260807114
C        2.2574839592    0.7106417591   -1.2807897490
H        2.9766926081    0.4741940385   -0.5063994093
13   
From optimize.out: Frame 15 / 24, Energy=    -286.8673380169
C        0.9358531029    0.7069661942   -1.4065753735
C       -1.0065476995   -0.6165937398   -0.5861867022
C       -1.5218037871   -0.9453101267    0.6456646910
C       -0.7434327160   -0.2677443116    1.6302052883
C        0.2097400409    0.4663972063    0.9664847024
N        0.0433310460    0.2640430309   -0.3925614949
H        0.4628253949    1.1316598301   -2.2923708342
H       -1.2704926011   -0.9437878883   -1.5815102539
H       -2.3785388781   -1.5827415269    0.8191154702
H       -0.9033666870   -0.2742691081    2.6995567834
H        0.9846065677    1.1266658832    1.3220255999
C        2.2472942681    0.6423349496   -1.2904272747
H        2.9405319483    0.2923796072   -0.5334206018
13   
From optimize.out: Frame 14 / 24, Energy=    -286.8659423306
C        0.9326550520    0.7439665784   -1.3980526013
C       -0.9863781968   -0.6217024933   -0.5855602581
C       -1.4924097475   -0.9652524713    0.6455356897
C       -0.7364092517   -0.2627602139    1.6302451104
C        0.1778787896    0.5177327782    0.9678335963
N        0.0198503274    0.3077055458   -0.3933504446
H        0.4907088660    1.2642856076   -2.2493734154
H       -1.2402338496   -0.9646079831   -1.5787494243
H       -2.3251933849   -1.6343639299    0.8158806696
H       -0.8982135700   -0.2763104701    2.6988513835
H        0.9253759178    1.2082874358    1.3215368802
C        2.2343898201    0.5677817085   -1.3024740884
H        2.8979792277    0.1152379073   -0.5723230977
13   
From optimize.out: Frame 13 / 24, Energy=    -286.8643201311
C        0.9312085578    0.7810709202   -1.3851799695
C       -0.9591583862   -0.6262407012   -0.5832556453
C       -1.4659185932   -0.9806806072    0.6439006111
C       -0.7332739781   -0.2584407833    1.6316748238
C        0.1498133431    0.5596909081    0.9750691821
N       -0.0025995517    0.3531753356   -0.3904827996
H        0.5228549505    1.3882594648   -2.1961361316
H       -1.2024608976   -0.9823338554   -1.5755750365
H       -2.2749636823   -1.6802010969    0.8059739318
H       -0.8995269435   -0.2787221176    2.6987650229
H        0.8667030218    1.2767285954    1.3321388385
C        2.2138973123    0.4966250949   -1.3224004808
H        2.8534248471   -0.0489311575   -0.6344923470
13   
From optimize.out: Frame 12 / 24, Energy=    -286.8622973096
C        0.9314474212    0.8068071877   -1.3681699617
C       -0.9354326017   -0.6206052114   -0.5834987454
C       -1.4343924181   -0.9927317882    0.6399929726
C       -0.7210920867   -0.2554539186    1.6302768571
C        0.1204335233    0.6062703698    0.9826285183
N       -0.0283830141    0.4021897287   -0.3892342644
H        0.5655732117    1.4838535432   -2.1453592384
H       -1.1833180480   -0.9817708276   -1.5752871452
H       -2.2144399954   -1.7262276277    0.7931814496
H       -0.8875217763   -0.2921875615    2.6951429353
H        0.7992251237    1.3512398982    1.3432232205
C        2.1856086748    0.4198528413   -1.3336441569
H        2.8022919856   -0.2012366339   -0.6892524414
13   
From optimize.out: Frame 11 / 24, Energy=    -286.8599446829
C        0.9433802743    0.8312102067   -1.3650705739
C       -0.9135518344   -0.6200358710   -0.5796813597
C       -1.4173711401   -0.9995415714    0.6394868382
C       -0.7149250076   -0.2567321381    1.6339166552
C        0.0924426148    0.6402423765    0.9900917288
N       -0.0596105114    0.4484818914   -0.3886892309
H        0.6147496238    1.5594870100   -2.1118250857
H       -1.1694304682   -0.9786773908   -1.5716942371
H       -2.1696276523   -1.7634127934    0.7839154809
H       -0.8728764361   -0.3120354802    2.6995242105
H        0.7359312346    1.4153494890    1.3583727531
C        2.1631169522    0.3543406030   -1.3437756706
H        2.7677723504   -0.3186763319   -0.7445715087
13   
From optimize.out: Frame 10 / 24, Energy=    -286.8570371424
C        0.9476529160    0.8423381737   -1.3522432723
C       -0.8955086798   -0.6083447303   -0.5835574968
C       -1.3820661621   -1.0070910844    0.6344217491
C       -0.6985639787   -0.2469421054    1.6272904017
C        0.0719536681    0.6790373939    0.9896247993
N       -0.0905914495    0.4956761199   -0.3939672545
H        0.6554072362    1.6096981025   -2.0758834401
H       -1.1810853367   -0.9545180065   -1.5756847370
H       -2.0944401166   -1.8092191414    0.7744113802
H       -0.8468900532   -0.3230044211    2.6900725304
H        0.6712597014    1.4773891202    1.3616157495
C        2.1250562960    0.2799419174   -1.3286651391
H        2.7178159589   -0.4349613385   -0.7674352706
13   
From optimize.out: Frame 9 / 24, Energy=    -286.8531795115
C        0.9638889066    0.8477282974   -1.3558556780
C       -0.8864550236   -0.5985439786   -0.5882290283
C       -1.3500329245   -1.0150562421    0.6317418512
C       -0.6864763166   -0.2360262903    1.6215444202
C        0.0538734832    0.7105132707    0.9813265860
N       -0.1236079105    0.5358925477   -0.4031175530
H        0.6818705426    1.6298604843   -2.0660560485
H       -1.2113598138   -0.9165004556   -1.5801364182
H       -2.0188860604   -1.8537552891    0.7740548196
H       -0.8153808929   -0.3328168281    2.6838308154
H        0.6128497240    1.5333510560    1.3583559878
C        2.0957610085    0.2145128856   -1.2981210981
H        2.6839552776   -0.5191594580   -0.7593386559
13   
From optimize.out: Frame 8 / 24, Energy=    -286.8473531683
C        0.9900246218    0.8507807481   -1.3676004503
C       -0.8892794579   -0.5847485134   -0.5956867917
C       -1.3080817556   -1.0287914886    0.6281224121
C       -0.6814593586   -0.2166295391    1.6124950759
C        0.0433346036    0.7352935962    0.9669773463
N       -0.1558045429    0.5693192653   -0.4122995218
H        0.6891059029    1.6318163560   -2.0675662710
H       -1.2528304112   -0.8664842845   -1.5870189424
H       -1.9265696271   -1.9033303106    0.7829978533
H       -0.7933301653   -0.3261426515    2.6727488065
H        0.5710371391    1.5718350725    1.3457375619
C        2.0680021325    0.1560882897   -1.2561888829
H        2.6458509187   -0.5890065400   -0.7227181959
13   
From optimize.out: Frame 7 / 24, Energy=    -286.8382623564
C        1.0393810384    0.8601784428   -1.3964368071
C       -0.9122983920   -0.5770886205   -0.5975033174
C       -1.2772660109   -1.0520713604    0.6288803862
C       -0.6968094841   -0.1996775960    1.6118414179
C        0.0312550501    0.7431844289    0.9596381907
N       -0.1883847741    0.5869987819   -0.4110379345
H        0.7047870598    1.6368191618   -2.0784641693
H       -1.2984306246   -0.8192257375   -1.5894034555
H       -1.8501680461   -1.9532976810    0.8062169064
H       -0.7989746359   -0.3108015568    2.6722077123
H        0.5425635407    1.5871302943    1.3376156864
C        2.0682538098    0.1246340321   -1.2373656571
H        2.6360914690   -0.6267825896   -0.7061889589
13   
From optimize.out: Frame 6 / 24, Energy=    -286.8263798833
C        1.1051505253    0.8767675180   -1.4344412211
C       -0.9492728725   -0.5792680093   -0.5918829803
C       -1.2665002954   -1.0822555648    0.6347789729
C       -0.7296452358   -0.1916850576    1.6217661198
C        0.0129888577    0.7367583854    0.9582703136
N       -0.2182315838    0.5946263353   -0.4034262936
H        0.7385929475    1.6498166919   -2.0938698015
H       -1.3441445259   -0.7777034103   -1.5850069297
H       -1.8010129331   -2.0018487821    0.8383488994
H       -0.8242671964   -0.2963376826    2.6871221070
H        0.5196671851    1.5919569693    1.3378405948
C        2.0980739264    0.1170370101   -1.2471244450
H        2.6586012009   -0.6378644032   -0.7223753363
13   
From optimize.out: Frame 5 / 24, Energy=    -286.8128731974
C        1.1733104758    0.8969892259   -1.4678368221
C       -0.9942875193   -0.5867539963   -0.5834948749
C       -1.2621916579   -1.1176424390    0.6405714048
C       -0.7721371640   -0.1861230597    1.6326650104
C       -0.0047913036    0.7235371366    0.9587016286
N       -0.2411570060    0.6002065497   -0.3929966321
H        0.7818409337    1.6693874674   -2.1029642966
H       -1.3942668200   -0.7382002600   -1.5764083358
H       -1.7579054824   -2.0524750881    0.8728088193
H       -0.8629631160   -0.2783226615    2.7052870846
H        0.5019578547    1.5921613391    1.3430262264
C        2.1396369044    0.1187013922   -1.2713551492
H        2.6929539007   -0.6414656063   -0.7580040636
13   
From optimize.out: Frame 4 / 24, Energy=    -286.7975730678
C        1.2415923064    0.9189809678   -1.4954981906
C       -1.0469330360   -0.5984697656   -0.5725437193
C       -1.2658794793   -1.1591975901    0.6467957635
C       -0.8229148205   -0.1850087779    1.6428568724
C       -0.0199447886    0.7064699741    0.9555112304
N       -0.2532991017    0.6040443855   -0.3844201991
H        0.8315249710    1.6910102592   -2.1066599053
H       -1.4508361535   -0.6975215727   -1.5620269380
H       -1.7233433461   -2.1057285176    0.9103580956
H       -0.9117382285   -0.2590599730    2.7263048284
H        0.4918492310    1.5944572357    1.3466435529
C        2.1917678382    0.1270936907   -1.3031261625
H        2.7381546077   -0.6370703162   -0.8041952285
13   
From optimize.out: Frame 3 / 24, Energy=    -286.7794601226
C        1.2938075487    0.9341641212   -1.5121954147
C       -1.0983615497   -0.6046318420   -0.5623796822
C       -1.2605764931   -1.2014887163    0.6507711878
C       -0.8785533971   -0.1822596883    1.6470497218
C       -0.0299293260    0.6859174200    0.9459131762
N       -0.2546269139    0.6044259594   -0.3832127546
H        0.8745512073    1.7047286322   -2.1076405602
H       -1.5124925860   -0.6496446739   -1.5434900081
H       -1.6764847849   -2.1586130318    0.9445332895
H       -0.9660507056   -0.2348532870    2.7420720262
H        0.4952147027    1.5991729488    1.3440026409
C        2.2368350465    0.1343217725   -1.3269684182
H        2.7766672510   -0.6312396148   -0.8384552046
13   
From optimize.out: Frame 2 / 24, Energy=    -286.7541324367
C        1.3296340228    0.9449918462   -1.5221881047
C       -1.1449391287   -0.6107580571   -0.5622639501
C       -1.2632921560   -1.2481639762    0.6479924156
C       -0.9324708990   -0.1838769974    1.6539613576
C       -0.0312678637    0.6618311836    0.9317854119
N       -0.2461403893    0.6004751298   -0.3922556899
H        0.9093738326    1.7114148454   -2.1047273515
H       -1.5598416906   -0.5908620668   -1.5305939817
H       -1.6461359153   -2.2105723503    0.9736475697
H       -1.0154396383   -0.2113813992    2.7706885878
H        0.5267175838    1.6293445031    1.3404383761
C        2.2714819709    0.1351983123   -1.3420280088
H        2.8023202710   -0.6276409736   -0.8644566320
13   
From optimize.out: Frame 1 / 24, Energy=    -286.7230800497
C        1.3396769405    0.9502145739   -1.5265008663
C       -1.1728805603   -0.5993345306   -0.5655021897
C       -1.2312864192   -1.2785218752    0.6390811712
C       -0.9891504728   -0.1759828685    1.6547684495
C       -0.0305562701    0.6353022188    0.9279559693
N       -0.2391005673    0.6006694296   -0.3993810155
H        0.9270293165    1.7146850937   -2.0940537750
H       -1.5877808175   -0.5331078697   -1.5141590060
H       -1.5682452295   -2.2525425971    0.9847616213
H       -1.0828300547   -0.1862394228    2.7917714390
H        0.5580021205    1.6420161802    1.3489138602
C        2.2795667107    0.1216888612   -1.3541494419
H        2.7975553031   -0.6388471934   -0.8935062160
13   
C6H6N->C2H2+C4H4N atoms 1-13 frame 932 charge -0.000 sz -1.000 sz^2 0.680
C        1.3396769405    0.9502145739   -1.5265008663
C       -1.1728805603   -0.5993345306   -0.5655021897
C       -1.2312864192   -1.2785218752    0.6390811712
C       -0.9891504728   -0.1759828685    1.6547684495
C       -0.0305562701    0.6353022188    0.9279559693
N       -0.2391005673    0.6006694296   -0.3993810155
H        0.9270293165    1.7146850937   -2.0940537750
H       -1.5877808175   -0.5331078697   -1.5141590060
H       -1.5682452295   -2.2525425971    0.9847616213
H       -1.0828300547   -0.1862394228    2.7917714390
H        0.5580021205    1.6420161802    1.3489138602
C        2.2795667107    0.1216888612   -1.3541494419
H        2.7975553031   -0.6388471934   -0.8935062160
13   
C6H6N->C2H2+C4H4N atoms 1-13 frame 933 charge -0.000 sz -1.000 sz^2 0.671
C        1.3472695081    0.9548784301   -1.5444696628
C       -1.1854395288   -0.5938481240   -0.5684241559
C       -1.2291789382   -1.2660275378    0.6240717332
C       -0.9925642970   -0.1621397996    1.6558261023
C       -0.0180397880    0.6411886917    0.9108631308
N       -0.2497404791    0.6037136791   -0.4013204911
H        0.8995589219    1.7202341399   -2.0929667219
H       -1.6297392077   -0.5627523165   -1.5474950464
H       -1.5312559987   -2.2755295543    0.9501963318
H       -1.0541381870   -0.1576306688    2.8557389382
H        0.5173156337    1.6155711427    1.4063122613
C        2.2892815967    0.1255764660   -1.3585877343
H        2.8366707642   -0.6432345486   -0.8897446852
13   
C6H6N->C2H2+C4H4N atoms 1-13 frame 934 charge -0.000 sz -1.000 sz^2 0.671
C        1.3549224906    0.9593543146   -1.5618616764
C       -1.1971061383   -0.5885375573   -0.5701029834
C       -1.2267270775   -1.2531122863    0.6110297422
C       -0.9946777361   -0.1477573890    1.6580861389
C       -0.0056670462    0.6487649264    0.8952445401
N       -0.2605893221    0.6068666128   -0.4025024699
H        0.8708069370    1.7279238054   -2.0930877935
H       -1.6710465076   -0.5962733555   -1.5798472482
H       -1.4943887589   -2.2965786058    0.9159601858
H       -1.0249723422   -0.1281559153    2.9132789400
H        0.4737207423    1.5843363752    1.4605425358
C        2.2988011213    0.1306618063   -1.3623788742
H        2.8769236377   -0.6474927314   -0.8843610373
13   
C6H6N->C2H2+C4H4N atoms 1-13 frame 935 charge -0.000 sz -1.000 sz^2 0.672
C        1.3628187867    0.9634327097   -1.5784478984
C       -1.2082628372   -0.5832231087   -0.5709393106
C       -1.2244132653   -1.2401253848    0.5998079744
C       -0.9956580197   -0.1333007766    1.6615971704
C        0.0064084244    0.6574246524    0.8814309025
N       -0.2716375397    0.6100641446   -0.4028146068
H        0.8416103429    1.7369156043   -2.0934669803
H       -1.7102883645   -0.6326680865   -1.6083599804
H       -1.4582066678   -2.3146198453    0.8815613773
H       -0.9957641870   -0.0987328979    2.9625279211
H        0.4287137897    1.5488302062    1.5111153983
C        2.3080622342    0.1363937487   -1.3653892228
H        2.9166173032   -0.6503909661   -0.8786227448
13   
C6H6N->C2H2+C4H4N atoms 1-13 frame 936 charge +0.000 sz -1.000 sz^2 0.680
C        1.3710489669    0.9669942269   -1.5940850589
C       -1.2192425793   -0.5777750318   -0.5712924808
C       -1.2226309886   -1.2274162612    0.5902417547
C       -0.9956391475   -0.1192286996    1.6663302058
C        0.0180254504    0.6665875746    0.8696706557
N       -0.2829036728    0.6132496243   -0.4022011796
H        0.8128949086    1.7462214028   -2.0931408452
H       -1.7463798760   -0.6708092481   -1.6310012248
H       -1.4232800113   -2.3287811728    0.8466067671
H       -0.9669308844   -0.0703258620    3.0024183378
H        0.3838099939    1.5099152815    1.5577026410
C        2.3169875321    0.1423271679   -1.3675691993
H        2.9542403081   -0.6509590026   -0.8736803735
13   
From optimize.out: Frame 1 / 100, Energy=    -286.6479790195
C        1.3796265669    0.9699824961   -1.6086962067
C       -1.2303277014   -0.5721095810   -0.5714604551
C       -1.2216886452   -1.2153154310    0.5821765202
C       -0.9947297855   -0.1059800004    1.6722196643
C        0.0290236242    0.6757190644    0.8601322510
N       -0.2944278445    0.6163742869   -0.4006442229
H        0.7855937176    1.7548374616   -2.0912310597
H       -1.7785650672   -0.7095513035   -1.6464683681
H       -1.3901646280   -2.3384239453    0.8108432469
H       -0.9388398888   -0.0438708558    3.0323916728
H        0.3404778751    1.4687434107    1.6001755906
C        2.3254818684    0.1481205267   -1.3689353598
H        2.9885399084   -0.6485261295   -0.8705032735
13   
From optimize.out: Frame 2 / 100, Energy=    -286.6982344266
C        1.4016742616    0.9613241124   -1.6142961460
C       -1.2179050948   -0.5716308006   -0.5524111096
C       -1.2678276104   -1.2171286846    0.6099836037
C       -0.9670283196   -0.1354702823    1.6702755082
C        0.0139411402    0.6837670438    0.8755738804
N       -0.2972865832    0.6189172102   -0.3908481734
H        0.8231225512    1.7372194047   -2.1060711363
H       -1.7328929170   -0.7046407413   -1.5986481520
H       -1.4894411392   -2.3086407829    0.8338280516
H       -0.9194223861   -0.0992203668    2.9616678022
H        0.3414354081    1.4969597286    1.5682027461
C        2.3330232250    0.1565297098   -1.3753178287
H        2.9786074643   -0.6179855511   -0.8819390462
13   
From optimize.out: Frame 3 / 100, Energy=    -286.7396628028
C        1.4230420039    0.9560813617   -1.6224743066
C       -1.2046343135   -0.5644080090   -0.5294265583
C       -1.2902489301   -1.2092621299    0.6439057491
C       -0.9530816854   -0.1636635882    1.6695066557
C       -0.0147541176    0.6829221447    0.8973047452
N       -0.3082930425    0.6207738044   -0.3764334618
H        0.8525924489    1.7251869904   -2.1169705656
H       -1.6906016969   -0.7054539366   -1.5451045672
H       -1.5426419038   -2.2727514861    0.8608955745
H       -0.9284062559   -0.1588162854    2.8734905669
H        0.3295650767    1.5161446506    1.5390705406
C        2.3447719706    0.1646448812   -1.3868993600
H        2.9826904455   -0.5913983977   -0.9068650124
13   
From optimize.out: Frame 4 / 100, Energy=    -286.7687919956
C        1.4482182160    0.9554816760   -1.6355292039
C       -1.1932169402   -0.5624863707   -0.5095599382
C       -1.3221060582   -1.2006347718    0.6761884322
C       -0.9326884851   -0.1979773579    1.6773760050
C       -0.0481644009    0.6925728206    0.9160471583
N       -0.3229644165    0.6230709980   -0.3634272762
H        0.8768207722    1.7159045648   -2.1322751360
H       -1.6585692106   -0.7178728572   -1.5085173556
H       -1.6151513322   -2.2423355261    0.8839594219
H       -0.9282957931   -0.2244982565    2.8173970030
H        0.3158169812    1.5485051869    1.5036251560
C        2.3692157990    0.1755318803   -1.3976290106
H        3.0110848682   -0.5652619865   -0.9276552559
13   
From optimize.out: Frame 5 / 100, Energy=    -286.7894675463
C        1.4837294891    0.9578755078   -1.6560311299
C       -1.1851070713   -0.5592433574   -0.4893561906
C       -1.3538776514   -1.1915786044    0.7082547022
C       -0.9191432634   -0.2360085516    1.6896416687
C       -0.0930011459    0.7045567757    0.9317589723
N       -0.3435989546    0.6262344275   -0.3508135028
H        0.9062064191    1.7089461926   -2.1516539676
H       -1.6319525970   -0.7346522435   -1.4772551466
H       -1.6859008383   -2.2136417559    0.9040455422
H       -0.9317647335   -0.2958207273    2.7996183349
H        0.2949032794    1.5786870270    1.4634901715
C        2.4049906777    0.1906167376   -1.4155743816
H        3.0545163900   -0.5359714281   -0.9561250728
13   
From optimize.out: Frame 6 / 100, Energy=    -286.8050201421
C        1.5302429879    0.9615047255   -1.6841735400
C       -1.1843613770   -0.5520772241   -0.4686231216
C       -1.3856254661   -1.1857230349    0.7433036083
C       -0.9178879697   -0.2758032390    1.7058911770
C       -0.1491889962    0.7184710559    0.9437079149
N       -0.3710269061    0.6281778259   -0.3401244247
H        0.9382014247    1.6995010393   -2.1758951805
H       -1.6179802745   -0.7501636876   -1.4480972884
H       -1.7491052139   -2.1925841918    0.9247860584
H       -0.9297266730   -0.3653904807    2.7976799332
H        0.2639183490    1.6035201880    1.4271694009
C        2.4549252615    0.2104656452   -1.4379314726
H        3.1176148534   -0.4998986218   -0.9876930649
13   
From optimize.out: Frame 7 / 100, Energy=    -286.8164657066
C        1.5790959934    0.9658204651   -1.7154937854
C       -1.1874127064   -0.5446748597   -0.4556625807
C       -1.4163895016   -1.1792105748    0.7772540091
C       -0.9205188186   -0.3117519382    1.7256271174
C       -0.2104208923    0.7289840139    0.9549807727
N       -0.4069555242    0.6224767917   -0.3340575600
H        0.9632136863    1.6855449016   -2.2007462104
H       -1.6116324700   -0.7681676191   -1.4284051228
H       -1.8088605811   -2.1733286542    0.9441633997
H       -0.9134402754   -0.4250047416    2.8053091174
H        0.2284610351    1.6183092179    1.4005116385
C        2.5114047696    0.2356754031   -1.4580219050
H        3.1934552852   -0.4546724055   -1.0154588907
13   
From optimize.out: Frame 8 / 100, Energy=    -286.8243974071
C        1.6262461115    0.9754437486   -1.7464902232
C       -1.1946391596   -0.5425946950   -0.4516726856
C       -1.4484097873   -1.1755765738    0.8027189153
C       -0.9175335014   -0.3391337065    1.7456914671
C       -0.2651922158    0.7364351790    0.9736234560
N       -0.4493813301    0.6115987021   -0.3262167563
H        0.9791682422    1.6774098210   -2.2155738043
H       -1.6052604331   -0.7960661833   -1.4218627510
H       -1.8753310993   -2.1564444117    0.9574125961
H       -0.8909111886   -0.4698289065    2.8194445599
H        0.2002097133    1.6242996599    1.3918511578
C        2.5674764529    0.2635763949   -1.4789530659
H        3.2735581954   -0.4091190288   -1.0499728660
13   
From optimize.out: Frame 9 / 100, Energy=    -286.8294746626
C        1.6772740784    0.9926329154   -1.7808869865
C       -1.2090507838   -0.5370255568   -0.4438320756
C       -1.4753961393   -1.1795045184    0.8265810361
C       -0.9253820168   -0.3607590443    1.7597831809
C       -0.3122350044    0.7359289396    0.9967628760
N       -0.4991858540    0.6120197125   -0.3153549433
H        0.9967040296    1.6815258732   -2.2198043166
H       -1.5902129329   -0.8298806078   -1.4130925683
H       -1.9280937195   -2.1492382167    0.9720591184
H       -0.8876837202   -0.4968360648    2.8272223212
H        0.1824028424    1.6115280634    1.4034630189
C        2.6211247191    0.2904686472   -1.5088121080
H        3.3497345014   -0.3708601426   -1.1040885532
13   
From optimize.out: Frame 10 / 100, Energy=    -286.8327792455
C        1.7308412367    1.0124123889   -1.8094104365
C       -1.2365840938   -0.5391077544   -0.4433101304
C       -1.4975520182   -1.1893056482    0.8387040629
C       -0.9178462752   -0.3777735809    1.7744913347
C       -0.3571105065    0.7387587745    1.0199146930
N       -0.5490828629    0.6110168736   -0.3056205986
H        1.0147467857    1.6898651657   -2.2094599108
H       -1.5907833667   -0.8635159458   -1.4152659969
H       -1.9812437262   -2.1452065806    0.9824287041
H       -0.8759078811   -0.5198318083    2.8465495540
H        0.1556611698    1.6097558560    1.4144283031
C        2.6767017222    0.3137064353   -1.5347706004
H        3.4281598161   -0.3407741757   -1.1586789783
13   
From optimize.out: Frame 11 / 100, Energy=    -286.8348205774
C        1.7842873158    1.0335014317   -1.8439091450
C       -1.2593594714   -0.5320272864   -0.4312756930
C       -1.5130712142   -1.2009580481    0.8575014294
C       -0.9370280774   -0.3951989934    1.7841981370
C       -0.3955163044    0.7293124080    1.0405658839
N       -0.6042790164    0.6227508511   -0.2940889168
H        1.0314595258    1.6961175578   -2.1979820345
H       -1.5746581385   -0.8878218703   -1.4037216674
H       -2.0108474389   -2.1494145662    0.9968574906
H       -0.8900973037   -0.5303308314    2.8507110724
H        0.1366175486    1.5844558041    1.4415011159
C        2.7293786970    0.3375889338   -1.5707925089