13   
From optimize.out: Frame 1 / 2, Energy=    -286.8707992435
C        1.0182254745    0.4598106110   -1.4022864946
C       -1.0955307097   -0.5215895079   -0.5842454049
C       -1.6693171427   -0.7768051161    0.6358831098
C       -0.7533893595   -0.3293668196    1.6373208423
C        0.3460334653    0.1832789227    0.9933749780
N        0.1409794024    0.0681610131   -0.3703629470
H        0.6075246801    0.2601118465   -2.3914448729
H       -1.4453017255   -0.7022057706   -1.5907590313
H       -2.6369128068   -1.2322000025    0.7978683765
H       -0.8902570383   -0.3789841273    2.7093083715
H        1.2549405289    0.6213926643    1.3773203071
C        2.2091632495    1.0082448213   -1.2793551747
H        2.9138419820    1.3401514649   -0.5326220593
13   
From optimize.out: Frame 23 / 24, Energy=    -286.8707992376
C        1.0074604749    0.4848274611   -1.4009191470
C       -1.0900101759   -0.5300868759   -0.5839912284
C       -1.6584878628   -0.7984092300    0.6353290580
C       -0.7563133918   -0.3253256237    1.6378123947
C        0.3330422001    0.2093977339    0.9947916914
N        0.1339339094    0.0862136791   -0.3691798495
H        0.5694389939    0.3487834776   -2.3873168268
H       -1.4270762556   -0.7307562826   -1.5906467604
H       -2.6164002172   -1.2733892813    0.7974087064
H       -0.8971055249   -0.3687252017    2.7097529390
H        1.2238292756    0.6826659917    1.3798493381
C        2.2239192583    0.9743239178   -1.2846278735
H        2.9537693159    1.2404802342   -0.5382624420
13   
From optimize.out: Frame 21 / 24, Energy=    -286.8707808590
C        0.9956782066    0.5106183846   -1.4040086497
C       -1.0834136819   -0.5419807982   -0.5846847335
C       -1.6451028847   -0.8187261174    0.6363608845
C       -0.7561414738   -0.3176318781    1.6365822112
C        0.3213186859    0.2380424072    0.9909055399
N        0.1257782170    0.1028850400   -0.3721251733
H        0.5364579166    0.4407780509   -2.3871760081
H       -1.4116740868   -0.7605191896   -1.5903419108
H       -2.5926219891   -1.3133633348    0.8008989679
H       -0.8989770384   -0.3532623654    2.7085889012
H        1.1983490963    0.7394556726    1.3724706383
C        2.2345163527    0.9401614708   -1.2824969790
H        2.9758326795    1.1335426575   -0.5249736887
13   
From optimize.out: Frame 20 / 24, Energy=    -286.8707365981
C        0.9847068494    0.5360169646   -1.4072530496
C       -1.0770094183   -0.5535128288   -0.5855049464
C       -1.6306230615   -0.8384656367    0.6378921366
C       -0.7544850290   -0.3099840297    1.6349338872
C        0.3090876500    0.2680370175    0.9855197517
N        0.1163619058    0.1204340261   -0.3763119262
H        0.5100432304    0.5330308682   -2.3859255641
H       -1.3974732679   -0.7895151766   -1.5896495938
H       -2.5674297904   -1.3522959984    0.8055605621
H       -0.8986826967   -0.3384266627    2.7069915698
H        1.1731521685    0.7956534757    1.3617516388
C        2.2432129064    0.9047171374   -1.2789129818
H        2.9891385533    1.0243108433   -0.5090914843
13   
From optimize.out: Frame 16 / 24, Energy=    -286.8685039504
C        0.9751662094    0.5621443653   -1.4094392724
C       -1.0682477480   -0.5645939281   -0.5860356114
C       -1.6150750822   -0.8582344486    0.6390936531
C       -0.7543609792   -0.3027707494    1.6341566147
C        0.2950812145    0.2987635615    0.9822718083
N        0.1079015626    0.1386031130   -0.3785800467
H        0.4868642886    0.6253839634   -2.3783890134
H       -1.3800821549   -0.8143110009   -1.5893975803
H       -2.5405501893   -1.3916405432    0.8086727633
H       -0.9012357290   -0.3256491285    2.7060623472
H        1.1450697282    0.8512961296    1.3552067164
C        2.2501935641    0.8675154469   -1.2788771178
H        2.9992753153    0.9134932192   -0.5047452610
13   
From optimize.out: Frame 14 / 24, Energy=    -286.8659423306
C        0.9657406167    0.5887247137   -1.4111690161
C       -1.0585776559   -0.5759435323   -0.5864904824
C       -1.5990349120   -0.8767641650    0.6404208076
C       -0.7536806109   -0.2953651576    1.6332345123
C        0.2812359288    0.3290275794    0.9786837537
N        0.0985885013    0.1579686614   -0.3812430483
H        0.4681298671    0.7187063946   -2.3691619725
H       -1.3615524985   -0.8400712438   -1.5888074574
H       -2.5130713261   -1.4292600013    0.8117559982
H       -0.9033198569   -0.3126312784    2.7048445426
H        1.1177480483    0.9043838553    1.3480073912
C        2.2549348658    0.8296930874   -1.2788318630
H        3.0028590324    0.8015310866   -0.5012431658
13   
From optimize.out: Frame 13 / 24, Energy=    -286.8643201311
C        0.9568666786    0.6155409201   -1.4121156037
C       -1.0480938812   -0.5871394196   -0.5868538282
C       -1.5822496555   -0.8933051515    0.6419673855
C       -0.7516647368   -0.2879476341    1.6320293725
C        0.2672795783    0.3590060049    0.9743650526
N        0.0874857854    0.1794131551   -0.3847419416
H        0.4577309398    0.8127136866   -2.3576092825
H       -1.3422698457   -0.8668339568   -1.5875918097
H       -2.4845135576   -1.4642574209    0.8149791453
H       -0.9037657309   -0.3000629876    2.7031925934
H        1.0912251627    0.9542035576    1.3393524252
C        2.2562149900    0.7905576116   -1.2784727083
H        2.9957542728    0.6881116347   -0.4985008005
13   
From optimize.out: Frame 11 / 24, Energy=    -286.8599446829
C        0.9502640509    0.6410516770   -1.4122168462
C       -1.0385087815   -0.5958709613   -0.5871470394
C       -1.5649143533   -0.9100073700    0.6433608222
C       -0.7490289957   -0.2819137284    1.6312111891
C        0.2507226818    0.3913014732    0.9707638790
N        0.0754585760    0.2018405552   -0.3877249656
H        0.4535928950    0.9037649147   -2.3434778805
H       -1.3249372602   -0.8888277107   -1.5863744510
H       -2.4543644927   -1.5003094319    0.8178985382
H       -0.9027966255   -0.2919409787    2.7021014195
H        1.0610957691    1.0071177657    1.3319303169
C        2.2570341204    0.7490049337   -1.2793161457
H        2.9863824155    0.5747888616   -0.5010088366
13   
From optimize.out: Frame 9 / 24, Energy=    -286.8531795115
C        0.9449918752    0.6661645166   -1.4111770059
C       -1.0283432606   -0.6033036143   -0.5871911893
C       -1.5474025182   -0.9259149498    0.6445295046
C       -0.7462419346   -0.2766497331    1.6307058871
C        0.2330668581    0.4238547827    0.9681052318
N        0.0627762671    0.2254411248   -0.3901281447
H        0.4548440235    0.9932405178   -2.3261861616
H       -1.3071319475   -0.9085638366   -1.5849273992
H       -2.4235081028   -1.5357660039    0.8198944704
H       -0.9015608574   -0.2862228822    2.7012946362
H        1.0292408571    1.0596861336    1.3261991779
C        2.2561353844    0.7060983019   -1.2818588693
H        2.9731333557    0.4619356424   -0.5092601381
13   
From optimize.out: Frame 8 / 24, Energy=    -286.8473531683
C        0.9392135880    0.6929239221   -1.4080797603
C       -1.0141956219   -0.6117127925   -0.5865765784
C       -1.5302859741   -0.9389250648    0.6452525180
C       -0.7441727863   -0.2709401281    1.6303868906
C        0.2171873616    0.4525697864    0.9670688117
N        0.0497604975    0.2510861332   -0.3917142554
H        0.4606972828    1.0845114526   -2.3037057997
H       -1.2834549245   -0.9311360337   -1.5827322340
H       -2.3933684667   -1.5672521610    0.8194091610
H       -0.9023640759   -0.2789653789    2.7002018358
H        0.9990202771    1.1049924574    1.3234318450
C        2.2503743927    0.6634468248   -1.2875079074
H        2.9515884495    0.3494009825   -0.5254345270
13   
From optimize.out: Frame 6 / 24, Energy=    -286.8263798833
C        0.9348664753    0.7183811467   -1.4039460213
C       -1.0003252259   -0.6181698364   -0.5859934386
C       -1.5127354606   -0.9514625200    0.6456248929
C       -0.7412659139   -0.2662066724    1.6302175738
C        0.1999105574    0.4822346935    0.9669008483
N        0.0360870324    0.2775133107   -0.3928048930
H        0.4714276974    1.1725760793   -2.2791057425
H       -1.2611575032   -0.9502110755   -1.5806585130
H       -2.3620813120   -1.5986675041    0.8181175050
H       -0.9017769039   -0.2748988867    2.6993391612
H        0.9663333776    1.1518468688    1.3218748254
C        2.2433131295    0.6193346019   -1.2941438254
H        2.9274040499    0.2377297942   -0.5454223729
13   
From optimize.out: Frame 2 / 24, Energy=    -286.7541324367
C        0.9330257908    0.7415368119   -1.3982173504
C       -0.9870642240   -0.6213136104   -0.5854483498
C       -1.4946125712   -0.9635256481    0.6454066983
C       -0.7372272436   -0.2631494716    1.6303693739
C        0.1803257829    0.5134923663    0.9682820901
N        0.0214924077    0.3049920797   -0.3929646076
H        0.4892597941    1.2547523595   -2.2512731897
H       -1.2415426617   -0.9629529304   -1.5788936771
H       -2.3289946497   -1.6304325557    0.8154848163
H       -0.8991436423   -0.2762096978    2.6989544017
H        0.9293316291    1.2017032282    1.3225816120
C        2.2345478036    0.5730067368   -1.3023992585
H        2.9006017842    0.1281003316   -0.5718825593
13   
From optimize.out: Frame 1 / 24, Energy=    -286.7230800497
C        0.9318557994    0.7651340673   -1.3905401183
C       -0.9707484560   -0.6241079765   -0.5842839848
C       -1.4770221713   -0.9740822017    0.6445449573
C       -0.7344115549   -0.2602962330    1.6310108172
C        0.1616607568    0.5420343988    0.9720144708
N        0.0068296538    0.3340105003   -0.3917299654
H        0.5094743755    1.3352115292   -2.2187129548
H       -1.2188323656   -0.9744517087   -1.5769784674
H       -2.2960014948   -1.6608107223    0.8101053193
H       -0.8986929888   -0.2779326505    2.6987276955
H        0.8913443722    1.2478970233    1.3276630840
C        2.2224050967    0.5266151080   -1.3137879546
H        2.8721389770    0.0207788657   -0.6080328986
13   
C6H6N->C2H2+C4H4N atoms 1-13 frame 933 charge -0.000 sz -1.000 sz^2 0.671
C        0.9312643363    0.7870807630   -1.3812078522
C       -0.9536180244   -0.6249247214   -0.5833124132
C       -1.4585567115   -0.9834947567    0.6429881131
C       -0.7304293056   -0.2577433011    1.6313483755
C        0.1429526708    0.5705679803    0.9768344117
N       -0.0086204153    0.3646210045   -0.3901912460
H        0.5328303688    1.4105822582   -2.1842788899
H       -1.1979907266   -0.9822023792   -1.5755078091
H       -2.2608304036   -1.6909490507    0.8029866763
H       -0.8967235391   -0.2818665207    2.6979192057
H        0.8509458201    1.2941282131    1.3347272244
C        2.2072914491    0.4786975079   -1.3250260645
H        2.8414844809   -0.0844969972   -0.6472797318
13   
C6H6N->C2H2+C4H4N atoms 1-13 frame 935 charge -0.000 sz -1.000 sz^2 0.672
C        0.9325834499    0.8047199984   -1.3708354437
C       -0.9374175329   -0.6215334518   -0.5830795094
C       -1.4382195819   -0.9912987474    0.6406256223
C       -0.7226113945   -0.2561018363    1.6308803029
C        0.1228030659    0.6014866395    0.9820446260
N       -0.0269611463    0.3981966340   -0.3893985703
H        0.5629646255    1.4746196359   -2.1509194110
H       -1.1852913264   -0.9815638624   -1.5749828208
H       -2.2205896427   -1.7218576198    0.7945015625
H       -0.8881734216   -0.2917943150    2.6962080835
H        0.8047654642    1.3445514386    1.3427821853
C        2.1883303660    0.4267978151   -1.3326800246
H        2.8078170747   -0.1862223288   -0.6851466029
13   
C6H6N->C2H2+C4H4N atoms 1-13 frame 936 charge +0.000 sz -1.000 sz^2 0.680
C        0.9393480226    0.8231156055   -1.3653753842
C       -0.9202987124   -0.6195003394   -0.5813035329
C       -1.4212718464   -0.9975643498    0.6393483896
C       -0.7161121073   -0.2556508428    1.6321842528
C        0.1012378320    0.6304503766    0.9873709003
N       -0.0503130268    0.4347794676   -0.3892202247
H        0.5995929292    1.5353952562   -2.1216400056
H       -1.1751768797   -0.9782619715   -1.5732427102
H       -2.1810225910   -1.7529064147    0.7866545482
H       -0.8765108715   -0.3055733752    2.6973453911
H        0.7546570063    1.3961627980    1.3531153180
C        2.1688156859    0.3732499298   -1.3391647238
H        2.7770545593   -0.2836961403   -0.7260722186
13   
From optimize.out: Frame 2 / 100, Energy=    -286.6982344266
C        0.9460159043    0.8367832075   -1.3589904417
C       -0.9045046465   -0.6140359961   -0.5817203643
C       -1.3991673873   -1.0034732445    0.6369422618
C       -0.7065855320   -0.2516130976    1.6305093817
C        0.0818960722    0.6601152987    0.9895753515
N       -0.0757564642    0.4727247585   -0.3915633111
H        0.6353483267    1.5844876833   -2.0940905164
H       -1.1761294048   -0.9656570446   -1.5737808818
H       -2.1306031723   -1.7871353226    0.7793043808
H       -0.8591998887   -0.3176863220    2.6947324848
H        0.7025950591    1.4473265166    1.3598278009
C        2.1436756794    0.3160522048   -1.3353952542
H        2.7424154540   -0.3778886420   -0.7553508921
13   
From optimize.out: Frame 4 / 100, Energy=    -286.7687919956
C        0.9537419213    0.8442292341   -1.3537355259
C       -0.8925166795   -0.6047150776   -0.5853080257
C       -1.3702756063   -1.0100994469    0.6334328062
C       -0.6943655594   -0.2428060147    1.6251401202
C        0.0656034960    0.6902415978    0.9864897252
N       -0.1024878765    0.5100325512   -0.3972702747
H        0.6645118557    1.6165524407   -2.0725996719
H       -1.1922708031   -0.9405195059   -1.5773476831
H       -2.0667844709   -1.8254087929    0.7744983221
H       -0.8357378983   -0.3261633963    2.6877077061
H        0.6505647342    1.4971801883    1.3602223297
C        2.1145194323    0.2564913927   -1.3173779357
H        2.7054974545   -0.4650151705   -0.7638518925
13   
From optimize.out: Frame 7 / 100, Energy=    -286.8164657066
C        0.9719317640    0.8487220053   -1.3595695525
C       -0.8875888197   -0.5945738439   -0.5903404849
C       -1.3378474284   -1.0192432677    0.6307416414
C       -0.6853038732   -0.2303516866    1.6190055527
C        0.0507473594    0.7175568808    0.9772064830
N       -0.1330936363    0.5454990961   -0.4056648285
H        0.6841272981    1.6304819628   -2.0666411860
H       -1.2236322199   -0.9018149415   -1.5820956073
H       -1.9919425152   -1.8683580438    0.7769016201
H       -0.8093026715   -0.3307219991    2.6807255484
H        0.6007380044    1.5443353289    1.3547078963
C        2.0880067967    0.1977138855   -1.2861203424
H        2.6731599417   -0.5392453769   -0.7488567403
13   
From optimize.out: Frame 9 / 100, Energy=    -286.8294746626
C        1.0047160174    0.8537480139   -1.3761662535
C       -0.8963946076   -0.5829861868   -0.5958914154
C       -1.3001754914   -1.0356859668    0.6285523541
C       -0.6865459499   -0.2121937225    1.6127517311
C        0.0396483275    0.7369343070    0.9651443637
N       -0.1649352699    0.5739158733   -0.4116761242
H        0.6943131401    1.6335701040   -2.0708470683
H       -1.2657746904   -0.8533139413   -1.5874121495
H       -1.9060287004   -1.9174498685    0.7899590261
H       -0.7957530609   -0.3218261235    2.6732412491
H        0.5631905727    1.5757377008    1.3437817620
C        2.0693094026    0.1481599684   -1.2520422249
H        2.6444303103   -0.5986101581   -0.7193952503
13   
From optimize.out: Frame 11 / 100, Energy=    -286.8348205774
C        1.0693824197    0.8679457652   -1.4133773432
C       -0.9296068262   -0.5784279456   -0.5947702737
C       -1.2728073399   -1.0661112757    0.6315499167
C       -0.7123466394   -0.1962113993    1.6164091742
C        0.0229986843    0.7398198476    0.9591363081
N       -0.2014710147    0.5903246668   -0.4073979995
H        0.7207502875    1.6431509615   -2.0850378837
H       -1.3194648405   -0.8005179152   -1.5871310179
H       -1.8282627842   -1.9754652378    0.8209508237
H       -0.8113364309   -0.3040039454    2.6791899048
H        0.5325166113    1.5890152231    1.3380453084
C        2.0825603803    0.1217983619   -1.2427494135
H        2.6470874928   -0.6313171071   -0.7148175043
13   
From optimize.out: Frame 12 / 100, Energy=    -286.8362849883
C        1.1418760324    0.8877736050   -1.4520664562
C       -0.9740079355   -0.5835699224   -0.5872011790
C       -1.2646881852   -1.1017110591    0.6379268456
C       -0.7530629908   -0.1889718951    1.6275923493
C        0.0035778693    0.7293913202    0.9582721512
N       -0.2298951755    0.5975214981   -0.3979257900
H        0.7623002641    1.6604900692   -2.0984253802
H       -1.3715557300   -0.7563482527   -1.5800068101
H       -1.7783348442   -2.0292883705    0.8571090791
H       -0.8457541913   -0.2865535843    2.6970891467
H        0.5106109361    1.5922001830    1.3405342752
C        2.1211365134    0.1183618250   -1.2606574390
H        2.6777974372   -0.6392954165   -0.7422407926
13   
From optimize.out: Frame 14 / 100, Energy=    -286.8377967177
C        1.2081006953    0.9081072299   -1.4816933401
C       -1.0217055891   -0.5925743803   -0.5778198812
C       -1.2636381761   -1.1393749111    0.6437010148
C       -0.7989037232   -0.1854543295    1.6376661516
C       -0.0124267827    0.7144419040    0.9566949910
N       -0.2469198815    0.6020260321   -0.3889117387
H        0.8074233438    1.6802545257   -2.1047489975
H       -1.4240688853   -0.7165812934   -1.5686794921
H       -1.7392081548   -2.0802556613    0.8922312665
H       -0.8887202878   -0.2680036309    2.7159795744
H        0.4973981297    1.5934887076    1.3445814218
C        2.1664750721    0.1230204939   -1.2875186499
H        2.7161942394   -0.6390946868   -0.7814823205
13   
From optimize.out: Frame 16 / 100, Energy=    -286.8383004071
C        1.2658248797    0.9260492765   -1.5031688279
C       -1.0714050639   -0.6014311636   -0.5681939069
C       -1.2637586498   -1.1797699728    0.6483458784
C       -0.8495790382   -0.1839205488    1.6450187736
C       -0.0242833663    0.6963971221    0.9506530223
N       -0.2534121362    0.6039959059   -0.3843883967
H        0.8517768589    1.6972308362   -2.1069230028
H       -1.4797204079   -0.6739138186   -1.5534146417
H       -1.7016932544   -2.1311109326    0.9265218268
H       -0.9375932551   -0.2474584177    2.7345752263
H        0.4949742806    1.5980880275    1.3453241082
C        2.2128825305    0.1302295557   -1.3141215446
H        2.7559866220   -0.6343858697   -0.8202285148
13   
From optimize.out: Frame 18 / 100, Energy=    -286.8385656756
C        1.3102771728    0.9392936454   -1.5168941162
C       -1.1208075286   -0.6065352290   -0.5625536872
C       -1.2595486409   -1.2241455646    0.6489288370
C       -0.9062270263   -0.1824232904    1.6501485126
C       -0.0304691602    0.6734709726    0.9394276576
N       -0.2504018313    0.6027001751   -0.3876887267
H        0.8911077345    1.7078992952   -2.1056166004
H       -1.5352780551   -0.6197546174   -1.5366710590
H       -1.6577133301   -2.1844027786    0.9581224001
H       -0.9924747741   -0.2227736468    2.7561345375
H        0.5112565549    1.6133357104    1.3430223121
C        2.2526493643    0.1337691790   -1.3344401845
H        2.7876295203   -0.6304338510   -0.8519198829
13   
From optimize.out: Frame 21 / 100, Energy=    -286.8389743199
C        1.3364858860    0.9486655114   -1.5274005949
C       -1.1626804671   -0.6034504193   -0.5645463946
C       -1.2448652245   -1.2634052916    0.6406358821
C       -0.9650543711   -0.1772757366    1.6545810668
C       -0.0289336145    0.6477355646    0.9269814702
N       -0.2438009978    0.6010548694   -0.3965849381
H        0.9151195728    1.7141208558   -2.0985228617
H       -1.5821192214   -0.5627730153   -1.5264438327
H       -1.5963739400   -2.2378574961    0.9745986120
H       -1.0491257209   -0.1927462464    2.7924852542
H        0.5381318169    1.6324297771    1.3540907511
C        2.2775538943    0.1281577080   -1.3495686000
H        2.8056623873   -0.6346560808   -0.8803058145
13   
From optimize.out: Frame 23 / 100, Energy=    -286.8391396201
C        1.3485638614    0.9555855285   -1.5472515817
C       -1.1871926755   -0.5929986165   -0.5684272842
C       -1.2286916084   -1.2637718847    0.6223286843
C       -0.9926273696   -0.1596121244    1.6564730974
C       -0.0160011370    0.6428343709    0.9085786127
N       -0.2516029057    0.6042656651   -0.4013490083
H        0.8944603686    1.7219995735   -2.0932570098
H       -1.6365071274   -0.5692290498   -1.5526898143
H       -1.5251129371   -2.2786193167    0.9445399263
H       -1.0491508749   -0.1525040361    2.8639325935
H        0.5093692756    1.6092729609    1.4146804735
C        2.2908311780    0.1266952823   -1.3590775994
H        2.8436619520   -0.6439183532   -0.8884810899
13   
From optimize.out: Frame 24 / 100, Energy=    -286.8392373585
C        1.3585405484    0.9611245345   -1.5692208397
C       -1.2020985013   -0.5861222674   -0.5703767389
C       -1.2257368314   -1.2472575981    0.6062332207
C       -0.9949503929   -0.1412470506    1.6598727014
C       -0.0002676330    0.6528054489    0.8893090569
N       -0.2656195526    0.6083149802   -0.4024989250
H        0.8576111833    1.7321144589   -2.0932176088
H       -1.6883678031   -0.6130977470   -1.5919491947
H       -1.4781848168   -2.3041787191    0.9003431956
H       -1.0117921481   -0.1149409115    2.9341261947
H        0.4532700408    1.5676661934    1.4827975824
C        2.3029412220    0.1333196420   -1.3636104497
H        2.8946546846   -0.6485009642   -0.8818081949
13   
From optimize.out: Frame 26 / 100, Energy=    -286.8394377446
C        1.3696203514    0.9661785034   -1.5909104935
C       -1.2172389414   -0.5787241634   -0.5711765575
C       -1.2231901591   -1.2299348153    0.5924222059
C       -0.9953995785   -0.1220582508    1.6657697485
C        0.0157061666    0.6648828952    0.8724539920
N       -0.2808886914    0.6126433768   -0.4020571882
H        0.8185962926    1.7443105891   -2.0927689515
H       -1.7386329245   -0.6639131565   -1.6248520287
H       -1.4302394923   -2.3249264895    0.8528562344
H       -0.9724706790   -0.0761169507    2.9923275331
H        0.3925508915    1.5165025751    1.5479561136
C        2.3152177852    0.1411906342   -1.3669435416
H        2.9463689789   -0.6500347477   -0.8750770665
13   
From optimize.out: Frame 28 / 100, Energy=    -286.8395703374
C        1.3893647348    0.9653509072   -1.6095907239
C       -1.2228192410   -0.5725939540   -0.5620840921
C       -1.2444669171   -1.2177426882    0.5968566952
C       -0.9812412322   -0.1221450733    1.6705169518
C        0.0202199546    0.6785117050    0.8689269076
N       -0.2943682119    0.6172262777   -0.3960311659
H        0.8074911145    1.7450911091   -2.0987614796
H       -1.7520482746   -0.7022195994   -1.6210198262
H       -1.4431243649   -2.3225729849    0.8266728465
H       -0.9328715512   -0.0744124275    2.9938530164
H        0.3464511956    1.4878290265    1.5790799309
C        2.3281066263    0.1515144876   -1.3718962565
H        2.9793061671   -0.6338367859   -0.8765228042
13   
From optimize.out: Frame 30 / 100, Energy=    -286.8397058805
C        1.4136200306    0.9585731793   -1.6190255144
C       -1.2104155685   -0.5672063402   -0.5393028147
C       -1.2790874214   -1.2121804775    0.6293467334
C       -0.9599691084   -0.1512097654    1.6699094596
C       -0.0029061951    0.6828003349    0.8881095511
N       -0.3039107977    0.6199203865   -0.3825081354
H        0.8392032022    1.7307809626   -2.1119653490
H       -1.7093625433   -0.7054140269   -1.5683026384
H       -1.5167235143   -2.2881749304    0.8492343336
H       -0.9260348166   -0.1328782913    2.9112489345
H        0.3340673279    1.5072184641    1.5520222644
C        2.3398453422    0.1610645640   -1.3821011307
H        2.9816740624   -0.6032940594   -0.8966656942
13   
From optimize.out: Frame 31 / 100, Energy=    -286.8397537156
C        1.4388835595    0.9559231589   -1.6308231361
C       -1.1976159426   -0.5634577192   -0.5172093969
C       -1.3105080151   -1.2038587578    0.6639169295
C       -0.9400941140   -0.1852977821    1.6748030360
C       -0.0357610797    0.6894128912    0.9088283915
N       -0.3175915857    0.6222235705   -0.3684058987
H        0.8674252611    1.7195385406   -2.1266973656
H       -1.6711451976   -0.7137185436   -1.5231240531
H       -1.5886528767   -2.2540793038    0.8750611261
H       -0.9279165292   -0.1999669476    2.8400729952
H        0.3209237505    1.5368900913    1.5167233071
C        2.3605691975    0.1715473513   -1.3935361756
H        3.0014835721   -0.5751565497   -0.9196097594
13   
From optimize.out: Frame 35 / 100, Energy=    -286.8399755459
C        1.4719852275    0.9571566282   -1.6492976698
C       -1.1879688225   -0.5603039167   -0.4962136619
C       -1.3430743539   -1.1946436082    0.6973470822
C       -0.9239649631   -0.2231978851    1.6856113787
C       -0.0781213352    0.7005568553    0.9263217573
N       -0.3367733769    0.6251864949   -0.3551139278
H        0.8963804038    1.7113853244   -2.1451953848
H       -1.6411724516   -0.7290864008   -1.4880513665
H       -1.6617941280   -2.2234506436    0.8971229807
H       -0.9306989482   -0.2717538252    2.8068766361
H        0.3017856413    1.5683578070    1.4769851939
C        2.3931883764    0.1856217867   -1.4097026767
H        3.0402287305   -0.5458286168   -0.9466903414
13   
From optimize.out: Frame 36 / 100, Energy=    -286.8400440602
C        1.5136717028    0.9602208593   -1.6741710641
C       -1.1848092693   -0.5545764471   -0.4761153792
C       -1.3741326753   -1.1879200058    0.7306885266
C       -0.9186393646   -0.2614407964    1.7001053807
C       -0.1291241770    0.7134809506    0.9392916497
N       -0.3612625828    0.6274448626   -0.3440402172
H        0.9266827870    1.7028599427   -2.1672377419
H       -1.6233436000   -0.7445181445   -1.4587028342
H       -1.7260438755   -2.2003912395    0.9172941276
H       -0.9303313372   -0.3401649537    2.7987644000
H        0.2748910318    1.5944017131    1.4404091303
C        2.4371919003    0.2033957767   -1.4299451662
H        3.0952494599   -0.5127925181   -0.9763408122
13   
From optimize.out: Frame 38 / 100, Energy=    -286.8402572619
C        1.5592121628    0.9640793772   -1.7028001422
C       -1.1862885249   -0.5476915358   -0.4612083965
C       -1.4037888799   -1.1818501060    0.7633478722
C       -0.9195693020   -0.2969407674    1.7176762875
C       -0.1855667952    0.7245791599    0.9503533512
N       -0.3925507680    0.6245594428   -0.3366853039
H        0.9527695162    1.6911013026   -2.1906127918
H       -1.6144718259   -0.7608923581   -1.4367558064
H       -1.7843358096   -2.1812537777    0.9362026664
H       -0.9196346688   -0.4003277698    2.8025007317
H        0.2428031583    1.6119430934    1.4117145363
C        2.4885407056    0.2255486559   -1.4497406930
H        3.1628810314   -0.4728547171   -1.0039923115
13   
From optimize.out: Frame 40 / 100, Energy=    -286.8405815604
C        1.6056213773    0.9714814521   -1.7329663238
C       -1.1916720189   -0.5437339675   -0.4538037863
C       -1.4345087106   -1.1772862660    0.7912491731
C       -0.9185891614   -0.3268249435    1.7369608088
C       -0.2410378310    0.7330537686    0.9658202126
N       -0.4311741090    0.6161136075   -0.3295566177
H        0.9718185586    1.6812099237   -2.2086730926
H       -1.6080366155   -0.7843391403   -1.4252890172
H       -1.8466535579   -2.1639070311    0.9513700916
H       -0.9004575822   -0.4496458863    2.8135680429
H        0.2128379823    1.6213041449    1.3964124845
C        2.5430198772    0.2515334295   -1.4698670031
H        3.2388317911   -0.4289590916   -1.0352249727
13   
From optimize.out: Frame 41 / 100, Energy=    -286.8408211546
C        1.6559472963    0.9857476334   -1.7665486375
C       -1.2033182586   -0.5392067917   -0.4469536283
C       -1.4637791824   -1.1782095912    0.8164449539
C       -0.9225904796   -0.3513676447    1.7535574156
C       -0.2920342110    0.7357624983    0.9872226318
N       -0.4785419582    0.6123816040   -0.3197897537
H        0.9893869374    1.6803754898   -2.2175149911
H       -1.5961423838   -0.8159078381   -1.4166834730
H       -1.9051961800   -2.1527381315    0.9659512767
H       -0.8899657140   -0.4846001201    2.8236399527
H        0.1904082769    1.6160165643    1.3995355248
C        2.5983924965    0.2790835078   -1.4966505943
H        3.3174333605   -0.3873371803   -1.0822106776
13   
From optimize.out: Frame 43 / 100, Energy=    -286.8412907169
C        1.7103077472    1.0048980965   -1.7981811294
C       -1.2265134419   -0.5386186223   -0.4438106636
C       -1.4888185617   -1.1857699518    0.8335532110
C       -0.9201200525   -0.3710298754    1.7688500663
C       -0.3397330120    0.7378050446    1.0109956885
N       -0.5298632334    0.6113449715   -0.3094170013
H        1.0078163432    1.6868251510   -2.2128488738
H       -1.5912026177   -0.8505502061   -1.4148764224
H       -1.9607829069   -2.1468897052    0.9782587049
H       -0.8800949007   -0.5108082963    2.8395760624
H        0.1655981429    1.6108886667    1.4101773424
C        2.6553689391    0.3046042776   -1.5246101904
H        3.3980375545   -0.3526995508   -1.1376667947
13   
From optimize.out: Frame 47 / 100, Energy=    -286.8419469362
C        1.7657379093    1.0262211079   -1.8321096941
C       -1.2513196445   -0.5342209516   -0.4351208796
C       -1.5074953180   -1.1969678287    0.8511704718
C       -0.9311396311   -0.3891641362    1.7806861452
C       -0.3820034961    0.7322375833    1.0333280156
N       -0.5852780716    0.6190451040   -0.2980387964
H        1.0256219458    1.6938879976   -2.2019323187
H       -1.5797739095   -0.8791195850   -1.4073334203
H       -1.9998983067   -2.1481911375    0.9919672995
H       -0.8859196104   -0.5263285688    2.8488312507
H        0.1434469263    1.5925589500    1.4325696057
C        2.7110163228    0.3293201699   -1.5585819708