13   
From optimize.out: Frame 23 / 24, Energy=    -286.8707992376
C        1.0182254745    0.4598106110   -1.4022864946
C       -1.0955307097   -0.5215895079   -0.5842454049
C       -1.6693171427   -0.7768051161    0.6358831098
C       -0.7533893595   -0.3293668196    1.6373208423
C        0.3460334653    0.1832789227    0.9933749780
N        0.1409794024    0.0681610131   -0.3703629470
H        0.6075246801    0.2601118465   -2.3914448729
H       -1.4453017255   -0.7022057706   -1.5907590313
H       -2.6369128068   -1.2322000025    0.7978683765
H       -0.8902570383   -0.3789841273    2.7093083715
H        1.2549405289    0.6213926643    1.3773203071
C        2.2091632495    1.0082448213   -1.2793551747
H        2.9138419820    1.3401514649   -0.5326220593
13   
From optimize.out: Frame 21 / 24, Energy=    -286.8707808590
C        1.0110059953    0.4770556022   -1.4000664253
C       -1.0921109230   -0.5265193549   -0.5838142413
C       -1.6623891701   -0.7922672679    0.6351019564
C       -0.7560963987   -0.3276022782    1.6380819288
C        0.3365627228    0.2009880112    0.9956519063
N        0.1361518670    0.0813328667   -0.3685570437
H        0.5799782851    0.3213902777   -2.3875166272
H       -1.4319696031   -0.7220012379   -1.5906641001
H       -2.6233897953   -1.2613048834    0.7965928685
H       -0.8961285607   -0.3733109043    2.7100097509
H        1.2316112935    0.6656661426    1.3814145079
C        2.2205864407    0.9844296117   -1.2849033467
H        2.9461878465    1.2721434145   -0.5413311346
13   
From optimize.out: Frame 20 / 24, Energy=    -286.8707365981
C        0.9991118487    0.5031278337   -1.4029270482
C       -1.0850635529   -0.5384873069   -0.5844079794
C       -1.6493014663   -0.8128716893    0.6358638134
C       -0.7568243446   -0.3199647925    1.6371777237
C        0.3247524361    0.2292000823    0.9927661459
N        0.1287112915    0.0977065133   -0.3706463687
H        0.5446221570    0.4132861616   -2.3868463573
H       -1.4155539053   -0.7513717596   -1.5906059307
H       -2.5999418789   -1.3018443762    0.7993297574
H       -0.8994059796   -0.3579272620    2.7091482249
H        1.2055049818    0.7226954843    1.3761638375
C        2.2317670336    0.9505280712   -1.2839792176
H        2.9716213788    1.1659230402   -0.5310366010
13   
From optimize.out: Frame 18 / 24, Energy=    -286.8700877818
C        0.9874556513    0.5285560341   -1.4065987647
C       -1.0794627297   -0.5503466746   -0.5853474776
C       -1.6350485260   -0.8327457378    0.6375512224
C       -0.7545062005   -0.3120452396    1.6351561354
C        0.3130958718    0.2592171550    0.9864499397
N        0.1187543729    0.1152860767   -0.3756664721
H        0.5169069802    0.5066129785   -2.3879654240
H       -1.4023830712   -0.7824245736   -1.5897096613
H       -2.5750930223   -1.3409478270    0.8046567622
H       -0.8979498514   -0.3420913203    2.7072494867
H        1.1812128711    0.7795913565    1.3636265206
C        2.2411001573    0.9153365350   -1.2789474567
H        2.9859174965    1.0560012371   -0.5104548105
13   
From optimize.out: Frame 16 / 24, Energy=    -286.8685039504
C        0.9777640431    0.5548614639   -1.4089056145
C       -1.0708129491   -0.5615097658   -0.5859026744
C       -1.6194454123   -0.8529127128    0.6387532031
C       -0.7544315548   -0.3047779137    1.6343725425
C        0.2989638546    0.2903138491    0.9831703225
N        0.1103191146    0.1334364968   -0.3779421863
H        0.4927070645    0.5997560446   -2.3807733732
H       -1.3850722966   -0.8074243187   -1.5894978778
H       -2.5480743270   -1.3809587244    0.8078433414
H       -0.9005336860   -0.3291706271    2.7063401343
H        1.1527927904    0.8362224897    1.3570161424
C        2.2485491978    0.8778951171   -1.2788259066
H        2.9972741608    0.9442686013   -0.5056480534
13   
From optimize.out: Frame 14 / 24, Energy=    -286.8659423306
C        0.9682663250    0.5814878588   -1.4108566755
C       -1.0614345359   -0.5727855087   -0.5863886940
C       -1.6034674211   -0.8723690572    0.6399978936
C       -0.7541735296   -0.2974396914    1.6335831072
C        0.2847688654    0.3212061218    0.9798853413
N        0.1014805087    0.1523257216   -0.3802742133
H        0.4713457895    0.6934520933   -2.3720561186
H       -1.3668282650   -0.8326021303   -1.5891311889
H       -2.5205659689   -1.4200116113    0.8108757201
H       -0.9031003655   -0.3162959766    2.7053245406
H        1.1245571611    0.8913319390    1.3504008544
C        2.2545610252    0.8399468901   -1.2790131357
H        3.0045904111    0.8317533509   -0.5023474311
13   
From optimize.out: Frame 13 / 24, Energy=    -286.8643201311
C        0.9586813864    0.6089513663   -1.4120419928
C       -1.0505928171   -0.5847700526   -0.5867749761
C       -1.5866462677   -0.8890482744    0.6416028312
C       -0.7523029274   -0.2895669380    1.6322602068
C        0.2713615453    0.3508881676    0.9753253756
N        0.0905054831    0.1737404000   -0.3839508942
H        0.4591415223    0.7892909214   -2.3610729769
H       -1.3468069912   -0.8609470478   -1.5879026438
H       -2.4921241690   -1.4551087953    0.8142163321
H       -0.9039333244   -0.3023886276    2.7035029720
H        1.0987169138    0.9408633178    1.3413177796
C        2.2559797317    0.8010342144   -1.2783252148
H        2.9980199143    0.7170613482   -0.4981567987
13   
From optimize.out: Frame 11 / 24, Energy=    -286.8599446829
C        0.9515088153    0.6349963541   -1.4123329375
C       -1.0407158580   -0.5941348955   -0.5870866364
C       -1.5692688070   -0.9058734366    0.6430437197
C       -0.7497805007   -0.2831666945    1.6313478423
C        0.2552277093    0.3829736440    0.9715297314
N        0.0785702304    0.1961617720   -0.3870774824
H        0.4535662429    0.8818686065   -2.3473828421
H       -1.3288740773   -0.8842148558   -1.5866740825
H       -2.4620434855   -1.4912684277    0.8172313252
H       -0.9032709168   -0.2931966145    2.7022762110
H        1.0691060216    0.9935901633    1.3335497831
C        2.2569095824    0.7596257973   -1.2789081779
H        2.9890650434    0.6026385875   -0.4995164540
13   
From optimize.out: Frame 9 / 24, Energy=    -286.8531795115
C        0.9464049237    0.6598249177   -1.4118569300
C       -1.0316662102   -0.6012532641   -0.5873343061
C       -1.5514142957   -0.9228237512    0.6443439310
C       -0.7466991144   -0.2780291737    1.6307875251
C        0.2367558022    0.4171201362    0.9683895165
N        0.0658115534    0.2194464146   -0.3897323495
H        0.4536755244    0.9716497611   -2.3313713774
H       -1.3127319961   -0.9031288861   -1.5854455072
H       -2.4305574087   -1.5283391423    0.8199670901
H       -0.9013261862   -0.2880481471    2.7015595157
H        1.0362616852    1.0490572197    1.3269095066
C        2.2574202242    0.7160772051   -1.2805809631
H        2.9780654982    0.4884467100   -0.5056356517
13   
From optimize.out: Frame 8 / 24, Energy=    -286.8473531683
C        0.9403400921    0.6870346005   -1.4089386825
C       -1.0174040454   -0.6100534071   -0.5867200460
C       -1.5341956681   -0.9360912362    0.6451404164
C       -0.7447368899   -0.2721085877    1.6304371332
C        0.2209227818    0.4460253706    0.9671693612
N        0.0527840452    0.2451758283   -0.3914311102
H        0.4586907454    1.0643177115   -2.3091163294
H       -1.2886964779   -0.9264558000   -1.5832217775
H       -2.4003016496   -1.5602153776    0.8196554048
H       -0.9023333996   -0.2802140741    2.7004226480
H        1.0061281535    1.0946767261    1.3238607620
C        2.2519056666    0.6732475571   -1.2860657615
H        2.9568966459    0.3746606886   -0.5211920184
13   
From optimize.out: Frame 6 / 24, Energy=    -286.8263798833
C        0.9352970662    0.7133993533   -1.4050935416
C       -1.0030408814   -0.6174819853   -0.5860777840
C       -1.5166931231   -0.9487774495    0.6456422619
C       -0.7422115648   -0.2668777397    1.6302122121
C        0.2042004094    0.4753227865    0.9667192310
N        0.0392485155    0.2716345169   -0.3926986675
H        0.4676734203    1.1547191235   -2.2848949866
H       -1.2652315920   -0.9474078232   -1.5810302357
H       -2.3692638381   -1.5917169777    0.8185530440
H       -0.9024707282   -0.2746240343    2.6994341374
H        0.9743082911    1.1408572069    1.3219406275
C        2.2450506059    0.6293725745   -1.2925218223
H        2.9331334192    0.2615804480   -0.5401844760
13   
From optimize.out: Frame 4 / 24, Energy=    -286.7975730678
C        0.9332861623    0.7366648422   -1.3997345037
C       -0.9903584903   -0.6206943208   -0.5856838820
C       -1.4982104311   -0.9613170057    0.6455611471
C       -0.7377952774   -0.2637437865    1.6302372518
C        0.1841663581    0.5076021049    0.9675674026
N        0.0244840635    0.2990890902   -0.3931947515
H        0.4852062812    1.2381129485   -2.2578586195
H       -1.2462051773   -0.9604993004   -1.5792942524
H       -2.3357207005   -1.6241766528    0.8165190322
H       -0.8992304973   -0.2759076233    2.6989905887
H        0.9370646229    1.1921800613    1.3216333252
C        2.2369364119    0.5824942071   -1.3000967440
H        2.9063766740    0.1501954353   -0.5646459946
13   
From optimize.out: Frame 2 / 24, Energy=    -286.7541324367
C        0.9320055414    0.7606273185   -1.3922724806
C       -0.9741558485   -0.6237402576   -0.5845254316
C       -1.4805145833   -0.9721800746    0.6448015002
C       -0.7350014386   -0.2608206858    1.6308870860
C        0.1652767304    0.5365729856    0.9710825480
N        0.0097697928    0.3281225728   -0.3920628031
H        0.5051432295    1.3199528453   -2.2254685971
H       -1.2232728874   -0.9725673253   -1.5773240480
H       -2.3026390428   -1.6549459181    0.8114323065
H       -0.8988033063   -0.2773933577    2.6988126055
H        0.8990303791    1.2390191593    1.3262974140
C        2.2251881922    0.5358306810   -1.3114215169
H        2.8779732413    0.0415220567   -0.6002385829
13   
From optimize.out: Frame 1 / 24, Energy=    -286.7230800497
C        0.9312342614    0.7838403492   -1.3833495561
C       -0.9566053013   -0.6256342772   -0.5832818048
C       -1.4625261236   -0.9819774110    0.6434801178
C       -0.7319631088   -0.2581193727    1.6315243914
C        0.1466518386    0.5647032321    0.9758826273
N       -0.0053740593    0.3584496778   -0.3903484472
H        0.5274517783    1.3985461551   -2.1906721303
H       -1.2004009733   -0.9822732691   -1.5755440571
H       -2.2684508477   -1.6851539211    0.8045973580
H       -0.8982350912   -0.2801711074    2.6983752572
H        0.8594418583    1.2847466098    1.3333316070
C        2.2108532278    0.4883637841   -1.3236103906
H        2.8479225407   -0.0653204494   -0.6403849727
13   
C6H6N->C2H2+C4H4N atoms 1-13 frame 933 charge -0.000 sz -1.000 sz^2 0.671
C        0.9313968903    0.8013627560   -1.3717683788
C       -0.9404517217   -0.6217973827   -0.5834473183
C       -1.4410616878   -0.9901823963    0.6408196220
C       -0.7236691301   -0.2560857810    1.6305725928
C        0.1266487378    0.5964166216    0.9810293629
N       -0.0229285984    0.3918208778   -0.3894983883
H        0.5565362891    1.4636308968   -2.1561009410
H       -1.1873676615   -0.9818899345   -1.5753480477
H       -2.2272436035   -1.7164908503    0.7958876616
H       -0.8900614342   -0.2893389864    2.6959091773
H        0.8134998748    1.3354772511    1.3408783521
C        2.1915930530    0.4360937859   -1.3312655903
H        2.8131089922   -0.1690168579   -0.6776681043
13   
C6H6N->C2H2+C4H4N atoms 1-13 frame 935 charge -0.000 sz -1.000 sz^2 0.672
C        0.9382063482    0.8206293829   -1.3664144271
C       -0.9230390434   -0.6202827294   -0.5813365273
C       -1.4247513394   -0.9965889401    0.6397062913
C       -0.7175989709   -0.2561779191    1.6323384873
C        0.1045790996    0.6255125673    0.9868557802
N       -0.0460706848    0.4284102267   -0.3889255502
H        0.5934273870    1.5266933469   -2.1263650473
H       -1.1754519377   -0.9800186638   -1.5732520741
H       -2.1890576870   -1.7472898012    0.7879330814
H       -0.8792264604   -0.3034296872    2.6976245480
H        0.7633746213    1.3875524249    1.3518041177
C        2.1728690634    0.3827458363   -1.3393827813
H        2.7827396041   -0.2677560442   -0.7205858985
13   
C6H6N->C2H2+C4H4N atoms 1-13 frame 936 charge +0.000 sz -1.000 sz^2 0.680
C        0.9449886945    0.8353992890   -1.3602417833
C       -0.9067595552   -0.6156347841   -0.5811405173
C       -1.4040807109   -1.0023835578    0.6375801040
C       -0.7087659584   -0.2530467163    1.6314222264
C        0.0847296261    0.6548466182    0.9899159549
N       -0.0712731717    0.4662479852   -0.3906761235
H        0.6300550325    1.5783887912   -2.0982949853
H       -1.1738179006   -0.9695826794   -1.5731964461
H       -2.1413235809   -1.7806564247    0.7803376971
H       -0.8630939578   -0.3161646977    2.6959661603
H        0.7115858737    1.4387040801    1.3595935672
C        2.1487891581    0.3263334913   -1.3380873666
H        2.7489664505   -0.3624513951   -0.7531784878
13   
From optimize.out: Frame 2 / 100, Energy=    -286.6982344266
C        0.9509520122    0.8434334279   -1.3529773004
C       -0.8936690087   -0.6063532520   -0.5845067356
C       -1.3755571209   -1.0087095765    0.6338772033
C       -0.6961078083   -0.2447240502    1.6261228385
C        0.0682798381    0.6854331814    0.9879386315
N       -0.0973002783    0.5038479566   -0.3958265629
H        0.6607844869    1.6137950275   -2.0738865487
H       -1.1872370039   -0.9467929738   -1.5765893029
H       -2.0790877982   -1.8182687300    0.7743389284
H       -0.8404875026   -0.3249982677    2.6888042359
H        0.6593909994    1.4887603887    1.3609533774
C        2.1191035967    0.2666469683   -1.3224586974
H        2.7109355876   -0.4520701002   -0.7657900670
13   
From optimize.out: Frame 4 / 100, Energy=    -286.7687919956
C        0.9674786009    0.8481475461   -1.3574688018
C       -0.8868429547   -0.5966491958   -0.5892533390
C       -1.3442710055   -1.0169427539    0.6312447276
C       -0.6857872463   -0.2333621807    1.6203015087
C        0.0524259867    0.7139168047    0.9793557432
N       -0.1280300612    0.5404836484   -0.4043786802
H        0.6828643065    1.6301291199   -2.0662634749
H       -1.2170557272   -0.9096308227   -1.5810817208
H       -2.0062065612   -1.8605643308    0.7752831295
H       -0.8123522644   -0.3319001417    2.6823087210
H        0.6071068392    1.5386367677    1.3566228692
C        2.0919483758    0.2064883704   -1.2923617823
H        2.6787217111   -0.5287528314   -0.7543089003
13   
From optimize.out: Frame 6 / 100, Energy=    -286.8050201421
C        0.9945070430    0.8516342222   -1.3702192932
C       -0.8913699776   -0.5840528619   -0.5958517638
C       -1.3052831499   -1.0309057060    0.6281912494
C       -0.6828534170   -0.2150900078    1.6124357124
C        0.0422375700    0.7360102210    0.9663108233
N       -0.1587633946    0.5709248729   -0.4121849478
H        0.6905300248    1.6322706978   -2.0685559898
H       -1.2569717038   -0.8621923864   -1.5872354977
H       -1.9196310345   -1.9078682170    0.7851065472
H       -0.7938427814   -0.3247494132    2.6726996657
H        0.5684512411    1.5732241448    1.3449999543
C        2.0680249892    0.1532316959   -1.2544794065
H        2.6449645909   -0.5924372624   -0.7212170536
13   
From optimize.out: Frame 7 / 100, Energy=    -286.8164657066
C        1.0559165032    0.8643491925   -1.4059917038
C       -0.9215943474   -0.5776365525   -0.5960902778
C       -1.2745593438   -1.0596601356    0.6303633820
C       -0.7050648992   -0.1976681484    1.6143366413
C        0.0266626472    0.7415688223    0.9592942853
N       -0.1958887230    0.5889164666   -0.4091242504
H        0.7132863821    1.6400869416   -2.0823373832
H       -1.3099238054   -0.8087863831   -1.5882981010
H       -1.8378096915   -1.9655041777    0.8142953858
H       -0.8053335763   -0.3071651154    2.6759574215
H        0.5368070433    1.5883437950    1.3376722318
C        2.0757510477    0.1227240234   -1.2398191671
H        2.6417507632   -0.6295687287   -0.7102584642
13   
From optimize.out: Frame 9 / 100, Energy=    -286.8294746626
C        1.1298673365    0.8841005065   -1.4465514524
C       -0.9655965130   -0.5819826493   -0.5888412055
C       -1.2649378562   -1.0950878906    0.6368794798
C       -0.7450540640   -0.1896681129    1.6257183794
C        0.0065412461    0.7319639701    0.9584267211
N       -0.2265450190    0.5966498858   -0.3996441903
H        0.7542759447    1.6569136332   -2.0971677340
H       -1.3623203502   -0.7633784012   -1.5818888256
H       -1.7853808983   -2.0202073760    0.8508450842
H       -0.8382994797   -0.2898049038    2.6937092644
H        0.5132452588    1.5920310798    1.3397210580
C        2.1131458898    0.1176405642   -1.2559112140
H        2.6710585045   -0.6391703058   -0.7352953651
13   
From optimize.out: Frame 11 / 100, Energy=    -286.8348205774
C        1.1979493303    0.9049247386   -1.4778181660
C       -1.0132841575   -0.5909815212   -0.5795432537
C       -1.2635223735   -1.1326372234    0.6428174060
C       -0.7904598024   -0.1857209816    1.6363426477
C       -0.0102592957    0.7173786120    0.9575504035
N       -0.2455383667    0.6015913965   -0.3899019071
H        0.7997689499    1.6771898479   -2.1042978221
H       -1.4146793305   -0.7235217393   -1.5712189440
H       -1.7454340615   -2.0716910859    0.8863581215
H       -0.8805631553   -0.2713719020    2.7128711392
H        0.4983102532    1.5929897917    1.3443315046
C        2.1584478602    0.1217296740   -1.2828194197
H        2.7092641495   -0.6398796073   -0.7746717098
13   
From optimize.out: Frame 12 / 100, Energy=    -286.8362849883
C        1.2580505027    0.9237666838   -1.5007611403
C       -1.0631432563   -0.6004120464   -0.5693400242
C       -1.2642079829   -1.1725277142    0.6480488136
C       -0.8404520487   -0.1841422674    1.6441784547
C       -0.0230919056    0.6999918280    0.9524859326
N       -0.2537176269    0.6041646572   -0.3840396137
H        0.8450868011    1.6953342778   -2.1069690068
H       -1.4702702043   -0.6824308182   -1.5561841148
H       -1.7085735707   -2.1223976678    0.9211300853
H       -0.9288574713   -0.2514300478    2.7312746347
H        0.4929100246    1.5959436241    1.3458111399
C        2.2059729808    0.1293719755   -1.3106412196
H        2.7502937574   -0.6352324845   -0.8149939415
13   
From optimize.out: Frame 14 / 100, Energy=    -286.8377967177
C        1.3055207641    0.9377041703   -1.5154624549
C       -1.1135897637   -0.6066347652   -0.5623418444
C       -1.2614643601   -1.2167488664    0.6498626877
C       -0.8961813476   -0.1827884562    1.6493094329
C       -0.0303669515    0.6780425933    0.9412942024
N       -0.2518523039    0.6031342633   -0.3861692791
H        0.8859362213    1.7069146429   -2.1066881069
H       -1.5279730450   -0.6304261112   -1.5392737424
H       -1.6665624340   -2.1756007679    0.9540520000
H       -0.9821980721   -0.2271793172    2.7514280111
H        0.5055143495    1.6090373277    1.3428373294
C        2.2481626163    0.1346083510   -1.3318920461
H        2.7850543267   -0.6300630642   -0.8469561896
13   
From optimize.out: Frame 16 / 100, Energy=    -286.8383004071
C        1.3337788697    0.9471473361   -1.5239680393
C       -1.1564709327   -0.6060434143   -0.5636004151
C       -1.2500829587   -1.2606930887    0.6443146254
C       -0.9558633201   -0.1806189845    1.6542944553
C       -0.0309741795    0.6508823237    0.9302049495
N       -0.2432349602    0.6005553200   -0.3951964075
H        0.9166604878    1.7127645208   -2.1003222232
H       -1.5713725434   -0.5670261342   -1.5238110466
H       -1.6139893835   -2.2278940346    0.9782344880
H       -1.0432525679   -0.2010049679    2.7793897636
H        0.5396291321    1.6345742744    1.3439363222
C        2.2748186515    0.1296227805   -1.3470306870
H        2.8003537048   -0.6322659310   -0.8764457854
13   
From optimize.out: Frame 18 / 100, Energy=    -286.8385656756
C        1.3441790512    0.9529800675   -1.5371556957
C       -1.1803275625   -0.5960812951   -0.5672348072
C       -1.2300367612   -1.2711131969    0.6301811315
C       -0.9911747438   -0.1677744425    1.6553955983
C       -0.0231344608    0.6387926788    0.9178205505
N       -0.2454096401    0.6024745566   -0.4005310525
H        0.9107403921    1.7179754721   -2.0934091929
H       -1.6126605856   -0.5506859264   -1.5339260407
H       -1.5463119885   -2.2661730095    0.9642656875
H       -1.0658168420   -0.1692754935    2.8297017918
H        0.5338765439    1.6263352545    1.3829489817
C        2.2853272775    0.1239940666   -1.3567811845
H        2.8207493197   -0.6414487322   -0.8912757678
13   
From optimize.out: Frame 19 / 100, Energy=    -286.8387395897
C        1.3539037936    0.9587585246   -1.5595466061
C       -1.1955531830   -0.5892444527   -0.5698795128
C       -1.2270534474   -1.2548314498    0.6127657761
C       -0.9943964139   -0.1496718477    1.6577853029
C       -0.0073139956    0.6477564454    0.8973235481
N       -0.2591452206    0.6064469223   -0.4023451354
H        0.8746341457    1.7269002255   -2.0930716775
H       -1.6655480470   -0.5918113327   -1.5755408107
H       -1.4992961981   -2.2937767432    0.9205173972
H       -1.0288546402   -0.1320793325    2.9056197264
H        0.4795237067    1.5884940698    1.4533238838
C        2.2975339668    0.1299848910   -1.3618742314
H        2.8715655330   -0.6469259199   -0.8850776607
13   
From optimize.out: Frame 21 / 100, Energy=    -286.8389743199
C        1.3644323532    0.9641309624   -1.5815136392
C       -1.2104154686   -0.5821549870   -0.5710085513
C       -1.2240638413   -1.2376336998    0.5979324709
C       -0.9956543197   -0.1305418780    1.6625251049
C        0.0086859984    0.6592210875    0.8791252493
N       -0.2738463195    0.6106886733   -0.4026943414
H        0.8359805435    1.7387400510   -2.0934030399
H       -1.7173642795   -0.6401458453   -1.6127989056
H       -1.4513591282   -2.3173962419    0.8747083573
H       -0.9901112789   -0.0931635614    2.9703486298
H        0.4199101838    1.5412007474    1.5202490520
C        2.3098120819    0.1375570242   -1.3658166177
H        2.9239934749   -0.6505023324   -0.8776537690
13   
From optimize.out: Frame 23 / 100, Energy=    -286.8391396201
C        1.3764908167    0.9688900617   -1.6033547464
C       -1.2262752655   -0.5741807243   -0.5713990480
C       -1.2220331417   -1.2197391837    0.5851249628
C       -0.9950622249   -0.1108233845    1.6700666296
C        0.0250029744    0.6723808263    0.8636192468
N       -0.2902149034    0.6152319905   -0.4012134063
H        0.7955743317    1.7516876518   -2.0919292282
H       -1.7667989881   -0.6953882032   -1.6408139779
H       -1.4022707615   -2.3348987953    0.8239174712
H       -0.9491092352   -0.0535421265    3.0214341915
H        0.3563189846    1.4837947890    1.5846485713
C        2.3223765573    0.1460026236   -1.3684359266
H        2.9760008556   -0.6494155254   -0.8716647397
13   
From optimize.out: Frame 24 / 100, Energy=    -286.8392373585
C        1.3962177065    0.9634669644   -1.6129102244
C       -1.2209795494   -0.5717492933   -0.5571256071
C       -1.2564087384   -1.2166799249    0.6031016651
C       -0.9738841191   -0.1281717711    1.6707566648
C        0.0176738844    0.6817752599    0.8717522518
N       -0.2965790777    0.6182878655   -0.3932725848
H        0.8138345894    1.7415796745   -2.1023983852
H       -1.7441962576   -0.7058560499   -1.6104831146
H       -1.4648713257   -2.3160117787    0.8281395724
H       -0.9242279984   -0.0855219889    2.9791711602
H        0.3411984295    1.4899765091    1.5761156635
C        2.3311568245    0.1544485321   -1.3737382399
H        2.9810656319   -0.6255439988   -0.8791088219
13   
From optimize.out: Frame 26 / 100, Energy=    -286.8394377446
C        1.4186417283    0.9571610054   -1.6207901717
C       -1.2073671757   -0.5658954040   -0.5341597846
C       -1.2856316905   -1.2108820955    0.6369201356
C       -0.9559537265   -0.1578577190    1.6696649861
C       -0.0088448811    0.6830961354    0.8928296915
N       -0.3060264739    0.6203914745   -0.3794018945
H        0.8465236902    1.7276648347   -2.1147260377
H       -1.6993107604   -0.7052864747   -1.5561308388
H       -1.5316862294   -2.2801421966    0.8553215386
H       -0.9265562007   -0.1465436520    2.8916489728
H        0.3320095432    1.5121938849    1.5450697581
C        2.3423525424    0.1629737177   -1.3845143664
H        2.9818496341   -0.5968735107   -0.9017319890
13   
From optimize.out: Frame 28 / 100, Energy=    -286.8395703374
C        1.4447532643    0.9555642096   -1.6337324845
C       -1.1947882904   -0.5627508420   -0.5122941414
C       -1.3177216254   -1.2018221378    0.6717454311
C       -0.9354951605   -0.1932548224    1.6762929622
C       -0.0435662104    0.6912446174    0.9134676775
N       -0.3209452246    0.6227548398   -0.3652172915
H        0.8734862765    1.7171820865   -2.1301687986
H       -1.6629777776   -0.7161636660   -1.5135527804
H       -1.6051720046   -2.2465216138    0.8807851907
H       -0.9283109958   -0.2154585782    2.8251170479
H        0.3177091041    1.5440514710    1.5085034334
C        2.3658516438    0.1740335244   -1.3961523102
H        3.0071770006   -0.5688590884   -0.9247939363
13   
From optimize.out: Frame 30 / 100, Energy=    -286.8397058805
C        1.4801342620    0.9576331518   -1.6539554769
C       -1.1859281294   -0.5595716861   -0.4914016555
C       -1.3506610364   -1.1924954676    0.7050082536
C       -0.9205146068   -0.2321582031    1.6883998702
C       -0.0884617907    0.7033434978    0.9301682791
N       -0.3415098757    0.6259141560   -0.3520905446
H        0.9032313618    1.7096506711   -2.1496920187
H       -1.6346473123   -0.7329534673   -1.4804201906
H       -1.6787380272   -2.2165467663    0.9020119861
H       -0.9314135315   -0.2885999082    2.8014182802
H        0.2970206213    1.5756313615    1.4675535117
C        2.4013687627    0.1890895187   -1.4137575590
H        3.0501193023   -0.5389368585   -0.9532427358
13   
From optimize.out: Frame 31 / 100, Energy=    -286.8397537156
C        1.5241868603    0.9610321959   -1.6805093558
C       -1.1844584676   -0.5530102654   -0.4713225984
C       -1.3814918528   -1.1864854389    0.7387401880
C       -0.9180514108   -0.2706219107    1.7037754666
C       -0.1418732534    0.7166593957    0.9421521446
N       -0.3674557455    0.6279247925   -0.3415161588
H        0.9340356268    1.7007308125   -2.1727389381
H       -1.6197994919   -0.7481440742   -1.4518936855
H       -1.7408759090   -2.1953259184    0.9220856119
H       -0.9299920315   -0.3563323940    2.7979323160
H        0.2679526336    1.6002868730    1.4318984200
C        2.4484237035    0.2078812875   -1.4350205457
H        3.1093993384   -0.5045953555   -0.9835828648
13   
From optimize.out: Frame 33 / 100, Energy=    -286.8398512183
C        1.5707452360    0.9650827480   -1.7101400151
C       -1.1868911231   -0.5459401933   -0.4578780090
C       -1.4111308077   -1.1803237914    0.7714506495
C       -0.9200691107   -0.3056069966    1.7222535266
C       -0.1999541317    0.7271869666    0.9530538309
N       -0.4008140152    0.6234513060   -0.3350946081
H        0.9589381800    1.6879305137   -2.1964982646
H       -1.6127175409   -0.7650900917   -1.4317712309
H       -1.7986462131   -2.1766201267    0.9408511065
H       -0.9162242137   -0.4148144938    2.8040050121
H        0.2345219810    1.6157812342    1.4050684207
C        2.5017503652    0.2313661375   -1.4545877186
H        3.1804913940   -0.4624032126   -1.0107127001
13   
From optimize.out: Frame 35 / 100, Energy=    -286.8399755459
C        1.6176036438    0.9736798311   -1.7408086740
C       -1.1933145736   -0.5429759826   -0.4524040208
C       -1.4425405700   -1.1762426747    0.7980512785
C       -0.9180807006   -0.3341147149    1.7420137352
C       -0.2551528052    0.7350694040    0.9702063111
N       -0.4416048139    0.6135926216   -0.3276539508
H        0.9762438225    1.6789009556   -2.2128559532
H       -1.6064284074   -0.7909524646   -1.4230619471
H       -1.8631472633   -2.1595392400    0.9549840603
H       -0.8950406991   -0.4616127786    2.8168535779
H        0.2053880913    1.6232016308    1.3934385966
C        2.5571986905    0.2584622313   -1.4751164502
H        3.2588755850   -0.4174688189   -1.0436465634
13   
From optimize.out: Frame 36 / 100, Energy=    -286.8400440602
C        1.6694496297    0.9899971891   -1.7756127080
C       -1.2068409561   -0.5378795088   -0.4450343271
C       -1.4712581471   -1.1789022212    0.8229221026
C       -0.9241785531   -0.3574430912    1.7576224071
C       -0.3050216289    0.7360065646    0.9932147589
N       -0.4915490037    0.6119551563   -0.3170204555
H        0.9940151537    1.6808947322   -2.2191556247
H       -1.5925202636   -0.8246956230   -1.4144373572
H       -1.9200032851   -2.1503431893    0.9698132722
H       -0.8881786089   -0.4926948823    2.8260297067
H        0.1851332853    1.6134864150    1.4016824970
C        2.6128984829    0.2863450839   -1.5042336276
H        3.3380538949   -0.3767266254   -1.0957906443
13   
From optimize.out: Frame 38 / 100, Energy=    -286.8402572619
C        1.7251780752    1.0103212876   -1.8063949152
C       -1.2336732509   -0.5388876229   -0.4433653108
C       -1.4952096815   -1.1882694651    0.8374224071
C       -0.9186429596   -0.3759747909    1.7729363773
C       -0.3523662336    0.7384596021    1.0174670649
N       -0.5438077124    0.6111228945   -0.3066497211
H        1.0128392915    1.6889835292   -2.2105535294
H       -1.5907230600   -0.8599599917   -1.4150362204
H       -1.9756246662   -2.1456328083    0.9813324235
H       -0.8771528320   -0.5174006805    2.8445062640
H        0.1584883202    1.6099432151    1.4132690447
C        2.6708260783    0.3112497183   -1.5320262484