13   
From optimize.out: Frame 1 / 43, Energy=    -286.6162339899
C        1.5566744505    0.2987808599   -1.6394750267
C        0.6921374532   -0.9744271184   -1.3847554341
C       -0.5632284791   -0.6556796339   -1.9847502252
C       -1.0841050554    0.2954602394   -0.5906490450
C       -0.5520073874    0.7949794486   -2.1457904365
N        0.5946015571    1.2894372729   -1.9033485263
H        2.5676487621    0.1564997513   -2.0228155288
H        0.9643606079   -1.9869859574   -1.6180902676
H       -1.3491897094   -0.8023699898   -2.6726788743
H       -2.0426299426    0.7978846184   -0.4143553004
H       -1.2764783049    1.3831390757   -2.6660305898
C       -0.6300759882   -1.1296384396   -0.1922608709
H       -0.5100126844   -1.7588355282    0.8323493508
13   
From optimize.out: Frame 2 / 43, Energy=    -286.6597824050
C        1.5414580362    0.2812337024   -1.6444844490
C        0.6866449379   -0.9806789591   -1.4010474153
C       -0.5845242298   -0.6599121373   -1.9965725502
C       -1.0926540357    0.2815622754   -0.5887779185
C       -0.5469066806    0.7986010119   -2.1293024442
N        0.6484840064    1.2888117915   -1.8986741331
H        2.5645273121    0.1641958305   -1.9916378178
H        0.9806748418   -1.9967247068   -1.6190849035
H       -1.3775851240   -0.8413726339   -2.6893926651
H       -2.0527887481    0.7684918849   -0.3978469797
H       -1.2781239954    1.3980476347   -2.6416256359
C       -0.6241738395   -1.1053908209   -0.2061174283
H       -0.4973372018   -1.6886202744    0.8019135657
13   
From optimize.out: Frame 3 / 43, Energy=    -286.6925010231
C        1.5196087989    0.2598438777   -1.6484863772
C        0.6798469460   -0.9901065892   -1.4152563446
C       -0.6034121669   -0.6615579117   -2.0107447526
C       -1.0967412597    0.2750775078   -0.5917686577
C       -0.5471887993    0.7989102071   -2.1081810983
N        0.6910746534    1.2746290649   -1.8976936426
H        2.5582142729    0.1761883368   -1.9548144481
H        0.9944060514   -2.0061742784   -1.6173517405
H       -1.3965352556   -0.8755199433   -2.7046308405
H       -2.0585403026    0.7473484649   -0.3858644455
H       -1.2797601251    1.4106066384   -2.6095608143
C       -0.6138966149   -1.0799080894   -0.2249953248
H       -0.4793809190   -1.6210926866    0.7666977119
13   
From optimize.out: Frame 4 / 43, Energy=    -286.7165093425
C        1.5044696862    0.2386393309   -1.6528903511
C        0.6699807682   -1.0009747582   -1.4294574471
C       -0.6226626751   -0.6605946454   -2.0262757583
C       -1.1030086439    0.2762311143   -0.6000208240
C       -0.5514456211    0.8031836012   -2.0862797879
N        0.7248363872    1.2640996253   -1.9012990212
H        2.5585659266    0.1822865862   -1.9103806617
H        1.0010938975   -2.0167268629   -1.6145037747
H       -1.4135555688   -0.9101244851   -2.7180016181
H       -2.0688913286    0.7304880739   -0.3803615484
H       -1.2844687676    1.4256588784   -2.5780588152
C       -0.5976056409   -1.0572890206   -0.2447610170
H       -0.4496131402   -1.5666328391    0.7396398498
13   
From optimize.out: Frame 5 / 43, Energy=    -286.7354517218
C        1.4923157211    0.2193449067   -1.6564282895
C        0.6567538143   -1.0113558646   -1.4413813462
C       -0.6407555275   -0.6561751640   -2.0431041288
C       -1.1098793270    0.2799424958   -0.6130007476
C       -0.5571062185    0.8105455344   -2.0644418185
N        0.7517256112    1.2587212847   -1.9055653037
H        2.5584767896    0.1797107018   -1.8649874034
H        1.0009048981   -2.0266242166   -1.6107686185
H       -1.4267007809   -0.9427425170   -2.7305375171
H       -2.0818058718    0.7120156573   -0.3806122760
H       -1.2892312462    1.4424016608   -2.5491206891
C       -0.5757823158   -1.0373609280   -0.2633442491
H       -0.4112202673   -1.5201789523    0.7206416125
13   
From optimize.out: Frame 6 / 43, Energy=    -286.7513092227
C        1.4819538447    0.2029058446   -1.6587663641
C        0.6404342120   -1.0205333082   -1.4506404431
C       -0.6581752817   -0.6480817520   -2.0618477377
C       -1.1166903914    0.2813602215   -0.6296977046
C       -0.5629708388    0.8197104756   -2.0443709056
N        0.7736334427    1.2557348347   -1.9085310446
H        2.5568366941    0.1705601883   -1.8215795680
H        0.9947774340   -2.0350985729   -1.6074813967
H       -1.4371874915   -0.9704432861   -2.7434727984
H       -2.0956734392    0.6881441629   -0.3846991101
H       -1.2920747694    1.4607716410   -2.5244752739
C       -0.5495507181   -1.0199685787   -0.2775525709
H       -0.3676174180   -1.4768172718    0.7104641429
13   
From optimize.out: Frame 7 / 43, Energy=    -286.7654518692
C        1.4721165048    0.1887629287   -1.6603675313
C        0.6219913272   -1.0290864896   -1.4577765358
C       -0.6753383413   -0.6370488627   -2.0832962223
C       -1.1225784589    0.2770570433   -0.6489767686
C       -0.5682247490    0.8296833895   -2.0275688214
N        0.7920257979    1.2542191015   -1.9095195367
H        2.5530365187    0.1581339779   -1.7814239238
H        0.9849748692   -2.0427568930   -1.6052092718
H       -1.4462989007   -0.9916004207   -2.7589082307
H       -2.1079928440    0.6581142152   -0.3904785996
H       -1.2926417704    1.4806794103   -2.5039747923
C       -0.5206393916   -1.0047746186   -0.2852564769
H       -0.3227352824   -1.4331381829    0.7101059363
13   
From optimize.out: Frame 8 / 43, Energy=    -286.7786724359
C        1.4624061618    0.1759702101   -1.6615310549
C        0.6024677658   -1.0373585102   -1.4636502910
C       -0.6926971665   -0.6244620324   -2.1075164733
C       -1.1266806869    0.2674168140   -0.6693209871
C       -0.5731919600    0.8395125019   -2.0139228771
N        0.8079041114    1.2533171379   -1.9095358213
H        2.5474323162    0.1444544167   -1.7431742089
H        0.9740351207   -2.0498528322   -1.6034125170
H       -1.4548509855   -1.0075744275   -2.7778263678
H       -2.1167847345    0.6241273132   -0.3954469709
H       -1.2922749237    1.5012205355   -2.4859558829
C       -0.4908576520   -0.9906022873   -0.2877832898
H       -0.2792120874   -1.3879242408    0.7164259670
13   
From optimize.out: Frame 9 / 43, Energy=    -286.7908775422
C        1.4539829274    0.1640295948   -1.6625793765
C        0.5828040358   -1.0449015876   -1.4691682963
C       -0.7100767249   -0.6111831434   -2.1332287694
C       -1.1306060631    0.2542667818   -0.6887771144
C       -0.5780501574    0.8492136769   -2.0031344486
N        0.8211520217    1.2518653942   -1.9095806167
H        2.5415351036    0.1292120901   -1.7053647742
H        0.9627467028   -2.0559555725   -1.6034897345
H       -1.4628108073   -1.0205038653   -2.7986900426
H       -2.1240530806    0.5870422550   -0.3978867415
H       -1.2905856135    1.5223898906   -2.4706469949
C       -0.4610137587   -0.9758737127   -0.2863284895
H       -0.2373293063   -1.3413572031    0.7262246244
13   
From optimize.out: Frame 10 / 43, Energy=    -286.8016985184
C        1.4475120423    0.1525812921   -1.6638974162
C        0.5638356538   -1.0515545327   -1.4751719978
C       -0.7269653333   -0.5978403136   -2.1581240120
C       -1.1366402838    0.2390487331   -0.7063318325
C       -0.5822543423    0.8588013765   -1.9946689945
N        0.8316699514    1.2489705769   -1.9095592559
H        2.5360280596    0.1127587681   -1.6677408989
H        0.9511972145   -2.0609552090   -1.6079595769
H       -1.4698013781   -1.0320275134   -2.8186014805
H       -2.1326062113    0.5477950743   -0.3983657395
H       -1.2860801013    1.5443465500   -2.4584287696
C       -0.4314482623   -0.9596202716   -0.2814636353
H       -0.1967517297   -1.2940599317    0.7376628347
13   
From optimize.out: Frame 11 / 43, Energy=    -286.8109168564
C        1.4425771110    0.1413717041   -1.6657189753
C        0.5460005581   -1.0576740745   -1.4820913580
C       -0.7430550265   -0.5848489635   -2.1799017631
C       -1.1453602899    0.2221538479   -0.7225101420
C       -0.5850904899    0.8679943032   -1.9877894877
N        0.8396889559    1.2446754880   -1.9089531438
H        2.5305051364    0.0964829717   -1.6306792588
H        0.9392708453   -2.0652778483   -1.6181531098
H       -1.4758591775   -1.0424674825   -2.8351644421
H       -2.1432507323    0.5077299210   -0.3994002355
H       -1.2780745674    1.5666907805   -2.4487095908
C       -0.4023333215   -0.9418422403   -0.2737011746
H       -0.1573237221   -1.2467438085    0.7501219068
13   
From optimize.out: Frame 12 / 43, Energy=    -286.8185238991
C        1.4387033360    0.1303165807   -1.6678336919
C        0.5294447496   -1.0634620303   -1.4898121854
C       -0.7584988962   -0.5724368937   -2.1967674244
C       -1.1563442141    0.2032813687   -0.7384819798
C       -0.5861909744    0.8766677215   -1.9820118877
N        0.8455635775    1.2393574363   -1.9073691316
H        2.5246234261    0.0811458479   -1.5946647453
H        0.9268457626   -2.0691568860   -1.6336974718
H       -1.4815388357   -1.0512061427   -2.8471362668
H       -2.1558306060    0.4677573218   -0.4036083325
H       -1.2669354431    1.5888929004   -2.4406333415
C       -0.3735855812   -0.9229722064   -0.2638051804
H       -0.1185610218   -1.1999404193    0.7631708643
13   
From optimize.out: Frame 13 / 43, Energy=    -286.8246623401
C        1.4354633014    0.1195112038   -1.6698761979
C        0.5141541792   -1.0690474429   -1.4976517718
C       -0.7737006643   -0.5607538984   -2.2076447615
C       -1.1688259769    0.1818688270   -0.7553516217
C       -0.5854481738    0.8850013666   -1.9771123400
N        0.8497413785    1.2334900870   -1.9046268581
H        2.5182169150    0.0669681908   -1.5605720248
H        0.9138668369   -2.0727791251   -1.6528335035
H       -1.4873783675   -1.0572699204   -2.8546017524
H       -2.1698501047    0.4281539889   -0.4126442716
H       -1.2534643183    1.6106522079   -2.4334343078
C       -0.3450873947   -0.9035963559   -0.2526557179
H       -0.0799923314   -1.1539545304    0.7763543541
13   
From optimize.out: Frame 14 / 43, Energy=    -286.8295200433
C        1.4326820810    0.1090476288   -1.6716384561
C        0.5001806231   -1.0745890008   -1.5049253425
C       -0.7889774455   -0.5500179557   -2.2123294145
C       -1.1820212814    0.1574880084   -0.7736317918
C       -0.5831268519    0.8932563715   -1.9728918973
N        0.8525424133    1.2273206630   -1.9009487182
H        2.5114949774    0.0538025701   -1.5293793256
H        0.9006274690   -2.0763433831   -1.6735251484
H       -1.4933525772   -1.0597435969   -2.8590678896
H       -2.1845523169    0.3891106792   -0.4265246964
H       -1.2388480332    1.6317425444   -2.4263697079
C       -0.3170769337   -0.8841696382   -0.2408904171
H       -0.0418768446   -1.1086602919    0.7894720306
13   
From optimize.out: Frame 15 / 43, Energy=    -286.8332058640
C        1.4301462444    0.0989491902   -1.6731360136
C        0.4875718651   -1.0803917474   -1.5111643448
C       -0.8042261573   -0.5407427581   -2.2116951789
C       -1.1951762544    0.1299939037   -0.7929248783
C       -0.5798297396    0.9014431314   -1.9690920218
N        0.8540130117    1.2208284175   -1.8967915692
H        2.5046661658    0.0415929110   -1.5019399155
H        0.8874915563   -2.0801818195   -1.6941347476
H       -1.4983079005   -1.0581526177   -2.8636673786
H       -2.1986601580    0.3517741281   -0.4432412898
H       -1.2245687953    1.6517185362   -2.4187027799
C       -0.2901435827   -0.8649506428   -0.2287917869
H       -0.0052809760   -1.0636360336    0.8026311301
13   
From optimize.out: Frame 16 / 43, Energy=    -286.8356979632
C        1.4276302411    0.0891815806   -1.6745723747
C        0.4764462411   -1.0868444867   -1.5161621031
C       -0.8186737728   -0.5339872423   -2.2077073869
C       -1.2077847347    0.0997291621   -0.8115224304
C       -0.5765935350    0.9090533140   -1.9655525322
N        0.8537022424    1.2137010063   -1.8928741690
H        2.4978855498    0.0305311201   -1.4787329540
H        0.8747876430   -2.0847382456   -1.7134800186
H       -1.4994851548   -1.0524788501   -2.8733116645
H       -2.2103410777    0.3196250211   -0.4584217047
H       -1.2127668659    1.6694936680   -2.4097545506
C       -0.2652131005   -0.8461787464   -0.2165041025
H        0.0281016035   -1.0188427023    0.8159452164
13   
From optimize.out: Frame 25 / 43, Energy=    -286.8363486802
C        1.4082023025    0.0713171838   -1.6687119404
C        0.4556428250   -1.1010298677   -1.5171581654
C       -0.8114951599   -0.5409421125   -2.1852257120
C       -1.2179475733    0.0529266777   -0.8188564319
C       -0.5726780314    0.9141537874   -1.9668832932
N        0.8394610826    1.2016771008   -1.8720213109
H        2.4643404178    0.0010637391   -1.4640352278
H        0.7849967706   -2.1160878377   -1.7720562867
H       -1.3753969231   -1.0248741529   -2.9792315911
H       -2.1788120484    0.3491266489   -0.4206092526
H       -1.2476129676    1.6593234171   -2.3979346633
C       -0.2505509417   -0.8306368327   -0.1871031930
H        0.0695455263   -0.9277731524    0.8471762935
13   
From optimize.out: Frame 26 / 43, Energy=    -286.8375016851
C        1.4171136961    0.0733644479   -1.6690308224
C        0.4601626341   -1.0948861565   -1.5142605188
C       -0.8291218405   -0.5453635002   -2.1886877797
C       -1.2275154116    0.0389524598   -0.8190442415
C       -0.5637013961    0.9062122396   -1.9698697835
N        0.8474524974    1.2029552214   -1.8759974059
H        2.4770290170    0.0079057042   -1.4634554507
H        0.8000165000   -2.1011833446   -1.7596466548
H       -1.4212883320   -1.0133100154   -2.9780429864
H       -2.1931735676    0.3396573985   -0.4308159181
H       -1.2225545745    1.6545315826   -2.3954345599
C       -0.2481956616   -0.8292552123   -0.1859655276
H        0.0714717187   -0.9313362261    0.8476008745
13   
From optimize.out: Frame 27 / 43, Energy=    -286.8377736778
C        1.4208856699    0.0743339430   -1.6686467521
C        0.4603640132   -1.0943429234   -1.5137415918
C       -0.8336661766   -0.5434112888   -2.1919002652
C       -1.2312195912    0.0350798860   -0.8183894424
C       -0.5632228916    0.9030298003   -1.9721197621
N        0.8474703102    1.2026596602   -1.8772262801
H        2.4839368746    0.0099278541   -1.4636417723
H        0.8065300331   -2.0976008460   -1.7552675755
H       -1.4349582430   -1.0095683831   -2.9730755623
H       -2.1988638502    0.3374478602   -0.4355256389
H       -1.2145169164    1.6550338574   -2.3962096806
C       -0.2488016887   -0.8291989011   -0.1845824706
H        0.0737577361   -0.9351459200    0.8476760191
13   
From optimize.out: Frame 28 / 43, Energy=    -286.8380043374
C        1.4247772432    0.0747983724   -1.6678288834
C        0.4586114007   -1.0952822400   -1.5132316556
C       -0.8365737539   -0.5385045229   -2.1960764401
C       -1.2351165732    0.0311322126   -0.8181682402
C       -0.5649455534    0.9016255565   -1.9750112300
N        0.8445315790    1.2006008273   -1.8780621927
H        2.4926829443    0.0115780832   -1.4644867216
H        0.8141382577   -2.0969760100   -1.7508643607
H       -1.4450875917   -1.0070443125   -2.9654394560
H       -2.2048594440    0.3360470993   -0.4405418795
H       -1.2083928757    1.6597288126   -2.3981601178
C       -0.2488724792   -0.8298608160   -0.1831840723
H        0.0768021256   -0.9395984639    0.8484044752
13   
From optimize.out: Frame 29 / 43, Energy=    -286.8380955592
C        1.4261671578    0.0744206623   -1.6671412485
C        0.4577952840   -1.0967472939   -1.5131703756
C       -0.8352344548   -0.5357332073   -2.1979150561
C       -1.2369505669    0.0308461140   -0.8181200954
C       -0.5665266723    0.9024784103   -1.9756528726
N        0.8424981742    1.1984643888   -1.8780940820
H        2.4962961450    0.0120843709   -1.4652897564
H        0.8191648907   -2.0984438743   -1.7477432141
H       -1.4474859816   -1.0068606928   -2.9607740243
H       -2.2074200086    0.3376879442   -0.4421779246
H       -1.2086261849    1.6631460265   -2.3989173071
C       -0.2507397247   -0.8311507542   -0.1838136512
H        0.0787572216   -0.9419474955    0.8461588330
13   
From optimize.out: Frame 30 / 43, Energy=    -286.8381660268
C        1.4266496874    0.0727833879   -1.6664484018
C        0.4571398210   -1.0986109090   -1.5130147069
C       -0.8338909813   -0.5341193766   -2.1988038219
C       -1.2387667771    0.0300480805   -0.8195072658
C       -0.5676548890    0.9053660046   -1.9751931346
N        0.8408815772    1.1958458925   -1.8777220653
H        2.4980590984    0.0121207713   -1.4661239099
H        0.8240391472   -2.1009142644   -1.7441451326
H       -1.4479890117   -1.0073186903   -2.9579567319
H       -2.2093240344    0.3393362804   -0.4430371240
H       -1.2106471098    1.6681280385   -2.3984589507
C       -0.2516202390   -0.8327697063   -0.1857251516
H        0.0808189904   -0.9416509102    0.8434856221
13   
From optimize.out: Frame 31 / 43, Energy=    -286.8382069164
C        1.4263585945    0.0713391009   -1.6659281078
C        0.4579136839   -1.1000029839   -1.5129080034
C       -0.8326869034   -0.5342564836   -2.1989733664
C       -1.2399834568    0.0298481845   -0.8208665341
C       -0.5677514077    0.9072818071   -1.9741438769
N        0.8408846495    1.1941742414   -1.8772393997
H        2.4976220568    0.0119719944   -1.4668968841
H        0.8283464744   -2.1022971034   -1.7401266100
H       -1.4492240038   -1.0068243478   -2.9571346781
H       -2.2102810468    0.3409495461   -0.4434825276
H       -1.2127052393    1.6708794262   -2.3970347081
C       -0.2537047546   -0.8344217177   -0.1878926251
H        0.0829066328   -0.9403970654    0.8399765464
13   
From optimize.out: Frame 32 / 43, Energy=    -286.8382351412
C        1.4255244604    0.0698534219   -1.6655835215
C        0.4587744896   -1.1009377186   -1.5126359122
C       -0.8333023777   -0.5351830503   -2.1989384388
C       -1.2408313826    0.0285002037   -0.8228041888
C       -0.5673630328    0.9087778093   -1.9733021331
N        0.8413665795    1.1933106095   -1.8765908121
H        2.4960819899    0.0115068761   -1.4677484653
H        0.8315105287   -2.1031897897   -1.7363661218
H       -1.4506691288   -1.0054704840   -2.9583317854
H       -2.2105144122    0.3407254877   -0.4442195657
H       -1.2134430279    1.6735345008   -2.3949882717
C       -0.2543591773   -0.8358543467   -0.1894313419
H        0.0849197707   -0.9373289207    0.8382897834
13   
From optimize.out: Frame 33 / 43, Energy=    -286.8382555909
C        1.4244482177    0.0691278096   -1.6653152819
C        0.4597842118   -1.1015478882   -1.5124266328
C       -0.8341649861   -0.5361141027   -2.1992213418
C       -1.2411049934    0.0274929816   -0.8240531226
C       -0.5670239228    0.9088378363   -1.9729858266
N        0.8419926055    1.1932421607   -1.8758676606
H        2.4942113100    0.0108613528   -1.4688406607
H        0.8342934855   -2.1034912612   -1.7326100520
H       -1.4527002441   -1.0032236729   -2.9600242851
H       -2.2102630376    0.3399194449   -0.4453474152
H       -1.2131210261    1.6748908734   -2.3929167559
C       -0.2556747929   -0.8373016427   -0.1901029635
H        0.0870184519   -0.9344492929    0.8370612240
13   
From optimize.out: Frame 34 / 43, Energy=    -286.8382716717
C        1.4231901771    0.0687168725   -1.6651340037
C        0.4599846311   -1.1020333419   -1.5122777036
C       -0.8356653040   -0.5365560066   -2.1998775593
C       -1.2410424534    0.0261314365   -0.8250583540
C       -0.5670481907    0.9083985384   -1.9731385760
N        0.8421146937    1.1935779257   -1.8749748137
H        2.4924610827    0.0097552315   -1.4700479576
H        0.8362997417   -2.1039016536   -1.7294154629
H       -1.4540012519   -1.0008989378   -2.9622464927
H       -2.2097836879    0.3380153708   -0.4468561439
H       -1.2118886363    1.6764455836   -2.3907464873
C       -0.2560849917   -0.8385509380   -0.1899679720
H        0.0891594692   -0.9308554821    0.8370907521
13   
From optimize.out: Frame 35 / 43, Energy=    -286.8382818476
C        1.4222052259    0.0687798096   -1.6650317110
C        0.4595341654   -1.1024294934   -1.5123715319
C       -0.8364470325   -0.5363843685   -2.2007316009
C       -1.2407733274    0.0254963539   -0.8252018762
C       -0.5674217424    0.9075533714   -1.9733587362
N        0.8418003531    1.1940039773   -1.8741530836
H        2.4913883200    0.0084528901   -1.4710328222
H        0.8375548155   -2.1042908406   -1.7272931336
H       -1.4542856588   -0.9993836839   -2.9639222199
H       -2.2095420067    0.3364320952   -0.4481573269
H       -1.2107343208    1.6773409678   -2.3889515622
C       -0.2565748010   -0.8393685948   -0.1895242224
H        0.0909912892   -0.9279578852    0.8370790523
13   
From optimize.out: Frame 36 / 43, Energy=    -286.8382878253
C        1.4216245328    0.0688270782   -1.6650207721
C        0.4585912643   -1.1027323456   -1.5126229038
C       -0.8367729568   -0.5359669877   -2.2014144721
C       -1.2406743645    0.0251341203   -0.8250689252
C       -0.5678445198    0.9070822938   -1.9732563182
N        0.8412448774    1.1942012246   -1.8734789485
H        2.4909683637    0.0070912150   -1.4715881360
H        0.8378953655   -2.1046904345   -1.7264554241
H       -1.4534296199   -0.9990364990   -2.9651997402
H       -2.2097641982    0.3352191109   -0.4489798079
H       -1.2100283033    1.6780765407   -2.3874669666
C       -0.2564720977   -0.8395866397   -0.1892069007
H        0.0923569359   -0.9253740782    0.8371085405
13   
From optimize.out: Frame 37 / 43, Energy=    -286.8382922376
C        1.4213286688    0.0688067116   -1.6650400238
C        0.4576868377   -1.1029516108   -1.5129507742
C       -0.8366511841   -0.5356676813   -2.2019214325
C       -1.2408187265    0.0250554179   -0.8248040864
C       -0.5681341634    0.9068530011   -1.9727229093
N        0.8407396277    1.1941927733   -1.8728577539
H        2.4908549878    0.0056807361   -1.4720157464
H        0.8379073926   -2.1049226434   -1.7261168197
H       -1.4521601833   -0.9993095143   -2.9662981650
H       -2.2104363678    0.3344795894   -0.4494902227
H       -1.2097430097    1.6784992743   -2.3859955025
C       -0.2564644359   -0.8395159357   -0.1891811251
H        0.0935858354   -0.9229555193    0.8367437867
13   
From optimize.out: Frame 38 / 43, Energy=    -286.8382963117
C        1.4212079688    0.0686051290   -1.6650718673
C        0.4569209430   -1.1030649912   -1.5132547539
C       -0.8364503223   -0.5356159943   -2.2022760740
C       -1.2413070283    0.0248985780   -0.8246909482
C       -0.5682614323    0.9068579277   -1.9717488245
N        0.8403055984    1.1939899006   -1.8721438029
H        2.4908928028    0.0040768282   -1.4725913849
H        0.8376849725   -2.1049722535   -1.7259747093
H       -1.4506116363   -0.9998524257   -2.9676164681
H       -2.2115577880    0.3338392654   -0.4499215292
H       -1.2096323167    1.6788883931   -2.3842618187
C       -0.2564211521   -0.8392862315   -0.1893479369
H        0.0949246699   -0.9201195269    0.8362493430
13   
From optimize.out: Frame 39 / 43, Energy=    -286.8382999756
C        1.4212752008    0.0683097767   -1.6650798589
C        0.4566008502   -1.1029930249   -1.5133703201
C       -0.8362280055   -0.5358644410   -2.2024474139
C       -1.2420657321    0.0246722835   -0.8247688777
C       -0.5682393428    0.9069253392   -1.9705587300
N        0.8400371036    1.1936722627   -1.8713683774
H        2.4910857654    0.0025500240   -1.4735614820
H        0.8373721992   -2.1047532922   -1.7258297490
H       -1.4492181492   -1.0002891201   -2.9689967407
H       -2.2129223796    0.3333763671   -0.4503568783
H       -1.2095965350    1.6791142181   -2.3825322131
C       -0.2566223886   -0.8390886132   -0.1895494683
H        0.0962166929   -0.9173871811    0.8357693347
13   
From optimize.out: Frame 40 / 43, Energy=    -286.8383031937
C        1.4214996882    0.0680038262   -1.6650464688
C        0.4567413529   -1.1027249017   -1.5131723656
C       -0.8361090425   -0.5362879996   -2.2024269914
C       -1.2429495827    0.0243061814   -0.8250561372
C       -0.5681725701    0.9069606664   -1.9694678924
N        0.8399177024    1.1933351241   -1.8705769834
H        2.4914749706    0.0013507317   -1.4750506148
H        0.8369708636   -2.1043468257   -1.7256724684
H       -1.4481238515   -1.0003993589   -2.9702597202
H       -2.2142396730    0.3330239932   -0.4508655053
H       -1.2095286168    1.6792503031   -2.3811260653
C       -0.2570095121   -0.8390394219   -0.1895596351
H        0.0972235503   -0.9151877193    0.8356300731
13   
From optimize.out: Frame 41 / 43, Energy=    -286.8383059823
C        1.4218253493    0.0678013134   -1.6649629551
C        0.4571847571   -1.1023325108   -1.5126530512
C       -0.8360393148   -0.5366904451   -2.2022589993
C       -1.2437655368    0.0238846269   -0.8254004199
C       -0.5681701877    0.9068763597   -1.9687123496
N        0.8399149553    1.1930868006   -1.8698175366
H        2.4920802418    0.0006337494   -1.4770578118
H        0.8365225446   -2.1038920521   -1.7255042575
H       -1.4473190286   -1.0001602341   -2.9711924226
H       -2.2152809440    0.3327918536   -0.4514681733
H       -1.2094206459    1.6793083297   -2.3802580157
C       -0.2576043688   -0.8391909547   -0.1892628930
H        0.0977674579   -0.9138722376    0.8358981109
13   
From optimize.out: Frame 42 / 43, Energy=    -286.8383083154
C        1.4221636936    0.0677318581   -1.6648451769
C        0.4576250488   -1.1019553961   -1.5119333848
C       -0.8359828513   -0.5368935033   -2.2020045283
C       -1.2443853190    0.0234457739   -0.8256611016
C       -0.5682692913    0.9067124504   -1.9683594537
N        0.8400001731    1.1929884757   -1.8691371158
H        2.4928419923    0.0003956273   -1.4793659468
H        0.8360470095   -2.1035645727   -1.7253735591
H       -1.4466477266   -0.9997405297   -2.9717160954
H       -2.2159516502    0.3326092070   -0.4521359218
H       -1.2093046501    1.6793809984   -2.3799232673
C       -0.2582523583   -0.8394732535   -0.1886930443
H        0.0978112089   -0.9133925366    0.8364978211
