13   
From optimize.out: Frame 1 / 43, Energy=    -286.6162339899
C        0.0133510000    0.0410180000   -0.0000000000
C       -0.2214120000   -0.0232630000   -0.0000000000
C       -0.0765260000   -0.0233940000   -0.0000000000
C       -0.2028150000    0.2789670000   -0.0000000000
C        0.0005680000    0.0191340000   -0.0000000000
N       -0.3210930000    0.0105520000   -0.0000000000
H        0.1762860000   -0.0036350000   -0.0000000000
H        0.1590270000    0.0018110000   -0.0000000000
H        0.1775450000   -0.0026430000   -0.0000000000
H        0.1532570000   -0.0131670000   -0.0000000000
H        0.1701680000    0.0004340000   -0.0000000000
C       -0.1652300000    0.6463490000   -0.0000000000
H        0.1368740000    0.0678370000    0.0000000000
13   
From optimize.out: Frame 2 / 43, Energy=    -286.6597824050
C        0.0367000000    0.0160040000   -0.0000000000
C       -0.2238270000   -0.0201350000   -0.0000000000
C       -0.0804860000   -0.0285380000   -0.0000000000
C       -0.2031560000    0.3133900000   -0.0000000000
C       -0.0042520000    0.0133920000   -0.0000000000
N       -0.3220240000    0.0157710000   -0.0000000000
H        0.1717590000   -0.0008230000   -0.0000000000
H        0.1570810000    0.0014670000   -0.0000000000
H        0.1791180000   -0.0032240000   -0.0000000000
H        0.1506940000   -0.0129430000   -0.0000000000
H        0.1684880000    0.0013750000   -0.0000000000
C       -0.1672360000    0.6487500000   -0.0000000000
H        0.1371400000    0.0555140000    0.0000000000
13   
From optimize.out: Frame 3 / 43, Energy=    -286.6925010231
C        0.0572150000    0.0064510000   -0.0000000000
C       -0.2262860000   -0.0191670000   -0.0000000000
C       -0.0828640000   -0.0340110000   -0.0000000000
C       -0.2026670000    0.3356360000   -0.0000000000
C       -0.0087670000    0.0099950000   -0.0000000000
N       -0.3208010000    0.0146370000   -0.0000000000
H        0.1649850000    0.0014130000   -0.0000000000
H        0.1557730000    0.0012910000   -0.0000000000
H        0.1799540000   -0.0034620000   -0.0000000000
H        0.1486460000   -0.0126730000   -0.0000000000
H        0.1661410000    0.0020090000   -0.0000000000
C       -0.1676610000    0.6531310000   -0.0000000000
H        0.1363330000    0.0447500000    0.0000000000
13   
From optimize.out: Frame 4 / 43, Energy=    -286.7165093425
C        0.0717610000    0.0054260000   -0.0000000000
C       -0.2267650000   -0.0198510000   -0.0000000000
C       -0.0855420000   -0.0354750000   -0.0000000000
C       -0.1994640000    0.3369230000   -0.0000000000
C       -0.0114030000    0.0080240000   -0.0000000000
N       -0.3223480000    0.0128430000   -0.0000000000
H        0.1595310000    0.0028410000   -0.0000000000
H        0.1550110000    0.0013420000   -0.0000000000
H        0.1804760000   -0.0038310000   -0.0000000000
H        0.1479920000   -0.0120270000   -0.0000000000
H        0.1639350000    0.0025210000   -0.0000000000
C       -0.1667420000    0.6612430000   -0.0000000000
H        0.1335590000    0.0400200000    0.0000000000
13   
From optimize.out: Frame 5 / 43, Energy=    -286.7354517218
C        0.0818310000    0.0076530000   -0.0000000000
C       -0.2264990000   -0.0211690000   -0.0000000000
C       -0.0881460000   -0.0273220000   -0.0000000000
C       -0.1932130000    0.3126310000   -0.0000000000
C       -0.0129000000    0.0063030000   -0.0000000000
N       -0.3259450000    0.0117100000   -0.0000000000
H        0.1555630000    0.0036020000   -0.0000000000
H        0.1543750000    0.0017070000   -0.0000000000
H        0.1804750000   -0.0045990000   -0.0000000000
H        0.1482650000   -0.0104100000   -0.0000000000
H        0.1617970000    0.0030600000   -0.0000000000
C       -0.1648240000    0.6771870000   -0.0000000000
H        0.1292210000    0.0396480000    0.0000000000
13   
From optimize.out: Frame 6 / 43, Energy=    -286.7513092227
C        0.0889530000    0.0121350000   -0.0000000000
C       -0.2266920000   -0.0235220000   -0.0000000000
C       -0.0917160000   -0.0004560000   -0.0000000000
C       -0.1842530000    0.2545270000   -0.0000000000
C       -0.0134820000    0.0046060000   -0.0000000000
N       -0.3303250000    0.0106340000   -0.0000000000
H        0.1528560000    0.0037790000   -0.0000000000
H        0.1532580000    0.0026420000   -0.0000000000
H        0.1795940000   -0.0059220000   -0.0000000000
H        0.1492830000   -0.0072920000   -0.0000000000
H        0.1598120000    0.0037690000   -0.0000000000
C       -0.1606900000    0.7025850000   -0.0000000000
H        0.1234020000    0.0425150000    0.0000000000
13   
From optimize.out: Frame 7 / 43, Energy=    -286.7654518692
C        0.0939030000    0.0184690000   -0.0000000000
C       -0.2276840000   -0.0278630000   -0.0000000000
C       -0.0972760000    0.0497330000   -0.0000000000
C       -0.1738110000    0.1676760000   -0.0000000000
C       -0.0137200000    0.0035810000   -0.0000000000
N       -0.3345290000    0.0096200000   -0.0000000000
H        0.1508610000    0.0034660000   -0.0000000000
H        0.1515200000    0.0043070000   -0.0000000000
H        0.1773940000   -0.0075750000   -0.0000000000
H        0.1507730000   -0.0029890000   -0.0000000000
H        0.1579890000    0.0046040000   -0.0000000000
C       -0.1528370000    0.7304170000   -0.0000000000
H        0.1174170000    0.0465540000    0.0000000000
13   
From optimize.out: Frame 8 / 43, Energy=    -286.7786724359
C        0.0974250000    0.0246290000   -0.0000000000
C       -0.2291520000   -0.0338280000   -0.0000000000
C       -0.1038700000    0.1089690000   -0.0000000000
C       -0.1642050000    0.0811750000   -0.0000000000
C       -0.0146530000    0.0040000000   -0.0000000000
N       -0.3379710000    0.0098100000   -0.0000000000
H        0.1491130000    0.0030150000   -0.0000000000
H        0.1494370000    0.0063810000   -0.0000000000
H        0.1741900000   -0.0089060000   -0.0000000000
H        0.1519350000    0.0010690000   -0.0000000000
H        0.1563400000    0.0053480000   -0.0000000000
C       -0.1422430000    0.7505960000   -0.0000000000
H        0.1136510000    0.0477430000    0.0000000000
13   
From optimize.out: Frame 9 / 43, Energy=    -286.7908775422
C        0.0999160000    0.0289350000   -0.0000000000
C       -0.2308100000   -0.0401400000   -0.0000000000
C       -0.1099270000    0.1592240000   -0.0000000000
C       -0.1574080000    0.0153760000   -0.0000000000
C       -0.0159980000    0.0059940000   -0.0000000000
N       -0.3406270000    0.0117880000   -0.0000000000
H        0.1476640000    0.0026860000   -0.0000000000
H        0.1472640000    0.0084750000   -0.0000000000
H        0.1708630000   -0.0096300000   -0.0000000000
H        0.1524170000    0.0039860000   -0.0000000000
H        0.1549890000    0.0059150000   -0.0000000000
C       -0.1311870000    0.7632330000   -0.0000000000
H        0.1128450000    0.0441580000    0.0000000000
13   
From optimize.out: Frame 10 / 43, Energy=    -286.8016985184
C        0.1015010000    0.0311900000   -0.0000000000
C       -0.2326280000   -0.0458400000   -0.0000000000
C       -0.1146570000    0.1926390000   -0.0000000000
C       -0.1538530000   -0.0281520000   -0.0000000000
C       -0.0170270000    0.0094800000   -0.0000000000
N       -0.3426100000    0.0152560000   -0.0000000000
H        0.1465630000    0.0025300000   -0.0000000000
H        0.1451710000    0.0104390000   -0.0000000000
H        0.1679610000   -0.0098100000   -0.0000000000
H        0.1524560000    0.0057370000   -0.0000000000
H        0.1539630000    0.0063340000   -0.0000000000
C       -0.1210880000    0.7734400000   -0.0000000000
H        0.1142480000    0.0367580000    0.0000000000
13   
From optimize.out: Frame 11 / 43, Energy=    -286.8109168564
C        0.1022040000    0.0319420000   -0.0000000000
C       -0.2347800000   -0.0506030000   -0.0000000000
C       -0.1177530000    0.2084260000   -0.0000000000
C       -0.1529780000   -0.0549600000   -0.0000000000
C       -0.0175090000    0.0144470000   -0.0000000000
N       -0.3439910000    0.0196900000   -0.0000000000
H        0.1456970000    0.0025000000   -0.0000000000
H        0.1433560000    0.0122670000   -0.0000000000
H        0.1655470000   -0.0095270000   -0.0000000000
H        0.1523030000    0.0066080000   -0.0000000000
H        0.1531870000    0.0066310000   -0.0000000000
C       -0.1121730000    0.7851390000   -0.0000000000
H        0.1168910000    0.0274390000    0.0000000000
13   
From optimize.out: Frame 12 / 43, Energy=    -286.8185238991
C        0.1021140000    0.0318130000   -0.0000000000
C       -0.2374720000   -0.0544360000   -0.0000000000
C       -0.1191000000    0.2078540000   -0.0000000000
C       -0.1540530000   -0.0701570000   -0.0000000000
C       -0.0175600000    0.0209420000   -0.0000000000
N       -0.3449030000    0.0246200000   -0.0000000000
H        0.1449940000    0.0025430000   -0.0000000000
H        0.1419570000    0.0140080000   -0.0000000000
H        0.1634460000   -0.0087990000   -0.0000000000
H        0.1520370000    0.0068600000   -0.0000000000
H        0.1526020000    0.0068080000   -0.0000000000
C       -0.1041380000    0.8002960000   -0.0000000000
H        0.1200750000    0.0176470000    0.0000000000
13   
From optimize.out: Frame 13 / 43, Energy=    -286.8246623401
C        0.1013580000    0.0312960000   -0.0000000000
C       -0.2407880000   -0.0575130000   -0.0000000000
C       -0.1187390000    0.1934530000   -0.0000000000
C       -0.1563220000   -0.0776310000   -0.0000000000
C       -0.0175290000    0.0289640000   -0.0000000000
N       -0.3454240000    0.0297320000   -0.0000000000
H        0.1444120000    0.0026230000   -0.0000000000
H        0.1410420000    0.0157270000   -0.0000000000
H        0.1613950000   -0.0076480000   -0.0000000000
H        0.1516180000    0.0067130000   -0.0000000000
H        0.1521690000    0.0068340000   -0.0000000000
C       -0.0965850000    0.8192840000   -0.0000000000
H        0.1233930000    0.0081650000    0.0000000000
13   
From optimize.out: Frame 14 / 43, Energy=    -286.8295200433
C        0.1000320000    0.0306830000   -0.0000000000
C       -0.2446920000   -0.0600690000   -0.0000000000
C       -0.1168270000    0.1694960000   -0.0000000000
C       -0.1589010000   -0.0806720000   -0.0000000000
C       -0.0178180000    0.0382800000   -0.0000000000
N       -0.3456130000    0.0348820000   -0.0000000000
H        0.1439510000    0.0027150000   -0.0000000000
H        0.1406020000    0.0174500000   -0.0000000000
H        0.1591440000   -0.0061980000   -0.0000000000
H        0.1509790000    0.0063720000   -0.0000000000
H        0.1518560000    0.0066690000   -0.0000000000
C       -0.0893740000    0.8410530000   -0.0000000000
H        0.1266610000   -0.0006610000    0.0000000000
13   
From optimize.out: Frame 15 / 43, Energy=    -286.8332058640
C        0.0981620000    0.0300860000   -0.0000000000
C       -0.2490210000   -0.0623120000   -0.0000000000
C       -0.1136720000    0.1415790000   -0.0000000000
C       -0.1608810000   -0.0821250000   -0.0000000000
C       -0.0187580000    0.0484040000   -0.0000000000
N       -0.3454420000    0.0401090000   -0.0000000000
H        0.1435810000    0.0028000000   -0.0000000000
H        0.1405920000    0.0191260000   -0.0000000000
H        0.1565620000   -0.0046760000   -0.0000000000
H        0.1500840000    0.0060240000   -0.0000000000
H        0.1516120000    0.0062740000   -0.0000000000
C       -0.0826440000    0.8633900000   -0.0000000000
H        0.1298260000   -0.0086790000    0.0000000000
13   
From optimize.out: Frame 16 / 43, Energy=    -286.8356979632
C        0.0956890000    0.0295570000   -0.0000000000
C       -0.2534400000   -0.0643160000   -0.0000000000
C       -0.1098960000    0.1152660000   -0.0000000000
C       -0.1616610000   -0.0839160000   -0.0000000000
C       -0.0203640000    0.0588100000   -0.0000000000
N       -0.3448630000    0.0454700000   -0.0000000000
H        0.1432590000    0.0028600000   -0.0000000000
H        0.1409510000    0.0206240000   -0.0000000000
H        0.1537280000   -0.0033240000   -0.0000000000
H        0.1489760000    0.0057740000   -0.0000000000
H        0.1514050000    0.0056410000   -0.0000000000
C       -0.0766630000    0.8832730000   -0.0000000000
H        0.1328780000   -0.0157200000    0.0000000000
13   
From optimize.out: Frame 25 / 43, Energy=    -286.8363486802
C        0.0888130000    0.0337700000   -0.0000000000
C       -0.2549870000   -0.0648260000   -0.0000000000
C       -0.1101030000    0.0897460000   -0.0000000000
C       -0.1623750000   -0.0926710000   -0.0000000000
C       -0.0152210000    0.0826820000   -0.0000000000
N       -0.3433350000    0.0489740000   -0.0000000000
H        0.1416850000    0.0018880000   -0.0000000000
H        0.1437580000    0.0212400000   -0.0000000000
H        0.1472810000   -0.0012780000   -0.0000000000
H        0.1467280000    0.0055690000   -0.0000000000
H        0.1513520000    0.0029670000   -0.0000000000
C       -0.0703060000    0.8914550000   -0.0000000000
H        0.1367110000   -0.0195150000    0.0000000000
13   
From optimize.out: Frame 26 / 43, Energy=    -286.8375016851
C        0.0904160000    0.0402090000   -0.0000000000
C       -0.2579400000   -0.0655440000   -0.0000000000
C       -0.1088900000    0.0847760000   -0.0000000000
C       -0.1619720000   -0.0943370000   -0.0000000000
C       -0.0185010000    0.0892670000   -0.0000000000
N       -0.3425090000    0.0439340000   -0.0000000000
H        0.1418320000    0.0015380000   -0.0000000000
H        0.1435980000    0.0212780000   -0.0000000000
H        0.1482370000   -0.0005680000   -0.0000000000
H        0.1468620000    0.0050860000   -0.0000000000
H        0.1500710000    0.0027190000   -0.0000000000
C       -0.0684520000    0.8928500000   -0.0000000000
H        0.1372500000   -0.0212090000    0.0000000000
13   
From optimize.out: Frame 27 / 43, Energy=    -286.8377736778
C        0.0900230000    0.0428290000   -0.0000000000
C       -0.2587720000   -0.0658980000   -0.0000000000
C       -0.1079450000    0.0837620000   -0.0000000000
C       -0.1625970000   -0.0952350000   -0.0000000000
C       -0.0188060000    0.0919310000   -0.0000000000
N       -0.3424960000    0.0422690000   -0.0000000000
H        0.1421400000    0.0014300000   -0.0000000000
H        0.1433550000    0.0213680000   -0.0000000000
H        0.1485630000   -0.0004610000   -0.0000000000
H        0.1469790000    0.0049820000   -0.0000000000
H        0.1499550000    0.0026520000   -0.0000000000
C       -0.0678370000    0.8919880000   -0.0000000000
H        0.1374370000   -0.0216180000    0.0000000000
13   
From optimize.out: Frame 28 / 43, Energy=    -286.8380043374
C        0.0885610000    0.0456920000   -0.0000000000
C       -0.2595600000   -0.0664330000   -0.0000000000
C       -0.1066700000    0.0826610000   -0.0000000000
C       -0.1638230000   -0.0963170000   -0.0000000000
C       -0.0183940000    0.0948000000   -0.0000000000
N       -0.3424540000    0.0412560000   -0.0000000000
H        0.1427050000    0.0013840000   -0.0000000000
H        0.1428980000    0.0218430000   -0.0000000000
H        0.1487240000   -0.0005120000   -0.0000000000
H        0.1470150000    0.0049500000   -0.0000000000
H        0.1502800000    0.0026150000   -0.0000000000
C       -0.0668890000    0.8900510000   -0.0000000000
H        0.1376050000   -0.0219910000    0.0000000000
13   
From optimize.out: Frame 29 / 43, Energy=    -286.8380955592
C        0.0877280000    0.0465280000   -0.0000000000
C       -0.2594740000   -0.0665220000   -0.0000000000
C       -0.1064210000    0.0829980000   -0.0000000000
C       -0.1645370000   -0.0965970000   -0.0000000000
C       -0.0178210000    0.0955120000   -0.0000000000
N       -0.3424540000    0.0410470000   -0.0000000000
H        0.1430100000    0.0014170000   -0.0000000000
H        0.1426840000    0.0221300000   -0.0000000000
H        0.1487460000   -0.0006560000   -0.0000000000
H        0.1471250000    0.0049970000   -0.0000000000
H        0.1507040000    0.0027170000   -0.0000000000
C       -0.0666790000    0.8881110000   -0.0000000000
H        0.1373890000   -0.0216820000    0.0000000000
13   
From optimize.out: Frame 30 / 43, Energy=    -286.8381660268
C        0.0869770000    0.0467160000   -0.0000000000
C       -0.2592860000   -0.0665440000   -0.0000000000
C       -0.1065790000    0.0827460000   -0.0000000000
C       -0.1648770000   -0.0966480000   -0.0000000000
C       -0.0174440000    0.0956720000   -0.0000000000
N       -0.3423620000    0.0414620000   -0.0000000000
H        0.1432860000    0.0014880000   -0.0000000000
H        0.1425890000    0.0225200000   -0.0000000000
H        0.1486120000   -0.0008230000   -0.0000000000
H        0.1471570000    0.0050660000   -0.0000000000
H        0.1511610000    0.0028550000   -0.0000000000
C       -0.0663390000    0.8868450000   -0.0000000000
H        0.1371050000   -0.0213560000    0.0000000000
13   
From optimize.out: Frame 31 / 43, Energy=    -286.8382069164
C        0.0869780000    0.0464760000   -0.0000000000
C       -0.2589290000   -0.0663420000   -0.0000000000
C       -0.1070540000    0.0827360000   -0.0000000000
C       -0.1648270000   -0.0964210000   -0.0000000000
C       -0.0174550000    0.0954440000   -0.0000000000
N       -0.3422850000    0.0414920000   -0.0000000000
H        0.1433370000    0.0015320000   -0.0000000000
H        0.1426750000    0.0226220000   -0.0000000000
H        0.1485450000   -0.0009170000   -0.0000000000
H        0.1472540000    0.0051210000   -0.0000000000
H        0.1513890000    0.0030030000   -0.0000000000
C       -0.0663520000    0.8860550000   -0.0000000000
H        0.1367240000   -0.0208020000    0.0000000000
13   
From optimize.out: Frame 32 / 43, Energy=    -286.8382351412
C        0.0872100000    0.0462760000   -0.0000000000
C       -0.2587910000   -0.0661830000   -0.0000000000
C       -0.1074720000    0.0818720000   -0.0000000000
C       -0.1645490000   -0.0962100000   -0.0000000000
C       -0.0178320000    0.0953750000   -0.0000000000
N       -0.3421590000    0.0415300000   -0.0000000000
H        0.1433000000    0.0015450000   -0.0000000000
H        0.1428180000    0.0226900000   -0.0000000000
H        0.1484350000   -0.0009340000   -0.0000000000
H        0.1472500000    0.0051490000   -0.0000000000
H        0.1514450000    0.0030650000   -0.0000000000
C       -0.0661830000    0.8863120000   -0.0000000000
H        0.1365280000   -0.0204870000    0.0000000000
13   
From optimize.out: Frame 33 / 43, Energy=    -286.8382555909
C        0.0876850000    0.0462870000   -0.0000000000
C       -0.2586650000   -0.0659860000   -0.0000000000
C       -0.1077910000    0.0812070000   -0.0000000000
C       -0.1643400000   -0.0960210000   -0.0000000000
C       -0.0182770000    0.0954960000   -0.0000000000
N       -0.3420510000    0.0411200000   -0.0000000000
H        0.1431590000    0.0015200000   -0.0000000000
H        0.1429620000    0.0226150000   -0.0000000000
H        0.1484070000   -0.0009040000   -0.0000000000
H        0.1472700000    0.0051670000   -0.0000000000
H        0.1514070000    0.0030780000   -0.0000000000
C       -0.0661530000    0.8865190000   -0.0000000000
H        0.1363870000   -0.0200980000    0.0000000000
13   
From optimize.out: Frame 34 / 43, Energy=    -286.8382716717
C        0.0880350000    0.0465180000   -0.0000000000
C       -0.2586730000   -0.0658860000   -0.0000000000
C       -0.1078900000    0.0802530000   -0.0000000000
C       -0.1642220000   -0.0959470000   -0.0000000000
C       -0.0187310000    0.0958490000   -0.0000000000
N       -0.3419230000    0.0407580000   -0.0000000000
H        0.1430090000    0.0014820000   -0.0000000000
H        0.1430430000    0.0225880000   -0.0000000000
H        0.1483640000   -0.0008530000   -0.0000000000
H        0.1472300000    0.0051830000   -0.0000000000
H        0.1513500000    0.0030190000   -0.0000000000
C       -0.0659920000    0.8869120000   -0.0000000000
H        0.1364010000   -0.0198760000    0.0000000000
13   
From optimize.out: Frame 35 / 43, Energy=    -286.8382818476
C        0.0882050000    0.0467850000   -0.0000000000
C       -0.2586540000   -0.0658270000   -0.0000000000
C       -0.1078430000    0.0797770000   -0.0000000000
C       -0.1642410000   -0.0959290000   -0.0000000000
C       -0.0189690000    0.0961800000   -0.0000000000
N       -0.3418430000    0.0404560000   -0.0000000000
H        0.1428890000    0.0014500000   -0.0000000000
H        0.1430490000    0.0225680000   -0.0000000000
H        0.1483530000   -0.0008200000   -0.0000000000
H        0.1472150000    0.0052050000   -0.0000000000
H        0.1513260000    0.0029520000   -0.0000000000
C       -0.0659220000    0.8868870000   -0.0000000000
H        0.1364340000   -0.0196840000    0.0000000000
13   
From optimize.out: Frame 36 / 43, Energy=    -286.8382878253
C        0.0881530000    0.0469260000   -0.0000000000
C       -0.2586540000   -0.0658300000   -0.0000000000
C       -0.1077260000    0.0794890000   -0.0000000000
C       -0.1642650000   -0.0959440000   -0.0000000000
C       -0.0190470000    0.0963620000   -0.0000000000
N       -0.3418000000    0.0404590000   -0.0000000000
H        0.1428430000    0.0014400000   -0.0000000000
H        0.1430120000    0.0226060000   -0.0000000000
H        0.1483210000   -0.0008120000   -0.0000000000
H        0.1472000000    0.0052270000   -0.0000000000
H        0.1513320000    0.0028970000   -0.0000000000
C       -0.0658540000    0.8868130000   -0.0000000000
H        0.1364840000   -0.0196310000    0.0000000000
13   
From optimize.out: Frame 37 / 43, Energy=    -286.8382922376
C        0.0880660000    0.0469060000   -0.0000000000
C       -0.2586200000   -0.0658220000   -0.0000000000
C       -0.1076590000    0.0794230000   -0.0000000000
C       -0.1642420000   -0.0959330000   -0.0000000000
C       -0.0190360000    0.0963700000   -0.0000000000
N       -0.3417940000    0.0405780000   -0.0000000000
H        0.1428330000    0.0014420000   -0.0000000000
H        0.1429730000    0.0226400000   -0.0000000000
H        0.1482920000   -0.0008230000   -0.0000000000
H        0.1472120000    0.0052500000   -0.0000000000
H        0.1513480000    0.0028680000   -0.0000000000
C       -0.0658550000    0.8866790000   -0.0000000000
H        0.1364820000   -0.0195790000    0.0000000000
13   
From optimize.out: Frame 38 / 43, Energy=    -286.8382963117
C        0.0880020000    0.0467350000   -0.0000000000
C       -0.2585890000   -0.0657980000   -0.0000000000
C       -0.1076560000    0.0793270000   -0.0000000000
C       -0.1641350000   -0.0958850000   -0.0000000000
C       -0.0190060000    0.0962430000   -0.0000000000
N       -0.3418140000    0.0407860000   -0.0000000000
H        0.1428520000    0.0014500000   -0.0000000000
H        0.1429430000    0.0226720000   -0.0000000000
H        0.1482470000   -0.0008420000   -0.0000000000
H        0.1472310000    0.0052680000   -0.0000000000
H        0.1513570000    0.0028570000   -0.0000000000
C       -0.0658820000    0.8867250000   -0.0000000000
H        0.1364480000   -0.0195390000    0.0000000000
13   
From optimize.out: Frame 39 / 43, Energy=    -286.8382999756
C        0.0880430000    0.0464780000   -0.0000000000
C       -0.2585630000   -0.0657450000   -0.0000000000
C       -0.1077400000    0.0792030000   -0.0000000000
C       -0.1639720000   -0.0957980000   -0.0000000000
C       -0.0189650000    0.0960240000   -0.0000000000
N       -0.3418640000    0.0409220000   -0.0000000000
H        0.1428880000    0.0014570000   -0.0000000000
H        0.1429280000    0.0226780000   -0.0000000000
H        0.1482070000   -0.0008600000   -0.0000000000
H        0.1472590000    0.0052780000   -0.0000000000
H        0.1513550000    0.0028630000   -0.0000000000
C       -0.0659550000    0.8869730000   -0.0000000000
H        0.1363790000   -0.0194730000    0.0000000000
13   
From optimize.out: Frame 40 / 43, Energy=    -286.8383031937
C        0.0881800000    0.0462330000   -0.0000000000
C       -0.2585650000   -0.0656830000   -0.0000000000
C       -0.1078750000    0.0789800000   -0.0000000000
C       -0.1638010000   -0.0956980000   -0.0000000000
C       -0.0189240000    0.0958100000   -0.0000000000
N       -0.3419330000    0.0409140000   -0.0000000000
H        0.1429350000    0.0014580000   -0.0000000000
H        0.1429200000    0.0226630000   -0.0000000000
H        0.1481730000   -0.0008690000   -0.0000000000
H        0.1472780000    0.0052770000   -0.0000000000
H        0.1513450000    0.0028740000   -0.0000000000
C       -0.0660400000    0.8874410000   -0.0000000000
H        0.1363070000   -0.0193990000    0.0000000000
13   
From optimize.out: Frame 41 / 43, Energy=    -286.8383059823
C        0.0883690000    0.0460940000   -0.0000000000
C       -0.2585850000   -0.0656290000   -0.0000000000
C       -0.1080140000    0.0787040000   -0.0000000000
C       -0.1636720000   -0.0956150000   -0.0000000000
C       -0.0188860000    0.0956920000   -0.0000000000
N       -0.3420090000    0.0407240000   -0.0000000000
H        0.1429830000    0.0014500000   -0.0000000000
H        0.1429100000    0.0226370000   -0.0000000000
H        0.1481520000   -0.0008670000   -0.0000000000
H        0.1472850000    0.0052710000   -0.0000000000
H        0.1513410000    0.0028820000   -0.0000000000
C       -0.0661220000    0.8879770000   -0.0000000000
H        0.1362480000   -0.0193210000    0.0000000000
13   
From optimize.out: Frame 42 / 43, Energy=    -286.8383083154
C        0.0885310000    0.0461190000   -0.0000000000
C       -0.2586130000   -0.0656010000   -0.0000000000
C       -0.1081000000    0.0784030000   -0.0000000000
C       -0.1636020000   -0.0955810000   -0.0000000000
C       -0.0188720000    0.0957440000   -0.0000000000
N       -0.3420670000    0.0404070000   -0.0000000000
H        0.1430200000    0.0014360000   -0.0000000000
H        0.1428940000    0.0226200000   -0.0000000000
H        0.1481380000   -0.0008550000   -0.0000000000
H        0.1472760000    0.0052650000   -0.0000000000
H        0.1513490000    0.0028780000   -0.0000000000
C       -0.0661760000    0.8884250000   -0.0000000000
H        0.1362220000   -0.0192600000    0.0000000000
