13   
From optimize.out: Frame 1 / 3, Energy=    -286.8468582439
C       -0.0814230000    0.0049410000    0.0000000000
C       -0.1079270000   -0.0607460000    0.0000000000
C       -0.1432370000    0.0953050000    0.0000000000
C       -0.1266610000   -0.0355400000    0.0000000000
C        0.0088880000    0.0742970000    0.0000000000
N       -0.3786340000    0.1315430000   -0.0000000000
H        0.1622270000    0.0013700000    0.0000000000
H        0.1408020000    0.0016740000    0.0000000000
H        0.1355400000   -0.0042200000    0.0000000000
H        0.1352610000    0.0070260000    0.0000000000
H        0.1545200000   -0.0033810000    0.0000000000
C       -0.0497970000    0.7813510000   -0.0000000000
H        0.1504410000    0.0063800000   -0.0000000000
13   
From optimize.out: Frame 2 / 3, Energy=    -286.8468603422
C       -0.0814190000    0.0047620000    0.0000000000
C       -0.1076990000   -0.0606820000    0.0000000000
C       -0.1434390000    0.0952990000    0.0000000000
C       -0.1267140000   -0.0354680000    0.0000000000
C        0.0089550000    0.0742700000    0.0000000000
N       -0.3785710000    0.1315430000   -0.0000000000
H        0.1621010000    0.0013700000    0.0000000000
H        0.1408410000    0.0016680000    0.0000000000
H        0.1354720000   -0.0042260000    0.0000000000
H        0.1352560000    0.0070460000    0.0000000000
H        0.1544830000   -0.0033770000    0.0000000000
C       -0.0497370000    0.7814150000   -0.0000000000
H        0.1504700000    0.0063790000   -0.0000000000
