13   
From optimize.out: Frame 1 / 1, Energy=    -286.8549868008
C        1.6972674499    0.2878043459   -0.2177946769
C        1.0901877441   -0.9150443011   -0.1130997488
C       -0.3619637773   -1.0474732349    0.0889831806
C       -1.1404209314    0.3810042155   -0.0222865165
C       -0.2577572752    1.5000476524   -0.4006826261
N        1.0305620919    1.4987760097   -0.4081843795
H        2.7791612696    0.3569904953   -0.2962301170
H        1.6743188469   -1.8289541903   -0.1884936329
H       -0.8372409141   -1.9446421130   -0.3118803428
H       -2.1404458750    0.4184069429   -0.4587273145
H       -0.7545360329    2.4046352209   -0.7599226703
C       -0.9922145815   -0.3754667208    1.2230969943
H       -1.7869180147   -0.7360843224    1.8652218504
13   
From optimize.out: Frame 37 / 38, Energy=    -286.8549868008
C        1.6998349655    0.2799796078   -0.2352070287
C        1.0975152522   -0.9171304162   -0.1106959308
C       -0.3607861493   -1.0377459213    0.1000427820
C       -1.1458867965    0.3664779538   -0.0426629875
C       -0.2593624847    1.4994783522   -0.3870510177
N        1.0265719817    1.5029263385   -0.3825050223
H        2.7774718645    0.3560225060   -0.3510235638
H        1.6725870929   -1.8362622290   -0.1881563668
H       -0.8324611184   -1.9485303716   -0.2752076770
H       -2.1115155995    0.3699511056   -0.5512030878
H       -0.7526405508    2.4289346716   -0.6795114920
C       -1.0175512835   -0.3553508292    1.2210970908
H       -1.7937771742   -0.7087507682    1.8820843016
13   
From optimize.out: Frame 36 / 38, Energy=    -286.8549864661
C        1.7025476489    0.2770977490   -0.2813724021
C        1.1025877263   -0.9141835661   -0.0964118617
C       -0.3584181202   -1.0244487115    0.1117846081
C       -1.1415395494    0.3420142236   -0.0718408808
C       -0.2545995832    1.5025791162   -0.3568202288
N        1.0305237068    1.5051473860   -0.3845225783
H        2.7773438260    0.3440370124   -0.4259789402
H        1.6823784023   -1.8329650268   -0.1404539818
H       -0.8222090417   -1.9432631148   -0.2569348642
H       -2.0885416559    0.3292334230   -0.6136071523
H       -0.7541381840    2.4486929928   -0.5807129565
C       -1.0458855231   -0.3493212350    1.2157883337
H       -1.8300496527   -0.6846202486    1.8810829050
13   
From optimize.out: Frame 35 / 38, Energy=    -286.8549853474
C        1.7059040157    0.2715141378   -0.3230862898
C        1.1123278659   -0.9075384366   -0.0754786282
C       -0.3547806207   -1.0201713831    0.1181293198
C       -1.1446698568    0.3155341898   -0.1172735196
C       -0.2528989065    1.4937494347   -0.3349206207
N        1.0284117485    1.4968661577   -0.3920344210
H        2.7779965396    0.3365802393   -0.4868248411
H        1.6917802193   -1.8262859688   -0.0995745962
H       -0.8001744041   -1.9567678016   -0.2255389816
H       -2.0834366809    0.3458736455   -0.6697462052
H       -0.7579717331    2.4532978523   -0.4751458490
C       -1.0744285047   -0.3284403120    1.2066990878
H       -1.8480596821   -0.6742117549    1.8747955447
13   
From optimize.out: Frame 34 / 38, Energy=    -286.8549818804
C        1.7081275370    0.2713584797   -0.3155004564
C        1.1008947309   -0.9076011430   -0.0716419640
C       -0.3660305044   -1.0035464347    0.1256470257
C       -1.1412932965    0.2870121076   -0.1572517558
C       -0.2503247526    1.4869148040   -0.3340573772
N        1.0275970172    1.4941707527   -0.4246426895
H        2.7817564951    0.3412004731   -0.4652547202
H        1.6711503802   -1.8324954654   -0.1086814719
H       -0.8081817162   -1.9498866925   -0.1839834538
H       -2.0824310438    0.3508706431   -0.7104897014
H       -0.7600566660    2.4503410897   -0.4212732730
C       -1.0942018704   -0.2635777164    1.1901955331
H       -1.7870063106   -0.7247608978    1.8769343043
13   
From optimize.out: Frame 32 / 38, Energy=    -286.8549273700
C        1.7146860272    0.2677775701   -0.3395653875
C        1.1083516226   -0.9048802499   -0.0776607440
C       -0.3540083810   -1.0011112650    0.1466422051
C       -1.1563275019    0.2992764357   -0.1652941481
C       -0.2429664248    1.4938958083   -0.3225470223
N        1.0321916633    1.4937318917   -0.4349093874
H        2.7863929719    0.3381984598   -0.5013328542
H        1.6813443411   -1.8289969382   -0.1035233609
H       -0.7953065263   -1.9666650202   -0.0868110849
H       -2.0836933118    0.3907461247   -0.7385556212
H       -0.7468527272    2.4610306778   -0.3908090747
C       -1.1439024700   -0.2429082048    1.1822502851
H       -1.7999092830   -0.8000952900    1.8321161949
13   
From optimize.out: Frame 31 / 38, Energy=    -286.8548103960
C        1.7211110833    0.2618789273   -0.3420055451
C        1.1141457737   -0.8914076560   -0.0726399052
C       -0.3538951960   -0.9822206881    0.1378237874
C       -1.1561702033    0.3011209142   -0.1705232784
C       -0.2420101089    1.4901600571   -0.3379379934
N        1.0314464959    1.4846521651   -0.4739791233
H        2.7947544126    0.3275582961   -0.4917369677
H        1.6918615284   -1.8136078902   -0.0916020051
H       -0.8202641270   -1.9476519563   -0.0196336951
H       -2.0956864314    0.4159715593   -0.7244220942
H       -0.7409628242    2.4602186912   -0.3691697715
C       -1.1661971041   -0.2396758750    1.1734036146
H       -1.7781332989   -0.8669965449    1.7824229769
13   
From optimize.out: Frame 30 / 38, Energy=    -286.8545123250
C        1.7191393248    0.2628908520   -0.3246895688
C        1.0992619937   -0.8882551942   -0.0730337740
C       -0.3666674747   -0.9581978540    0.0897230459
C       -1.1491370995    0.3067224031   -0.1505323532
C       -0.2429145454    1.4928388900   -0.3637957301
N        1.0317558505    1.4802880373   -0.4991265055
H        2.7965384659    0.3232933150   -0.4463610064
H        1.6733447961   -1.8130177854   -0.0699895668
H       -0.8563055099   -1.9173553318   -0.0184790779
H       -2.0965154836    0.4044057196   -0.6968172118
H       -0.7376475046    2.4638977407   -0.4098417370
C       -1.1682499509   -0.2093114019    1.2073232234
H       -1.7026028625   -0.9481993903    1.7556202622
13   
From optimize.out: Frame 29 / 38, Energy=    -286.8541598187
C        1.7137079908    0.2646870594   -0.3119946184
C        1.0868904276   -0.8927707208   -0.0878191115
C       -0.3686935565   -0.9433199525    0.0184940777
C       -1.1242293270    0.3111617802   -0.1123507793
C       -0.2428669746    1.4999980359   -0.3833307420
N        1.0329716262    1.4781871858   -0.5177483110
H        2.7942083763    0.3243441987   -0.4001651952
H        1.6613782831   -1.8167709714   -0.0581586447
H       -0.8902394048   -1.8903049346   -0.0213093778
H       -2.0797287238    0.3758481145   -0.6519334726
H       -0.7393358525    2.4671119506   -0.4656704305
C       -1.1852625078   -0.1663526991    1.2716302854
H       -1.6588003570   -1.0118190467    1.7203563199
13   
From optimize.out: Frame 28 / 38, Energy=    -286.8536784279
C        1.7041766891    0.2665406587   -0.3002628271
C        1.0673663128   -0.8937763746   -0.0949713009
C       -0.3787352761   -0.9218450275   -0.0083178494
C       -1.1047956373    0.3167538319   -0.0962874673
C       -0.2420801403    1.5129260475   -0.3996828822
N        1.0348766733    1.4821550605   -0.5251161032
H        2.7863859096    0.3210702819   -0.3658824776
H        1.6368241551   -1.8196674133   -0.0431005741
H       -0.9291148008   -1.8520834997    0.0139783162
H       -2.0642859005    0.3579223990   -0.6317821410
H       -0.7431636343    2.4750041927   -0.5095272355
C       -1.1798304481   -0.1624739402    1.2963961085
H       -1.5876239025   -1.0825262167    1.6645564335
13   
From optimize.out: Frame 27 / 38, Energy=    -286.8532551546
C        1.6963552251    0.2690763620   -0.2883833504
C        1.0499241645   -0.8972238413   -0.1078724366
C       -0.3837799101   -0.9054474076   -0.0329151518
C       -1.0908254450    0.3207803409   -0.0825259861
C       -0.2415520193    1.5239030024   -0.4116977865
N        1.0370526113    1.4865065020   -0.5244900414
H        2.7794851608    0.3195595922   -0.3313007715
H        1.6143073626   -1.8249995176   -0.0381423375
H       -0.9606710581   -1.8184006002    0.0464693828
H       -2.0493833289    0.3399092370   -0.6208716157
H       -0.7478157296    2.4792526608   -0.5495254888
C       -1.1831331785   -0.1579188311    1.3146755772
H       -1.5199638547   -1.1349974996    1.6265800064
13   
From optimize.out: Frame 26 / 38, Energy=    -286.8527398702
C        1.7043902654    0.2734423206   -0.2824222118
C        1.0597111607   -0.9100403186   -0.1367471282
C       -0.3625470934   -0.9247974274   -0.0840145399
C       -1.0909480641    0.3107922515   -0.0577730613
C       -0.2427903535    1.5112206291   -0.4059821971
N        1.0383292028    1.4822457268   -0.5106988582
H        2.7874640165    0.3325465596   -0.3081150351
H        1.6284606824   -1.8355085037   -0.0773855998
H       -0.9355213090   -1.8420607446   -0.0195964429
H       -2.0425925191    0.3181607576   -0.6093565659
H       -0.7512614789    2.4612359667   -0.5679742905
C       -1.2270937923   -0.1058482428    1.3575710795
H       -1.5656007175   -1.0713889748    1.7024948511
13   
From optimize.out: Frame 26 / 38, Energy=    -286.8527398702
C        1.7124252558    0.2778082522   -0.2764611102
C        1.0694980963   -0.9228567164   -0.1656216407
C       -0.3413144085   -0.9441473271   -0.1351136109
C       -1.0910706825    0.3008042241   -0.0330202900
C       -0.2440286800    1.4985383345   -0.4002666432
N        1.0396057863    1.4779849779   -0.4969077604
H        2.7954428228    0.3455334465   -0.2849294424
H        1.6426139143   -1.8460174248   -0.1166286188
H       -0.9103717158   -1.8657207424   -0.0856618589
H       -2.0358017513    0.2964124131   -0.5978415875
H       -0.7547072068    2.4432193844   -0.5864229778
C       -1.2710541333   -0.0537779776    1.4004663158
H       -1.6112372973   -1.0077808445    1.7784092250
13   
From optimize.out: Frame 25 / 38, Energy=    -286.8519680798
C        1.7208119049    0.2823372012   -0.2715924276
C        1.0799223804   -0.9351159515   -0.1945951597
C       -0.3198071438   -0.9637711892   -0.1796000368
C       -1.0889605115    0.2893190803   -0.0091628813
C       -0.2446368487    1.4862535820   -0.3934261529
N        1.0414248309    1.4741940456   -0.4829420706
H        2.8037514063    0.3579912581   -0.2661226347
H        1.6583569458   -1.8553024348   -0.1587526410
H       -0.8844330448   -1.8897122926   -0.1464094235
H       -2.0275232411    0.2743469438   -0.5860718938
H       -0.7588621617    2.4251805541   -0.6011369690
C       -1.3144092196   -0.0038281865    1.4397732382
H       -1.6656352970   -0.9418926105    1.8500390527
13   
From optimize.out: Frame 23 / 38, Energy=    -286.8477215543
C        1.7309631003    0.2876835236   -0.2722347922
C        1.0935493003   -0.9445550717   -0.2240400597
C       -0.2969363824   -0.9847572353   -0.1907125822
C       -1.0755978585    0.2702986067    0.0101586223
C       -0.2420680915    1.4759843931   -0.3809218914
N        1.0459764431    1.4727748693   -0.4681096753
H        2.8137143164    0.3677703404   -0.2694052914
H        1.6820984163   -1.8584093883   -0.2153582948
H       -0.8545417519   -1.9153521424   -0.1802940602
H       -2.0117535881    0.2507040600   -0.5730295325
H       -0.7665880465    2.4070468066   -0.5970119699
C       -1.3546720865    0.0353855420    1.4609555349
H       -1.7641437708   -0.8645743039    1.9000039924
13   
From optimize.out: Frame 22 / 38, Energy=    -286.8450721206
C        1.7410743099    0.2928853030   -0.2737449662
C        1.1074356656   -0.9535542948   -0.2527614959
C       -0.2741122327   -1.0057633797   -0.1995603788
C       -1.0617594769    0.2509442598    0.0292523958
C       -0.2394728514    1.4656847308   -0.3680293690
N        1.0504147190    1.4713985764   -0.4537787571
H        2.8236044918    0.3774352438   -0.2742851893
H        1.7060921539   -1.8608212917   -0.2718074253
H       -0.8244968707   -1.9409332446   -0.2115441392
H       -1.9963442328    0.2277718670   -0.5587389764
H       -0.7745199634    2.3889524004   -0.5912074668
C       -1.3915180827    0.0715434420    1.4809795949
H       -1.8663976297   -0.7855436124    1.9452261733
13   
From optimize.out: Frame 21 / 38, Energy=    -286.8396047926
C        1.7507353728    0.2972958958   -0.2783053121
C        1.1221669118   -0.9610949874   -0.2783587530
C       -0.2514432579   -1.0270800432   -0.2040305775
C       -1.0474687084    0.2308399185    0.0483996282
C       -0.2374117759    1.4545163659   -0.3541327429
N        1.0537574912    1.4697140358   -0.4416762251
H        2.8328976525    0.3872561303   -0.2823422521
H        1.7301667334   -1.8609770475   -0.3258676996
H       -0.7939311356   -1.9664501044   -0.2361078044
H       -1.9841037103    0.2083320241   -0.5378826921
H       -0.7830420023    2.3705278460   -0.5809052513
C       -1.4121631076    0.0950383124    1.4991987116
H       -1.9801604636   -0.6979183465    1.9720109704
13   
From optimize.out: Frame 20 / 38, Energy=    -286.8346790211
C        1.7590374791    0.3011200336   -0.2821476434
C        1.1361253487   -0.9678532060   -0.3020323225
C       -0.2302653730   -1.0486679948   -0.2083672819
C       -1.0332207294    0.2092229271    0.0665305354
C       -0.2365199332    1.4420822751   -0.3407650612
N        1.0557529866    1.4676296816   -0.4294534470
H        2.8407630368    0.3970589265   -0.2866105746
H        1.7529920052   -1.8596648717   -0.3786386523
H       -0.7643299979   -1.9918315801   -0.2623022533
H       -1.9755382002    0.1917799374   -0.5115614546
H       -0.7925990036    2.3506323203   -0.5714967537
C       -1.4202629639    0.1099390378    1.5165325599
H       -2.0919346552   -0.6014474867    1.9903123493
13   
From optimize.out: Frame 19 / 38, Energy=    -286.8254385880
C        1.7635928603    0.3040914020   -0.2808404593
C        1.1467114297   -0.9743231957   -0.3232918733
C       -0.2133869979   -1.0712567727   -0.2187938431
C       -1.0207233355    0.1857280588    0.0807610815
C       -0.2383482142    1.4281922108   -0.3300353193
N        1.0550716702    1.4650061946   -0.4147599786
H        2.8447830224    0.4064455404   -0.2756776226
H        1.7722391007   -1.8569007230   -0.4292148507
H       -0.7378307336   -2.0177000245   -0.3007011471
H       -1.9749861221    0.1795986638   -0.4777786993
H       -0.8041957124    2.3281564562   -0.5697503297
C       -1.4084851933    0.1111567772    1.5336265211
H       -2.1844417743   -0.4881945879    2.0064565204
13   
From optimize.out: Frame 18 / 38, Energy=    -286.8115270321
C        1.7617026933    0.3054645307   -0.2714205439
C        1.1508861065   -0.9807298643   -0.3387137466
C       -0.2050222387   -1.0937085712   -0.2423871786
C       -1.0151238709    0.1670934345    0.0835363243
C       -0.2436992581    1.4172012367   -0.3269480586
N        1.0509077050    1.4626454674   -0.3991501439
H        2.8416610948    0.4134230587   -0.2388450576
H        1.7845557703   -1.8537508715   -0.4699014987
H       -0.7192568223   -2.0430082084   -0.3488522548
H       -1.9880061808    0.1795287536   -0.4404608585
H       -0.8171588155    2.3077031138   -0.5820888451
C       -1.3681486619    0.0893710719    1.5464912649
H       -2.2332975217   -0.3712331521    2.0287405970
13   
From optimize.out: Frame 17 / 38, Energy=    -286.7934016227
C        1.7564848707    0.3044833654   -0.2487369247
C        1.1501178928   -0.9839260404   -0.3555642391
C       -0.2043615575   -1.1052599050   -0.2718683834
C       -1.0157414223    0.1517485637    0.0779002432
C       -0.2526851099    1.4043662137   -0.3366252148
N        1.0443786424    1.4591001909   -0.3771732391
H        2.8334851396    0.4154854280   -0.1689711116
H        1.7844832642   -1.8497641373   -0.5203774464
H       -0.7151780014   -2.0555974796   -0.3826231849
H       -2.0050793741    0.1878867022   -0.4102645652
H       -0.8296021649    2.2852699003   -0.6151258329
C       -1.3247994780    0.0714175551    1.5484089746
H       -2.2215027017   -0.2852103570    2.0610209243
13   
From optimize.out: Frame 16 / 38, Energy=    -286.7926216580
C        1.7602693549    0.3024904394   -0.2329026156
C        1.1574972233   -0.9812033519   -0.3961425021
C       -0.1927989868   -1.0994498915   -0.2837984339
C       -1.0195007466    0.1417933662    0.0958715818
C       -0.2579572559    1.3869493020   -0.3366692124
N        1.0421049179    1.4549914505   -0.3389866284
H        2.8324379831    0.4114810106   -0.1084802562
H        1.7785033268   -1.8422178849   -0.6258733510
H       -0.7045158041   -2.0527251111   -0.3628996726
H       -1.9963821108    0.1375440437   -0.4152502699
H       -0.8289820430    2.2630917575   -0.6399943286
C       -1.3321498795    0.0836727018    1.5596842156
H       -2.2385259792   -0.2064178323    2.0854414733
13   
From optimize.out: Frame 15 / 38, Energy=    -286.7892457551
C        1.7491657682    0.3006993072   -0.2023259949
C        1.1460658798   -0.9746446475   -0.4196483422
C       -0.2045629109   -1.0924295150   -0.3179887655
C       -1.0249196192    0.1394557021    0.0892742505
C       -0.2645202427    1.3775963019   -0.3589863126
N        1.0355909467    1.4563095991   -0.3049772162
H        2.8137111667    0.3999064235   -0.0202738229
H        1.7589923139   -1.8333802175   -0.6820329373
H       -0.7072253097   -2.0529954145   -0.3681141066
H       -2.0102471293    0.1261223772   -0.4051652148
H       -0.8287389138    2.2482052485   -0.6897791364
C       -1.2844573799    0.0691407471    1.5570107048
H       -2.1788545698   -0.1639859122    2.1230068939
13   
From optimize.out: Frame 14 / 38, Energy=    -286.7875546129
C        1.7442612984    0.2980833389   -0.1689817670
C        1.1343321152   -0.9608516705   -0.4460892473
C       -0.2176032634   -1.0803127704   -0.3336913249
C       -1.0324576292    0.1351551414    0.0725109943
C       -0.2660048466    1.3647104540   -0.3860579559
N        1.0311070744    1.4556183578   -0.2592541512
H        2.8030390822    0.3848854430    0.0541755369
H        1.7353114889   -1.8132824183   -0.7557387255
H       -0.7135333722   -2.0465596142   -0.3220265633
H       -2.0239756253    0.1186072915   -0.4118441820
H       -0.8276524406    2.2334069600   -0.7274602807
C       -1.2425605143    0.0515459509    1.5388732611
H       -2.1242633676   -0.1410064642    2.1455844056
13   
From optimize.out: Frame 12 / 38, Energy=    -286.7848872124
C        1.7418917189    0.2912135682   -0.1675700941
C        1.1371901539   -0.9609488359   -0.4766200984
C       -0.2178474642   -1.0981889219   -0.3547953993
C       -1.0597929088    0.1484360604    0.0488137164
C       -0.2727642803    1.3640690357   -0.4042039852
N        1.0234131297    1.4454183855   -0.2416913168
H        2.7916139959    0.3754923736    0.1012785903
H        1.7453941704   -1.8095117668   -0.7867378138
H       -0.6926352354   -2.0663993910   -0.2210258125
H       -2.0575639924    0.1543291622   -0.4256353556
H       -0.8202427647    2.2546322967   -0.7102068938
C       -1.2280361438    0.0332711924    1.5037430208
H       -2.0906203792   -0.1318131589    2.1346514419
13   
From optimize.out: Frame 11 / 38, Energy=    -286.7832659628
C        1.7352226618    0.2860226818   -0.1552000310
C        1.1270198774   -0.9475965927   -0.5198831393
C       -0.2297775019   -1.1100201532   -0.3712726714
C       -1.0738581377    0.1511883935    0.0322061830
C       -0.2728895906    1.3516034781   -0.4251617200
N        1.0170173167    1.4363806316   -0.2122898029
H        2.7759265378    0.3603562910    0.1579729118
H        1.7421810758   -1.7890884973   -0.8372060884
H       -0.6746853266   -2.0719586310   -0.1133366667
H       -2.0773148648    0.1685667172   -0.4336340605
H       -0.8105788820    2.2583573188   -0.7025638694
C       -1.2093807349    0.0226169706    1.4712484887
H       -2.0488824310   -0.1164286084    2.1091204661
13   
From optimize.out: Frame 10 / 38, Energy=    -286.7825549808
C        1.7028911535    0.2760284042   -0.1369474455
C        1.1096295996   -0.9411628634   -0.5600931054
C       -0.2546676669   -1.1444302660   -0.4215750580
C       -1.0571351372    0.1669144737    0.0423027067
C       -0.2728402505    1.3654761430   -0.4487616687
N        1.0025646100    1.4358087914   -0.1854528719
H        2.7288347223    0.3345387271    0.2219805974
H        1.7502055323   -1.7652985277   -0.8655470828
H       -0.6537205411   -2.1085289203   -0.1044293431
H       -2.0562792824    0.1549743939   -0.4301493674
H       -0.8033822058    2.2753069174   -0.7311622220
C       -1.1834005025    0.0458575109    1.4815583796
H       -2.0127000313   -0.0954847843    2.1382764811
13   
From optimize.out: Frame 9 / 38, Energy=    -286.7806565999
C        1.6639123448    0.2645033427   -0.1236571126
C        1.0951898001   -0.9432219216   -0.5904350738
C       -0.2787012001   -1.1886745980   -0.4830046452
C       -1.0331063085    0.1904786912    0.0611416622
C       -0.2748422892    1.3935192733   -0.4690323182
N        0.9856959798    1.4382848507   -0.1692070357
H        2.6741012772    0.3091810463    0.2767708564
H        1.7681906198   -1.7487743801   -0.8700903906
H       -0.6312979270   -2.1601023349   -0.1413768330
H       -2.0244974073    0.1395173045   -0.4228207256
H       -0.7983199181    2.3031417562   -0.7663204737
C       -1.1599047468    0.0794647898    1.5084754767
H       -1.9864202246   -0.0773178201    2.1895566130
13   
From optimize.out: Frame 8 / 38, Energy=    -286.7760530325
C        1.6565537476    0.2459782388   -0.1199613365
C        1.1271375026   -0.9474712729   -0.6340068925
C       -0.2562366052   -1.1805656173   -0.5533812865
C       -1.0474379597    0.1907442622    0.0928295269
C       -0.2824012770    1.3803524126   -0.4839030869
N        0.9703519511    1.4147869378   -0.1666059052
H        2.6447893995    0.2886023402    0.3266986307
H        1.8189548060   -1.7442222607   -0.8879263814
H       -0.6076900202   -2.1385281204   -0.1838553900
H       -2.0335572131    0.1345359975   -0.4000750688
H       -0.7906360610    2.2945065269   -0.7932831568
C       -1.1835723387    0.1019806348    1.5496743829
H       -2.0162559320   -0.0407000793    2.2537959641
13   
From optimize.out: Frame 7 / 38, Energy=    -286.7702806283
C        1.6635117989    0.2279678971   -0.1216295473
C        1.1717498338   -0.9520009129   -0.6748463684
C       -0.2188033863   -1.1530802428   -0.6106126741
C       -1.0754688620    0.1821023389    0.1220135877
C       -0.2907234959    1.3537765420   -0.4939306168
N        0.9584448341    1.3849941866   -0.1700229699
H        2.6318075836    0.2738620356    0.3636406093
H        1.8731766038   -1.7454300999   -0.9086469571
H       -0.5860077056   -2.0910831028   -0.2146882588
H       -2.0582790280    0.1372908006   -0.3769969081
H       -0.7825061493    2.2742947616   -0.8105244500
C       -1.2227640127    0.1135719791    1.5869273410
H       -2.0641380144   -0.0062661834    2.3093172125
13   
From optimize.out: Frame 6 / 38, Energy=    -286.7610579461
C        1.6687020688    0.2145845049   -0.1348804028
C        1.1992614051   -0.9595116797   -0.6992966093
C       -0.1896626439   -1.1417055966   -0.6000830396
C       -1.1037854626    0.1861779449    0.1180176113
C       -0.2955852236    1.3509746160   -0.5011202773
N        0.9497030743    1.3641784864   -0.1749898984
H        2.6298196958    0.2655458555    0.3617810550
H        1.9058016702   -1.7489992530   -0.9276815004
H       -0.5443825516   -2.0599921959   -0.1628787220
H       -2.0834383043    0.1742166926   -0.3841211800
H       -0.7665817295    2.2854070799   -0.8038351721
C       -1.2602994209    0.0925387215    1.5864325618
H       -2.1095525776   -0.0234151766    2.3226555738
13   
From optimize.out: Frame 5 / 38, Energy=    -286.7416072366
C        1.6704292635    0.2101893124   -0.1530035970
C        1.2018302425   -0.9667305246   -0.7005645713
C       -0.1785742406   -1.1483459519   -0.5357911113
C       -1.1216690577    0.1995522238    0.0872588908
C       -0.2956655607    1.3694845114   -0.5031813027
N        0.9469541685    1.3588595293   -0.1794045918
H        2.6379481382    0.2658385382    0.3275637334
H        1.9077254573   -1.7532345400   -0.9381028082
H       -0.5014603514   -2.0545574220   -0.0601920305
H       -2.0994843069    0.2263338911   -0.4142917936
H       -0.7500204958    2.3190177427   -0.7792791666
C       -1.2822714348    0.0516396446    1.5539632773
H       -2.1357418221   -0.0780469551    2.2950250714
13   
From optimize.out: Frame 4 / 38, Energy=    -286.7206759512
C        1.6721565089    0.2057939910   -0.1711273233
C        1.2043991554   -0.9739495814   -0.7018325706
C       -0.1674855117   -1.1549865023   -0.4714972950
C       -1.1395531780    0.2129268955    0.0564992672
C       -0.2957459002    1.3879949504   -0.5052423885
N        0.9442051820    1.3535404160   -0.1838194148
H        2.6460768194    0.2661312296    0.2933454071
H        1.9096493008   -1.7574699514   -0.9485244220
H       -0.4585368908   -2.0491224886    0.0424976763
H       -2.1155307807    0.2784526200   -0.4444632931
H       -0.7334587757    2.3526293926   -0.7547224401
C       -1.3042440938    0.0107393666    1.5214930394
H       -2.1619318356   -0.1326803379    2.2673937576
13   
From optimize.out: Frame 3 / 38, Energy=    -286.7030998932
C        1.6731063210    0.2015593788   -0.1889425965
C        1.2058717576   -0.9804742802   -0.7030837682
C       -0.1577503432   -1.1597894701   -0.4067968864
C       -1.1555914427    0.2257078738    0.0252573286
C       -0.2953791511    1.4067634935   -0.5080548749
N        0.9411657568    1.3486981716   -0.1880181983
H        2.6530889142    0.2659449898    0.2599338666
H        1.9100865824   -1.7613523380   -0.9586818810
H       -0.4171530878   -2.0413181477    0.1461140162
H       -2.1295187333    0.3291712267   -0.4754561007
H       -0.7169634988    2.3861760203   -0.7311465849
C       -1.3245269736   -0.0313780400    1.4888634928
H       -2.1864361018   -0.1897088784    2.2400121868
13   
From optimize.out: Frame 2 / 38, Energy=    -286.6493259635
C        1.6616424937    0.2031102678   -0.1879304268
C        1.1897328602   -0.9713865266   -0.7030855727
C       -0.1760708121   -1.1332116632   -0.3875805716
C       -1.1311679107    0.2193980944    0.0116904440
C       -0.2886013644    1.4144392969   -0.5198913082
N        0.9361947281    1.3548661777   -0.1856304499
H        2.6377693244    0.2587263776    0.2652551374
H        1.8878865130   -1.7568465449   -0.9567810300
H       -0.4318460269   -2.0042098960    0.1810190054
H       -2.1014908366    0.3184633401   -0.4940551543
H       -0.7146147674    2.3920037662   -0.7410725037
C       -1.3033042994   -0.0581676914    1.4798582171
H       -2.1661299017   -0.2371849986    2.2382042132
13   
From optimize.out: Frame 1 / 38, Energy=    -286.6166929194
C        1.6419520719    0.2086537446   -0.1737567424
C        1.1619174865   -0.9517295092   -0.7022110932
C       -0.2133011189   -1.0857372273   -0.4010658140
C       -1.0793891153    0.1999635728    0.0110862917
C       -0.2776107781    1.4140148369   -0.5375615451
N        0.9300768378    1.3684979336   -0.1787233252
H        2.6074287113    0.2468776453    0.2975175850
H        1.8507386544   -1.7466463996   -0.9465030528
H       -0.4852518375   -1.9481017017    0.1662772152
H       -2.0451684686    0.2651241897   -0.5031849480
H       -0.7222852871    2.3781484618   -0.7740785628
C       -1.2538605735   -0.0730880843    1.4877972298
H       -2.1152465828   -0.2759774624    2.2544067619
13   
C5H5N+CH->C6H6N atoms 1-13 frame 154 charge +0.000 sz -1.000 sz^2 3.931
C        1.6222600921    0.2141976601   -0.1595819365
C        1.1340999119   -0.9320709366   -0.7013365445
C       -0.2505343715   -1.0382590352   -0.4145521233
C       -1.0276062232    0.1805275135    0.0104820915
C       -0.2666193221    1.4135903434   -0.5552331800
N        0.9239584635    1.3821307680   -0.1718156541
H        2.5770856976    0.2350279754    0.3297825852
H        1.8135878566   -1.7364454474   -0.9362242625
H       -0.5386618736   -1.8919890681    0.1515342586
H       -1.9888416443    0.2117808190   -0.5123154642
H       -0.7299564137    2.3642920611   -0.8070872334
C       -1.2044129355   -0.0880096577    1.4957368706
H       -2.0643592378   -0.3147729955    2.2706105925
13   
C5H5N+CH->C6H6N atoms 1-13 frame 155 charge -0.000 sz -1.000 sz^2 4.018
C        1.6025665570    0.2197420134   -0.1454060110
C        1.1062801402   -0.9124108113   -0.7004619267
C       -0.2877705648   -0.9907770931   -0.4280394978
C       -0.9758192411    0.1610899190    0.0098778436
C       -0.2556269980    1.4131658163   -0.5729062108
N        0.9178396060    1.3957646792   -0.1649074373
H        2.5467402873    0.2231773697    0.3620501337
H        1.7764341246   -1.7262436894   -0.9259446602
H       -0.5920761282   -1.8358720025    0.1367901376
H       -1.9325103712    0.1584332351   -0.5214467015
H       -0.7376281462    2.3504345660   -0.8400985111
C       -1.1549613920   -0.1029324097    1.5036771386
H       -2.0134678737   -0.3535715928    2.2868157029
13   
C5H5N+CH->C6H6N atoms 1-13 frame 156 charge -0.000 sz -1.000 sz^2 4.105
C        1.5808333322    0.2243096477   -0.1303844880
C        1.0793389698   -0.8934768026   -0.7007692065
C       -0.3244886166   -0.9466893623   -0.4466703067
C       -0.9236046110    0.1430289576    0.0108880002
C       -0.2449720209    1.4133374076   -0.5914877356
N        0.9099482374    1.4089119985   -0.1573735125
H        2.5129123927    0.2100517389    0.3973898838
H        1.7418986231   -1.7153629556   -0.9150759152
H       -0.6441091601   -1.7836994665    0.1157923845
H       -1.8757051183    0.1060080776   -0.5289950951
H       -0.7454245515    2.3370229368   -0.8748818796
C       -1.1048388753   -0.1148387254    1.5143126753