13   
From optimize.out: Frame 1 / 1, Energy=    -286.8549868008
C        1.6972674499    0.2878043459   -0.2177946769
C        1.0901877441   -0.9150443011   -0.1130997488
C       -0.3619637773   -1.0474732349    0.0889831806
C       -1.1404209314    0.3810042155   -0.0222865165
C       -0.2577572752    1.5000476524   -0.4006826261
N        1.0305620919    1.4987760097   -0.4081843795
H        2.7791612696    0.3569904953   -0.2962301170
H        1.6743188469   -1.8289541903   -0.1884936329
H       -0.8372409141   -1.9446421130   -0.3118803428
H       -2.1404458750    0.4184069429   -0.4587273145
H       -0.7545360329    2.4046352209   -0.7599226703
C       -0.9922145815   -0.3754667208    1.2230969943
H       -1.7869180147   -0.7360843224    1.8652218504
13   
From optimize.out: Frame 37 / 38, Energy=    -286.8549868008
C        1.6972674499    0.2878043459   -0.2177946769
C        1.0901877441   -0.9150443011   -0.1130997488
C       -0.3619637773   -1.0474732349    0.0889831806
C       -1.1404209314    0.3810042155   -0.0222865165
C       -0.2577572752    1.5000476524   -0.4006826261
N        1.0305620919    1.4987760097   -0.4081843795
H        2.7791612696    0.3569904953   -0.2962301170
H        1.6743188469   -1.8289541903   -0.1884936329
H       -0.8372409141   -1.9446421130   -0.3118803428
H       -2.1404458750    0.4184069429   -0.4587273145
H       -0.7545360329    2.4046352209   -0.7599226703
C       -0.9922145815   -0.3754667208    1.2230969943
H       -1.7869180147   -0.7360843224    1.8652218504
13   
From optimize.out: Frame 36 / 38, Energy=    -286.8549864661
C        1.6979557340    0.2823566385   -0.2105914576
C        1.0937286584   -0.9177806260   -0.1156683217
C       -0.3629004233   -1.0432424932    0.0922476827
C       -1.1463141153    0.3786771030   -0.0310226876
C       -0.2603130788    1.4990563719   -0.3970363342
N        1.0259021728    1.5012496548   -0.3851099756
H        2.7767058702    0.3610909919   -0.3137606409
H        1.6672642300   -1.8368829394   -0.2056712582
H       -0.8377277605   -1.9491610582   -0.2882095956
H       -2.1268026491    0.3941595566   -0.5111047473
H       -0.7538402848    2.4142431812   -0.7328245107
C       -0.9997059867   -0.3630153921    1.2181863480
H       -1.7739523671   -0.7207509891    1.8805654988
13   
From optimize.out: Frame 35 / 38, Energy=    -286.8549853474
C        1.7013371013    0.2780795635   -0.2548831199
C        1.1005420097   -0.9166106807   -0.1067213240
C       -0.3590961357   -1.0333523181    0.1062736788
C       -1.1455452256    0.3567267451   -0.0519674884
C       -0.2586026413    1.4998156559   -0.3790694033
N        1.0271073835    1.5042665707   -0.3804227916
H        2.7780841506    0.3519710871   -0.3808091279
H        1.6768418442   -1.8357660733   -0.1741560985
H       -0.8282513062   -1.9480262416   -0.2648147864
H       -2.0992961233    0.3506004397   -0.5832551009
H       -0.7516815612    2.4406780963   -0.6368965220
C       -1.0318156565   -0.3492242747    1.2234237499
H       -1.8096238394   -0.6991585698    1.8832983341
13   
From optimize.out: Frame 34 / 38, Energy=    -286.8549818804
C        1.7032665236    0.2765147056   -0.2971028664
C        1.1038025600   -0.9127422421   -0.0902896639
C       -0.3580154857   -1.0191613706    0.1150572326
C       -1.1391608083    0.3332773016   -0.0836425478
C       -0.2522223967    1.5042201766   -0.3436077212
N        1.0325524651    1.5056704517   -0.3869572063
H        2.7769041897    0.3393254209   -0.4528026991
H        1.6856662464   -1.8313016461   -0.1204402291
H       -0.8186208877   -1.9404345671   -0.2522554306
H       -2.0821551950    0.3165447782   -0.6316314935
H       -0.7555970313    2.4534525797   -0.5473487619
C       -1.0542408094   -0.3493788142    1.2112540984
H       -1.8421793708   -0.6759867742    1.8797672888
13   
From optimize.out: Frame 33 / 38, Energy=    -286.8549673691
C        1.7058893242    0.2715157956   -0.3232876896
C        1.1124920291   -0.9075515195   -0.0755702997
C       -0.3545817552   -1.0204111378    0.1181330267
C       -1.1448011416    0.3159985126   -0.1167343377
C       -0.2529010014    1.4938911307   -0.3348623498
N        1.0284498273    1.4969225126   -0.3915449377
H        2.7779489906    0.3365209627   -0.4872932364
H        1.6920664895   -1.8262196978   -0.0994308799
H       -0.7999650239   -1.9569670672   -0.2257956845
H       -2.0834365169    0.3459413682   -0.6693449725
H       -0.7578855528    2.4533987476   -0.4758396273
C       -1.0743337125   -0.3292421940    1.2069213952
H       -1.8489419563   -0.6737974137    1.8746495934
13   
From optimize.out: Frame 32 / 38, Energy=    -286.8549273700
C        1.7069451792    0.2713966487   -0.3088134507
C        1.1006939188   -0.9066112729   -0.0689820298
C       -0.3688738630   -1.0031804042    0.1178666228
C       -1.1353659409    0.2826284768   -0.1554843658
C       -0.2527504384    1.4837076986   -0.3390501737
N        1.0257131712    1.4928723881   -0.4267232188
H        2.7813662458    0.3407810630   -0.4536305089
H        1.6714927636   -1.8309824763   -0.1097595079
H       -0.8150128007   -1.9426462079   -0.2073469114
H       -2.0834483047    0.3410742535   -0.6981808439
H       -0.7640791749    2.4461475836   -0.4259790301
C       -1.0811462571   -0.2716123837    1.1909445654
H       -1.7855344988   -0.7035753675    1.8851388527
13   
From optimize.out: Frame 31 / 38, Energy=    -286.8548103960
C        1.7113470240    0.2712545479   -0.3337087583
C        1.1014415299   -0.9102964981   -0.0788847998
C       -0.3582882151   -1.0045431132    0.1468325802
C       -1.1574331182    0.2989484622   -0.1620642490
C       -0.2437197606    1.4956475533   -0.3204623018
N        1.0327266129    1.4977061190   -0.4189775372
H        2.7828191198    0.3423425006   -0.4969067269
H        1.6702180913   -1.8366152410   -0.1057460466
H       -0.7895810967   -1.9696020833   -0.1203662074
H       -2.0796611052    0.3775456044   -0.7440059569
H       -0.7491036238    2.4617597467   -0.4084597885
C       -1.1297514956   -0.2416998153    1.1881559645
H       -1.7910139627   -0.7824477833    1.8545938277
13   
From optimize.out: Frame 30 / 38, Energy=    -286.8545123250
C        1.7212589131    0.2609330786   -0.3510942642
C        1.1219542607   -0.8942182710   -0.0752511687
C       -0.3455834529   -0.9943556119    0.1462674484
C       -1.1541510770    0.2999220571   -0.1716522609
C       -0.2414834701    1.4904474677   -0.3266508310
N        1.0311386057    1.4859085561   -0.4662715126
H        2.7934281620    0.3300408431   -0.5100457629
H        1.7032465581   -1.8140001762   -0.0991479654
H       -0.8065771343   -1.9608833603   -0.0207572407
H       -2.0916307809    0.4167315792   -0.7278265402
H       -0.7424217982    2.4595954929   -0.3560633365
C       -1.1717589099   -0.2452869405    1.1706248519
H       -1.8174198762   -0.8348347149    1.7878685826
13   
From optimize.out: Frame 29 / 38, Energy=    -286.8541598187
C        1.7208936994    0.2632697984   -0.3286405774
C        1.1026633881   -0.8872746446   -0.0688000403
C       -0.3661176200   -0.9643762743    0.1254073782
C       -1.1591393300    0.3028838343   -0.1688631089
C       -0.2427845316    1.4897374198   -0.3545357735
N        1.0318992488    1.4828046412   -0.4853131702
H        2.7967046649    0.3239077090   -0.4648138717
H        1.6751198345   -1.8130310333   -0.0805056655
H       -0.8403908591   -1.9281951677   -0.0179815205
H       -2.1016502683    0.4148539496   -0.7194158541
H       -0.7388174020    2.4611351047   -0.3884427930
C       -1.1580184647   -0.2314247993    1.1774897871
H       -1.7203623600   -0.9142905379    1.7744152099
13   
From optimize.out: Frame 28 / 38, Energy=    -286.8536784279
C        1.7173940415    0.2625138692   -0.3207590346
C        1.0958782255   -0.8892306625   -0.0772455683
C       -0.3672144800   -0.9520514507    0.0542236317
C       -1.1391867011    0.3105410803   -0.1322965885
C       -0.2430438854    1.4959242882   -0.3730077012
N        1.0316131954    1.4777844745   -0.5128682593
H        2.7963731283    0.3226821048   -0.4280037649
H        1.6715789560   -1.8130046063   -0.0595279630
H       -0.8721376901   -1.9065716684   -0.0189740569
H       -2.0914073076    0.3940116329   -0.6743356768
H       -0.7364836697    2.4666460605   -0.4311297905
C       -1.1784284170   -0.1873125973    1.2370020612
H       -1.6849353957   -0.9819325253    1.7369227108
13   
From optimize.out: Frame 27 / 38, Energy=    -286.8532551546
C        1.7108563940    0.2663682795   -0.3052143044
C        1.0799373015   -0.8955093753   -0.0959989994
C       -0.3698377973   -0.9365651045   -0.0091469641
C       -1.1126580267    0.3116419651   -0.0969203335
C       -0.2427301131    1.5031495622   -0.3913168368
N        1.0340225334    1.4784987307   -0.5215236090
H        2.7925336842    0.3256300252   -0.3786287644
H        1.6534868544   -1.8196847008   -0.0570993148
H       -0.9042432249   -1.8777206895   -0.0231160252
H       -2.0706939561    0.3617964818   -0.6346027145
H       -0.7415423538    2.4674723718   -0.4923917064
C       -1.1905494864   -0.1501377354    1.2984193180
H       -1.6385818093   -1.0349398107    1.7075402544
13   
From optimize.out: Frame 26 / 38, Energy=    -286.8527398702
C        1.6995138320    0.2666609903   -0.2968063822
C        1.0585909662   -0.8925666304   -0.0942539022
C       -0.3849462799   -0.9115694813   -0.0077390748
C       -1.0993071914    0.3203222387   -0.0958456866
C       -0.2416264182    1.5197506535   -0.4055229118
N        1.0354729171    1.4847074103   -0.5276238918
H        2.7820943734    0.3178872922   -0.3569847619
H        1.6251925354   -1.8196553455   -0.0333285663
H       -0.9464767363   -1.8341871172    0.0398725163
H       -2.0598126718    0.3552180437   -0.6298132020
H       -0.7442953908    2.4802618809   -0.5214889204
C       -1.1723478804   -0.1710853926    1.2949837801
H       -1.5520520554   -1.1157445426    1.6345510035
13   
From optimize.out: Frame 26 / 38, Energy=    -286.8527398702
C        1.6951334959    0.2684125172   -0.2892897425
C        1.0484360501   -0.8952750939   -0.1034820350
C       -0.3870083633   -0.9025052340   -0.0251454816
C       -1.0908068007    0.3222990315   -0.0862896723
C       -0.2413637304    1.5258313594   -0.4125668428
N        1.0368585054    1.4871543536   -0.5265869931
H        2.7782719745    0.3175849217   -0.3348261666
H        1.6121553480   -1.8234016245   -0.0321753931
H       -0.9644950816   -1.8148030713    0.0565147024
H       -2.0504158726    0.3432160969   -0.6226224809
H       -0.7472918029    2.4819921021   -0.5467203455
C       -1.1764489601   -0.1658361725    1.3081533091
H       -1.5130247623   -1.1446691862    1.6150371419
13   
From optimize.out: Frame 25 / 38, Energy=    -286.8519680798
C        1.7031295933    0.2727573157   -0.2833574953
C        1.0581756124   -0.9080294544   -0.1322167817
C       -0.3658784543   -0.9217614713   -0.0759972098
C       -1.0909288256    0.3123593507   -0.0616567158
C       -0.2425960628    1.5132104528   -0.4068789547
N        1.0381289097    1.4829142287   -0.5128626506
H        2.7862121596    0.3305089461   -0.3117528027
H        1.6262400719   -1.8338596775   -0.0712284579
H       -0.9394672239   -1.8383485439   -0.0092309268
H       -2.0436579753    0.3215730243   -0.6111632403
H       -0.7507208519    2.4640627282   -0.5650797327
C       -1.2201965130   -0.1140179511    1.3508409128
H       -1.5584404401   -1.0813689483    1.6905840555
13   
From optimize.out: Frame 24 / 38, Energy=    -286.8511441466
C        1.7111256908    0.2771021142   -0.2774252481
C        1.0679151748   -0.9207838150   -0.1609515284
C       -0.3447485452   -0.9410177087   -0.1268489380
C       -1.0910508504    0.3024196699   -0.0370237593
C       -0.2438283953    1.5005895463   -0.4011910667
N        1.0393993139    1.4786741039   -0.4991383080
H        2.7941523448    0.3434329705   -0.2886794389
H        1.6403247957   -1.8443177306   -0.1102815227
H       -0.9144393663   -1.8618940164   -0.0749765560
H       -2.0369000780    0.2999299516   -0.5997039997
H       -0.7541499009    2.4461333544   -0.5834391199
C       -1.2639440659   -0.0621997297    1.3935285165
H       -1.6038561180   -1.0180687104    1.7661309692
13   
From optimize.out: Frame 23 / 38, Energy=    -286.8477215543
C        1.7191217882    0.2814469127   -0.2714930010
C        1.0776547371   -0.9335381756   -0.1896862751
C       -0.3236186361   -0.9602739461   -0.1777006662
C       -1.0911728753    0.2924799890   -0.0123908027
C       -0.2450607277    1.4879686397   -0.3955031787
N        1.0406697182    1.4744339790   -0.4854139655
H        2.8020925300    0.3563569950   -0.2656060751
H        1.6544095196   -1.8547757836   -0.1493345875
H       -0.8894115086   -1.8854394889   -0.1407221851
H       -2.0301421808    0.2782868790   -0.5882447590
H       -0.7575789500    2.4282039805   -0.6017985071
C       -1.3076916189   -0.0103815083    1.4362161202
H       -1.6492717958   -0.9547684725    1.8416778828
13   
From optimize.out: Frame 22 / 38, Energy=    -286.8450721206
C        1.7291649678    0.2867372735   -0.2720838237
C        1.0911297523   -0.9429137929   -0.2188563373
C       -0.3009696078   -0.9810556120   -0.1889872946
C       -1.0780263476    0.2736969229    0.0067904727
C       -0.2425419115    1.4777772532   -0.3831608698
N        1.0451568237    1.4730082230   -0.4707252256
H        2.8119500695    0.3660682756   -0.2686756270
H        1.6778663082   -1.8579053028   -0.2052994817
H       -0.8598279856   -1.9108297679   -0.1745174588
H       -2.0145796572    0.2548746042   -0.5753329435
H       -0.7652041785    2.4102378752   -0.5978674497
C       -1.3476096137    0.0285602923    1.4573535807
H       -1.7465086194   -0.8782562446    1.8913624583
13   
From optimize.out: Frame 21 / 38, Energy=    -286.8396047926
C        1.7392894954    0.2920652097   -0.2729338638
C        1.1047532090   -0.9521551439   -0.2480436982
C       -0.2782602120   -1.0018978962   -0.1987016634
C       -1.0643525469    0.2545624336    0.0257551063
C       -0.2398740302    1.4676824122   -0.3705541239
N        1.0497717562    1.4716943060   -0.4559981619
H        2.8218838019    0.3756518865   -0.2727840604
H        1.7016955290   -1.8607435967   -0.2619364274
H       -0.8300634271   -1.9362933568   -0.2070430717
H       -1.9986672507    0.2313920238   -0.5623634048
H       -0.7729961572    2.3922703102   -0.5930506025
C       -1.3873754275    0.0669904027    1.4776346698
H       -1.8458047400   -0.8012189913    1.9400193021
13   
From optimize.out: Frame 20 / 38, Energy=    -286.8346790211
C        1.7489825881    0.2965190287   -0.2773388541
C        1.1193212774   -0.9597537487   -0.2736654364
C       -0.2557330824   -1.0228908284   -0.2033652335
C       -1.0502699249    0.2349126082    0.0447484251
C       -0.2376952811    1.4568332673   -0.3568425121
N        1.0532636027    1.4700882374   -0.4439448664
H        2.8312286425    0.3853370653   -0.2809364942
H        1.7255730199   -1.8611655481   -0.3155445173
H       -0.7998321919   -1.9614919768   -0.2314877766
H       -1.9860512461    0.2117314287   -0.5426796114
H       -0.7812717482    2.3742511786   -0.5830407755
C       -1.4098736424    0.0917173597    1.4958005180
H       -1.9576420136   -0.7160880718    1.9682971343
13   
From optimize.out: Frame 19 / 38, Energy=    -286.8254385880
C        1.7578627526    0.3004548844   -0.2822352376
C        1.1337381656   -0.9665488903   -0.2974432702
C       -0.2339994679   -1.0441147221   -0.2067360777
C       -1.0360780717    0.2142790678    0.0632465804
C       -0.2362589540    1.4450951084   -0.3431139604
N        1.0557657990    1.4681924132   -0.4324512088
H        2.8396843776    0.3950596587   -0.2880585104
H        1.7488462326   -1.8602105438   -0.3678450400
H       -0.7699355647   -1.9866114273   -0.2548943059
H       -1.9761844105    0.1945089646   -0.5183768936
H       -0.7902404184    2.3553875920   -0.5722215310
C       -1.4214728010    0.1085423620    1.5130168468
H       -2.0717276392   -0.6240344676    1.9871126083
13   
From optimize.out: Frame 18 / 38, Energy=    -286.8115270321
C        1.7635560920    0.3036785457   -0.2818107106
C        1.1453077052   -0.9728702872   -0.3196842211
C       -0.2159020884   -1.0661822657   -0.2146417476
C       -1.0222298947    0.1897743620    0.0791623460
C       -0.2375237961    1.4304933404   -0.3317299648
N        1.0557037033    1.4654651208   -0.4179224853
H        2.8449121248    0.4047491572   -0.2810410553
H        1.7689388177   -1.8575659308   -0.4201565376
H       -0.7427680523   -2.0119110217   -0.2907970981
H       -1.9730525367    0.1812826698   -0.4853457071
H       -0.8016713575    2.3323410553   -0.5687088808
C       -1.4156092969    0.1153113842    1.5300558334
H       -2.1696614205   -0.5145661301    2.0026202289
13   
From optimize.out: Frame 17 / 38, Energy=    -286.7934016227
C        1.7637290715    0.3056208606   -0.2772460870
C        1.1519116373   -0.9797056094   -0.3366567046
C       -0.2040696476   -1.0900556825   -0.2341756072
C       -1.0151421686    0.1707382101    0.0866837228
C       -0.2414023358    1.4196674954   -0.3237573717
N        1.0527302539    1.4633060662   -0.4030442240
H        2.8443047524    0.4127299253   -0.2558083648
H        1.7844652584   -1.8544364083   -0.4627720839
H       -0.7195400482   -2.0391458405   -0.3373914751
H       -1.9821492411    0.1733601311   -0.4497461239
H       -0.8135473837    2.3126542799   -0.5736084590
C       -1.3820933915    0.0957657091    1.5468544144
H       -2.2391967569   -0.3904991370    2.0206683639
13   
From optimize.out: Frame 16 / 38, Energy=    -286.7926216580
C        1.7546939745    0.3049238260   -0.2512714951
C        1.1473390602   -0.9842724975   -0.3458285234
C       -0.2083170050   -1.1063429695   -0.2707888833
C       -1.0150605839    0.1544870969    0.0726502855
C       -0.2516437192    1.4086710850   -0.3379838206
N        1.0446039790    1.4603606267   -0.3856815264
H        2.8325173658    0.4158204283   -0.1801733588
H        1.7848688279   -1.8513797767   -0.4945603035
H       -0.7182772173   -2.0563671415   -0.3884921319
H       -2.0082638225    0.2008644259   -0.4083455236
H       -0.8296498255    2.2905783090   -0.6114203102
C       -1.3199174435    0.0672536733    1.5452352246
H       -2.2128935905   -0.3045970860    2.0566603666
13   
From optimize.out: Frame 15 / 38, Energy=    -286.7892457551
C        1.7615865217    0.3032286435   -0.2415167997
C        1.1580338374   -0.9829391025   -0.3832979655
C       -0.1930938393   -1.1021746244   -0.2749435104
C       -1.0176808982    0.1439474187    0.0928555784
C       -0.2556516762    1.3921031068   -0.3327550115
N        1.0437367355    1.4555096400   -0.3529360364
H        2.8362419966    0.4145311268   -0.1370597380
H        1.7833849249   -1.8451617328   -0.5939216628
H       -0.7063493945   -2.0534049759   -0.3659045608
H       -1.9960079689    0.1509176027   -0.4157312587
H       -0.8294663964    2.2701480584   -0.6256816005
C       -1.3387067256    0.0832790312    1.5574499034
H       -2.2460271169   -0.2299841924    2.0734426626
13   
From optimize.out: Frame 14 / 38, Energy=    -286.7875546129
C        1.7587658626    0.3016478094   -0.2230698755
C        1.1568847002   -0.9792220633   -0.4108040171
C       -0.1924624248   -1.0963397199   -0.2939059683
C       -1.0215780294    0.1393346031    0.0993142269
C       -0.2605889812    1.3810664438   -0.3411371132
N        1.0402422646    1.4543999583   -0.3230639477
H        2.8280958567    0.4079994273   -0.0758579424
H        1.7729311815   -1.8388576024   -0.6623449009
H       -0.7024228353   -2.0519490732   -0.3594697152
H       -1.9968091784    0.1222786711   -0.4147012407
H       -0.8284291734    2.2550372775   -0.6563317246
C       -1.3246655069    0.0841220608    1.5622345919
H       -2.2299637363   -0.1795177926    2.0991376267
13   
From optimize.out: Frame 13 / 38, Energy=    -286.7861329053
C        1.7440524479    0.3001941043   -0.1912771344
C        1.1403034268   -0.9722065681   -0.4243591152
C       -0.2110080205   -1.0903468136   -0.3308160408
C       -1.0266994579    0.1395202033    0.0839266350
C       -0.2666141595    1.3757479923   -0.3684933725
N        1.0331135046    1.4573267355   -0.2953436390
H        2.8060494164    0.3955958284    0.0093320737
H        1.7515680229   -1.8304627854   -0.6925194211
H       -0.7097832626   -2.0535527296   -0.3727183885
H       -2.0174046158    0.1281696592   -0.4000860196
H       -0.8289038915    2.2445662892   -0.7075943078
C       -1.2630412333    0.0611612157    1.5542282939
H       -2.1516321776   -0.1557131312    2.1357204363
13   
From optimize.out: Frame 12 / 38, Energy=    -286.7848872124
C        1.7443490765    0.2971962022   -0.1596112141
C        1.1318224239   -0.9560793038   -0.4552222366
C       -0.2203751878   -1.0760955476   -0.3348997823
C       -1.0348777395    0.1333205431    0.0677130979
C       -0.2657487576    1.3600714707   -0.3934402006
N        1.0302637888    1.4549003413   -0.2440860471
H        2.8017738644    0.3803839593    0.0730228622
H        1.7284790062   -1.8060616564   -0.7823092603
H       -0.7151095113   -2.0436204673   -0.3007212213
H       -2.0267373645    0.1145883099   -0.4167860375
H       -0.8271264664    2.2287167890   -0.7358097798
C       -1.2339526427    0.0475047370    1.5324196717
H       -2.1127604900   -0.1348253774    2.1497301477
13   
From optimize.out: Frame 11 / 38, Energy=    -286.7832659628
C        1.7409459673    0.2889110601   -0.1706331907
C        1.1392560067   -0.9628229498   -0.4848553924
C       -0.2168746312   -1.1066918945   -0.3624525315
C       -1.0693818923    0.1542534981    0.0415400007
C       -0.2754643114    1.3656075597   -0.4083465921
N        1.0207765488    1.4417691099   -0.2407696683
H        2.7877038153    0.3736097722    0.1121532389
H        1.7519042298   -1.8108395946   -0.7884422103
H       -0.6839856670   -2.0751662078   -0.1903538169
H       -2.0694280911    0.1696240363   -0.4290411509
H       -0.8175934669    2.2646062758   -0.7003532319
C       -1.2257590888    0.0277931953    1.4927063736
H       -2.0820994193   -0.1306538607    2.1288481716
13   
From optimize.out: Frame 10 / 38, Energy=    -286.7825549808
C        1.7335569366    0.2851820410   -0.1507083254
C        1.1234586436   -0.9431650755   -0.5300777027
C       -0.2335327858   -1.1109888179   -0.3738397071
C       -1.0751609154    0.1502963178    0.0294896453
C       -0.2721402373    1.3475276950   -0.4300556371
N        1.0159232203    1.4348123553   -0.2040009513
H        2.7724988493    0.3564989646    0.1713083844
H        1.7393512247   -1.7827580034   -0.8513984500
H       -0.6719785322   -2.0710250898   -0.0909214019
H       -2.0796102512    0.1682589924   -0.4349707924
H       -0.8085373396    2.2565386067   -0.7032072588
C       -1.2046139376    0.0211104691    1.4650033319
H       -2.0392148753   -0.1122884553    2.1033788651
13   
From optimize.out: Frame 9 / 38, Energy=    -286.7806565999
C        1.7000859891    0.2751910717   -0.1356886637
C        1.1083645824   -0.9409797103   -0.5628387760
C       -0.2566009884   -1.1474893355   -0.4259416678
C       -1.0554862222    0.1684346260    0.0434747865
C       -0.2729042845    1.3671179843   -0.4504728102
N        1.0013426259    1.4358999408   -0.1837561791
H        2.7248405292    0.3325299059    0.2266158578
H        1.7511984344   -1.7637014153   -0.8668413345
H       -0.6520503843   -2.1119595978   -0.1056649873
H       -2.0541450729    0.1537591801   -0.4297083257
H       -0.8029106379    2.2770237559   -0.7337194131
C       -1.1814599952    0.0481212561    1.4830727590
H       -2.0102745756   -0.0939476619    2.1414687541
13   
From optimize.out: Frame 8 / 38, Energy=    -286.7760530325
C        1.6612847470    0.2637270025   -0.1227831592
C        1.0942328042   -0.9433847924   -0.5924396263
C       -0.2803065254   -1.1916662319   -0.4871496119
C       -1.0314806660    0.1920799381    0.0624249568
C       -0.2749830629    1.3954370223   -0.4703804523
N        0.9845594315    1.4384580869   -0.1681502084
H        2.6704156561    0.3074850212    0.2804140382
H        1.7694249060   -1.7476901033   -0.8703263970
H       -0.6297905005   -2.1635993491   -0.1439708864
H       -2.0223438465    0.1384827966   -0.4223204209
H       -0.7979864553    2.3050389275   -0.7686885645
C       -1.1583390068    0.0817415357    1.5103206910
H       -1.9846874813   -0.0761098540    2.1930496409
13   
From optimize.out: Frame 7 / 38, Energy=    -286.7702806283
C        1.6558483944    0.2478043704   -0.1198820526
C        1.1225719094   -0.9470430063   -0.6298219140
C       -0.2600221825   -1.1834201602   -0.5471814426
C       -1.0446518222    0.1916990331    0.0896783093
C       -0.2815475640    1.3831738181   -0.4828844023
N        0.9715600510    1.4178176282   -0.1662776000
H        2.6461629708    0.2901166420    0.3227336644
H        1.8133997084   -1.7441197814   -0.8858526614
H       -0.6096975894   -2.1433698991   -0.1801701104
H       -2.0311013708    0.1345176241   -0.4025966467
H       -0.7913864406    2.2967513719   -0.7913891035
C       -1.1796614941    0.1005835459    1.5456863669
H       -2.0114745704   -0.0445111867    2.2479575930
13   
From optimize.out: Frame 6 / 38, Energy=    -286.7610579461
C        1.6626291909    0.2302491560   -0.1206442347
C        1.1664624857   -0.9511600767   -0.6700535137
C       -0.2236301608   -1.1559784840   -0.6067826182
C       -1.0714358944    0.1825205004    0.1199720198
C       -0.2897545926    1.3560507023   -0.4926773585
N        0.9599461815    1.3886825867   -0.1694337072
H        2.6329583700    0.2755591521    0.3608502133
H        1.8668027212   -1.7451049498   -0.9057880266
H       -0.5903981540   -2.0968242598   -0.2155979377
H       -2.0547102048    0.1346942533   -0.3783558740
H       -0.7841727901    2.2751709254   -0.8095972714
C       -1.2172577524    0.1140142294    1.5840244996
H       -2.0574394004   -0.0078737354    2.3040838093
13   
From optimize.out: Frame 5 / 38, Energy=    -286.7416072366
C        1.6679068220    0.2166081696   -0.1265359973
C        1.1980786434   -0.9561879296   -0.6987128055
C       -0.1947680427   -1.1386481985   -0.6296847708
C       -1.0955513750    0.1800200676    0.1321797525
C       -0.2955482342    1.3424521629   -0.5001713259
N        0.9509687443    1.3666274772   -0.1729572549
H        2.6260771426    0.2654110965    0.3775356291
H        1.9049159069   -1.7470492130   -0.9228832503
H       -0.5641450858   -2.0624945117   -0.2101584336
H       -2.0760502936    0.1502205342   -0.3702298190
H       -0.7742069665    2.2699318277   -0.8151414167
C       -1.2501829154    0.1113697554    1.6013822927
H       -2.0974943459    0.0017387620    2.3353773994
13   
From optimize.out: Frame 4 / 38, Energy=    -286.7206759512
C        1.6696257106    0.2122341137   -0.1445720367
C        1.2006351272   -0.9633720589   -0.6999746699
C       -0.1837329637   -1.1452566203   -0.5657020234
C       -1.1133489675    0.1933300293    0.1015689513
C       -0.2956281850    1.3608730439   -0.5022224397
N        0.9482330581    1.3613340990   -0.1773507180
H        2.6341664951    0.2657023717    0.3434828593
H        1.9068304425   -1.7512641325   -0.9332544418
H       -0.5214292992   -2.0570858738   -0.1079655643
H       -2.0920191307    0.2020871002   -0.4002553415
H       -0.7577253760    2.3033808563   -0.7907035015
C       -1.2720492655    0.0706673628    1.5690691536
H       -2.1235576458   -0.0526302913    2.3078797726
13   
From optimize.out: Frame 4 / 38, Energy=    -286.7206759512
C        1.6713445991    0.2078600578   -0.1626080761
C        1.2031916110   -0.9705561882   -0.7012365343
C       -0.1726978847   -1.1518650421   -0.5017192761
C       -1.1311465601    0.2066399911    0.0709581501
C       -0.2957081358    1.3792939249   -0.5042735536
N        0.9454973719    1.3560407209   -0.1817441810
H        2.6422558477    0.2659936469    0.3094300894
H        1.9087449780   -1.7554790520   -0.9436256334
H       -0.4787135126   -2.0516772359   -0.0057726949
H       -2.1079879677    0.2539536661   -0.4302808641
H       -0.7412437855    2.3368298848   -0.7662655864
C       -1.2939156155    0.0299649702    1.5367560145
H       -2.1496209457   -0.1069993447    2.2803821458
13   
From optimize.out: Frame 3 / 38, Energy=    -286.7030998932
C        1.6730634877    0.2034860020   -0.1806441155
C        1.2057480948   -0.9777403175   -0.7024983987
C       -0.1616628057   -1.1584734638   -0.4377365288
C       -1.1489441527    0.2199499529    0.0403473489
C       -0.2957880866    1.3977148059   -0.5063246674
N        0.9427616856    1.3507473427   -0.1861376441
H        2.6503452003    0.2662849222    0.2753773196
H        1.9106595136   -1.7596939714   -0.9539968249
H       -0.4359977260   -2.0462685980    0.0964201744
H       -2.1239568048    0.3058202321   -0.4603063866
H       -0.7247621950    2.3702789134   -0.7418276712
C       -1.3157819655   -0.0107374223    1.5044428753
H       -2.1756842456   -0.1613683980    2.2528845190
13   
From optimize.out: Frame 2 / 38, Energy=    -286.6493259635
C        1.6731438292    0.1998722778   -0.1962093912
C        1.2059800463   -0.9828683504   -0.7035963633
C       -0.1543242870   -1.1609418674   -0.3797037318
C       -1.1614123263    0.2307499566    0.0120433344
C       -0.2950210553    1.4146872274   -0.5095699791
N        0.9397682375    1.3469037582   -0.1896649576
H        2.6554915233    0.2656473185    0.2464103794
H        1.9095848794   -1.7628045327   -0.9627844801
H       -0.4006512584   -2.0369831488    0.1896298049
H       -2.1343891900    0.3496191718   -0.4887223674
H       -0.7101343545    2.4000967622   -0.7217933960
C       -1.3321847820   -0.0494525685    1.4752209751
H       -2.1958512623   -0.2145260049    2.2287401727
13   