13   
From optimize.out: Frame 1 / 2, Energy=    -286.8443461693
C        0.0078310000    0.0012260000   -0.0000000000
C       -0.1230770000    0.0026880000   -0.0000000000
C       -0.2283300000    0.0430050000   -0.0000000000
C       -0.1190440000   -0.1675780000    0.0000000000
C        0.0855430000   -0.0067930000   -0.0000000000
N       -0.3706100000    0.0068220000   -0.0000000000
H        0.1416450000   -0.0000040000   -0.0000000000
H        0.1469800000    0.0002570000    0.0000000000
H        0.1806670000   -0.0046830000   -0.0000000000
H        0.1493070000    0.0784990000    0.0000000000
H        0.1458560000   -0.0000230000   -0.0000000000
C       -0.1819220000    1.0428460000    0.0000000000
H        0.1651560000    0.0037360000    0.0000000000
