13
image # 1 Energy = -286.85167
C 1.09185   0.27968   0.50860   
C 0.90545   -0.99385  -0.33166  
C -0.40241  -1.07538  -0.62614  
C -1.08139  0.14372   0.03153   
C -0.44233  1.38125   -0.62995  
N 0.80515   1.47982   -0.38048  
H 2.03810   0.38802   1.03660   
H 1.70388   -1.66042  -0.63866  
H -0.91208  -1.81711  -1.23133  
H -2.16797  0.12073   0.11560   
H -0.96972  2.09093   -1.26514  
C -0.21104  0.17716   1.29153   
H -0.35750  -0.51455  2.11949   
13
image # 2 Energy = -286.84807
C 1.07882   0.27285   0.49950   
C 0.91273   -1.00611  -0.34137  
C -0.39279  -1.12671  -0.62092  
C -1.09789  0.17759   0.04605   
C -0.44631  1.40113   -0.62331  
N 0.81171   1.46569   -0.39548  
H 2.01676   0.38091   1.03545   
H 1.73665   -1.63495  -0.66936  
H -0.86590  -1.91685  -1.22724  
H -2.19457  0.19947   0.15433   
H -0.95908  2.12978   -1.25387  
C -0.22346  0.17574   1.28441   
H -0.37925  -0.52204  2.10697   
13
image # 3 Energy = -286.84058
C 1.06652   0.26546   0.48927   
C 0.91799   -1.01396  -0.34901  
C -0.39260  -1.17752  -0.62210  
C -1.12183  0.20345   0.05674   
C -0.44348  1.41685   -0.61901  
N 0.81166   1.45275   -0.40912  
H 1.99825   0.37381   1.03481   
H 1.76410   -1.60842  -0.69936  
H -0.81539  -2.00216  -1.21238  
H -2.20928  0.27340   0.19043   
H -0.94775  2.16591   -1.24091  
C -0.23362  0.17284   1.27754   
H -0.40113  -0.52890  2.09306   
13
image # 4 Energy = -286.82980
C 1.05315   0.25396   0.47636   
C 0.90146   -1.02023  -0.36128  
C -0.38596  -1.21880  -0.62137  
C -1.14303  0.21612   0.06123   
C -0.45372  1.42524   -0.62464  
N 0.82061   1.43856   -0.41971  
H 1.97942   0.36437   1.03519   
H 1.78960   -1.56799  -0.73585  
H -0.74866  -2.10000  -1.17791  
H -2.21817  0.36243   0.23357   
H -0.92813  2.20659   -1.21670  
C -0.24759  0.16791   1.26292   
H -0.42919  -0.53682  2.07289   
13
image # 5 Energy = -286.81644
C 1.03933   0.24681   0.46680   
C 0.91300   -1.02944  -0.37568  
C -0.37498  -1.27580  -0.62339  
C -1.15546  0.25914   0.07765   
C -0.45125  1.43028   -0.62226  
N 0.81566   1.42468   -0.43203  
H 1.95883   0.35347   1.03228   
H 1.80092   -1.52723  -0.76696  
H -0.69061  -2.19573  -1.15221  
H -2.23471  0.44165   0.27403   
H -0.91301  2.24525   -1.19839  
C -0.26453  0.16212   1.24584   
H -0.45550  -0.54500  2.05439   
13
image # 6 Energy = -286.80424
C 1.02995   0.25054   0.46040   
C 0.92160   -1.03750  -0.38311  
C -0.33828  -1.35866  -0.63373  
C -1.18566  0.34873   0.13069   
C -0.45083  1.45344   -0.61345  
N 0.81540   1.40865   -0.44486  
H 1.93942   0.34530   1.02643   
H 1.82193   -1.51227  -0.79222  
H -0.65536  -2.27450  -1.15501  
H -2.25205  0.49431   0.30157   
H -0.90757  2.26827   -1.19461  
C -0.27935  0.15432   1.23249   
H -0.47435  -0.55079  2.04121   
13
image # 7 Energy = -286.81464
C 1.01086   0.26212   0.45294   
C 0.93996   -1.04796  -0.38801  
C -0.28770  -1.46219  -0.66252  
C -1.20705  0.48999   0.22458   
C -0.46048  1.48357   -0.59773  
N 0.82454   1.39398   -0.45822  
H 1.93414   0.34136   1.02413   
H 1.84433   -1.51531  -0.80211  
H -0.64272  -2.33349  -1.18190  
H -2.28369  0.51747   0.31706   
H -0.90961  2.27137   -1.20494  
C -0.29484  0.14151   1.21751   
H -0.48436  -0.55243  2.03164   
13
image # 8 Energy = -286.82124
C 0.99647   0.26194   0.45160   
C 0.96135   -1.06534  -0.39483  
C -0.21198  -1.57872  -0.69779  
C -1.23432  0.68210   0.36433   
C -0.46644  1.52574   -0.56840  
N 0.82209   1.38123   -0.48582  
H 1.93195   0.34468   1.02220   
H 1.87206   -1.52478  -0.78783  
H -0.65559  -2.38542  -1.24504  
H -2.31327  0.52003   0.32749   
H -0.91878  2.25554   -1.23472  
C -0.31845  0.12522   1.19348   
H -0.48499  -0.55218  2.02452   
13
image # 9 Energy = -286.82617
C 0.97843   0.24309   0.43920   
C 0.96468   -1.07629  -0.40249  
C -0.18182  -1.64456  -0.69041  
C -1.24471  0.74256   0.39779   
C -0.46736  1.55041   -0.55708  
N 0.80893   1.36148   -0.50622  
H 1.91021   0.34033   1.01941   
H 1.89570   -1.49340  -0.80712  
H -0.61200  -2.45793  -1.24499  
H -2.32331  0.58879   0.36786   
H -0.91075  2.27728   -1.23350  
C -0.33561  0.11928   1.17842   
H -0.50523  -0.56042  2.00565   
13
image # 10 Energy = -286.83039
C 0.96633   0.22160   0.43070   
C 0.97432   -1.09016  -0.41109  
C -0.15495  -1.70761  -0.68321  
C -1.25660  0.79787   0.43032   
C -0.47488  1.57538   -0.54559  
N 0.79790   1.33565   -0.53131  
H 1.88216   0.33666   1.01238   
H 1.91913   -1.45458  -0.81504  
H -0.57011  -2.52333  -1.25049  
H -2.32717  0.66218   0.41594   
H -0.90298  2.29400   -1.23696  
C -0.35349  0.11441   1.16475   
H -0.52483  -0.57018  1.98428   
13
image # 11 Energy = -286.83411
C 0.93939   0.20256   0.41443   
C 0.98014   -1.10511  -0.41508  
C -0.12750  -1.75597  -0.67291  
C -1.26271  0.83186   0.45176   
C -0.47390  1.58699   -0.54082  
N 0.78404   1.30740   -0.55477  
H 1.85892   0.33285   1.00798   
H 1.94406   -1.41127  -0.82288  
H -0.52351  -2.58419  -1.25157  
H -2.33270  0.74670   0.47393   
H -0.89624  2.31130   -1.23959  
C -0.36820  0.11522   1.14923   
H -0.54872  -0.58455  1.96405   
13
image # 12 Energy = -286.83647
C 0.92940   0.18894   0.40344   
C 0.98559   -1.11575  -0.41141  
C -0.11082  -1.78605  -0.67331  
C -1.25982  0.85427   0.46474   
C -0.47595  1.59277   -0.54516  
N 0.77098   1.28262   -0.57557  
H 1.83892   0.33216   1.00221   
H 1.96834   -1.38231  -0.81867  
H -0.49404  -2.61330  -1.26007  
H -2.34077  0.81160   0.52523   
H -0.89295  2.31428   -1.24459  
C -0.38367  0.10762   1.14986   
H -0.56259  -0.59144  1.94703   
13
image # 13 Energy = -286.83834
C 0.91775   0.18369   0.40170   
C 0.99698   -1.12190  -0.42638  
C -0.09539  -1.82451  -0.64840  
C -1.26661  0.86851   0.45579   
C -0.47596  1.60167   -0.54025  
N 0.77049   1.28252   -0.57697  
H 1.82064   0.32426   1.00034   
H 1.96247   -1.36242  -0.86469  
H -0.44930  -2.66847  -1.22626  
H -2.34676  0.86372   0.54025   
H -0.88521  2.34498   -1.23057  
C -0.38834  0.10597   1.13815   
H -0.58790  -0.60078  1.94110   
13
image # 14 Energy = -286.84060
C 0.89938   0.16866   0.38334   
C 0.99074   -1.12558  -0.43501  
C -0.06800  -1.88155  -0.62663  
C -1.27179  0.89623   0.46418   
C -0.47350  1.62530   -0.53500  
N 0.76652   1.28021   -0.58176  
H 1.80263   0.31308   1.00056   
H 1.95839   -1.33711  -0.92097  
H -0.38175  -2.74688  -1.18145  
H -2.35212  0.92496   0.55968   
H -0.87076  2.38627   -1.20519  
C -0.41106  0.09958   1.12335   
H -0.61439  -0.60296  1.91968   
13
image # 15 Energy = -286.84260
C 0.88435   0.15776   0.37264   
C 0.99185   -1.13394  -0.45253  
C -0.03990  -1.93512  -0.60184  
C -1.27794  0.92398   0.46543   
C -0.47069  1.64860   -0.52572  
N 0.75953   1.27706   -0.58762  
H 1.77703   0.29967   0.99526   
H 1.94166   -1.31268  -0.97278  
H -0.30775  -2.82945  -1.13750  
H -2.35599  0.98689   0.58171   
H -0.85439  2.43210   -1.17613  
C -0.42844  0.09627   1.10328   
H -0.64270  -0.60803  1.90250   
13
image # 16 Energy = -286.84430
C 0.86054   0.14744   0.35179   
C 0.99164   -1.13890  -0.46697  
C -0.01432  -1.98274  -0.58001  
C -1.27885  0.93825   0.45965   
C -0.46603  1.65725   -0.51915  
N 0.75597   1.27686   -0.59274  
H 1.75586   0.28657   0.99146   
H 1.91496   -1.29215  -1.02404  
H -0.21864  -2.91078  -1.08846  
H -2.35885  1.05636   0.61324   
H -0.83500  2.48647   -1.13921  
C -0.45609  0.08757   1.08276   
H -0.67127  -0.60654  1.88127   
13
image # 17 Energy = -286.84515
C 0.84452   0.13141   0.33921   
C 0.98904   -1.14645  -0.47635  
C 0.01649   -2.03454  -0.56339  
C -1.29077  0.96149   0.46417   
C -0.46500  1.67764   -0.52049  
N 0.74224   1.26508   -0.60244  
H 1.72517   0.27599   0.98135   
H 1.90319   -1.26730  -1.05997  
H -0.13868  -2.97892  -1.05504  
H -2.34934  1.13183   0.65615   
H -0.81623  2.52222   -1.11019  
C -0.47361  0.08449   1.05329   
H -0.70287  -0.61560  1.86641   
13
image # 18 Energy = -286.84658
C 0.81648   0.11765   0.31968   
C 0.98151   -1.16467  -0.49043  
C 0.06012   -2.08173  -0.54477  
C -1.28878  0.99229   0.47427   
C -0.47416  1.69942   -0.51130  
N 0.73717   1.25306   -0.61662  
H 1.69482   0.26752   0.97204   
H 1.89577   -1.24722  -1.08914  
H -0.06316  -3.04518  -1.03459  
H -2.34151  1.20126   0.69900   
H -0.80051  2.55724   -1.09021  
C -0.49769  0.07755   1.04381   
H -0.73365  -0.61942  1.84433   
13
image # 19 Energy = -286.84787
C 0.79349   0.10119   0.29748   
C 0.98627   -1.17104  -0.50411  
C 0.09589   -2.14886  -0.52967  
C -1.29822  1.02423   0.49421   
C -0.47608  1.72184   -0.50211  
N 0.72856   1.24152   -0.63236  
H 1.65878   0.25801   0.95950   
H 1.88692   -1.22832  -1.11706  
H 0.01593   -3.10549  -1.01120  
H -2.32242  1.26925   0.74108   
H -0.78609  2.59424   -1.07189  
C -0.52690  0.07530   1.03481   
H -0.76808  -0.62486  1.82136   
13
image # 20 Energy = -286.84911
C 0.76593   0.08504   0.27659   
C 0.97822   -1.18929  -0.51800  
C 0.14345   -2.19880  -0.51127  
C -1.30418  1.05870   0.50864   
C -0.46387  1.74030   -0.49359  
N 0.70494   1.23485   -0.64780  
H 1.62154   0.24798   0.94696   
H 1.87807   -1.20998  -1.14484  
H 0.09679   -3.16858  -0.98867  
H -2.30584  1.33695   0.78495   
H -0.77137  2.63010   -1.05283  
C -0.54701  0.07344   1.02243   
H -0.80670  -0.63475  1.80194   
13
image # 21 Energy = -286.84988
C 0.73617   0.07067   0.25768   
C 0.97811   -1.20264  -0.53005  
C 0.18842   -2.25147  -0.49900  
C -1.30028  1.10019   0.52609   
C -0.46631  1.76315   -0.48357  
N 0.69078   1.22205   -0.66272  
H 1.58966   0.23776   0.93627   
H 1.86695   -1.19290  -1.16807  
H 0.17112   -3.22620  -0.96523  
H -2.29581  1.39865   0.82556   
H -0.75651  2.65696   -1.03402  
C -0.56745  0.06854   1.00879   
H -0.84157  -0.64055  1.77760   
13
image # 22 Energy = -286.84934
C 0.71162   0.05744   0.23958   
C 0.97619   -1.21623  -0.53929  
C 0.23058   -2.29708  -0.48928  
C -1.30691  1.13901   0.54488   
C -0.46056  1.77867   -0.47253  
N 0.67285   1.21246   -0.67668  
H 1.55908   0.22784   0.92557   
H 1.85707   -1.17818  -1.18881  
H 0.23919   -3.27717  -0.94291  
H -2.27883  1.45137   0.86013   
H -0.74371  2.68308   -1.01827  
C -0.58751  0.06409   1.00058   
H -0.87301  -0.64302  1.75152   
13
image # 23 Energy = -286.85058
C 0.68244   0.04179   0.21988   
C 0.97310   -1.23314  -0.55052  
C 0.27722   -2.34301  -0.47740  
C -1.29488  1.16215   0.56653   
C -0.45969  1.80234   -0.46012  
N 0.65676   1.19965   -0.69303  
H 1.52402   0.21673   0.91304   
H 1.84560   -1.16355  -1.21061  
H 0.31584   -3.33116  -0.91837  
H -2.26554  1.51110   0.90064   
H -0.72792  2.71000   -0.99977  
C -0.61586  0.07794   0.98230   
H -0.91109  -0.65086  1.72742   
