13   
From qcts2.out: Frame 500 / 500, Energy=    -286.8376887969
C        1.0861166879    0.3466926970    0.4675691164
C        0.8927074565   -0.8516958491   -0.4834475900
C       -0.4410871449   -0.9858444669   -0.7683309497
C       -1.0977806274    0.1954719886   -0.0120193240
C       -0.4554865927    1.4639490607   -0.5765205841
N        0.7769476897    1.5916713323   -0.2791647014
H        2.0486275997    0.4051661780    0.9718525207
H        1.5330299842   -1.7281978466   -0.4306788629
H       -0.7676349328   -2.0174862777   -0.6500349274
H       -2.1796069348    0.3294347841   -0.0086424945
H       -0.9506034652    2.1265197584   -1.2846772543
C       -0.2235399565    0.0380331096    1.2568987923
H       -0.2368546205   -0.9238821206    1.7729984554
