13   
From optimize.out: Frame 1 / 2, Energy=    -286.8383370207
C       -0.0189860000    0.0986290000    0.0000000000
C       -0.1638440000   -0.0964490000   -0.0000000000
C       -0.0661370000    0.8874470000   -0.0000000000
C       -0.2580610000   -0.0657750000    0.0000000000
C        0.0886270000    0.0483870000   -0.0000000000
N       -0.3421910000    0.0383710000   -0.0000000000
H        0.1513990000    0.0027700000    0.0000000000
H        0.1472760000    0.0052500000   -0.0000000000
H        0.1362610000   -0.0192590000   -0.0000000000
H        0.1428690000    0.0227580000    0.0000000000
H        0.1429850000    0.0013190000   -0.0000000000
C       -0.1082100000    0.0772410000    0.0000000000
H        0.1480130000   -0.0006900000    0.0000000000
