
Running Job 1 of 1 optimize.in
qchem optimize.in_53344.0 ./optimize.d/ 1
/home/leeping/opt/qchem/5.0.2-openmp/exe/qcprog.exe_s optimize.in_53344.0 ./optimize.d/
Check license passed

                  Welcome to Q-Chem
     A Quantum Leap Into The Future Of Chemistry


 Q-Chem 5.0, Q-Chem, Inc., Pleasanton, CA (2017)

 Yihan Shao,  Zhengting Gan,  E. Epifanovsky,  A. T. B. Gilbert,  M. Wormit,  
 J. Kussmann,  A. W. Lange,  A. Behn,  Jia Deng,  Xintian Feng,  D. Ghosh,  
 M. Goldey,  P. R. Horn,  L. D. Jacobson,  I. Kaliman,  T. Kus,  A. Landau,  
 Jie Liu,  E. I. Proynov,  R. M. Richard,  R. P. Steele,  E. J. Sundstrom,  
 H. L. Woodcock III,  P. M. Zimmerman,  D. Zuev,  B. Albrecht,  E. Alguire,  
 S. A. Baeppler,  D. Barton,  Z. Benda,  Y. A. Bernard,  E. J. Berquist,  
 K. B. Bravaya,  H. Burton,  D. Casanova,  Chun-Min Chang,  Yunqing Chen,  
 A. Chien,  K. D. Closser,  M. P. Coons,  S. Dasgupta,  A. L. Dempwolff,  
 M. Diedenhofen,  Hainam Do,  R. G. Edgar,  Po-Tung Fang,  S. Fatehi,  
 Qingguo Feng,  J. Fosso-Tande,  Qinghui Ge,  A. Ghysels,  G. Gidofalvi,  
 J. Gomes,  J. Gonthier,  A. Gunina,  M. W. D. Hanson-Heine,  
 P. H. P. Harbach,  A. W. Hauser,  J. E. Herr,  E. G. Hohenstein,  
 Z. C. Holden,  Kerwin Hui,  T.-C. Jagau,  Hyunjun Ji,  B. Kaduk,  
 K. Khistyaev,  Jaehoon Kim,  P. Klunzinger,  K. Koh,  D. Kosenkov,  
 L. Koulias,  T. Kowalczyk,  C. M. Krauter,  A. Kunitsa,  Ka Un Lao,  
 A. Laurent,  K. V. Lawler,  Joonho Lee,  D. Lefrancois,  S. Lehtola,  
 D. S. Levine,  Yi-Pei Li,  You-Sheng Lin,  Fenglai Liu,  E. Livshits,  
 A. Luenser,  P. Manohar,  E. Mansoor,  S. F. Manzer,  Shan-Ping Mao,  
 Yuezhi Mao,  N. Mardirossian,  A. V. Marenich,  T. Markovich,  
 L. A. Martinez-Martinez,  S. A. Maurer,  N. J. Mayhall,  S. C. McKenzie,  
 J.-M. Mewes,  A. F. Morrison,  J. W. Mullinax,  K. Nanda,  
 T. S. Nguyen-Beck,  R. Olivares-Amaya,  J. A. Parkhill,  T. M. Perrine,  
 F. Plasser,  S. Prager,  A. Prociuk,  E. Ramos,  D. R. Rehn,  F. Rob,  
 M. Schneider,  N. Sergueev,  S. M. Sharada,  S. Sharma,  D. W. Small,  
 T. Stauch,  T. Stein,  Yu-Chuan Su,  A. J. W. Thom,  A. Tkatchenko,  
 T. Tsuchimochi,  L. Vogt,  O. Vydrov,  M. A. Watson,  J. Wenzel,  
 M. de Wergifosse,  T. A. Wesolowski,  A. White,  J. Witte,  A. Yamada,  
 Jun Yang,  K. Yao,  S. Yeganeh,  S. R. Yost,  Zhi-Qiang You,  A. Zech,  
 Igor Ying Zhang,  Xing Zhang,  Yan Zhao,  Ying Zhu,  B. R. Brooks,  
 G. K. L. Chan,  C. J. Cramer,  M. S. Gordon,  W. J. Hehre,  A. Klamt,  
 M. W. Schmidt,  C. D. Sherrill,  D. G. Truhlar,  A. Aspuru-Guzik,  R. Baer,  
 A. T. Bell,  N. A. Besley,  Jeng-Da Chai,  R. A. DiStasio Jr.,  A. Dreuw,  
 B. D. Dunietz,  T. R. Furlani,  Chao-Ping Hsu,  Yousung Jung,  Jing Kong,  
 D. S. Lambrecht,  WanZhen Liang,  C. Ochsenfeld,  V. A. Rassolov,  
 L. V. Slipchenko,  J. E. Subotnik,  T. Van Voorhis,  J. M. Herbert,  
 A. I. Krylov,  P. M. W. Gill,  M. Head-Gordon

 Contributors to earlier versions of Q-Chem not listed above: 
 R. D. Adamson,  B. Austin,  J. Baker,  G. J. O. Beran,  K. Brandhorst,  
 S. T. Brown,  E. F. C. Byrd,  A. K. Chakraborty,  C.-L. Cheng,  
 Siu Hung Chien,  D. M. Chipman,  D. L. Crittenden,  H. Dachsel,  
 R. J. Doerksen,  A. D. Dutoi,  L. Fusti-Molnar,  W. A. Goddard III,  
 A. Golubeva-Zadorozhnaya,  S. R. Gwaltney,  G. Hawkins,  A. Heyden,  
 S. Hirata,  G. Kedziora,  F. J. Keil,  C. Kelley,  Jihan Kim,  R. A. King,  
 R. Z. Khaliullin,  P. P. Korambath,  W. Kurlancheek,  A. M. Lee,  M. S. Lee,  
 S. V. Levchenko,  Ching Yeh Lin,  D. Liotard,  R. C. Lochan,  I. Lotan,  
 P. E. Maslen,  N. Nair,  D. P. O'Neill,  D. Neuhauser,  E. Neuscamman,  
 C. M. Oana,  R. Olson,  B. Peters,  R. Peverati,  P. A. Pieniazek,  
 Y. M. Rhee,  J. Ritchie,  M. A. Rohrdanz,  E. Rosta,  N. J. Russ,  
 H. F. Schaefer III,  N. E. Schultz,  N. Shenvi,  A. C. Simmonett,  A. Sodt,  
 D. Stuck,  K. S. Thanthiriwatte,  V. Vanovschi,  Tao Wang,  A. Warshel,  
 C. F. Williams,  Q. Wu,  X. Xu,  W. Zhang

 Please cite Q-Chem as follows:
 Y. Shao et al., Mol. Phys. 113, 184-215 (2015)
 DOI: 10.1080/00268976.2014.952696

 Q-Chem 5.0.2 for Intel X86 EM64T Linux

 Parts of Q-Chem use Armadillo 5.200.1 (Boston Tea Smuggler).
 http://arma.sourceforge.net/

 Q-Chem begins on Tue Mar  1 16:11:41 2022  

Host: 
0

     Scratch files written to ./optimize.d//
 Dec517 15110_ 26548  26544 5633   
Processing $rem in /home/leeping/opt/qchem/5.0.2-openmp/config/preferences.
 MEM_STATIC 2000
 MEM_TOTAL  8000
 SYMMETRY   OFF
 SYM_IGNORE TRUE 

Checking the input file for inconsistencies... 	...done.

--------------------------------------------------------------
User input:
--------------------------------------------------------------
$molecule
0 2
C        1.6762327771    0.3118488429   -2.0498985554
C        0.9809087917   -0.9649021283   -1.7960368139
C       -0.6093837569   -0.9729785490   -2.1421837263
C       -1.3571024570    0.4154489935   -0.5399014525
C       -0.7167289281    0.7572674339   -1.9459244525
N        0.9103578192    1.3429536066   -2.4054869361
H        2.6187789141    0.7869825202   -1.7230626299
H        1.5414952881   -1.8662665129   -1.4633349221
H       -0.8875984786   -1.8673350253   -2.7224592729
H       -2.4157052151    0.5873865979   -0.3837802757
H       -1.3136397880    1.3715558277   -2.7252964269
C       -0.9132013928   -0.9298521704   -0.7905408777
H       -1.3062379895   -1.8160286993   -0.5293913518
$end

$rem
method                b3lyp
basis                 6-31g(d)
unrestricted          true
symmetry              off
sym_ignore            true
incdft                false
incfock               0
scf_convergence       8
thresh                14
jobtype               opt
scf_guess             read
scf_algorithm         diis
max_scf_cycles        100
geom_opt_tol_gradient 600
geom_opt_tol_displacement 2400
geom_opt_tol_energy   200
geom_opt_max_cycles   100
$end

--------------------------------------------------------------
 ----------------------------------------------------------------
             Standard Nuclear Orientation (Angstroms)
    I     Atom           X                Y                Z
 ----------------------------------------------------------------
    1      C       1.6762327771     0.3118488429    -2.0498985554
    2      C       0.9809087917    -0.9649021283    -1.7960368139
    3      C      -0.6093837569    -0.9729785490    -2.1421837263
    4      C      -1.3571024570     0.4154489935    -0.5399014525
    5      C      -0.7167289281     0.7572674339    -1.9459244525
    6      N       0.9103578192     1.3429536066    -2.4054869361
    7      H       2.6187789141     0.7869825202    -1.7230626299
    8      H       1.5414952881    -1.8662665129    -1.4633349221
    9      H      -0.8875984786    -1.8673350253    -2.7224592729
   10      H      -2.4157052151     0.5873865979    -0.3837802757
   11      H      -1.3136397880     1.3715558277    -2.7252964269
   12      C      -0.9132013928    -0.9298521704    -0.7905408777
   13      H      -1.3062379895    -1.8160286993    -0.5293913518
 ----------------------------------------------------------------
 Nuclear Repulsion Energy =   262.9911364769 hartrees
 There are       25 alpha and       24 beta electrons
 Requested basis set is 6-31G(d)
 There are 40 shells and 117 basis functions

 Total QAlloc Memory Limit   8000 MB
 Mega-Array Size      1956 MB
 MEM_STATIC part      2000 MB
 A cutoff of  1.0D-14 yielded    804 shell pairs
 There are      7076 function pairs
 
 -------------------------------------------------------
 OpenMP Integral Computing Module                       
 Release: version 1.0, May 2013, Q-Chem Inc. Pittsburgh 
 -------------------------------------------------------
 Integral Job Info:
 Integral job number is                      11
 Integral operator is                         1
 short-range coefficients                     0
 long-range coefficients              100000000
 Omega coefficients                           0
 if combine SR and LR in K                    0
 Integral screening is                        0
 Integral computing path is                   2
 max size of driver memory is            800000
 size of driver memory is                593474
 size of scratch memory is              2361544
 max col of scratch BK array               1296
 max len of scratch array in speh3          155
 max len of scratch index in speh4           18
 max int batch size is                      520
 min int batch size is                       52
 fixed nKL is                                52
 max L of basis functions is                  2
 order of int derivative is                   0
 number of shells is                         40
 number of basis is                         117
 number of cartesian basis is               117
 number of contracted shell pairs           804
 number of primitive shell pairs           3487
 maxK2 (contraction) of shell pair           36
 max number of K2 of shell pair               1
 max number of CS2 of shell pair             87
 max number of PS2 of shell pair            432
 mem total for path MDJ                  535308
 -------------------------------------------------------
 Smallest overlap matrix eigenvalue = 2.39E-03

 Scale SEOQF with 1.000000e-01/1.000000e-01/1.000000e-01

 Standard Electronic Orientation quadrupole field applied
 Nucleus-field energy     =    -0.0000000114 hartrees
 Guess MOs from SCF MO coefficient file
 Reading MOs from coefficient file
 Reading MOs from coefficient file
 An unrestricted hybrid HF-DFT SCF calculation will be
 performed using Pulay DIIS extrapolation
 Exchange:     0.2000 Hartree-Fock + 0.0800 Slater + 0.7200 B88
 Correlation:  0.1900 VWN1RPA + 0.8100 LYP
 Using SG-1 standard quadrature grid
 SCF converges when DIIS error is below 1.0E-08
Using Q-Chem read-in guess as SCF_GUESS READ specified.

 using 4 threads for integral computing
 -------------------------------------------------------
 OpenMP Integral computing Module                
 Release: version 1.0, May 2013, Q-Chem Inc. Pittsburgh 
 -------------------------------------------------------
 -------------------------------------------------------
 OpenMP BLAS3 based DFT computing Module                
 Release: version 1.0, May 2013, Q-Chem Inc. Pittsburgh 
 -------------------------------------------------------
 ---------------------------------------
  Cycle       Energy         DIIS Error
 ---------------------------------------
    1    -286.6753260616      1.33E-09
    2    -286.6753260616      2.98E-09 Convergence criterion met
 ---------------------------------------
 <S^2> = 0.9018
 SCF time:  CPU 5.17 s  wall 4.21 s
 SCF   energy in the final basis set = -286.67532606
 Total energy in the final basis set = -286.67532606
 
 --------------------------------------------------------------
 
                    Orbital Energies (a.u.)
 --------------------------------------------------------------
 
 Alpha MOs
 -- Occupied --
-14.345 -10.253 -10.230 -10.228 -10.220 -10.219 -10.209  -0.904
 -0.855  -0.727  -0.652  -0.634  -0.535  -0.528  -0.510  -0.466
 -0.418  -0.395  -0.377  -0.361  -0.322  -0.311  -0.267  -0.235
 -0.199
 -- Virtual --
 -0.055   0.007   0.051   0.077   0.104   0.119   0.133   0.158
  0.161   0.193   0.198   0.206   0.271   0.321   0.324   0.384
  0.478   0.506   0.521   0.529   0.553   0.558   0.604   0.618
  0.623   0.630   0.638   0.681   0.703   0.750   0.756   0.788
  0.797   0.810   0.826   0.838   0.862   0.884   0.901   0.917
  0.945   0.964   1.023   1.055   1.078   1.164   1.238   1.281
  1.358   1.381   1.459   1.487   1.531   1.554   1.603   1.616
  1.688   1.767   1.801   1.851   1.882   1.911   1.969   1.974
  1.996   2.015   2.085   2.141   2.192   2.242   2.284   2.324
  2.341   2.407   2.428   2.454   2.475   2.527   2.539   2.577
  2.668   2.700   2.767   2.857   2.884   3.780   4.067   4.135
  4.275   4.365   4.443   4.551
 
 Beta MOs
 -- Occupied --
-14.336 -10.254 -10.231 -10.224 -10.218 -10.214 -10.210  -0.897
 -0.846  -0.713  -0.644  -0.632  -0.532  -0.522  -0.508  -0.461
 -0.414  -0.385  -0.373  -0.355  -0.315  -0.305  -0.241  -0.220
 -- Virtual --
 -0.092  -0.043   0.019   0.055   0.088   0.107   0.123   0.135
  0.163   0.163   0.194   0.201   0.211   0.274   0.325   0.327
  0.392   0.480   0.507   0.523   0.535   0.555   0.582   0.604
  0.622   0.629   0.635   0.641   0.686   0.712   0.753   0.763
  0.789   0.800   0.816   0.833   0.848   0.866   0.888   0.905
  0.924   0.947   0.968   1.029   1.056   1.081   1.167   1.245
  1.290   1.361   1.391   1.464   1.491   1.534   1.567   1.612
  1.621   1.694   1.775   1.814   1.862   1.894   1.918   1.981
  1.988   2.003   2.029   2.093   2.142   2.202   2.251   2.289
  2.328   2.343   2.414   2.432   2.465   2.479   2.531   2.551
  2.582   2.674   2.703   2.770   2.860   2.887   3.796   4.075
  4.142   4.277   4.368   4.446   4.555
 --------------------------------------------------------------
 
          Ground-State Mulliken Net Atomic Charges

     Atom                 Charge (a.u.)    Spin (a.u.)
  --------------------------------------------------------
      1 C                     0.088391      -0.217381
      2 C                    -0.193552       0.464125
      3 C                    -0.169115       0.055081
      4 C                    -0.123141       0.669293
      5 C                    -0.098104      -0.108891
      6 N                    -0.358481       0.475859
      7 H                     0.168354       0.021008
      8 H                     0.145770      -0.021751
      9 H                     0.168980       0.017745
     10 H                     0.173983      -0.033325
     11 H                     0.145669       0.012722
     12 C                    -0.087037      -0.346791
     13 H                     0.138284       0.012305
  --------------------------------------------------------
  Sum of atomic charges =     0.000000
  Sum of spin   charges =     1.000000

 -----------------------------------------------------------------
                    Cartesian Multipole Moments
 -----------------------------------------------------------------
    Charge (ESU x 10^10)
                -0.0000
    Dipole Moment (Debye)
         X      -1.2526      Y      -2.6979      Z       0.6039
       Tot       3.0352
    Quadrupole Moments (Debye-Ang)
        XX     -35.4986     XY      -0.7573     YY     -41.5910
        XZ       2.9987     YZ       5.8184     ZZ     -46.2724
    Octopole Moments (Debye-Ang^2)
       XXX       3.8179    XXY       2.9420    XYY      -4.4717
       YYY     -10.9785    XXZ      63.6140    XYZ       3.1404
       YYZ      71.2743    XZZ      -8.5500    YZZ     -12.6608
       ZZZ     224.0991
    Hexadecapole Moments (Debye-Ang^3)
      XXXX    -337.6199   XXXY     -13.9584   XXYY    -101.3464
      XYYY     -21.9317   YYYY    -272.2546   XXXZ      43.2098
      XXYZ       3.0769   XYYZ      33.2711   YYYZ      45.6935
      XXZZ    -203.3752   XYZZ     -14.8206   YYZZ    -197.3256
      XZZZ      83.6566   YZZZ      49.1009   ZZZZ    -907.0593
 -----------------------------------------------------------------
 Calculating analytic gradient of the SCF energy
 Gradient of SCF Energy
            1           2           3           4           5           6
    1   0.0524354  -0.0079218  -0.1126256  -0.0456959   0.0020161   0.0571353
    2  -0.0132127  -0.0009462  -0.0643356   0.0372570  -0.0154181   0.0291915
    3  -0.0202207   0.0084445   0.0327963   0.0540716   0.0937808  -0.0408953
            7           8           9          10          11          12
    1  -0.0111645   0.0128362   0.0090524  -0.0031941  -0.0102596   0.0345040
    2   0.0321403  -0.0103761  -0.0199933  -0.0138833   0.0203845  -0.0431939
    3   0.0097515   0.0034934   0.0107639  -0.0165055  -0.0305661  -0.0459154
           13
    1   0.0228820
    2   0.0623859
    3  -0.0589991
 Max gradient component =       1.126E-01
 RMS gradient           =       3.913E-02
 Gradient time:  CPU 7.71 s  wall 4.28 s
 Geometry Optimization Parameters
   NAtoms,    NIC,     NZ,  NCons,   NDum,   NFix, NCnnct, MaxDiis
       13     105       0       0       0       0       0       0


** GEOMETRY OPTIMIZATION IN DELOCALIZED INTERNAL COORDINATES **
   Searching for a Minimum

   Optimization Cycle:   1

                       Coordinates (Angstroms)
     ATOM                X               Y               Z
      1  C         1.6762327771    0.3118488429   -2.0498985554
      2  C         0.9809087917   -0.9649021283   -1.7960368139
      3  C        -0.6093837569   -0.9729785490   -2.1421837263
      4  C        -1.3571024570    0.4154489935   -0.5399014525
      5  C        -0.7167289281    0.7572674339   -1.9459244525
      6  N         0.9103578192    1.3429536066   -2.4054869361
      7  H         2.6187789141    0.7869825202   -1.7230626299
      8  H         1.5414952881   -1.8662665129   -1.4633349221
      9  H        -0.8875984786   -1.8673350253   -2.7224592729
     10  H        -2.4157052151    0.5873865979   -0.3837802757
     11  H        -1.3136397880    1.3715558277   -2.7252964269
     12  C        -0.9132013928   -0.9298521704   -0.7905408777
     13  H        -1.3062379895   -1.8160286993   -0.5293913518
   Point Group: c1    Number of degrees of freedom:    33


   Energy is   -286.675326062


 Attempting to Generate Delocalized Internal Coordinates

 33 Hessian modes will be used to form the next step
  Hessian Eigenvalues:
     0.005612    0.008623    0.012856    0.017119    0.019533    0.025077
     0.027973    0.042423    0.050034    0.056515    0.063709    0.070609
     0.095390    0.109302    0.116399    0.143756    0.151332    0.157660
     0.159543    0.172265    0.214507    0.219840    0.242266    0.279997
     0.323486    0.328495    0.331380    0.334822    0.353181    0.355416
     0.436774    0.469945    0.548794

 Minimum Search - Taking Simple RFO Step
 Searching for Lamda that Minimizes Along All modes
 Value Taken    Lamda =  -0.11583953
 Calculated Step too Large.  Step scaled by  0.464879
 Step Taken.  Stepsize is  0.300000

                             Maximum     Tolerance    Cnvgd?
         Gradient           0.093971      0.000600      NO
         Displacement       0.103218      0.002400      NO
         Energy change     *********      0.000002      NO


 New Cartesian Coordinates Obtained by Inverse Iteration

 Displacement from previous Coordinates is:  0.352534
 ----------------------------------------------------------------
             Standard Nuclear Orientation (Angstroms)
    I     Atom           X                Y                Z
 ----------------------------------------------------------------
    1      C       1.6317707372     0.3123350313    -2.0249901842
    2      C       0.9718512148    -0.9601777519    -1.8037835423
    3      C      -0.5774014161    -0.9506172496    -2.1615313511
    4      C      -1.3212781808     0.4130837223    -0.5768502710
    5      C      -0.7199591010     0.7505537704    -1.9863060634
    6      N       0.8579318997     1.3360449093    -2.3796709071
    7      H       2.5860454831     0.7459100452    -1.6879004606
    8      H       1.5215621622    -1.8633368091    -1.4879209484
    9      H      -0.8584344886    -1.8210258811    -2.7677281248
   10      H      -2.3713623992     0.6023310973    -0.3825791358
   11      H      -1.3158210106     1.3501673728    -2.7440785958
   12      C      -0.8984382169    -0.9326100969    -0.7779823251
   13      H      -1.2982910996    -1.8265774226    -0.4359757842
 ----------------------------------------------------------------
 Nuclear Repulsion Energy =   265.6535519534 hartrees
 There are       25 alpha and       24 beta electrons
 Applying Cartesian multipole field
    Component          Value
    ---------          -----
     (2,0,0)        1.00000E-11
     (0,2,0)        2.00000E-11
     (0,0,2)       -3.00000E-11
 Nucleus-field energy     =    -0.0000000116 hartrees
 Requested basis set is 6-31G(d)
 There are 40 shells and 117 basis functions
 A cutoff of  1.0D-14 yielded    807 shell pairs
 There are      7079 function pairs
 Smallest overlap matrix eigenvalue = 2.20E-03
 Guess MOs from SCF MO coefficient file
 Reading MOs from coefficient file
 Reading MOs from coefficient file
 An unrestricted hybrid HF-DFT SCF calculation will be
 performed using Pulay DIIS extrapolation
 Exchange:     0.2000 Hartree-Fock + 0.0800 Slater + 0.7200 B88
 Correlation:  0.1900 VWN1RPA + 0.8100 LYP
 Using SG-1 standard quadrature grid
 SCF converges when DIIS error is below 1.0E-08
 Geometry optimization detected.  Setting ReadMinima to 0
 Setting SaveMinima to 0
Using Q-Chem read-in guess as SCF_GUESS READ specified.

 using 4 threads for integral computing
 -------------------------------------------------------
 OpenMP Integral computing Module                
 Release: version 1.0, May 2013, Q-Chem Inc. Pittsburgh 
 -------------------------------------------------------
 -------------------------------------------------------
 OpenMP BLAS3 based DFT computing Module                
 Release: version 1.0, May 2013, Q-Chem Inc. Pittsburgh 
 -------------------------------------------------------
 ---------------------------------------
  Cycle       Energy         DIIS Error
 ---------------------------------------
    1    -286.7760716070      2.74E-03
    2    -286.7216973990      9.47E-04
    3    -286.7211522540      1.16E-03
    4    -286.7234012820      2.44E-04
    5    -286.7234877203      1.07E-04
    6    -286.7235098813      3.12E-05
    7    -286.7235136276      8.55E-06
    8    -286.7235150203      4.42E-06
    9    -286.7235155336      2.65E-06
   10    -286.7235158570      1.32E-06
   11    -286.7235159510      8.79E-07
   12    -286.7235159749      3.47E-07
   13    -286.7235159789      2.65E-07
   14    -286.7235159804      5.21E-08
   15    -286.7235159808      3.44E-08
   16    -286.7235159808      1.69E-08
   17    -286.7235159808      5.32E-09 Convergence criterion met
 ---------------------------------------
 <S^2> = 0.8819
 SCF time:  CPU 43.56 s  wall 30.86 s
 SCF   energy in the final basis set = -286.72351598
 Total energy in the final basis set = -286.72351598
 
 --------------------------------------------------------------
 
                    Orbital Energies (a.u.)
 --------------------------------------------------------------
 
 Alpha MOs
 -- Occupied --
-14.339 -10.247 -10.224 -10.222 -10.217 -10.216 -10.213  -0.909
 -0.850  -0.731  -0.647  -0.639  -0.537  -0.527  -0.512  -0.469
 -0.416  -0.394  -0.379  -0.363  -0.324  -0.318  -0.267  -0.240
 -0.194
 -- Virtual --
 -0.051   0.020   0.066   0.089   0.113   0.129   0.137   0.158
  0.168   0.190   0.202   0.207   0.273   0.330   0.338   0.393
  0.483   0.503   0.522   0.530   0.551   0.562   0.601   0.614
  0.619   0.627   0.642   0.688   0.701   0.743   0.759   0.788
  0.803   0.822   0.832   0.842   0.861   0.885   0.891   0.917
  0.953   0.958   1.029   1.066   1.083   1.173   1.236   1.292
  1.366   1.394   1.456   1.493   1.529   1.581   1.619   1.625
  1.687   1.791   1.814   1.843   1.909   1.924   1.982   2.000
  2.021   2.038   2.093   2.143   2.209   2.259   2.295   2.329
  2.339   2.394   2.440   2.470   2.486   2.531   2.559   2.586
  2.676   2.721   2.792   2.858   2.916   3.793   4.092   4.164
  4.290   4.369   4.443   4.578
 
 Beta MOs
 -- Occupied --
-14.329 -10.248 -10.225 -10.218 -10.217 -10.216 -10.207  -0.901
 -0.842  -0.718  -0.641  -0.634  -0.534  -0.522  -0.509  -0.464
 -0.412  -0.383  -0.375  -0.356  -0.323  -0.305  -0.242  -0.225
 -- Virtual --
 -0.088  -0.038   0.033   0.069   0.097   0.117   0.136   0.138
  0.162   0.170   0.190   0.205   0.212   0.277   0.333   0.343
  0.400   0.485   0.505   0.529   0.532   0.554   0.580   0.604
  0.616   0.622   0.639   0.643   0.692   0.710   0.748   0.765
  0.793   0.806   0.827   0.836   0.854   0.865   0.887   0.895
  0.922   0.955   0.964   1.037   1.067   1.086   1.177   1.243
  1.302   1.369   1.404   1.463   1.498   1.533   1.591   1.629
  1.630   1.694   1.799   1.827   1.851   1.916   1.936   1.990
  2.008   2.027   2.055   2.101   2.146   2.220   2.268   2.297
  2.334   2.343   2.401   2.446   2.481   2.493   2.534   2.573
  2.591   2.681   2.724   2.795   2.862   2.919   3.808   4.099
  4.170   4.291   4.371   4.448   4.581
 --------------------------------------------------------------
 
          Ground-State Mulliken Net Atomic Charges

     Atom                 Charge (a.u.)    Spin (a.u.)
  --------------------------------------------------------
      1 C                     0.089346      -0.208508
      2 C                    -0.186572       0.465733
      3 C                    -0.161233       0.050956
      4 C                    -0.111923       0.633943
      5 C                    -0.093879      -0.088343
      6 N                    -0.364610       0.469390
      7 H                     0.160271       0.020522
      8 H                     0.147492      -0.021421
      9 H                     0.166160       0.019242
     10 H                     0.170270      -0.034507
     11 H                     0.148890       0.012300
     12 C                    -0.108436      -0.330588
     13 H                     0.144226       0.011280
  --------------------------------------------------------
  Sum of atomic charges =    -0.000000
  Sum of spin   charges =     1.000000

 -----------------------------------------------------------------
                    Cartesian Multipole Moments
 -----------------------------------------------------------------
    Charge (ESU x 10^10)
                 0.0000
    Dipole Moment (Debye)
         X      -1.2852      Y      -2.7764      Z       0.6033
       Tot       3.1184
    Quadrupole Moments (Debye-Ang)
        XX     -35.8085     XY      -1.0747     YY     -41.6111
        XZ       2.9754     YZ       5.7966     ZZ     -45.7018
    Octopole Moments (Debye-Ang^2)
       XXX       4.2520    XXY       2.6497    XYY      -4.3217
       YYY     -11.0041    XXZ      64.2847    XYZ       3.9837
       YYZ      71.7043    XZZ      -8.5520    YZZ     -12.6184
       ZZZ     221.8545
    Hexadecapole Moments (Debye-Ang^3)
      XXXX    -326.0821   XXXY     -13.6890   XXYY     -98.5220
      XYYY     -21.0018   YYYY    -268.9744   XXXZ      39.5382
      XXYZ       3.2021   XYYZ      30.8697   YYYZ      44.8199
      XXZZ    -201.2318   XYZZ     -15.7043   YYZZ    -196.6544
      XZZZ      79.5600   YZZZ      49.0938   ZZZZ    -898.7892
 -----------------------------------------------------------------
 Calculating analytic gradient of the SCF energy
 Gradient of SCF Energy
            1           2           3           4           5           6
    1   0.0382586  -0.0037591  -0.0934175  -0.0322645  -0.0120380   0.0558472
    2  -0.0157776  -0.0002538  -0.0505240   0.0326231  -0.0069232   0.0268811
    3  -0.0187759   0.0086571   0.0073690   0.0459805   0.0800722  -0.0384159
            7           8           9          10          11          12
    1  -0.0097288   0.0093022   0.0110588  -0.0047437  -0.0042847   0.0384542
    2   0.0270066  -0.0069105  -0.0170010  -0.0144769   0.0160206  -0.0226668
    3   0.0104951   0.0025175   0.0100708  -0.0171076  -0.0234202  -0.0258878
           13
    1   0.0073153
    2   0.0320024
    3  -0.0415549
 Max gradient component =       9.342E-02
 RMS gradient           =       3.123E-02
 Gradient time:  CPU 7.75 s  wall 2.95 s
 Geometry Optimization Parameters
   NAtoms,    NIC,     NZ,  NCons,   NDum,   NFix, NCnnct, MaxDiis
       13     105       0       0       0       0       0       0

 Cartesian Hessian Update
 Hessian Updated using BFGS Update


** GEOMETRY OPTIMIZATION IN DELOCALIZED INTERNAL COORDINATES **
   Searching for a Minimum

   Optimization Cycle:   2

                       Coordinates (Angstroms)
     ATOM                X               Y               Z
      1  C         1.6317707372    0.3123350313   -2.0249901842
      2  C         0.9718512148   -0.9601777519   -1.8037835423
      3  C        -0.5774014161   -0.9506172496   -2.1615313511
      4  C        -1.3212781808    0.4130837223   -0.5768502710
      5  C        -0.7199591010    0.7505537704   -1.9863060634
      6  N         0.8579318997    1.3360449093   -2.3796709071
      7  H         2.5860454831    0.7459100452   -1.6879004606
      8  H         1.5215621622   -1.8633368091   -1.4879209484
      9  H        -0.8584344886   -1.8210258811   -2.7677281248
     10  H        -2.3713623992    0.6023310973   -0.3825791358
     11  H        -1.3158210106    1.3501673728   -2.7440785958
     12  C        -0.8984382169   -0.9326100969   -0.7779823251
     13  H        -1.2982910996   -1.8265774226   -0.4359757842
   Point Group: c1    Number of degrees of freedom:    33


   Energy is   -286.723515981

 Hessian Updated using BFGS Update

 33 Hessian modes will be used to form the next step
  Hessian Eigenvalues:
     0.005606    0.008678    0.012860    0.017149    0.019317    0.024425
     0.028108    0.041626    0.049544    0.056205    0.061456    0.070712
     0.094243    0.103273    0.112664    0.126831    0.146263    0.151743
     0.159523    0.172424    0.213353    0.222696    0.242656    0.280072
     0.323310    0.325041    0.331329    0.335050    0.352059    0.355421
     0.440008    0.538241    0.549450

 Minimum Search - Taking Simple RFO Step
 Searching for Lamda that Minimizes Along All modes
 Value Taken    Lamda =  -0.09965618
 Calculated Step too Large.  Step scaled by  0.408245
 Step Taken.  Stepsize is  0.300000

                             Maximum     Tolerance    Cnvgd?
         Gradient           0.063370      0.000600      NO
         Displacement       0.103551      0.002400      NO
         Energy change     -0.048190      0.000002      NO


 New Cartesian Coordinates Obtained by Inverse Iteration

 Displacement from previous Coordinates is:  0.336192
 ----------------------------------------------------------------
             Standard Nuclear Orientation (Angstroms)
    I     Atom           X                Y                Z
 ----------------------------------------------------------------
    1      C       1.5887639917     0.3132648186    -1.9981819990
    2      C       0.9649442499    -0.9568919734    -1.8113498332
    3      C      -0.5457448760    -0.9297274745    -2.1742209240
    4      C      -1.2871724783     0.4118164396    -0.6116974882
    5      C      -0.7174306125     0.7344810536    -2.0225561081
    6      N       0.7928829288     1.3201781793    -2.3447615215
    7      H       2.5527815015     0.7081860239    -1.6536012810
    8      H       1.5066420021    -1.8629211937    -1.5145777203
    9      H      -0.8373432218    -1.7741885688    -2.8067966193
   10      H      -2.3266215701     0.6199775478    -0.3799532132
   11      H      -1.3169680289     1.3181673570    -2.7617252202
   12      C      -0.8838908114    -0.9290881884    -0.7698923855
   13      H      -1.2826674908    -1.8171732836    -0.3679833802
 ----------------------------------------------------------------
 Nuclear Repulsion Energy =   269.1473441339 hartrees
 There are       25 alpha and       24 beta electrons
 Applying Cartesian multipole field
    Component          Value
    ---------          -----
     (2,0,0)        1.00000E-11
     (0,2,0)        2.00000E-11
     (0,0,2)       -3.00000E-11
 Nucleus-field energy     =    -0.0000000118 hartrees
 Requested basis set is 6-31G(d)
 There are 40 shells and 117 basis functions
 A cutoff of  1.0D-14 yielded    809 shell pairs
 There are      7081 function pairs
 Smallest overlap matrix eigenvalue = 1.94E-03
 Guess MOs from SCF MO coefficient file
 Reading MOs from coefficient file
 Reading MOs from coefficient file
 An unrestricted hybrid HF-DFT SCF calculation will be
 performed using Pulay DIIS extrapolation
 Exchange:     0.2000 Hartree-Fock + 0.0800 Slater + 0.7200 B88
 Correlation:  0.1900 VWN1RPA + 0.8100 LYP
 Using SG-1 standard quadrature grid
 SCF converges when DIIS error is below 1.0E-08
 Geometry optimization detected.  Setting ReadMinima to 0
 Setting SaveMinima to 0
Using Q-Chem read-in guess as SCF_GUESS READ specified.

 using 4 threads for integral computing
 -------------------------------------------------------
 OpenMP Integral computing Module                
 Release: version 1.0, May 2013, Q-Chem Inc. Pittsburgh 
 -------------------------------------------------------
 -------------------------------------------------------
 OpenMP BLAS3 based DFT computing Module                
 Release: version 1.0, May 2013, Q-Chem Inc. Pittsburgh 
 -------------------------------------------------------
 ---------------------------------------
  Cycle       Energy         DIIS Error
 ---------------------------------------
    1    -286.8240366731      2.79E-03
    2    -286.7584071363      9.32E-04
    3    -286.7581166315      1.07E-03
    4    -286.7600881366      1.23E-04
    5    -286.7601170584      3.78E-05
    6    -286.7601225275      1.78E-05
    7    -286.7601249207      1.04E-05
    8    -286.7601261715      3.86E-06
    9    -286.7601268244      3.11E-06
   10    -286.7601271311      1.48E-06
   11    -286.7601272337      7.42E-07
   12    -286.7601272597      3.87E-07
   13    -286.7601272657      2.24E-07
   14    -286.7601272675      6.02E-08
   15    -286.7601272680      2.62E-08
   16    -286.7601272681      1.28E-08
   17    -286.7601272681      5.56E-09 Convergence criterion met
 ---------------------------------------
 <S^2> = 0.8616
 SCF time:  CPU 43.78 s  wall 30.91 s
 SCF   energy in the final basis set = -286.76012727
 Total energy in the final basis set = -286.76012727
 
 --------------------------------------------------------------
 
                    Orbital Energies (a.u.)
 --------------------------------------------------------------
 
 Alpha MOs
 -- Occupied --
-14.331 -10.240 -10.218 -10.217 -10.214 -10.214 -10.211  -0.918
 -0.848  -0.737  -0.650  -0.637  -0.541  -0.528  -0.514  -0.473
 -0.416  -0.397  -0.381  -0.364  -0.331  -0.319  -0.266  -0.243
 -0.189
 -- Virtual --
 -0.046   0.031   0.081   0.100   0.127   0.136   0.147   0.158
  0.175   0.188   0.204   0.214   0.279   0.339   0.353   0.403
  0.485   0.503   0.521   0.534   0.549   0.565   0.601   0.606
  0.618   0.626   0.648   0.692   0.702   0.740   0.765   0.785
  0.813   0.833   0.837   0.847   0.859   0.880   0.891   0.918
  0.958   0.966   1.036   1.080   1.089   1.182   1.235   1.307
  1.375   1.400   1.458   1.494   1.531   1.622   1.631   1.639
  1.695   1.816   1.824   1.849   1.926   1.945   1.995   2.020
  2.050   2.072   2.112   2.149   2.233   2.272   2.310   2.335
  2.363   2.396   2.458   2.495   2.499   2.548   2.579   2.592
  2.692   2.749   2.827   2.867   2.947   3.813   4.116   4.193
  4.313   4.376   4.449   4.607
 
 Beta MOs
 -- Occupied --
-14.322 -10.241 -10.219 -10.218 -10.213 -10.212 -10.203  -0.910
 -0.840  -0.724  -0.647  -0.629  -0.538  -0.523  -0.510  -0.467
 -0.411  -0.385  -0.377  -0.358  -0.331  -0.304  -0.242  -0.229
 -- Virtual --
 -0.086  -0.033   0.046   0.083   0.105   0.132   0.142   0.150
  0.161   0.177   0.190   0.208   0.219   0.283   0.342   0.358
  0.409   0.488   0.506   0.529   0.536   0.553   0.577   0.605
  0.609   0.620   0.639   0.650   0.696   0.710   0.747   0.770
  0.792   0.816   0.838   0.840   0.859   0.862   0.883   0.896
  0.922   0.964   0.969   1.045   1.082   1.092   1.186   1.242
  1.317   1.378   1.410   1.466   1.502   1.535   1.629   1.638
  1.647   1.702   1.829   1.831   1.855   1.931   1.958   2.002
  2.021   2.060   2.088   2.118   2.154   2.244   2.280   2.309
  2.343   2.370   2.405   2.466   2.503   2.510   2.551   2.592
  2.599   2.697   2.752   2.830   2.872   2.950   3.828   4.121
  4.200   4.315   4.377   4.455   4.610
 --------------------------------------------------------------
 
          Ground-State Mulliken Net Atomic Charges

     Atom                 Charge (a.u.)    Spin (a.u.)
  --------------------------------------------------------
      1 C                     0.087036      -0.198013
      2 C                    -0.178538       0.467759
      3 C                    -0.158513       0.046589
      4 C                    -0.102039       0.594235
      5 C                    -0.086931      -0.070280
      6 N                    -0.368936       0.459134
      7 H                     0.153082       0.018841
      8 H                     0.148463      -0.021376
      9 H                     0.163463       0.020737
     10 H                     0.166641      -0.034274
     11 H                     0.149584       0.012861
     12 C                    -0.120351      -0.306544
     13 H                     0.147039       0.010329
  --------------------------------------------------------
  Sum of atomic charges =     0.000000
  Sum of spin   charges =     1.000000

 -----------------------------------------------------------------
                    Cartesian Multipole Moments
 -----------------------------------------------------------------
    Charge (ESU x 10^10)
                 0.0000
    Dipole Moment (Debye)
         X      -1.2880      Y      -2.8306      Z       0.5806
       Tot       3.1636
    Quadrupole Moments (Debye-Ang)
        XX     -36.0196     XY      -1.3225     YY     -41.6552
        XZ       2.9029     YZ       5.7550     ZZ     -45.0369
    Octopole Moments (Debye-Ang^2)
       XXX       4.8252    XXY       2.5125    XYY      -3.9586
       YYY     -10.7277    XXZ      64.6110    XYZ       4.5157
       YYZ      71.9766    XZZ      -8.3640    YZZ     -12.3878
       ZZZ     219.0267
    Hexadecapole Moments (Debye-Ang^3)
      XXXX    -313.7757   XXXY     -12.6656   XXYY     -95.2524
      XYYY     -19.3822   YYYY    -264.0523   XXXZ      35.4337
      XXYZ       2.9755   XYYZ      28.0881   YYYZ      42.8414
      XXZZ    -198.1393   XYZZ     -15.6174   YYZZ    -195.1068
      XZZZ      74.6558   YZZZ      47.4566   ZZZZ    -886.8252
 -----------------------------------------------------------------
 Calculating analytic gradient of the SCF energy
 Gradient of SCF Energy
            1           2           3           4           5           6
    1   0.0251245  -0.0030255  -0.0749058  -0.0186041  -0.0230202   0.0489963
    2  -0.0181174   0.0033036  -0.0357335   0.0277242  -0.0040534   0.0210288
    3  -0.0173468   0.0087426  -0.0036251   0.0368115   0.0684495  -0.0345349
            7           8           9          10          11          12
    1  -0.0082216   0.0064698   0.0121380  -0.0062258   0.0018449   0.0388839
    2   0.0208784  -0.0041739  -0.0145102  -0.0151257   0.0119176  -0.0128001
    3   0.0111323   0.0015756   0.0085835  -0.0173512  -0.0163113  -0.0146898
           13
    1   0.0005456
    2   0.0196616
    3  -0.0314360
 Max gradient component =       7.491E-02
 RMS gradient           =       2.550E-02
 Gradient time:  CPU 7.84 s  wall 5.29 s
 Geometry Optimization Parameters
   NAtoms,    NIC,     NZ,  NCons,   NDum,   NFix, NCnnct, MaxDiis
       13     105       0       0       0       0       0       0

 Cartesian Hessian Update
 Hessian Updated using BFGS Update


** GEOMETRY OPTIMIZATION IN DELOCALIZED INTERNAL COORDINATES **
   Searching for a Minimum

   Optimization Cycle:   3

                       Coordinates (Angstroms)
     ATOM                X               Y               Z
      1  C         1.5887639917    0.3132648186   -1.9981819990
      2  C         0.9649442499   -0.9568919734   -1.8113498332
      3  C        -0.5457448760   -0.9297274745   -2.1742209240
      4  C        -1.2871724783    0.4118164396   -0.6116974882
      5  C        -0.7174306125    0.7344810536   -2.0225561081
      6  N         0.7928829288    1.3201781793   -2.3447615215
      7  H         2.5527815015    0.7081860239   -1.6536012810
      8  H         1.5066420021   -1.8629211937   -1.5145777203
      9  H        -0.8373432218   -1.7741885688   -2.8067966193
     10  H        -2.3266215701    0.6199775478   -0.3799532132
     11  H        -1.3169680289    1.3181673570   -2.7617252202
     12  C        -0.8838908114   -0.9290881884   -0.7698923855
     13  H        -1.2826674908   -1.8171732836   -0.3679833802
   Point Group: c1    Number of degrees of freedom:    33


   Energy is   -286.760127268

 Hessian Updated using BFGS Update

 33 Hessian modes will be used to form the next step
  Hessian Eigenvalues:
     0.005612    0.008679    0.012854    0.017258    0.019094    0.023810
     0.027906    0.041410    0.049674    0.055523    0.060686    0.070457
     0.097744    0.108266    0.111802    0.125798    0.146367    0.152817
     0.159529    0.172797    0.214453    0.226041    0.248047    0.285431
     0.323769    0.331261    0.334391    0.339653    0.351667    0.355427
     0.434837    0.535384    0.549842

 Minimum Search - Taking Simple RFO Step
 Searching for Lamda that Minimizes Along All modes
 Value Taken    Lamda =  -0.07433033
 Calculated Step too Large.  Step scaled by  0.408469
 Step Taken.  Stepsize is  0.300000

                             Maximum     Tolerance    Cnvgd?
         Gradient           0.044914      0.000600      NO
         Displacement       0.122855      0.002400      NO
         Energy change     -0.036611      0.000002      NO


 New Cartesian Coordinates Obtained by Inverse Iteration

 Displacement from previous Coordinates is:  0.295168
 ----------------------------------------------------------------
             Standard Nuclear Orientation (Angstroms)
    I     Atom           X                Y                Z
 ----------------------------------------------------------------
    1      C       1.5572968453     0.3200246067    -1.9713644138
    2      C       0.9678125511    -0.9574349879    -1.8207049169
    3      C      -0.5180597258    -0.9174463505    -2.1831183642
    4      C      -1.2623025873     0.4093623070    -0.6420125076
    5      C      -0.7096310151     0.7153810862    -2.0558519040
    6      N       0.7319080964     1.3054211259    -2.3052164305
    7      H       2.5301989822     0.6862040487    -1.6295361851
    8      H       1.5066715091    -1.8662302970    -1.5451244352
    9      H      -0.8245838258    -1.7348108951    -2.8412980118
   10      H      -2.2862556908     0.6461407376    -0.3703418103
   11      H      -1.3177196683     1.2867425854    -2.7816196237
   12      C      -0.8843089254    -0.9301275882    -0.7632619885
   13      H      -1.2828509615    -1.8071456412    -0.3078471022
 ----------------------------------------------------------------
 Nuclear Repulsion Energy =   271.8542457682 hartrees
 There are       25 alpha and       24 beta electrons
 Applying Cartesian multipole field
    Component          Value
    ---------          -----
     (2,0,0)        1.00000E-11
     (0,2,0)        2.00000E-11
     (0,0,2)       -3.00000E-11
 Nucleus-field energy     =    -0.0000000119 hartrees
 Requested basis set is 6-31G(d)
 There are 40 shells and 117 basis functions
 A cutoff of  1.0D-14 yielded    809 shell pairs
 There are      7081 function pairs
 Smallest overlap matrix eigenvalue = 1.70E-03
 Guess MOs from SCF MO coefficient file
 Reading MOs from coefficient file
 Reading MOs from coefficient file
 An unrestricted hybrid HF-DFT SCF calculation will be
 performed using Pulay DIIS extrapolation
 Exchange:     0.2000 Hartree-Fock + 0.0800 Slater + 0.7200 B88
 Correlation:  0.1900 VWN1RPA + 0.8100 LYP
 Using SG-1 standard quadrature grid
 SCF converges when DIIS error is below 1.0E-08
 Geometry optimization detected.  Setting ReadMinima to 0
 Setting SaveMinima to 0
Using Q-Chem read-in guess as SCF_GUESS READ specified.

 using 4 threads for integral computing
 -------------------------------------------------------
 OpenMP Integral computing Module                
 Release: version 1.0, May 2013, Q-Chem Inc. Pittsburgh 
 -------------------------------------------------------
 -------------------------------------------------------
 OpenMP BLAS3 based DFT computing Module                
 Release: version 1.0, May 2013, Q-Chem Inc. Pittsburgh 
 -------------------------------------------------------
 ---------------------------------------
  Cycle       Energy         DIIS Error
 ---------------------------------------
    1    -286.8354213994      2.73E-03
    2    -286.7859052324      8.06E-04
    3    -286.7854631390      9.94E-04
    4    -286.7871303832      2.10E-04
    5    -286.7872001835      9.74E-05
    6    -286.7872226724      1.51E-05
    7    -286.7872285355      9.84E-06
    8    -286.7872312808      3.69E-06
    9    -286.7872325921      3.23E-06
   10    -286.7872330804      1.40E-06
   11    -286.7872332278      6.46E-07
   12    -286.7872332680      4.28E-07
   13    -286.7872332842      1.88E-07
   14    -286.7872332875      1.03E-07
   15    -286.7872332883      3.24E-08
   16    -286.7872332883      1.31E-08
   17    -286.7872332883      7.07E-09 Convergence criterion met
 ---------------------------------------
 <S^2> = 0.8437
 SCF time:  CPU 43.84 s  wall 43.75 s
 SCF   energy in the final basis set = -286.78723329
 Total energy in the final basis set = -286.78723329
 
 --------------------------------------------------------------
 
                    Orbital Energies (a.u.)
 --------------------------------------------------------------
 
 Alpha MOs
 -- Occupied --
-14.325 -10.233 -10.214 -10.214 -10.213 -10.212 -10.208  -0.927
 -0.846  -0.742  -0.656  -0.631  -0.545  -0.528  -0.515  -0.475
 -0.416  -0.400  -0.383  -0.363  -0.338  -0.318  -0.265  -0.244
 -0.185
 -- Virtual --
 -0.041   0.038   0.090   0.110   0.134   0.145   0.154   0.160
  0.180   0.189   0.203   0.227   0.283   0.345   0.365   0.412
  0.486   0.507   0.520   0.539   0.547   0.567   0.597   0.603
  0.618   0.624   0.653   0.692   0.703   0.742   0.768   0.782
  0.821   0.835   0.845   0.852   0.858   0.875   0.894   0.922
  0.959   0.974   1.042   1.089   1.098   1.194   1.236   1.321
  1.378   1.401   1.461   1.490   1.537   1.631   1.646   1.653
  1.723   1.813   1.845   1.868   1.932   1.961   2.006   2.027
  2.073   2.101   2.133   2.157   2.247   2.278   2.310   2.339
  2.397   2.401   2.477   2.506   2.524   2.562   2.590   2.605
  2.705   2.770   2.857   2.879   2.967   3.840   4.131   4.213
  4.333   4.380   4.453   4.634
 
 Beta MOs
 -- Occupied --
-14.316 -10.234 -10.217 -10.215 -10.210 -10.207 -10.200  -0.918
 -0.837  -0.728  -0.653  -0.623  -0.541  -0.524  -0.511  -0.469
 -0.410  -0.390  -0.378  -0.357  -0.337  -0.302  -0.243  -0.231
 -- Virtual --
 -0.084  -0.029   0.055   0.092   0.113   0.139   0.150   0.158
  0.163   0.182   0.192   0.207   0.232   0.288   0.349   0.369
  0.418   0.488   0.510   0.528   0.541   0.552   0.575   0.599
  0.610   0.619   0.638   0.656   0.696   0.712   0.749   0.771
  0.792   0.824   0.838   0.849   0.860   0.864   0.880   0.898
  0.926   0.966   0.975   1.051   1.092   1.100   1.199   1.243
  1.331   1.382   1.410   1.469   1.500   1.542   1.637   1.653
  1.660   1.734   1.821   1.854   1.874   1.936   1.972   2.012
  2.030   2.084   2.115   2.136   2.164   2.259   2.283   2.311
  2.349   2.404   2.412   2.486   2.515   2.533   2.565   2.600
  2.616   2.710   2.772   2.860   2.884   2.970   3.855   4.135
  4.219   4.336   4.382   4.461   4.636
 --------------------------------------------------------------
 
          Ground-State Mulliken Net Atomic Charges

     Atom                 Charge (a.u.)    Spin (a.u.)
  --------------------------------------------------------
      1 C                     0.081289      -0.191061
      2 C                    -0.169237       0.489670
      3 C                    -0.159866       0.039390
      4 C                    -0.094642       0.538470
      5 C                    -0.078445      -0.057896
      6 N                    -0.369473       0.453051
      7 H                     0.147471       0.016397
      8 H                     0.148553      -0.022409
      9 H                     0.161497       0.021955
     10 H                     0.163481      -0.032077
     11 H                     0.148792       0.014218
     12 C                    -0.127875      -0.279516
     13 H                     0.148455       0.009807
  --------------------------------------------------------
  Sum of atomic charges =    -0.000000
  Sum of spin   charges =     1.000000

 -----------------------------------------------------------------
                    Cartesian Multipole Moments
 -----------------------------------------------------------------
    Charge (ESU x 10^10)
                -0.0000
    Dipole Moment (Debye)
         X      -1.2711      Y      -2.8417      Z       0.5415
       Tot       3.1598
    Quadrupole Moments (Debye-Ang)
        XX     -36.1585     XY      -1.4796     YY     -41.6918
        XZ       2.7732     YZ       5.6462     ZZ     -44.3491
    Octopole Moments (Debye-Ang^2)
       XXX       5.5471    XXY       2.5943    XYY      -3.5750
       YYY     -10.2057    XXZ      64.7346    XYZ       4.7485
       YYZ      72.1095    XZZ      -8.0700    YZZ     -11.8754
       ZZZ     216.0692
    Hexadecapole Moments (Debye-Ang^3)
      XXXX    -305.4826   XXXY     -11.8822   XXYY     -92.6663
      XYYY     -18.1176   YYYY    -260.6822   XXXZ      31.7421
      XXYZ       2.4205   XYYZ      25.5589   YYYZ      40.3530
      XXZZ    -195.4685   XYZZ     -15.0119   YYZZ    -193.4354
      XZZZ      70.4932   YZZZ      44.5795   ZZZZ    -874.3900
 -----------------------------------------------------------------
 Calculating analytic gradient of the SCF energy
 Gradient of SCF Energy
            1           2           3           4           5           6
    1   0.0163758  -0.0049841  -0.0600964  -0.0065631  -0.0255785   0.0364071
    2  -0.0161061   0.0039628  -0.0220963   0.0270490  -0.0028463   0.0137744
    3  -0.0151927   0.0109902  -0.0115982   0.0296430   0.0556594  -0.0294259
            7           8           9          10          11          12
    1  -0.0066873   0.0043479   0.0119571  -0.0077946   0.0059785   0.0403303
    2   0.0152247  -0.0025671  -0.0122815  -0.0158702   0.0099658  -0.0094607
    3   0.0108688   0.0006595   0.0068050  -0.0173938  -0.0112364  -0.0068756
           13
    1  -0.0036927
    2   0.0112513
    3  -0.0229033
 Max gradient component =       6.010E-02
 RMS gradient           =       2.089E-02
 Gradient time:  CPU 7.55 s  wall 6.30 s
 Geometry Optimization Parameters
   NAtoms,    NIC,     NZ,  NCons,   NDum,   NFix, NCnnct, MaxDiis
       13     105       0       0       0       0       0       0

 Cartesian Hessian Update
 Hessian Updated using BFGS Update


** GEOMETRY OPTIMIZATION IN DELOCALIZED INTERNAL COORDINATES **
   Searching for a Minimum

   Optimization Cycle:   4

                       Coordinates (Angstroms)
     ATOM                X               Y               Z
      1  C         1.5572968453    0.3200246067   -1.9713644138
      2  C         0.9678125511   -0.9574349879   -1.8207049169
      3  C        -0.5180597258   -0.9174463505   -2.1831183642
      4  C        -1.2623025873    0.4093623070   -0.6420125076
      5  C        -0.7096310151    0.7153810862   -2.0558519040
      6  N         0.7319080964    1.3054211259   -2.3052164305
      7  H         2.5301989822    0.6862040487   -1.6295361851
      8  H         1.5066715091   -1.8662302970   -1.5451244352
      9  H        -0.8245838258   -1.7348108951   -2.8412980118
     10  H        -2.2862556908    0.6461407376   -0.3703418103
     11  H        -1.3177196683    1.2867425854   -2.7816196237
     12  C        -0.8843089254   -0.9301275882   -0.7632619885
     13  H        -1.2828509615   -1.8071456412   -0.3078471022
   Point Group: c1    Number of degrees of freedom:    33


   Energy is   -286.787233288

 Hessian Updated using BFGS Update

 33 Hessian modes will be used to form the next step
  Hessian Eigenvalues:
     0.005622    0.008677    0.012827    0.017380    0.018468    0.023145
     0.027719    0.041646    0.049838    0.054991    0.059516    0.070342
     0.098006    0.109825    0.121259    0.139765    0.145542    0.152234
     0.159528    0.172856    0.214566    0.228690    0.254853    0.288982
     0.323741    0.331215    0.334656    0.345083    0.352407    0.355442
     0.428987    0.535914    0.550391

 Minimum Search - Taking Simple RFO Step
 Searching for Lamda that Minimizes Along All modes
 Value Taken    Lamda =  -0.05410038
 Calculated Step too Large.  Step scaled by  0.402784
 Step Taken.  Stepsize is  0.300000

                             Maximum     Tolerance    Cnvgd?
         Gradient           0.030516      0.000600      NO
         Displacement       0.142907      0.002400      NO
         Energy change     -0.027106      0.000002      NO


 New Cartesian Coordinates Obtained by Inverse Iteration

 Displacement from previous Coordinates is:  0.260044
 ----------------------------------------------------------------
             Standard Nuclear Orientation (Angstroms)
    I     Atom           X                Y                Z
 ----------------------------------------------------------------
    1      C       1.5409770161     0.3296357599    -1.9497621154
    2      C       0.9839220508    -0.9583723708    -1.8349040431
    3      C      -0.4920569438    -0.9135022812    -2.1854257046
    4      C      -1.2539270747     0.4041340763    -0.6657457747
    5      C      -0.7018392320     0.6945139296    -2.0810335153
    6      N       0.6861351977     1.2948291457    -2.2636549759
    7      H       2.5237298729     0.6734779183    -1.6205861282
    8      H       1.5263310437    -1.8678562336    -1.5827831588
    9      H      -0.8123579834    -1.7051949652    -2.8666054907
   10      H      -2.2569689653     0.6794943244    -0.3539178004
   11      H      -1.3217571920     1.2530867464    -2.7974087276
   12      C      -0.9059901903    -0.9332153505    -0.7580253218
   13      H      -1.3080220153    -1.7949499617    -0.2574449371
 ----------------------------------------------------------------
 Nuclear Repulsion Energy =   273.4065682191 hartrees
 There are       25 alpha and       24 beta electrons
 Applying Cartesian multipole field
    Component          Value
    ---------          -----
     (2,0,0)        1.00000E-11
     (0,2,0)        2.00000E-11
     (0,0,2)       -3.00000E-11
 Nucleus-field energy     =    -0.0000000120 hartrees
 Requested basis set is 6-31G(d)
 There are 40 shells and 117 basis functions
 A cutoff of  1.0D-14 yielded    809 shell pairs
 There are      7081 function pairs
 Smallest overlap matrix eigenvalue = 1.51E-03
 Guess MOs from SCF MO coefficient file
 Reading MOs from coefficient file
 Reading MOs from coefficient file
 An unrestricted hybrid HF-DFT SCF calculation will be
 performed using Pulay DIIS extrapolation
 Exchange:     0.2000 Hartree-Fock + 0.0800 Slater + 0.7200 B88
 Correlation:  0.1900 VWN1RPA + 0.8100 LYP
 Using SG-1 standard quadrature grid
 SCF converges when DIIS error is below 1.0E-08
 Geometry optimization detected.  Setting ReadMinima to 0
 Setting SaveMinima to 0
Using Q-Chem read-in guess as SCF_GUESS READ specified.

 using 4 threads for integral computing
 -------------------------------------------------------
 OpenMP Integral computing Module                
 Release: version 1.0, May 2013, Q-Chem Inc. Pittsburgh 
 -------------------------------------------------------
 -------------------------------------------------------
 OpenMP BLAS3 based DFT computing Module                
 Release: version 1.0, May 2013, Q-Chem Inc. Pittsburgh 
 -------------------------------------------------------
 ---------------------------------------
  Cycle       Energy         DIIS Error
 ---------------------------------------
    1    -286.8391751449      2.41E-03
    2    -286.8059803814      6.38E-04
    3    -286.8054667303      8.94E-04
    4    -286.8068379129      2.27E-04
    5    -286.8069413027      6.35E-05
    6    -286.8069672347      1.70E-05
    7    -286.8069846903      1.20E-05
    8    -286.8069915342      5.18E-06
    9    -286.8069959643      3.98E-06
   10    -286.8069971935      1.42E-06
   11    -286.8069977466      1.02E-06
   12    -286.8069979609      5.32E-07
   13    -286.8069980478      2.11E-07
   14    -286.8069980549      1.50E-07
   15    -286.8069980553      4.46E-08
   16    -286.8069980554      1.73E-08
   17    -286.8069980554      8.54E-09 Convergence criterion met
 ---------------------------------------
 <S^2> = 0.8209
 SCF time:  CPU 43.89 s  wall 29.25 s
 SCF   energy in the final basis set = -286.80699806
 Total energy in the final basis set = -286.80699806
 
 --------------------------------------------------------------
 
                    Orbital Energies (a.u.)
 --------------------------------------------------------------
 
 Alpha MOs
 -- Occupied --
-14.320 -10.228 -10.212 -10.210 -10.210 -10.209 -10.205  -0.934
 -0.843  -0.745  -0.660  -0.627  -0.548  -0.527  -0.517  -0.476
 -0.415  -0.403  -0.384  -0.362  -0.344  -0.318  -0.265  -0.244
 -0.183
 -- Virtual --
 -0.036   0.039   0.095   0.118   0.136   0.152   0.152   0.166
  0.183   0.192   0.201   0.240   0.287   0.349   0.376   0.421
  0.487   0.512   0.520   0.543   0.546   0.570   0.590   0.606
  0.620   0.623   0.656   0.690   0.702   0.745   0.768   0.783
  0.824   0.835   0.846   0.855   0.863   0.872   0.897   0.925
  0.956   0.978   1.045   1.096   1.106   1.208   1.239   1.328
  1.379   1.401   1.463   1.488   1.544   1.621   1.650   1.663
  1.754   1.811   1.857   1.891   1.935   1.971   2.007   2.030
  2.084   2.122   2.146   2.174   2.251   2.267   2.314   2.343
  2.401   2.417   2.499   2.510   2.547   2.571   2.601   2.623
  2.713   2.786   2.870   2.899   2.978   3.864   4.141   4.224
  4.344   4.379   4.456   4.656
 
 Beta MOs
 -- Occupied --
-14.311 -10.229 -10.215 -10.213 -10.209 -10.202 -10.199  -0.924
 -0.835  -0.730  -0.658  -0.618  -0.543  -0.524  -0.513  -0.470
 -0.408  -0.394  -0.379  -0.354  -0.342  -0.300  -0.245  -0.232
 -- Virtual --
 -0.083  -0.024   0.059   0.097   0.120   0.141   0.154   0.157
  0.170   0.184   0.196   0.206   0.246   0.291   0.354   0.380
  0.426   0.489   0.516   0.529   0.544   0.552   0.574   0.594
  0.613   0.620   0.637   0.660   0.693   0.712   0.752   0.771
  0.794   0.827   0.839   0.848   0.863   0.869   0.879   0.901
  0.929   0.963   0.980   1.054   1.099   1.108   1.212   1.245
  1.339   1.384   1.410   1.471   1.498   1.549   1.629   1.652
  1.673   1.765   1.819   1.865   1.897   1.939   1.979   2.013
  2.035   2.095   2.134   2.147   2.184   2.264   2.268   2.321
  2.355   2.409   2.428   2.510   2.519   2.556   2.576   2.610
  2.633   2.717   2.788   2.874   2.903   2.982   3.879   4.145
  4.229   4.349   4.381   4.465   4.658
 --------------------------------------------------------------
 
          Ground-State Mulliken Net Atomic Charges

     Atom                 Charge (a.u.)    Spin (a.u.)
  --------------------------------------------------------
      1 C                     0.073836      -0.192315
      2 C                    -0.157523       0.535569
      3 C                    -0.166543       0.024461
      4 C                    -0.091643       0.436337
      5 C                    -0.070417      -0.049620
      6 N                    -0.366789       0.465212
      7 H                     0.143400       0.014016
      8 H                     0.147231      -0.024731
      9 H                     0.160848       0.022538
     10 H                     0.160593      -0.026079
     11 H                     0.148038       0.015770
     12 C                    -0.128863      -0.230324
     13 H                     0.147832       0.009166
  --------------------------------------------------------
  Sum of atomic charges =    -0.000000
  Sum of spin   charges =     1.000000

 -----------------------------------------------------------------
                    Cartesian Multipole Moments
 -----------------------------------------------------------------
    Charge (ESU x 10^10)
                -0.0000
    Dipole Moment (Debye)
         X      -1.2433      Y      -2.8047      Z       0.4819
       Tot       3.1055
    Quadrupole Moments (Debye-Ang)
        XX     -36.2251     XY      -1.5928     YY     -41.7317
        XZ       2.6153     YZ       5.4981     ZZ     -43.6556
    Octopole Moments (Debye-Ang^2)
       XXX       6.2963    XXY       2.8295    XYY      -3.2576
       YYY      -9.5158    XXZ      64.6775    XYZ       4.7975
       YYZ      72.1061    XZZ      -7.7271    YZZ     -11.2285
       ZZZ     213.1317
    Hexadecapole Moments (Debye-Ang^3)
      XXXX    -303.3635   XXXY     -11.6516   XXYY     -91.2488
      XYYY     -17.4700   YYYY    -258.6815   XXXZ      29.4184
      XXYZ       1.6171   XYYZ      23.7205   YYYZ      37.6748
      XXZZ    -193.6875   XYZZ     -14.2487   YYZZ    -191.6352
      XZZZ      67.9662   YZZZ      41.0422   ZZZZ    -862.2197
 -----------------------------------------------------------------
 Calculating analytic gradient of the SCF energy
 Gradient of SCF Energy
            1           2           3           4           5           6
    1   0.0108870  -0.0074543  -0.0511403   0.0034968  -0.0222226   0.0228198
    2  -0.0101577   0.0026308  -0.0123007   0.0294605  -0.0010847   0.0046587
    3  -0.0128930   0.0155219  -0.0190270   0.0255465   0.0421491  -0.0233406
            7           8           9          10          11          12
    1  -0.0052218   0.0026473   0.0111779  -0.0096637   0.0077564   0.0428355
    2   0.0103043  -0.0014358  -0.0102547  -0.0167486   0.0089572  -0.0100735
    3   0.0099300  -0.0003491   0.0051805  -0.0176677  -0.0071240  -0.0018898
           13
    1  -0.0059180
    2   0.0060443
    3  -0.0160367
 Max gradient component =       5.114E-02
 RMS gradient           =       1.780E-02
 Gradient time:  CPU 7.44 s  wall 2.13 s
 Geometry Optimization Parameters
   NAtoms,    NIC,     NZ,  NCons,   NDum,   NFix, NCnnct, MaxDiis
       13     105       0       0       0       0       0       0

 Cartesian Hessian Update
 Hessian Updated using BFGS Update


** GEOMETRY OPTIMIZATION IN DELOCALIZED INTERNAL COORDINATES **
   Searching for a Minimum

   Optimization Cycle:   5

                       Coordinates (Angstroms)
     ATOM                X               Y               Z
      1  C         1.5409770161    0.3296357599   -1.9497621154
      2  C         0.9839220508   -0.9583723708   -1.8349040431
      3  C        -0.4920569438   -0.9135022812   -2.1854257046
      4  C        -1.2539270747    0.4041340763   -0.6657457747
      5  C        -0.7018392320    0.6945139296   -2.0810335153
      6  N         0.6861351977    1.2948291457   -2.2636549759
      7  H         2.5237298729    0.6734779183   -1.6205861282
      8  H         1.5263310437   -1.8678562336   -1.5827831588
      9  H        -0.8123579834   -1.7051949652   -2.8666054907
     10  H        -2.2569689653    0.6794943244   -0.3539178004
     11  H        -1.3217571920    1.2530867464   -2.7974087276
     12  C        -0.9059901903   -0.9332153505   -0.7580253218
     13  H        -1.3080220153   -1.7949499617   -0.2574449371
   Point Group: c1    Number of degrees of freedom:    33


   Energy is   -286.806998055

 Hessian Updated using BFGS Update

 33 Hessian modes will be used to form the next step
  Hessian Eigenvalues:
     0.005626    0.008668    0.012713    0.014818    0.017816    0.022154
     0.027612    0.041345    0.049514    0.054150    0.057817    0.070078
     0.098037    0.107002    0.120522    0.143883    0.151401    0.159470
     0.172626    0.189477    0.215159    0.231543    0.267480    0.299903
     0.324028    0.331175    0.334597    0.341593    0.355413    0.366472
     0.423871    0.548150    0.550549

 Minimum Search - Taking Simple RFO Step
 Searching for Lamda that Minimizes Along All modes
 Value Taken    Lamda =  -0.04543846
 Calculated Step too Large.  Step scaled by  0.368386
 Step Taken.  Stepsize is  0.300000

                             Maximum     Tolerance    Cnvgd?
         Gradient           0.024745      0.000600      NO
         Displacement       0.152552      0.002400      NO
         Energy change     -0.019765      0.000002      NO


 New Cartesian Coordinates Obtained by Inverse Iteration

 Displacement from previous Coordinates is:  0.260373
 ----------------------------------------------------------------
             Standard Nuclear Orientation (Angstroms)
    I     Atom           X                Y                Z
 ----------------------------------------------------------------
    1      C       1.5373004356     0.3389202354    -1.9367145052
    2      C       1.0106424622    -0.9574826215    -1.8542231360
    3      C      -0.4651690627    -0.9138371511    -2.1788729190
    4      C      -1.2609268893     0.3953634409    -0.6823888434
    5      C      -0.6959776936     0.6731431741    -2.0955116550
    6      N       0.6569134807     1.2887251243    -2.2252149646
    7      H       2.5302737289     0.6653196620    -1.6267776370
    8      H       1.5615244138    -1.8655380206    -1.6264916428
    9      H      -0.7958551727    -1.6827188244    -2.8799328822
   10      H      -2.2396222450     0.7135302709    -0.3345258540
   11      H      -1.3266296671     1.2181911767    -2.8066259521
   12      C      -0.9458981559    -0.9365020663    -0.7526311695
   13      H      -1.3584000507    -1.7810336628    -0.2173865328
 ----------------------------------------------------------------
 Nuclear Repulsion Energy =   273.9927473266 hartrees
 There are       25 alpha and       24 beta electrons
 Applying Cartesian multipole field
    Component          Value
    ---------          -----
     (2,0,0)        1.00000E-11
     (0,2,0)        2.00000E-11
     (0,0,2)       -3.00000E-11
 Nucleus-field energy     =    -0.0000000119 hartrees
 Requested basis set is 6-31G(d)
 There are 40 shells and 117 basis functions
 A cutoff of  1.0D-14 yielded    809 shell pairs
 There are      7081 function pairs
 Smallest overlap matrix eigenvalue = 1.35E-03
 Guess MOs from SCF MO coefficient file
 Reading MOs from coefficient file
 Reading MOs from coefficient file
 An unrestricted hybrid HF-DFT SCF calculation will be
 performed using Pulay DIIS extrapolation
 Exchange:     0.2000 Hartree-Fock + 0.0800 Slater + 0.7200 B88
 Correlation:  0.1900 VWN1RPA + 0.8100 LYP
 Using SG-1 standard quadrature grid
 SCF converges when DIIS error is below 1.0E-08
 Geometry optimization detected.  Setting ReadMinima to 0
 Setting SaveMinima to 0
Using Q-Chem read-in guess as SCF_GUESS READ specified.

 using 4 threads for integral computing
 -------------------------------------------------------
 OpenMP Integral computing Module                
 Release: version 1.0, May 2013, Q-Chem Inc. Pittsburgh 
 -------------------------------------------------------
 -------------------------------------------------------
 OpenMP BLAS3 based DFT computing Module                
 Release: version 1.0, May 2013, Q-Chem Inc. Pittsburgh 
 -------------------------------------------------------
 ---------------------------------------
  Cycle       Energy         DIIS Error
 ---------------------------------------
    1    -286.8438292171      2.13E-03
    2    -286.8218887615      4.73E-04
    3    -286.8216322096      7.02E-04
    4    -286.8225133754      1.84E-04
    5    -286.8225986123      4.36E-05
    6    -286.8226349315      1.90E-05
    7    -286.8226636429      1.10E-05
    8    -286.8226762512      4.35E-06
    9    -286.8226852540      2.76E-06
   10    -286.8226876459      1.22E-06
   11    -286.8226893431      7.85E-07
   12    -286.8226898268      3.94E-07
   13    -286.8226899006      2.32E-07
   14    -286.8226899019      1.18E-07
   15    -286.8226899020      5.28E-08
   16    -286.8226899021      1.17E-08
   17    -286.8226899021      5.42E-09 Convergence criterion met
 ---------------------------------------
 <S^2> = 0.7950
 SCF time:  CPU 43.78 s  wall 34.08 s
 SCF   energy in the final basis set = -286.82268990
 Total energy in the final basis set = -286.82268990
 
 --------------------------------------------------------------
 
                    Orbital Energies (a.u.)
 --------------------------------------------------------------
 
 Alpha MOs
 -- Occupied --
-14.318 -10.225 -10.209 -10.209 -10.209 -10.206 -10.202  -0.937
 -0.841  -0.746  -0.663  -0.623  -0.549  -0.526  -0.518  -0.477
 -0.414  -0.404  -0.384  -0.360  -0.348  -0.318  -0.265  -0.243
 -0.185
 -- Virtual --
 -0.029   0.038   0.098   0.124   0.138   0.150   0.156   0.169
  0.185   0.194   0.202   0.250   0.290   0.353   0.386   0.429
  0.488   0.514   0.522   0.542   0.552   0.574   0.587   0.610
  0.621   0.623   0.657   0.687   0.699   0.746   0.767   0.785
  0.824   0.837   0.843   0.857   0.867   0.873   0.901   0.928
  0.951   0.981   1.043   1.101   1.110   1.220   1.241   1.330
  1.383   1.403   1.464   1.487   1.549   1.611   1.642   1.674
  1.762   1.821   1.862   1.909   1.935   1.978   1.996   2.029
  2.085   2.137   2.158   2.193   2.240   2.255   2.328   2.344
  2.400   2.424   2.510   2.523   2.561   2.580   2.614   2.640
  2.716   2.798   2.878   2.917   2.985   3.881   4.146   4.229
  4.346   4.372   4.457   4.672
 
 Beta MOs
 -- Occupied --
-14.309 -10.226 -10.211 -10.211 -10.208 -10.198 -10.198  -0.927
 -0.833  -0.731  -0.662  -0.614  -0.544  -0.523  -0.514  -0.471
 -0.406  -0.397  -0.379  -0.352  -0.346  -0.298  -0.248  -0.232
 -- Virtual --
 -0.082  -0.020   0.060   0.100   0.125   0.143   0.153   0.160
  0.173   0.187   0.198   0.206   0.256   0.294   0.358   0.389
  0.433   0.490   0.519   0.532   0.544   0.557   0.575   0.592
  0.617   0.621   0.637   0.661   0.690   0.711   0.752   0.770
  0.798   0.828   0.840   0.846   0.866   0.874   0.878   0.905
  0.932   0.957   0.983   1.052   1.105   1.113   1.224   1.247
  1.341   1.389   1.413   1.472   1.498   1.555   1.619   1.644
  1.683   1.772   1.830   1.870   1.915   1.939   1.984   2.004
  2.035   2.094   2.145   2.159   2.205   2.242   2.268   2.337
  2.357   2.407   2.434   2.520   2.532   2.572   2.585   2.623
  2.649   2.720   2.801   2.882   2.920   2.988   3.896   4.150
  4.232   4.353   4.372   4.467   4.674
 --------------------------------------------------------------
 
          Ground-State Mulliken Net Atomic Charges

     Atom                 Charge (a.u.)    Spin (a.u.)
  --------------------------------------------------------
      1 C                     0.066486      -0.200661
      2 C                    -0.143725       0.586832
      3 C                    -0.176807       0.003235
      4 C                    -0.091741       0.295155
      5 C                    -0.063499      -0.042829
      6 N                    -0.363807       0.490029
      7 H                     0.140925       0.012018
      8 H                     0.145232      -0.027380
      9 H                     0.160709       0.022774
     10 H                     0.157016      -0.016328
     11 H                     0.148186       0.016685
     12 C                    -0.124522      -0.147243
     13 H                     0.145547       0.007712
  --------------------------------------------------------
  Sum of atomic charges =    -0.000000
  Sum of spin   charges =     1.000000

 -----------------------------------------------------------------
                    Cartesian Multipole Moments
 -----------------------------------------------------------------
    Charge (ESU x 10^10)
                -0.0000
    Dipole Moment (Debye)
         X      -1.1926      Y      -2.7316      Z       0.4053
       Tot       3.0080
    Quadrupole Moments (Debye-Ang)
        XX     -36.2355     XY      -1.6900     YY     -41.7957
        XZ       2.4166     YZ       5.3288     ZZ     -43.0015
    Octopole Moments (Debye-Ang^2)
       XXX       7.0759    XXY       3.0716    XYY      -2.9998
       YYY      -8.7392    XXZ      64.4854    XYZ       4.8077
       YYZ      72.0479    XZZ      -7.2882    YZZ     -10.5299
       ZZZ     210.4396
    Hexadecapole Moments (Debye-Ang^3)
      XXXX    -306.7921   XXXY     -11.8771   XXYY     -90.8884
      XYYY     -17.4630   YYYY    -257.4686   XXXZ      28.5974
      XXYZ       0.7790   XYYZ      22.6137   YYYZ      35.1244
      XXZZ    -192.7555   XYZZ     -13.7161   YYZZ    -189.9419
      XZZZ      67.0339   YZZZ      37.3830   ZZZZ    -851.2837
 -----------------------------------------------------------------
 Calculating analytic gradient of the SCF energy
 Gradient of SCF Energy
            1           2           3           4           5           6
    1   0.0069630  -0.0076968  -0.0443076   0.0117986  -0.0187507   0.0128456
    2  -0.0046579   0.0019557  -0.0050908   0.0291503   0.0002943  -0.0036910
    3  -0.0106621   0.0187841  -0.0254357   0.0232455   0.0300055  -0.0184443
            7           8           9          10          11          12
    1  -0.0040647   0.0012466   0.0103630  -0.0113608   0.0081160   0.0418541
    2   0.0062187  -0.0006323  -0.0084713  -0.0174120   0.0082618  -0.0088416
    3   0.0089087  -0.0010565   0.0041013  -0.0175337  -0.0035255   0.0019419
           13
    1  -0.0070063
    2   0.0029162
    3  -0.0103292
 Max gradient component =       4.431E-02
 RMS gradient           =       1.581E-02
 Gradient time:  CPU 7.84 s  wall 2.37 s
 Geometry Optimization Parameters
   NAtoms,    NIC,     NZ,  NCons,   NDum,   NFix, NCnnct, MaxDiis
       13     105       0       0       0       0       0       0

 Cartesian Hessian Update
 Hessian Updated using BFGS Update


** GEOMETRY OPTIMIZATION IN DELOCALIZED INTERNAL COORDINATES **
   Searching for a Minimum

   Optimization Cycle:   6

                       Coordinates (Angstroms)
     ATOM                X               Y               Z
      1  C         1.5373004356    0.3389202354   -1.9367145052
      2  C         1.0106424622   -0.9574826215   -1.8542231360
      3  C        -0.4651690627   -0.9138371511   -2.1788729190
      4  C        -1.2609268893    0.3953634409   -0.6823888434
      5  C        -0.6959776936    0.6731431741   -2.0955116550
      6  N         0.6569134807    1.2887251243   -2.2252149646
      7  H         2.5302737289    0.6653196620   -1.6267776370
      8  H         1.5615244138   -1.8655380206   -1.6264916428
      9  H        -0.7958551727   -1.6827188244   -2.8799328822
     10  H        -2.2396222450    0.7135302709   -0.3345258540
     11  H        -1.3266296671    1.2181911767   -2.8066259521
     12  C        -0.9458981559   -0.9365020663   -0.7526311695
     13  H        -1.3584000507   -1.7810336628   -0.2173865328
   Point Group: c1    Number of degrees of freedom:    33


   Energy is   -286.822689902

 Hessian Updated using BFGS Update

 33 Hessian modes will be used to form the next step
  Hessian Eigenvalues:
     0.005626    0.008668    0.011321    0.013262    0.017825    0.021771
     0.027750    0.041585    0.048967    0.053691    0.057559    0.069890
     0.098152    0.105658    0.119309    0.143299    0.151593    0.159441
     0.172597    0.210210    0.222191    0.235854    0.275521    0.316823
     0.325357    0.331391    0.334560    0.341175    0.355439    0.394158
     0.426717    0.549258    0.594338

 Minimum Search - Taking Simple RFO Step
 Searching for Lamda that Minimizes Along All modes
 Value Taken    Lamda =  -0.04042007
 Calculated Step too Large.  Step scaled by  0.350425
 Step Taken.  Stepsize is  0.300000

                             Maximum     Tolerance    Cnvgd?
         Gradient           0.023629      0.000600      NO
         Displacement       0.155068      0.002400      NO
         Energy change     -0.015692      0.000002      NO


 New Cartesian Coordinates Obtained by Inverse Iteration

 Displacement from previous Coordinates is:  0.270899
 ----------------------------------------------------------------
             Standard Nuclear Orientation (Angstroms)
    I     Atom           X                Y                Z
 ----------------------------------------------------------------
    1      C       1.5396369824     0.3474728917    -1.9286997595
    2      C       1.0409848579    -0.9559400231    -1.8750271064
    3      C      -0.4381918229    -0.9170396362    -2.1648529821
    4      C      -1.2768414091     0.3854551053    -0.6942836847
    5      C      -0.6903763384     0.6521551341    -2.1013685931
    6      N       0.6379247850     1.2869009545    -2.1884943993
    7      H       2.5431215463     0.6611671419    -1.6446965841
    8      H       1.6038080527    -1.8609495885    -1.6730735880
    9      H      -0.7777153287    -1.6651941352    -2.8835290716
   10      H      -2.2293094793     0.7483033334    -0.3166241483
   11      H      -1.3294197807     1.1829770743    -2.8115066587
   12      C      -0.9938619386    -0.9405675232    -0.7473592156
   13      H      -1.4215845425    -1.7686599914    -0.1877819024
 ----------------------------------------------------------------
 Nuclear Repulsion Energy =   274.0303347136 hartrees
 There are       25 alpha and       24 beta electrons
 Applying Cartesian multipole field
    Component          Value
    ---------          -----
     (2,0,0)        1.00000E-11
     (0,2,0)        2.00000E-11
     (0,0,2)       -3.00000E-11
 Nucleus-field energy     =    -0.0000000118 hartrees
 Requested basis set is 6-31G(d)
 There are 40 shells and 117 basis functions
 A cutoff of  1.0D-14 yielded    808 shell pairs
 There are      7080 function pairs
 Smallest overlap matrix eigenvalue = 1.24E-03
 Guess MOs from SCF MO coefficient file
 Reading MOs from coefficient file
 Reading MOs from coefficient file
 An unrestricted hybrid HF-DFT SCF calculation will be
 performed using Pulay DIIS extrapolation
 Exchange:     0.2000 Hartree-Fock + 0.0800 Slater + 0.7200 B88
 Correlation:  0.1900 VWN1RPA + 0.8100 LYP
 Using SG-1 standard quadrature grid
 SCF converges when DIIS error is below 1.0E-08
 Geometry optimization detected.  Setting ReadMinima to 0
 Setting SaveMinima to 0
Using Q-Chem read-in guess as SCF_GUESS READ specified.

 using 4 threads for integral computing
 -------------------------------------------------------
 OpenMP Integral computing Module                
 Release: version 1.0, May 2013, Q-Chem Inc. Pittsburgh 
 -------------------------------------------------------
 -------------------------------------------------------
 OpenMP BLAS3 based DFT computing Module                
 Release: version 1.0, May 2013, Q-Chem Inc. Pittsburgh 
 -------------------------------------------------------
 ---------------------------------------
  Cycle       Energy         DIIS Error
 ---------------------------------------
    1    -286.8499482195      1.93E-03
    2    -286.8352947900      3.59E-04
    3    -286.8352148127      5.19E-04
    4    -286.8356935105      1.40E-04
    5    -286.8357444512      3.39E-05
    6    -286.8357689877      1.68E-05
    7    -286.8357852381      8.46E-06
    8    -286.8357936537      3.61E-06
    9    -286.8357993718      2.86E-06
   10    -286.8358019018      1.01E-06
   11    -286.8358032167      7.29E-07
   12    -286.8358039152      3.95E-07
   13    -286.8358041355      1.44E-07
   14    -286.8358041421      7.28E-08
   15    -286.8358041422      3.54E-08
   16    -286.8358041423      7.66E-09 Convergence criterion met
 ---------------------------------------
 <S^2> = 0.7813
 SCF time:  CPU 41.27 s  wall 25.47 s
 SCF   energy in the final basis set = -286.83580414
 Total energy in the final basis set = -286.83580414
 
 --------------------------------------------------------------
 
                    Orbital Energies (a.u.)
 --------------------------------------------------------------
[...]
     0.222755    0.238423    0.256918    0.272439    0.291182    0.316271
     0.324968    0.331781    0.334666    0.355628    0.369211    0.386623
     0.437104    0.538873    0.577266

 Minimum Search - Taking Simple RFO Step
 Searching for Lamda that Minimizes Along All modes
 Value Taken    Lamda =  -0.00000278
 Step Taken.  Stepsize is  0.005754

                             Maximum     Tolerance    Cnvgd?
         Gradient           0.000423      0.000600     YES
         Displacement       0.002502      0.002400      NO
         Energy change     -0.000002      0.000002      NO


 New Cartesian Coordinates Obtained by Inverse Iteration

 Displacement from previous Coordinates is:  0.006476
 ----------------------------------------------------------------
             Standard Nuclear Orientation (Angstroms)
    I     Atom           X                Y                Z
 ----------------------------------------------------------------
    1      C       1.5201082916     0.3799822248    -1.8553281715
    2      C       1.1011031061    -0.9579837700    -1.9250898435
    3      C      -0.3834957341    -0.9734613415    -2.0848432552
    4      C      -1.4707401285     0.3357380788    -0.8166144713
    5      C      -0.6912116943     0.5770520297    -2.1096047794
    6      N       0.5663331470     1.3005843891    -1.9523876423
    7      H       2.5519121562     0.6952320927    -1.7058051737
    8      H       1.7438172621    -1.8269747852    -1.8351620399
    9      H      -0.7548328588    -1.6019732208    -2.9049649288
   10      H      -1.9929666279     1.0204817158    -0.1552515684
   11      H      -1.2690077801     0.9728788048    -2.9539696004
   12      C      -1.2245015017    -0.9787609584    -0.7977858334
   13      H      -1.4883420534    -1.7867145221    -0.1204903860
 ----------------------------------------------------------------
 Nuclear Repulsion Energy =   273.0327318612 hartrees
 There are       25 alpha and       24 beta electrons
 Applying Cartesian multipole field
    Component          Value
    ---------          -----
     (2,0,0)        1.00000E-11
     (0,2,0)        2.00000E-11
     (0,0,2)       -3.00000E-11
 Nucleus-field energy     =    -0.0000000109 hartrees
 Requested basis set is 6-31G(d)
 There are 40 shells and 117 basis functions
 A cutoff of  1.0D-14 yielded    806 shell pairs
 There are      7078 function pairs
 Smallest overlap matrix eigenvalue = 9.73E-04
 Guess MOs from SCF MO coefficient file
 Reading MOs from coefficient file
 Reading MOs from coefficient file
 An unrestricted hybrid HF-DFT SCF calculation will be
 performed using Pulay DIIS extrapolation
 Exchange:     0.2000 Hartree-Fock + 0.0800 Slater + 0.7200 B88
 Correlation:  0.1900 VWN1RPA + 0.8100 LYP
 Using SG-1 standard quadrature grid
 SCF converges when DIIS error is below 1.0E-08
 Geometry optimization detected.  Setting ReadMinima to 0
 Setting SaveMinima to 0
Using Q-Chem read-in guess as SCF_GUESS READ specified.

 using 4 threads for integral computing
 -------------------------------------------------------
 OpenMP Integral computing Module                
 Release: version 1.0, May 2013, Q-Chem Inc. Pittsburgh 
 -------------------------------------------------------
 -------------------------------------------------------
 OpenMP BLAS3 based DFT computing Module                
 Release: version 1.0, May 2013, Q-Chem Inc. Pittsburgh 
 -------------------------------------------------------
 ---------------------------------------
  Cycle       Energy         DIIS Error
 ---------------------------------------
    1    -286.8754885732      3.79E-05
    2    -286.8754514694      6.22E-06
    3    -286.8754514740      7.56E-06
    4    -286.8754515646      1.91E-06
    5    -286.8754515705      8.17E-07
    6    -286.8754515721      2.56E-07
    7    -286.8754515725      9.37E-08
    8    -286.8754515725      3.41E-08
    9    -286.8754515726      1.96E-08
   10    -286.8754515726      1.13E-08
   11    -286.8754515726      3.41E-09 Convergence criterion met
 ---------------------------------------
 <S^2> = 0.7770
 SCF time:  CPU 28.45 s  wall 22.74 s
 SCF   energy in the final basis set = -286.87545157
 Total energy in the final basis set = -286.87545157
 
 --------------------------------------------------------------
 
                    Orbital Energies (a.u.)
 --------------------------------------------------------------
 
 Alpha MOs
 -- Occupied --
-14.328 -10.217 -10.216 -10.207 -10.202 -10.200 -10.195  -0.944
 -0.837  -0.752  -0.665  -0.618  -0.554  -0.523  -0.515  -0.481
 -0.428  -0.402  -0.386  -0.355  -0.341  -0.322  -0.270  -0.253
 -0.203
 -- Virtual --
  0.012   0.031   0.114   0.130   0.143   0.147   0.160   0.166
  0.186   0.188   0.216   0.266   0.295   0.363   0.409   0.452
  0.486   0.502   0.531   0.544   0.575   0.593   0.597   0.618
  0.624   0.634   0.654   0.680   0.695   0.747   0.774   0.786
  0.813   0.825   0.839   0.855   0.860   0.876   0.910   0.927
  0.956   0.970   1.018   1.065   1.090   1.170   1.234   1.411
  1.420   1.436   1.471   1.496   1.520   1.572   1.637   1.694
  1.761   1.821   1.882   1.887   1.934   1.948   1.977   2.028
  2.051   2.143   2.174   2.211   2.222   2.265   2.309   2.353
  2.412   2.425   2.522   2.560   2.573   2.606   2.618   2.674
  2.693   2.864   2.907   2.917   2.993   3.909   4.085   4.197
  4.295   4.372   4.448   4.716
 
 Beta MOs
 -- Occupied --
-14.318 -10.219 -10.218 -10.203 -10.199 -10.198 -10.194  -0.932
 -0.831  -0.734  -0.665  -0.610  -0.549  -0.520  -0.512  -0.475
 -0.420  -0.396  -0.381  -0.343  -0.334  -0.301  -0.264  -0.246
 -- Virtual --
 -0.087   0.016   0.054   0.116   0.132   0.147   0.149   0.162
  0.167   0.190   0.193   0.222   0.270   0.297   0.368   0.414
  0.455   0.491   0.509   0.534   0.548   0.579   0.598   0.613
  0.618   0.629   0.634   0.661   0.684   0.707   0.751   0.776
  0.794   0.821   0.831   0.845   0.859   0.863   0.884   0.913
  0.931   0.963   0.975   1.025   1.070   1.094   1.176   1.238
  1.418   1.436   1.441   1.478   1.504   1.524   1.579   1.639
  1.698   1.773   1.828   1.898   1.900   1.938   1.954   1.979
  2.031   2.053   2.148   2.185   2.225   2.234   2.269   2.321
  2.357   2.417   2.431   2.534   2.569   2.584   2.616   2.626
  2.678   2.697   2.867   2.908   2.919   2.996   3.924   4.094
  4.195   4.301   4.375   4.457   4.716
 --------------------------------------------------------------
 
          Ground-State Mulliken Net Atomic Charges

     Atom                 Charge (a.u.)    Spin (a.u.)
  --------------------------------------------------------
      1 C                     0.048213      -0.230894
      2 C                    -0.114770       0.693623
      3 C                    -0.193350      -0.054078
      4 C                    -0.075739       0.031699
      5 C                    -0.062454      -0.027584
      6 N                    -0.351303       0.517004
      7 H                     0.140556       0.007444
      8 H                     0.143387      -0.032161
      9 H                     0.148098       0.025234
     10 H                     0.137390       0.003583
     11 H                     0.151570       0.025341
     12 C                    -0.104885       0.033915
     13 H                     0.133287       0.006874
  --------------------------------------------------------
  Sum of atomic charges =    -0.000000
  Sum of spin   charges =     1.000000

 -----------------------------------------------------------------
                    Cartesian Multipole Moments
 -----------------------------------------------------------------
    Charge (ESU x 10^10)
                -0.0000
    Dipole Moment (Debye)
         X      -0.2980      Y      -2.1300      Z       0.1096
       Tot       2.1536
    Quadrupole Moments (Debye-Ang)
        XX     -37.3651     XY      -2.0897     YY     -42.0467
        XZ       0.1921     YZ       3.9284     ZZ     -40.3379
    Octopole Moments (Debye-Ang^2)
       XXX      20.0946    XXY       4.6091    XYY       0.0674
       YYY      -3.8499    XXZ      63.4922    XYZ       4.0429
       YYZ      71.6933    XZZ      -1.0525    YZZ      -4.4975
       ZZZ     198.7564
    Hexadecapole Moments (Debye-Ang^3)
      XXXX    -355.7451   XXXY     -16.0735   XXYY     -95.0831
      XYYY     -21.5443   YYYY    -262.4081   XXXZ      11.1176
      XXYZ      -3.2701   XYYZ      12.8206   YYYZ      17.0652
      XXZZ    -188.2834   XYZZ     -11.9544   YYZZ    -182.2864
      XZZZ      49.9131   YZZZ       8.9029   ZZZZ    -791.2134
 -----------------------------------------------------------------
 Calculating analytic gradient of the SCF energy
 Gradient of SCF Energy
            1           2           3           4           5           6
    1   0.0000065   0.0000041  -0.0000865  -0.0000936   0.0000181   0.0000588
    2  -0.0000618  -0.0000911  -0.0001340   0.0002307  -0.0000778   0.0002217
    3  -0.0000836  -0.0000821   0.0002590   0.0000096   0.0001729  -0.0000515
            7           8           9          10          11          12
    1  -0.0000174   0.0000419  -0.0000249  -0.0000287  -0.0000142   0.0000909
    2   0.0000700  -0.0000163  -0.0000280  -0.0000616   0.0000297  -0.0001200
    3   0.0000037  -0.0000124   0.0000029   0.0000450  -0.0000551  -0.0000821
           13
    1   0.0000450
    2   0.0000383
    3  -0.0001265
 Max gradient component =       2.590E-04
 RMS gradient           =       9.344E-05
 Gradient time:  CPU 7.92 s  wall 3.10 s
 Geometry Optimization Parameters
   NAtoms,    NIC,     NZ,  NCons,   NDum,   NFix, NCnnct, MaxDiis
       13     105       0       0       0       0       0       0

 Cartesian Hessian Update
 Hessian Updated using BFGS Update


** GEOMETRY OPTIMIZATION IN DELOCALIZED INTERNAL COORDINATES **
   Searching for a Minimum

   Optimization Cycle:  21

                       Coordinates (Angstroms)
     ATOM                X               Y               Z
      1  C         1.5201082916    0.3799822248   -1.8553281715
      2  C         1.1011031061   -0.9579837700   -1.9250898435
      3  C        -0.3834957341   -0.9734613415   -2.0848432552
      4  C        -1.4707401285    0.3357380788   -0.8166144713
      5  C        -0.6912116943    0.5770520297   -2.1096047794
      6  N         0.5663331470    1.3005843891   -1.9523876423
      7  H         2.5519121562    0.6952320927   -1.7058051737
      8  H         1.7438172621   -1.8269747852   -1.8351620399
      9  H        -0.7548328588   -1.6019732208   -2.9049649288
     10  H        -1.9929666279    1.0204817158   -0.1552515684
     11  H        -1.2690077801    0.9728788048   -2.9539696004
     12  C        -1.2245015017   -0.9787609584   -0.7977858334
     13  H        -1.4883420534   -1.7867145221   -0.1204903860
   Point Group: c1    Number of degrees of freedom:    33


   Energy is   -286.875451573

 Hessian Updated using BFGS Update

 33 Hessian modes will be used to form the next step
  Hessian Eigenvalues:
     0.005678    0.010167    0.010917    0.012719    0.018780    0.026948
     0.038839    0.042105    0.053447    0.054635    0.067994    0.098698
     0.113063    0.119624    0.148525    0.158545    0.159777    0.193669
     0.229909    0.236457    0.238890    0.270988    0.291231    0.312524
     0.323859    0.331426    0.334737    0.349456    0.356515    0.374294
     0.414952    0.518537    0.563282

 Minimum Search - Taking Simple RFO Step
 Searching for Lamda that Minimizes Along All modes
 Value Taken    Lamda =  -0.00000163
 Step Taken.  Stepsize is  0.005839

                             Maximum     Tolerance    Cnvgd?
         Gradient           0.000224      0.000600     YES
         Displacement       0.003109      0.002400      NO
         Energy change     -0.000002      0.000002     YES


                       Distance Matrix (Angstroms)
             C (  1)   C (  2)   C (  3)   C (  4)   C (  5)   N (  6)
   C (  2)  1.403775
   C (  3)  2.346954  1.493250
   C (  4)  3.166395  3.084933  2.122383
   C (  5)  2.234598  2.367018  1.580947  1.528961
   N (  6)  1.329141  2.321175  2.467996  2.524000  1.459327
   H (  7)  1.089201  2.210442  3.397768  4.135411  3.270302  2.090401
   H (  8)  2.218358  1.084580  2.305707  4.006014  3.432787  3.343925
   H (  9)  3.194564  2.195308  1.097961  2.937423  2.320516  3.328321
   H ( 10)  3.955022  4.076754  3.207730  1.085815  2.389705  3.139772
   H ( 11)  3.055766  3.225562  2.308192  2.239404  1.097032  2.116373
   C ( 12)  3.239979  2.584508  1.537477  1.337496  2.103764  3.120194
   H ( 13)  4.093288  3.263219  2.395986  2.233764  3.190515  4.136297
             H (  7)   H (  8)   H (  9)   H ( 10)   H ( 11)   C ( 12)
   H (  8)  2.651656
   H (  9)  4.201154  2.727335
   H ( 10)  4.813100  4.989355  3.996394
   H ( 11)  4.029197  4.262397  2.626146  2.891229
   C ( 12)  4.229427  3.256767  2.247039  2.236149  2.908609
   H ( 13)  4.999694  3.659040  2.885388  2.852403  3.961321  1.086798

 
 Final energy is   -286.875451572585     


 ******************************
 **  OPTIMIZATION CONVERGED  **
 ******************************

                       Coordinates (Angstroms)
     ATOM                X               Y               Z
      1  C         1.5201082916    0.3799822248   -1.8553281715
      2  C         1.1011031061   -0.9579837700   -1.9250898435
      3  C        -0.3834957341   -0.9734613415   -2.0848432552
      4  C        -1.4707401285    0.3357380788   -0.8166144713
      5  C        -0.6912116943    0.5770520297   -2.1096047794
      6  N         0.5663331470    1.3005843891   -1.9523876423
      7  H         2.5519121562    0.6952320927   -1.7058051737
      8  H         1.7438172621   -1.8269747852   -1.8351620399
      9  H        -0.7548328588   -1.6019732208   -2.9049649288
     10  H        -1.9929666279    1.0204817158   -0.1552515684
     11  H        -1.2690077801    0.9728788048   -2.9539696004
     12  C        -1.2245015017   -0.9787609584   -0.7977858334
     13  H        -1.4883420534   -1.7867145221   -0.1204903860

Z-matrix Print:
$molecule
0 2
N 
C  1 1.329141
H  2 1.089201 1 119.296458
C  2 1.403775 1 116.253342 3 178.555363 0
H  4 1.084580 2 125.637972 1 -178.166768 0
C  1 1.459327 2 106.429099 3 -178.518300 0
H  6 1.097032 1 110.970799 2 -130.598608 0
C  4 1.493250 2 108.176850 1 -0.556344 0
H  8 1.097961 4 114.966712 2 129.857303 0
C  6 1.528961 1 115.245091 2 94.903778 0
H  10 1.085815 6 131.358532 1 68.787709 0
C  10 1.337496 6 94.195270 1 -109.149485 0
H  12 1.086798 10 134.005035 6 179.355589 0
$end

 
 --------------------------------------------------------------
 
                    Orbital Energies (a.u.)
 --------------------------------------------------------------
 
 Alpha MOs
 -- Occupied --
-14.328 -10.217 -10.216 -10.207 -10.202 -10.200 -10.195  -0.944
 -0.837  -0.752  -0.665  -0.618  -0.554  -0.523  -0.515  -0.481
 -0.428  -0.402  -0.386  -0.355  -0.341  -0.322  -0.270  -0.253
 -0.203
 -- Virtual --
  0.012   0.031   0.114   0.130   0.143   0.147   0.160   0.166
  0.186   0.188   0.216   0.266   0.295   0.363   0.409   0.452
  0.486   0.502   0.531   0.544   0.575   0.593   0.597   0.618
  0.624   0.634   0.654   0.680   0.695   0.747   0.774   0.786
  0.813   0.825   0.839   0.855   0.860   0.876   0.910   0.927
  0.956   0.970   1.018   1.065   1.090   1.170   1.234   1.411
  1.420   1.436   1.471   1.496   1.520   1.572   1.637   1.694
  1.761   1.821   1.882   1.887   1.934   1.948   1.977   2.028
  2.051   2.143   2.174   2.211   2.222   2.265   2.309   2.353
  2.412   2.425   2.522   2.560   2.573   2.606   2.618   2.674
  2.693   2.864   2.907   2.917   2.993   3.909   4.085   4.197
  4.295   4.372   4.448   4.716
 
 Beta MOs
 -- Occupied --
-14.318 -10.219 -10.218 -10.203 -10.199 -10.198 -10.194  -0.932
 -0.831  -0.734  -0.665  -0.610  -0.549  -0.520  -0.512  -0.475
 -0.420  -0.396  -0.381  -0.343  -0.334  -0.301  -0.264  -0.246
 -- Virtual --
 -0.087   0.016   0.054   0.116   0.132   0.147   0.149   0.162
  0.167   0.190   0.193   0.222   0.270   0.297   0.368   0.414
  0.455   0.491   0.509   0.534   0.548   0.579   0.598   0.613
  0.618   0.629   0.634   0.661   0.684   0.707   0.751   0.776
  0.794   0.821   0.831   0.845   0.859   0.863   0.884   0.913
  0.931   0.963   0.975   1.025   1.070   1.094   1.176   1.238
  1.418   1.436   1.441   1.478   1.504   1.524   1.579   1.639
  1.698   1.773   1.828   1.898   1.900   1.938   1.954   1.979
  2.031   2.053   2.148   2.185   2.225   2.234   2.269   2.321
  2.357   2.417   2.431   2.534   2.569   2.584   2.616   2.626
  2.678   2.697   2.867   2.908   2.919   2.996   3.924   4.094
  4.195   4.301   4.375   4.457   4.716
 --------------------------------------------------------------
 
          Ground-State Mulliken Net Atomic Charges

     Atom                 Charge (a.u.)    Spin (a.u.)
  --------------------------------------------------------
      1 C                     0.048213      -0.230894
      2 C                    -0.114770       0.693623
      3 C                    -0.193350      -0.054078
      4 C                    -0.075739       0.031699
      5 C                    -0.062454      -0.027584
      6 N                    -0.351303       0.517004
      7 H                     0.140556       0.007444
      8 H                     0.143387      -0.032161
      9 H                     0.148098       0.025234
     10 H                     0.137390       0.003583
     11 H                     0.151570       0.025341
     12 C                    -0.104885       0.033915
     13 H                     0.133287       0.006874
  --------------------------------------------------------
  Sum of atomic charges =    -0.000000
  Sum of spin   charges =     1.000000

 -----------------------------------------------------------------
                    Cartesian Multipole Moments
 -----------------------------------------------------------------
    Charge (ESU x 10^10)
                -0.0000
    Dipole Moment (Debye)
         X      -0.2980      Y      -2.1300      Z       0.1096
       Tot       2.1536
    Quadrupole Moments (Debye-Ang)
        XX     -37.3651     XY      -2.0897     YY     -42.0467
        XZ       0.1921     YZ       3.9284     ZZ     -40.3379
    Octopole Moments (Debye-Ang^2)
       XXX      20.0946    XXY       4.6091    XYY       0.0674
       YYY      -3.8499    XXZ      63.4922    XYZ       4.0429
       YYZ      71.6933    XZZ      -1.0525    YZZ      -4.4975
       ZZZ     198.7564
    Hexadecapole Moments (Debye-Ang^3)
      XXXX    -355.7451   XXXY     -16.0735   XXYY     -95.0831
      XYYY     -21.5443   YYYY    -262.4081   XXXZ      11.1176
      XXYZ      -3.2701   XYYZ      12.8206   YYYZ      17.0652
      XXZZ    -188.2834   XYZZ     -11.9544   YYZZ    -182.2864
      XZZZ      49.9131   YZZZ       8.9029   ZZZZ    -791.2134
 -----------------------------------------------------------------
Archival summary:
1\1\c8-66\OPT\ProcedureUnspecified\6-31G*\166(2)\hpark21\TueMar116:22:392022TueMar116:22:392022\0\\#,OPT,ProcedureUnspecified,6-31G*,\\0,2\N\C,1,1.32914\H,2,1.0892,1,119.296\C,2,1.40378,1,116.253,3,178.555,0\H,4,1.08458,2,125.638,1,-178.167,0\C,1,1.45933,2,106.429,3,-178.518,0\H,6,1.09703,1,110.971,2,-130.599,0\C,4,1.49325,2,108.177,1,-0.556344,0\H,8,1.09796,4,114.967,2,129.857,0\C,6,1.52896,1,115.245,2,94.9038,0\H,10,1.08582,6,131.359,1,68.7877,0\C,10,1.3375,6,94.1953,1,-109.149,0\H,12,1.0868,10,134.005,6,179.356,0\\\@

 Total job time:  658.17s(wall), 928.76s(cpu) 
 Tue Mar  1 16:22:39 2022

        *************************************************************
        *                                                           *
        *  Thank you very much for using Q-Chem.  Have a nice day.  *
        *                                                           *
        *************************************************************


