13   
From optimize.out: Frame 1 / 21, Energy=    -286.6753260616
C        0.0883910000   -0.2173810000   -0.0000000000
C       -0.1935520000    0.4641250000   -0.0000000000
C       -0.1691150000    0.0550810000   -0.0000000000
C       -0.1231410000    0.6692930000   -0.0000000000
C       -0.0981040000   -0.1088910000   -0.0000000000
N       -0.3584810000    0.4758590000   -0.0000000000
H        0.1683540000    0.0210080000   -0.0000000000
H        0.1457700000   -0.0217510000   -0.0000000000
H        0.1689800000    0.0177450000   -0.0000000000
H        0.1739830000   -0.0333250000   -0.0000000000
H        0.1456690000    0.0127220000   -0.0000000000
C       -0.0870370000   -0.3467910000   -0.0000000000
H        0.1382840000    0.0123050000   -0.0000000000
13   
From optimize.out: Frame 2 / 21, Energy=    -286.7235159808
C        0.0893460000   -0.2085080000   -0.0000000000
C       -0.1865720000    0.4657330000   -0.0000000000
C       -0.1612330000    0.0509560000   -0.0000000000
C       -0.1119230000    0.6339430000   -0.0000000000
C       -0.0938790000   -0.0883430000   -0.0000000000
N       -0.3646100000    0.4693900000   -0.0000000000
H        0.1602710000    0.0205220000   -0.0000000000
H        0.1474920000   -0.0214210000   -0.0000000000
H        0.1661600000    0.0192420000   -0.0000000000
H        0.1702700000   -0.0345070000   -0.0000000000
H        0.1488900000    0.0123000000   -0.0000000000
C       -0.1084360000   -0.3305880000   -0.0000000000
H        0.1442260000    0.0112800000   -0.0000000000
13   
From optimize.out: Frame 3 / 21, Energy=    -286.7601272681
C        0.0870360000   -0.1980130000   -0.0000000000
C       -0.1785380000    0.4677590000   -0.0000000000
C       -0.1585130000    0.0465890000   -0.0000000000
C       -0.1020390000    0.5942350000   -0.0000000000
C       -0.0869310000   -0.0702800000   -0.0000000000
N       -0.3689360000    0.4591340000   -0.0000000000
H        0.1530820000    0.0188410000   -0.0000000000
H        0.1484630000   -0.0213760000   -0.0000000000
H        0.1634630000    0.0207370000   -0.0000000000
H        0.1666410000   -0.0342740000   -0.0000000000
H        0.1495840000    0.0128610000   -0.0000000000
C       -0.1203510000   -0.3065440000   -0.0000000000
H        0.1470390000    0.0103290000   -0.0000000000
13   
From optimize.out: Frame 4 / 21, Energy=    -286.7872332883
C        0.0812890000   -0.1910610000   -0.0000000000
C       -0.1692370000    0.4896700000   -0.0000000000
C       -0.1598660000    0.0393900000   -0.0000000000
C       -0.0946420000    0.5384700000   -0.0000000000
C       -0.0784450000   -0.0578960000   -0.0000000000
N       -0.3694730000    0.4530510000   -0.0000000000
H        0.1474710000    0.0163970000   -0.0000000000
H        0.1485530000   -0.0224090000   -0.0000000000
H        0.1614970000    0.0219550000   -0.0000000000
H        0.1634810000   -0.0320770000   -0.0000000000
H        0.1487920000    0.0142180000   -0.0000000000
C       -0.1278750000   -0.2795160000   -0.0000000000
H        0.1484550000    0.0098070000   -0.0000000000
13   
From optimize.out: Frame 5 / 21, Energy=    -286.8069980554
C        0.0738360000   -0.1923150000   -0.0000000000
C       -0.1575230000    0.5355690000   -0.0000000000
C       -0.1665430000    0.0244610000   -0.0000000000
C       -0.0916430000    0.4363370000   -0.0000000000
C       -0.0704170000   -0.0496200000   -0.0000000000
N       -0.3667890000    0.4652120000   -0.0000000000
H        0.1434000000    0.0140160000   -0.0000000000
H        0.1472310000   -0.0247310000   -0.0000000000
H        0.1608480000    0.0225380000   -0.0000000000
H        0.1605930000   -0.0260790000   -0.0000000000
H        0.1480380000    0.0157700000   -0.0000000000
C       -0.1288630000   -0.2303240000   -0.0000000000
H        0.1478320000    0.0091660000   -0.0000000000
13   
From optimize.out: Frame 6 / 21, Energy=    -286.8226899021
C        0.0664860000   -0.2006610000   -0.0000000000
C       -0.1437250000    0.5868320000   -0.0000000000
C       -0.1768070000    0.0032350000   -0.0000000000
C       -0.0917410000    0.2951550000   -0.0000000000
C       -0.0634990000   -0.0428290000   -0.0000000000
N       -0.3638070000    0.4900290000   -0.0000000000
H        0.1409250000    0.0120180000   -0.0000000000
H        0.1452320000   -0.0273800000   -0.0000000000
H        0.1607090000    0.0227740000   -0.0000000000
H        0.1570160000   -0.0163280000   -0.0000000000
H        0.1481860000    0.0166850000   -0.0000000000
C       -0.1245220000   -0.1472430000   -0.0000000000
H        0.1455470000    0.0077120000   -0.0000000000
13   
From optimize.out: Frame 7 / 21, Energy=    -286.8358041423
C        0.0602910000   -0.2106520000   -0.0000000000
C       -0.1312390000    0.6237050000   -0.0000000000
C       -0.1859530000   -0.0159360000   -0.0000000000
C       -0.0926970000    0.1796690000   -0.0000000000
C       -0.0583720000   -0.0376730000   -0.0000000000
N       -0.3612990000    0.5105660000   -0.0000000000
H        0.1398320000    0.0103880000   -0.0000000000
H        0.1438740000   -0.0292370000   -0.0000000000
H        0.1597910000    0.0228640000   -0.0000000000
H        0.1527280000   -0.0074460000   -0.0000000000
H        0.1489090000    0.0172560000   -0.0000000000
C       -0.1187720000   -0.0699490000   -0.0000000000
H        0.1429070000    0.0064450000   -0.0000000000
13   
From optimize.out: Frame 8 / 21, Energy=    -286.8464497014
C        0.0557220000   -0.2184160000   -0.0000000000
C       -0.1223970000    0.6471260000   -0.0000000000
C       -0.1909280000   -0.0290490000   -0.0000000000
C       -0.0933680000    0.1167880000   -0.0000000000
C       -0.0563440000   -0.0344350000   -0.0000000000
N       -0.3587330000    0.5201290000   -0.0000000000
H        0.1393400000    0.0091490000   -0.0000000000
H        0.1433670000   -0.0303190000   -0.0000000000
H        0.1582890000    0.0230800000   -0.0000000000
H        0.1489290000   -0.0022880000   -0.0000000000
H        0.1497130000    0.0180430000   -0.0000000000
C       -0.1146070000   -0.0259080000   -0.0000000000
H        0.1410180000    0.0060990000   -0.0000000000
13   
From optimize.out: Frame 9 / 21, Energy=    -286.8549857704
C        0.0526180000   -0.2234580000   -0.0000000000
C       -0.1171440000    0.6630680000   -0.0000000000
C       -0.1930540000   -0.0377460000   -0.0000000000
C       -0.0926710000    0.0829580000   -0.0000000000
C       -0.0562520000   -0.0322850000   -0.0000000000
N       -0.3564610000    0.5228000000   -0.0000000000
H        0.1391700000    0.0083240000   -0.0000000000
H        0.1431250000   -0.0309950000   -0.0000000000
H        0.1566340000    0.0235470000   -0.0000000000
H        0.1456860000    0.0004900000   -0.0000000000
H        0.1504670000    0.0189820000   -0.0000000000
C       -0.1116220000   -0.0018440000   -0.0000000000
H        0.1395050000    0.0061580000   -0.0000000000
13   
From optimize.out: Frame 10 / 21, Energy=    -286.8617412617
C        0.0504060000   -0.2266240000   -0.0000000000
C       -0.1144930000    0.6744980000   -0.0000000000
C       -0.1937140000   -0.0435930000   -0.0000000000
C       -0.0903680000    0.0634950000   -0.0000000000
C       -0.0572030000   -0.0307710000   -0.0000000000
N       -0.3543650000    0.5220790000   -0.0000000000
H        0.1391240000    0.0078300000   -0.0000000000
H        0.1430260000   -0.0314570000   -0.0000000000
H        0.1549670000    0.0241150000   -0.0000000000
H        0.1429820000    0.0019940000   -0.0000000000
H        0.1510450000    0.0200770000   -0.0000000000
C       -0.1095040000    0.0120130000   -0.0000000000
H        0.1380970000    0.0063450000   -0.0000000000
13   
From optimize.out: Frame 11 / 21, Energy=    -286.8669639879
C        0.0492310000   -0.2285300000   -0.0000000000
C       -0.1136390000    0.6825940000   -0.0000000000
C       -0.1937720000   -0.0475350000   -0.0000000000
C       -0.0868100000    0.0515000000   -0.0000000000
C       -0.0585430000   -0.0297480000   -0.0000000000
N       -0.3530260000    0.5205310000   -0.0000000000
H        0.1393190000    0.0075710000   -0.0000000000
H        0.1428990000   -0.0317720000   -0.0000000000
H        0.1533390000    0.0246560000   -0.0000000000
H        0.1406650000    0.0028000000   -0.0000000000
H        0.1515240000    0.0211780000   -0.0000000000
C       -0.1079180000    0.0202620000   -0.0000000000
H        0.1367290000    0.0064930000   -0.0000000000
13   
From optimize.out: Frame 12 / 21, Energy=    -286.8708357541
C        0.0484170000   -0.2296890000   -0.0000000000
C       -0.1136920000    0.6882940000   -0.0000000000
C       -0.1934290000   -0.0502600000   -0.0000000000
C       -0.0825360000    0.0435330000   -0.0000000000
C       -0.0602380000   -0.0289480000   -0.0000000000
N       -0.3518350000    0.5186720000   -0.0000000000
H        0.1394940000    0.0074580000   -0.0000000000
H        0.1428860000   -0.0319930000   -0.0000000000
H        0.1517930000    0.0251100000   -0.0000000000
H        0.1389050000    0.0032020000   -0.0000000000
H        0.1517570000    0.0223660000   -0.0000000000
C       -0.1069870000    0.0256170000   -0.0000000000
H        0.1354660000    0.0066380000   -0.0000000000
13   
From optimize.out: Frame 13 / 21, Energy=    -286.8734849495
C        0.0484880000   -0.2303270000   -0.0000000000
C       -0.1142480000    0.6919570000   -0.0000000000
C       -0.1932790000   -0.0520870000   -0.0000000000
C       -0.0786940000    0.0378730000   -0.0000000000
C       -0.0614500000   -0.0284680000   -0.0000000000
N       -0.3517540000    0.5178290000   -0.0000000000
H        0.1400020000    0.0074280000   -0.0000000000
H        0.1428550000   -0.0321280000   -0.0000000000
H        0.1503250000    0.0254180000   -0.0000000000
H        0.1375260000    0.0034240000   -0.0000000000
H        0.1519670000    0.0233650000   -0.0000000000
C       -0.1060710000    0.0290420000   -0.0000000000
H        0.1343330000    0.0066740000   -0.0000000000
13   
From optimize.out: Frame 14 / 21, Energy=    -286.8749847038
C        0.0479580000   -0.2307590000   -0.0000000000
C       -0.1149250000    0.6945080000   -0.0000000000
C       -0.1926200000   -0.0534320000   -0.0000000000
C       -0.0761530000    0.0335080000   -0.0000000000
C       -0.0627220000   -0.0278030000   -0.0000000000
N       -0.3506010000    0.5161610000   -0.0000000000
H        0.1400160000    0.0074330000   -0.0000000000
H        0.1430930000   -0.0322190000   -0.0000000000
H        0.1490410000    0.0255180000   -0.0000000000
H        0.1372280000    0.0034750000   -0.0000000000
H        0.1516870000    0.0246830000   -0.0000000000
C       -0.1056280000    0.0320510000   -0.0000000000
H        0.1336260000    0.0068760000   -0.0000000000
13   
From optimize.out: Frame 15 / 21, Energy=    -286.8752931953
C        0.0495180000   -0.2309250000   -0.0000000000
C       -0.1150810000    0.6947570000   -0.0000000000
C       -0.1935550000   -0.0542030000   -0.0000000000
C       -0.0769170000    0.0308730000   -0.0000000000
C       -0.0618500000   -0.0279590000   -0.0000000000
N       -0.3531800000    0.5183530000   -0.0000000000
H        0.1413850000    0.0074480000   -0.0000000000
H        0.1432040000   -0.0322070000   -0.0000000000
H        0.1479800000    0.0255720000   -0.0000000000
H        0.1368270000    0.0036620000   -0.0000000000
H        0.1521920000    0.0248370000   -0.0000000000
C       -0.1034730000    0.0331360000   -0.0000000000
H        0.1329500000    0.0066570000   -0.0000000000
13   
From optimize.out: Frame 17 / 21, Energy=    -286.8753167630
C        0.0473330000   -0.2309390000   -0.0000000000
C       -0.1151890000    0.6944550000   -0.0000000000
C       -0.1917970000   -0.0540950000   -0.0000000000
C       -0.0775480000    0.0308990000   -0.0000000000
C       -0.0640770000   -0.0274170000   -0.0000000000
N       -0.3496550000    0.5159190000   -0.0000000000
H        0.1399960000    0.0074450000   -0.0000000000
H        0.1435080000   -0.0321940000   -0.0000000000
H        0.1479930000    0.0252190000   -0.0000000000
H        0.1372110000    0.0034830000   -0.0000000000
H        0.1516170000    0.0256780000   -0.0000000000
C       -0.1029700000    0.0345970000   -0.0000000000
H        0.1335780000    0.0069500000   -0.0000000000
13   
From optimize.out: Frame 18 / 21, Energy=    -286.8754023048
C        0.0485840000   -0.2310950000   -0.0000000000
C       -0.1145890000    0.6937670000   -0.0000000000
C       -0.1936290000   -0.0540300000   -0.0000000000
C       -0.0755310000    0.0318630000   -0.0000000000
C       -0.0621850000   -0.0277540000   -0.0000000000
N       -0.3522140000    0.5180340000   -0.0000000000
H        0.1408960000    0.0074520000   -0.0000000000
H        0.1433470000   -0.0321650000   -0.0000000000
H        0.1482660000    0.0253910000   -0.0000000000
H        0.1371150000    0.0035910000   -0.0000000000
H        0.1518410000    0.0249680000   -0.0000000000
C       -0.1049910000    0.0332070000   -0.0000000000
H        0.1330920000    0.0067710000   -0.0000000000
13   
From optimize.out: Frame 19 / 21, Energy=    -286.8754475984
C        0.0484670000   -0.2309070000   -0.0000000000
C       -0.1150710000    0.6940110000   -0.0000000000
C       -0.1932740000   -0.0540300000   -0.0000000000
C       -0.0758570000    0.0315400000   -0.0000000000
C       -0.0622570000   -0.0276360000   -0.0000000000
N       -0.3515010000    0.5171680000   -0.0000000000
H        0.1406310000    0.0074440000   -0.0000000000
H        0.1432620000   -0.0321790000   -0.0000000000
H        0.1480880000    0.0252540000   -0.0000000000
H        0.1373930000    0.0035750000   -0.0000000000
H        0.1515540000    0.0252900000   -0.0000000000
C       -0.1047030000    0.0336210000   -0.0000000000
H        0.1332680000    0.0068480000   -0.0000000000
13   
From optimize.out: Frame 20 / 21, Energy=    -286.8754496250
C        0.0480880000   -0.2310130000   -0.0000000000
C       -0.1147740000    0.6937330000   -0.0000000000
C       -0.1932790000   -0.0541160000   -0.0000000000
C       -0.0756160000    0.0314930000   -0.0000000000
C       -0.0624690000   -0.0275330000   -0.0000000000
N       -0.3512410000    0.5170410000   -0.0000000000
H        0.1405460000    0.0074490000   -0.0000000000
H        0.1434320000   -0.0321650000   -0.0000000000
H        0.1481070000    0.0252540000   -0.0000000000
H        0.1374270000    0.0035730000   -0.0000000000
H        0.1515400000    0.0253980000   -0.0000000000
C       -0.1049810000    0.0339890000   -0.0000000000
H        0.1332210000    0.0068980000   -0.0000000000
