13   
From optimize.out: Frame 1 / 2, Energy=    -286.9243173290
C        0.0364740000   -0.1153150000   -0.0000000000
C       -0.1323200000    0.3516640000   -0.0000000000
C       -0.1106730000    0.0880290000    0.0000000000
C       -0.1307840000    0.3423730000    0.0000000000
C        0.0347410000   -0.1098410000   -0.0000000000
N       -0.4233350000    0.3867920000   -0.0000000000
H        0.1425240000    0.0035330000   -0.0000000000
H        0.1343180000   -0.0185510000   -0.0000000000
H        0.1419620000   -0.0063640000    0.0000000000
H        0.1343910000   -0.0181200000    0.0000000000
H        0.1426630000    0.0032660000    0.0000000000
C       -0.1118630000    0.0994440000    0.0000000000
H        0.1419020000   -0.0069090000    0.0000000000
