13   
From optimize.out: Frame 30 / 31, Energy=    -286.8383070666
C        1.2032804335    0.3392835338    0.3347916079
C        0.6649463801   -1.0859383710   -0.1430045256
C       -0.6133333111   -0.9511261078   -0.8277092227
C       -1.0806741231    0.1429744421    0.1298472353
C       -0.5137572663    1.4334798190   -0.4498609995
N        0.7650536376    1.5127517671   -0.3783312743
H        2.2200148702    0.3337758563    0.7142682221
H        1.3730976292   -1.9076632467   -0.1834248102
H       -0.9311976298   -1.1928180351   -1.8392184772
H       -2.1199363622    0.1495444324    0.4657830881
H       -1.1027479579    2.1653504802   -1.0004630789
C        0.0918833559   -0.3236783934    1.0663264960
H        0.0433703445   -0.6159361774    2.1109957384
13   
From optimize.out: Frame 29 / 31, Energy=    -286.8383063305
C        1.2031476169    0.3394106720    0.3350631942
C        0.6648897287   -1.0860423840   -0.1430200759
C       -0.6131783245   -0.9512270626   -0.8277216531
C       -1.0807340884    0.1431075952    0.1296374087
C       -0.5135314055    1.4337345865   -0.4496636891
N        0.7652511790    1.5128214644   -0.3780724036
H        2.2199013610    0.3337740039    0.7144781930
H        1.3738697549   -1.9069665306   -0.1847206187
H       -0.9318751676   -1.1943610179   -1.8385552895
H       -2.1199318139    0.1500050759    0.4658014925
H       -1.1023112817    2.1655211890   -1.0005714495
C        0.0917417887   -0.3235504696    1.0664005627
H        0.0427606524   -0.6162271223    2.1109443283
13   
From optimize.out: Frame 28 / 31, Energy=    -286.8383040435
C        1.2029573667    0.3397085742    0.3355298045
C        0.6646208723   -1.0857077898   -0.1431440624
C       -0.6130130536   -0.9515754128   -0.8283640282
C       -1.0808655190    0.1430289758    0.1289663555
C       -0.5131101804    1.4339679465   -0.4494780128
N        0.7662188892    1.5132567794   -0.3775221027
H        2.2198151784    0.3340193970    0.7145881974
H        1.3740880849   -1.9061557146   -0.1852827944
H       -0.9323677405   -1.1967627805   -1.8383839652
H       -2.1194107317    0.1508854556    0.4670861601
H       -1.1022536974    2.1655259666   -1.0002754500
C        0.0914042061   -0.3236411664    1.0658199145
H        0.0419163250   -0.6165502310    2.1104599837
13   
From optimize.out: Frame 27 / 31, Energy=    -286.8383012725
C        1.2039413127    0.3399897712    0.3356476093
C        0.6655223343   -1.0853365269   -0.1440292212
C       -0.6124342076   -0.9494074606   -0.8282657339
C       -1.0804828991    0.1442468482    0.1297660482
C       -0.5135356459    1.4349079579   -0.4493589163
N        0.7652215700    1.5142125028   -0.3757949609
H        2.2210678633    0.3338712129    0.7141358517
H        1.3734507156   -1.9072875954   -0.1835282764
H       -0.9352265857   -1.1981882540   -1.8362361773
H       -2.1207127779    0.1489626349    0.4627556146
H       -1.1021422721    2.1662379774   -1.0011391506
C        0.0920906683   -0.3245035228    1.0658419795
H        0.0432399243   -0.6177055456    2.1102053332
13   
From optimize.out: Frame 23 / 31, Energy=    -286.8382336341
C        1.2030880649    0.3405160493    0.3358609051
C        0.6678552658   -1.0846777265   -0.1477802659
C       -0.6117542162   -0.9499177390   -0.8289518673
C       -1.0794936110    0.1431441733    0.1262148263
C       -0.5115437202    1.4339123072   -0.4516469891
N        0.7629544158    1.5180138920   -0.3691534296
H        2.2180389426    0.3348964884    0.7205532014
H        1.3796768382   -1.9027345371   -0.1959520596
H       -0.9446127164   -1.2147981384   -1.8291253690
H       -2.1172896845    0.1545820320    0.4659394948
H       -1.0950649902    2.1697892169   -1.0025787100
C        0.0905965541   -0.3226202072    1.0672066476
H        0.0375488571   -0.6201058109    2.1094136153
13   
From optimize.out: Frame 21 / 31, Energy=    -286.8380536851
C        1.2026920039    0.3420253607    0.3406643979
C        0.6716617032   -1.0815175479   -0.1487700853
C       -0.6056268780   -0.9539008541   -0.8351105814
C       -1.0842598409    0.1488814147    0.1244249961
C       -0.5085571094    1.4407645106   -0.4492318512
N        0.7756277673    1.5160460932   -0.3767730541
H        2.2232537865    0.3353298887    0.7096746236
H        1.3818094913   -1.9016237197   -0.1870036632
H       -0.9483886321   -1.2381185158   -1.8250417123
H       -2.1251219716    0.1521768134    0.4559415333
H       -1.1004438148    2.1853998001   -0.9792070964
C        0.0845680735   -0.3264277702    1.0624927132
H        0.0327854211   -0.6190354736    2.1079397799
13   
From optimize.out: Frame 19 / 31, Energy=    -286.8375837916
C        1.2049525704    0.3421748882    0.3241346138
C        0.6765065478   -1.0791605307   -0.1620573068
C       -0.6053450311   -0.9472019081   -0.8361835488
C       -1.0733532744    0.1535101862    0.1165253493
C       -0.5123416776    1.4562349833   -0.4383500575
N        0.7595464394    1.5284465341   -0.3676099095
H        2.2065622245    0.3363730754    0.7426350145
H        1.3764481944   -1.9086043551   -0.1821339716
H       -0.9686589481   -1.2712742412   -1.8070590888
H       -2.1127253641    0.1555259648    0.4516664610
H       -1.0928038198    2.1917377466   -0.9930139086
C        0.0993989152   -0.3108008559    1.0606548425
H        0.0418132233   -0.6469614876    2.0907915106
13   
From optimize.out: Frame 16 / 31, Energy=    -286.8367270723
C        1.2252795317    0.3320042665    0.3035046946
C        0.6771099691   -1.0785136123   -0.1454955177
C       -0.5791072061   -0.9280957338   -0.8437941469
C       -1.0801543979    0.1550744214    0.1107449005
C       -0.5127185227    1.4536415518   -0.4380603191
N        0.7660550609    1.5172204512   -0.3827131970
H        2.2183612641    0.3565670471    0.7381066430
H        1.3674321026   -1.9162195966   -0.1825892006
H       -0.9607704539   -1.2974113660   -1.7900996470
H       -2.1204055399    0.1667375219    0.4447406683
H       -1.1079017620    2.2063604746   -0.9524382693
C        0.0883646829   -0.3203981343    1.0516626612
H        0.0184552713   -0.6469672914    2.0864307301
13   
From optimize.out: Frame 15 / 31, Energy=    -286.8353241538
C        1.2084570291    0.3288803272    0.3402901352
C        0.6766289464   -1.0527395595   -0.1544826565
C       -0.5714228471   -0.9133546525   -0.8524461213
C       -1.0821983525    0.1595069670    0.1284299757
C       -0.5185849503    1.4393667543   -0.4461465278
N        0.7555888060    1.5079574279   -0.3640612876
H        2.2347956303    0.3465965532    0.6908640620
H        1.3538709926   -1.9023386841   -0.1674421329
H       -0.9453408759   -1.3075024857   -1.7942430918
H       -2.1248457371    0.1773275224    0.4535897549
H       -1.0966053773    2.1943148618   -0.9770271537
C        0.0891035612   -0.2853746122    1.0695134583
H        0.0205531746   -0.6926404198    2.0731615856
13   
From optimize.out: Frame 14 / 31, Energy=    -286.8335511041
C        1.2025188048    0.3298123122    0.3505846782
C        0.6982651670   -1.0283557609   -0.1993356066
C       -0.6057781646   -0.9708141307   -0.7965089785
C       -1.0784513251    0.1730390936    0.1110427330
C       -0.4913994224    1.4367587243   -0.4818011165
N        0.7759130595    1.5427113153   -0.3181169423
H        2.2087190567    0.3671606402    0.7568393817
H        1.3988488434   -1.8576087722   -0.2427269666
H       -1.0091484048   -1.3966808229   -1.7130923103
H       -2.1215333585    0.2230510664    0.4287184978
H       -1.0669340026    2.2159289482   -0.9791919773
C        0.0730348331   -0.3050156120    1.0449766267
H        0.0159449135   -0.7299870013    2.0386119807
13   
From optimize.out: Frame 12 / 31, Energy=    -286.8228726714
C        1.2252413874    0.3053803454    0.3151051578
C        0.7226740080   -1.0353079802   -0.2143515542
C       -0.5546733372   -0.9688520448   -0.8308787875
C       -1.1104364071    0.1880110030    0.1253604832
C       -0.5151116911    1.4281119704   -0.4767451200
N        0.7697389563    1.4907596442   -0.3693379000
H        2.2361153052    0.3607221571    0.7071534415
H        1.3945937765   -1.8896699549   -0.1882586753
H       -0.9453757422   -1.4185630892   -1.7426942786
H       -2.1500943119    0.2268349172    0.4530501780
H       -1.0829642862    2.2628308138   -0.8850099143
C        0.0344322405   -0.2060476665    1.0845586676
H       -0.0241398982   -0.7442101156    2.0220483018
13   
From optimize.out: Frame 10 / 31, Energy=    -286.8106464629
C        1.1814508291    0.3048982133    0.3146196052
C        0.7175612248   -1.0348055894   -0.1968029872
C       -0.6042224883   -1.0283895264   -0.6914156665
C       -1.0487172747    0.2076856063    0.0686126883
C       -0.4928555640    1.4786729862   -0.4940707451
N        0.7546339558    1.5394471748   -0.3053283723
H        2.2046753979    0.3866836095    0.6693369477
H        1.4258203752   -1.8623643240   -0.2105651936
H       -1.0363439701   -1.4835697409   -1.5828534335
H       -2.1191281717    0.1527732784    0.2700666762
H       -1.0174347377    2.3575404218   -0.8631878733
C        0.0611705462   -0.1649925979    1.0970296040
H       -0.0266101224   -0.8535795116    1.9245587501
13   
From optimize.out: Frame 9 / 31, Energy=    -286.8005527748
C        1.2129450862    0.3431518126    0.2550777586
C        0.6962783043   -1.0041857134   -0.1193588922
C       -0.5838156689   -0.9991007027   -0.6979214855
C       -1.0784225468    0.2417948646    0.0863856747
C       -0.5064870660    1.4939688337   -0.5069931425
N        0.7666733399    1.5446580421   -0.3821850649
H        2.2201988909    0.4380574213    0.6519182386
H        1.3681612209   -1.8559815698   -0.0127081052
H       -0.9739898027   -1.5217668132   -1.5734674778
H       -2.1348664208    0.1865681169    0.3454709364
H       -1.0237748337    2.4009929728   -0.8142833012
C        0.0595078769   -0.2518436444    1.0051727573
H       -0.0224083800   -1.0163136205    1.7628921036
13   
From optimize.out: Frame 8 / 31, Energy=    -286.7932379459
C        1.2658245374    0.3053455708    0.2023453359
C        0.7575310749   -1.0127145474   -0.2483132304
C       -0.5338846269   -1.0114215154   -0.7724454391
C       -1.1103410709    0.2454104013    0.1557223086
C       -0.5156160746    1.4425301365   -0.5101981236
N        0.7800491003    1.4976794378   -0.3769184845
H        2.2513237798    0.3797623858    0.6550949834
H        1.4338775280   -1.8648739592   -0.1630461936
H       -0.9710413257   -1.4943281977   -1.6454769213
H       -2.1662018026    0.1607039267    0.4059688365
H       -1.0197122333    2.3568695791   -0.8187211934
C       -0.0236462380   -0.1320860854    1.1661988546
H       -0.1481626482   -0.8728771329    1.9497892670
13   
From optimize.out: Frame 7 / 31, Energy=    -286.7643168982
C        1.2985526970    0.2753675224    0.1414430842
C        0.7597136696   -1.0268586847   -0.3272449992
C       -0.5245528276   -1.0251208791   -0.8685716918
C       -1.0910831455    0.2203246064    0.1904868367
C       -0.5182721700    1.4246288913   -0.4887751553
N        0.7819428172    1.4945799327   -0.3283373895
H        2.2704411699    0.3120178135    0.6274036724
H        1.4275369159   -1.8862424589   -0.2339966372
H       -0.9622696626   -1.4807865644   -1.7503891684
H       -2.1521900511    0.0780995364    0.3974657466
H       -1.0338745184    2.3321568405   -0.7970082244
C       -0.0501308575   -0.0110495041    1.3049566131
H       -0.2058140370   -0.7071170521    2.1325673129
13   
From optimize.out: Frame 6 / 31, Energy=    -286.7581535782
C        1.1900766442    0.2780758038    0.1567374690
C        0.6851948089   -1.0365592231   -0.2695258786
C       -0.5542095562   -1.0858449428   -0.8531466910
C       -1.0248327010    0.2638217786    0.1190643235
C       -0.5210572430    1.4970158496   -0.5215360416
N        0.7228896764    1.5253600956   -0.2727077518
H        2.1098531289    0.3085564497    0.7295665702
H        1.3465368215   -1.8855068256   -0.0759321575
H       -0.9682412519   -1.5902879088   -1.7248165078
H       -2.0660965964    0.0661087412    0.3794145496
H       -1.0174337771    2.4404555535   -0.7368176354
C        0.1025969629   -0.0094012450    1.1441512644
H       -0.0052769172   -0.7717941266    1.9255484870
13   
From optimize.out: Frame 5 / 31, Energy=    -286.7277716502
C        1.3081994112    0.3500949927    0.0484519632
C        0.7974626809   -0.9896527270   -0.2109551287
C       -0.5012556918   -1.0996922426   -0.5395615957
C       -1.0649762609    0.2914793367    0.0175491034
C       -0.4790950956    1.5617623115   -0.4956074452
N        0.7579645700    1.5733716327   -0.3174806767
H        2.2945385475    0.4361380933    0.4857835596
H        1.5095503867   -1.8094039404   -0.0764346521
H       -1.0761222168   -1.6563294343   -1.2821902987
H       -2.1249346892    0.1078330892    0.1928511898
H       -0.9351387690    2.5349375838   -0.6530560455
C       -0.1019866886   -0.2227346983    1.0982573344
H       -0.3842061844   -1.0778039972    1.7323926923
13   
From optimize.out: Frame 3 / 31, Energy=    -286.7204458581
C        1.3929465891    0.2909817570    0.0276265128
C        0.7548113930   -1.0155270965   -0.3576813002
C       -0.5110170819   -1.0433432936   -0.8147432910
C       -1.0624948460    0.1787899443    0.1050854527
C       -0.4906515533    1.4543789720   -0.4894349109
N        0.8305452026    1.5389256624   -0.2438891705
H        2.3483566869    0.3268633036    0.5502737063
H        1.3962628812   -1.8894952830   -0.2037854923
H       -1.0800375791   -1.4627148410   -1.6010327360
H       -2.0748831263   -0.1776026959    0.2969826835
H       -0.9913405930    2.3888409422   -0.7144570235
C       -0.1432066007    0.0815778237    1.3168935570
H       -0.3692913725   -0.6716751952    2.1281620122
13   
From optimize.out: Frame 2 / 31, Energy=    -286.6803572408
C        1.4277790249    0.2870588690    0.0383444922
C        0.7356087594   -1.0364618461   -0.3336046536
C       -0.5549779671   -1.1331004662   -0.7390151224
C       -1.0592646179    0.1994926573   -0.0078633380
C       -0.5042858919    1.5322305126   -0.4405393160
N        0.8535132220    1.5613625157   -0.1419488427
H        2.3974216499    0.3045769847    0.5428571027
H        1.3963112893   -1.8985895364   -0.1976678117
H       -1.1505154116   -1.5638432944   -1.4774775413
H       -2.0216140884   -0.2957592272    0.1267449075
H       -0.9975311997    2.4835727246   -0.6045508751
C       -0.1786133755    0.1829596280    1.2235517568
H       -0.3438313933   -0.6234995216    2.0111692414
13   
From optimize.out: Frame 1 / 31, Energy=    -286.5887998382
C        1.5015728784    0.2517152071   -0.0395144739
C        0.9134542956   -1.1635687209   -0.3446670339
C       -0.3901037652   -1.4475585369   -0.6051984395
C       -1.3374700369    0.4355260691   -0.0466118270
C       -0.5781442329    1.7002322705   -0.3235302844
N        0.8328117132    1.5182932803   -0.1099403144
H        2.5130335266    0.3464903149    0.3723929927
H        1.6893647050   -1.9330504225   -0.2753240405
H       -1.0073122194   -1.9523375816   -1.2552599355
H       -2.3493766015    0.0479097165    0.1006446720
H       -0.9187407871    2.7298411139   -0.3132659253
C       -0.3417722641    0.1716861252    1.0631604546
H       -0.5273172116   -0.7051788355    1.7771141551
13   
C5H5N+CH->C6H6N atoms 1-13 frame 119 charge +0.000 sz -1.000 sz^2 0.781
C        1.5015728784    0.2517152071   -0.0395144739
C        0.9134542956   -1.1635687209   -0.3446670339
C       -0.3901037652   -1.4475585369   -0.6051984395
C       -1.3374700369    0.4355260691   -0.0466118270
C       -0.5781442329    1.7002322705   -0.3235302844
N        0.8328117132    1.5182932803   -0.1099403144
H        2.5130335266    0.3464903149    0.3723929927
H        1.6893647050   -1.9330504225   -0.2753240405
H       -1.0073122194   -1.9523375816   -1.2552599355
H       -2.3493766015    0.0479097165    0.1006446720
H       -0.9187407871    2.7298411139   -0.3132659253
C       -0.3417722641    0.1716861252    1.0631604546
H       -0.5273172116   -0.7051788355    1.7771141551
13   
C5H5N+CH->C6H6N atoms 1-13 frame 120 charge +0.000 sz -1.000 sz^2 0.858
C        1.4910330057    0.2510262612   -0.0321071434
C        0.9093037850   -1.1653851905   -0.3550846025
C       -0.3803785968   -1.4462658686   -0.6184546020
C       -1.3286842899    0.4413995930   -0.0469395291
C       -0.5792282240    1.7115595791   -0.3319023478
N        0.8293039863    1.5247432367   -0.1097736953
H        2.5003804534    0.3416972293    0.3966482571
H        1.6920653406   -1.9352786794   -0.3030913560
H       -1.0117508469   -1.9879525167   -1.2653779155
H       -2.3303745376    0.0511866873    0.1284284552
H       -0.9181893397    2.7452960640   -0.3297974972
C       -0.3529026206    0.1718539578    1.0777589540
H       -0.5205781155   -0.7038803532    1.7896930225
13   
C5H5N+CH->C6H6N atoms 1-13 frame 121 charge -0.000 sz -1.000 sz^2 0.944
C        1.4797327901    0.2502605525   -0.0238365493
C        0.9056725070   -1.1667459780   -0.3654623924
C       -0.3704783883   -1.4441709365   -0.6315374389
C       -1.3189070770    0.4469956259   -0.0461998735
C       -0.5794852848    1.7228322343   -0.3393698983
N        0.8254811172    1.5316287618   -0.1092954663
H        2.4865076384    0.3361562856    0.4205097958
H        1.6947828017   -1.9369063211   -0.3322223165
H       -1.0162665812   -2.0262399671   -1.2768763422
H       -2.3115741551    0.0561636611    0.1555930732
H       -0.9177454708    2.7601474952   -0.3461650880
C       -0.3643204528    0.1712082980    1.0932828527
H       -0.5133994445   -0.7013297117    1.8015796437
13   
C5H5N+CH->C6H6N atoms 1-13 frame 122 charge +0.000 sz -1.000 sz^2 1.014
C        1.4676310622    0.2493055129   -0.0149049114
C        0.9025658263   -1.1677814921   -0.3759033150
C       -0.3607996394   -1.4415227657   -0.6446053570
C       -1.3081964290    0.4522631017   -0.0443775939
C       -0.5789344697    1.7339293078   -0.3460396342
N        0.8213452568    1.5388229599   -0.1087541162
H        2.4712144736    0.3297634964    0.4434699737
H        1.6972295015   -1.9377805234   -0.3627306663
H       -1.0194499199   -2.0657473188   -1.2880413726
H       -2.2935005470    0.0627665786    0.1819729821
H       -0.9173686423    2.7740242818   -0.3624725972
C       -0.3758827667    0.1697720590    1.1095884879
H       -0.5058537064   -0.6978151981    1.8127981200
13   
C5H5N+CH->C6H6N atoms 1-13 frame 123 charge +0.000 sz -1.000 sz^2 1.071
C        1.4546994469    0.2480695391   -0.0055065458
C        0.9000067662   -1.1686026653   -0.3864834730
C       -0.3517072872   -1.4385647956   -0.6577671102
C       -1.2966176292    0.4571523706   -0.0414621265
C       -0.5775990050    1.7447282564   -0.3520303845
N        0.8169007285    1.5462134531   -0.1084007056
H        2.4543867246    0.3224753545    0.4650808494
H        1.6991621429   -1.9377667444   -0.3945725826
H       -1.0201370453   -2.1051128258   -1.2974346024
H       -2.2765871483    0.0709354187    0.2073981129
H       -0.9170392718    2.7865938332   -0.3788489139
C       -0.3874366858    0.1675957077    1.1265308856
H       -0.4980317365   -0.6937169021    1.8234965968
13   
C5H5N+CH->C6H6N atoms 1-13 frame 124 charge +0.000 sz -1.000 sz^2 1.110
C        1.4409237895    0.2464908796    0.0041851167
C        0.8980342344   -1.1692917932   -0.3972506627
C       -0.3435162182   -1.4355152100   -0.6710815688
C       -1.2842413930    0.4616209595   -0.0374468875
C       -0.5755039149    1.7551137773   -0.3574626787
N        0.8121575996    1.5537090427   -0.1084723454
H        2.4360020986    0.3143130609    0.4849785493
H        1.7003992720   -1.9367562209   -0.4276495604
H       -1.0174803284   -2.1431636142   -1.3039579911
H       -2.2611562221    0.0806362121    0.2316855631
H       -0.9167599254    2.7975809165   -0.3954322646
C       -0.3988226020    0.1647606074    1.1439688436
H       -0.4900363900   -0.6894986176    1.8339358865
13   
C5H5N+CH->C6H6N atoms 1-13 frame 125 charge -0.000 sz -1.000 sz^2 1.129
C        1.4263007956    0.2445375374    0.0140189698
C        0.8966905649   -1.1699030198   -0.4082297015
C       -0.3364874800   -1.4325603039   -0.6845647276
C       -1.2711468333    0.4656339606   -0.0323293059
C       -0.5726787021    1.7649800059   -0.3624540811
N        0.8071304288    1.5612390426   -0.1091863236
H        2.4161320689    0.3053584594    0.5028929654
H        1.7008283765   -1.9346761963   -0.4618200526
H       -1.0109389969   -2.1789415165   -1.3068347544
H       -2.2474121436    0.0918658822    0.2546354734
H       -0.9165592954    2.8067803991   -0.4123611676
C       -0.4098797695    0.1613759763    1.1617659741
H       -0.4819790138   -0.6856902269    1.8444667316
13   
C5H5N+CH->C6H6N atoms 1-13 frame 126 charge +0.000 sz -1.000 sz^2 1.139
C        1.4108328938    0.2422025658    0.0238668393
C        0.8960072851   -1.1704660076   -0.4194289087
C       -0.3308290966   -1.4298539143   -0.6981971826
C       -1.2574241632    0.4691654535   -0.0261115753
C       -0.5691596301    1.7742303881   -0.3671168413
N        0.8018345009    1.5687513690   -0.1107385409
H        2.3949365767    0.2957451914    0.5186517396
H        1.7004062576   -1.9314991559   -0.4969118641
H       -1.0002412206   -2.2116954898   -1.3055632298
H       -2.2354471467    0.1046505388    0.2760334200
H       -0.9164935177    2.8140597362   -0.4297697356
C       -0.4204506369    0.1575726378    1.1797928442
H       -0.4739721023   -0.6828633129    1.8554930352
13   
C5H5N+CH->C6H6N atoms 1-13 frame 127 charge +0.000 sz -1.000 sz^2 1.140
C        1.3945253497    0.2394983289    0.0336236398
C        0.8959923775   -1.1709920983   -0.4308461321
C       -0.3266982097   -1.4275189919   -0.7119319906
C       -1.2431763943    0.4721958324   -0.0187980415
C       -0.5649929190    1.7827765675   -0.3715516125
N        0.7962857811    1.5762057667   -0.1132969870
H        2.3726561708    0.2856448372    0.5321813224
H        1.6991581563   -1.9272512217   -0.5327355572
H       -0.9853424146   -2.2408659828   -1.2998780537
H       -2.2252538713    0.1190358810    0.2956534422
H       -0.9166454640    2.8193564265   -0.4477756303
C       -0.4303883600    0.1534905578    1.1979310647
H       -0.4661202026   -0.6815759032    1.8674245357
13   
C5H5N+CH->C6H6N atoms 1-13 frame 128 charge +0.000 sz -1.000 sz^2 1.136
C        1.3773853409    0.2364488445    0.0432116636
C        0.8966226760   -1.1714801492   -0.4424725794
C       -0.3242002906   -1.4256500727   -0.7256996358
C       -1.2285179573    0.4747110690   -0.0103923963
C       -0.5602336108    1.7905373691   -0.3758400211
N        0.7905012301    1.5835690560   -0.1169941507
H        2.3496001145    0.2752517324    0.5435078807
H        1.6971736597   -1.9220140029   -0.5690954920
H       -0.9663918761   -2.2660710553   -1.2897216320
H       -2.2167449728    0.1350728184    0.3132691429
H       -0.9171210461    2.8226715991   -0.4664693772
C       -0.4395592755    0.1492636951    1.2160801688
H       -0.4585139920   -0.6823109037    1.8806164285
13   
C5H5N+CH->C6H6N atoms 1-13 frame 129 charge -0.000 sz -1.000 sz^2 1.117
C        1.3594245505    0.2330836643    0.0525849452
C        0.8978401012   -1.1719205361   -0.4542950906
C       -0.3233876240   -1.4243115667   -0.7394109486
C       -1.2135714849    0.4766994304   -0.0008949436
C       -0.5549451350    1.7974393988   -0.3800347049
N        0.7845030962    1.5908092122   -0.1219166944
H        2.3261294181    0.2647693723    0.5527508446
H        1.6946031473   -1.9159215884   -0.6058025102
H       -0.9437096204   -2.2871028491   -1.2752310383
H       -2.2097706275    0.1528024120    0.3286634300
H       -0.9180394229    2.8240580530   -0.4858975595
C       -0.4478436942    0.1450055029    1.2341654058
H       -0.4512327044   -0.6854105056    1.8953188643
13   
C5H5N+CH->C6H6N atoms 1-13 frame 130 charge +0.000 sz -1.000 sz^2 1.110
C        1.3406622002    0.2294340755    0.0617375679
C        0.8995558979   -1.1722951208   -0.4662965830
C       -0.3242547080   -1.4235345687   -0.7529606104
C       -1.1984614588    0.4781579086    0.0097034138
C       -0.5491924951    1.8034200322   -0.3841495746
N        0.7783225217    1.5978971036   -0.1280955962
H        2.3026401192    0.2543977826    0.5601198605
H        1.6916506042   -1.9091476074   -0.6426821206
H       -0.9177805290   -2.3039456892   -1.2567350355
H       -2.2041377367    0.1722439430    0.3416422809
H       -0.9195218953    2.8236077671   -0.5060516253
C       -0.4551335586    0.1407958359    1.2521437159
H       -0.4443489617   -0.6910314623    1.9116243065
13   
C5H5N+CH->C6H6N atoms 1-13 frame 131 charge +0.000 sz -1.000 sz^2 1.097
C        1.3211325063    0.2255304787    0.0707066841
C        0.9016554670   -1.1725776787   -0.4784585958
C       -0.3267350155   -1.4233077686   -0.7662339260
C       -1.1833083515    0.4790890496    0.0214225901
C       -0.5430390221    1.8084326284   -0.3881498230
N        0.7720080710    1.6048043673   -0.1354938353
H        2.2795382191    0.2443238534    0.5659013659
H        1.6885636683   -1.9018858199   -0.6795811431
H       -0.8892503974   -2.3168061467   -1.2347611195
H       -2.1996226923    0.1933858977    0.3520402219
H       -0.9216773791    2.8214457520   -0.5268500159
C       -0.4613338684    0.1366713713    1.2700068498
H       -0.4379312053   -0.6991059844    1.9294507467
13   
C5H5N+CH->C6H6N atoms 1-13 frame 132 charge -0.000 sz -1.000 sz^2 1.081
C        1.3008911352    0.2214052931    0.0795771935
C        0.9040116695   -1.1727266550   -0.4907619429
C       -0.3306981440   -1.4235643326   -0.7791135101
C       -1.1682200661    0.4795112071    0.0342949927
C       -0.5365378986    1.8124565360   -0.3919468566
N        0.7656342286    1.6115111555   -0.1440007072
H        2.2572122168    0.2347167268    0.5704409350
H        1.6856186957   -1.8943202389   -0.7163723038
H       -0.8589309391   -2.3261641300   -1.2100387096
H       -2.1959834426    0.2161856946    0.3597289972
H       -0.9245845522    2.8177203079   -0.5481319948
C       -0.4663572989    0.1326259757    1.2877787753
H       -0.4320556043   -0.7093575400    1.9485451314
13   
C5H5N+CH->C6H6N atoms 1-13 frame 133 charge -0.000 sz -1.000 sz^2 1.068
C        1.2800223421    0.2170968523    0.0884801926
C        0.9064973334   -1.1726779027   -0.5031893400
C       -0.3359505660   -1.4241682718   -0.7914900960
C       -1.1532855364    0.4794669258    0.0483623207
C       -0.5297260504    1.8155078287   -0.3953987611
N        0.7593103767    1.6180138428   -0.1534308367
H        2.2360014593    0.2257263951    0.5741198333
H        1.6830996584   -1.8865908978   -0.7529560073
H       -0.8277929773   -2.3328187038   -1.1834863565
H       -2.1929675392    0.2405734051    0.3646213397
H       -0.9282737447    2.8125977990   -0.5696556830
C       -0.4701225507    0.1286176837    1.3055072262
H       -0.4268122052   -0.7213449564    1.9685161680
13   
C5H5N+CH->C6H6N atoms 1-13 frame 134 charge +0.000 sz -1.000 sz^2 1.062
C        1.2586419129    0.2126541972    0.0975851028
C        0.9089955102   -1.1723392179   -0.5157305313
C       -0.3422455880   -1.4249031456   -0.8032766144
C       -1.1385723309    0.4790279906    0.0636704772
C       -0.5226215958    1.8176490246   -0.3983156936
N        0.7531865801    1.6243319408   -0.1635291732
H        2.2161693633    0.2174820002    0.5773299461
H        1.6812748995   -1.8787629146   -0.7892589330
H       -0.7969386062   -2.3379147320   -1.1561769330
H       -2.1903155254    0.2664600321    0.3666701418
H       -0.9327128913    2.8062592863   -0.5911005355
C       -0.4725558841    0.1245782425    1.3232519419
H       -0.4223058442   -0.7345227042    1.9888808040
13   
C5H5N+CH->C6H6N atoms 1-13 frame 135 charge +0.000 sz -1.000 sz^2 1.049
C        1.2368970131    0.2081360756    0.1070849821
C        0.9114063161   -1.1715903171   -0.5283885996
C       -0.3492993045   -1.4254769458   -0.8144234553
C       -1.1241273031    0.4782970270    0.0802619081
C       -0.5152256762    1.8189909298   -0.4004743346
N        0.7474554430    1.6305103897   -0.1739873167
H        2.1978766502    0.2100897577    0.5804447175
H        1.6803666041   -1.8708013655   -0.8252297042
H       -0.7675354646   -2.3429047817   -1.1292606123
H       -2.1877678211    0.2937416214    0.3658714078
H       -0.9378008383    2.7988950119   -0.6120841113
C       -0.4735930767    0.1204231807    1.3410684473
H       -0.4186525419   -0.7483105838    2.0091166711
13   
C5H5N+CH->C6H6N atoms 1-13 frame 136 charge -0.000 sz -1.000 sz^2 1.038
C        1.2149579336    0.2036056946    0.1171739356
C        0.9136477555   -1.1702932594   -0.5411835334
C       -0.3568200592   -1.4255504340   -0.8249267745
C       -1.1099842133    0.4773988264    0.0981658354
C       -0.5075339119    1.8196805673   -0.4016439799
N        0.7423440965    1.6366127690   -0.1844752328
H        2.1811671630    0.2036270301    0.5837887954
H        1.6805241711   -1.8625690802   -0.8608316233
H       -0.7407037069   -2.3494025035   -1.1038400608
H       -2.1850701664    0.3222984099    0.3622679027
H       -0.9433744776    2.7906874808   -0.6321955255
C       -0.4731813530    0.1160608592    1.3589933059
H       -0.4159732313   -0.7621563601    2.0287069552
13   
C5H5N+CH->C6H6N atoms 1-13 frame 137 charge +0.000 sz -1.000 sz^2 1.032
C        1.1930061189    0.1991160479    0.1280178911
C        0.9156495110   -1.1683183489   -0.5541513326
C       -0.3645419318   -1.4247980015   -0.8348253918
C       -1.0961755264    0.4764565215    0.1173873329
C       -0.4995559942    1.8198724938   -0.4016253428
N        0.7380966300    1.6427012793   -0.1946880203
H        2.1659638742    0.1981347184    0.5876090134
H        1.6818023295   -1.8538491371   -0.8960249214
H       -0.7173705789   -2.3589056999   -1.0808210434