13   
From optimize.out: Frame 1 / 2, Energy=    -286.8383070666
C        1.2032804335    0.3392835338    0.3347916079
C        0.6649463801   -1.0859383710   -0.1430045256
C       -0.6133333111   -0.9511261078   -0.8277092227
C       -1.0806741231    0.1429744421    0.1298472353
C       -0.5137572663    1.4334798190   -0.4498609995
N        0.7650536376    1.5127517671   -0.3783312743
H        2.2200148702    0.3337758563    0.7142682221
H        1.3730976292   -1.9076632467   -0.1834248102
H       -0.9311976298   -1.1928180351   -1.8392184772
H       -2.1199363622    0.1495444324    0.4657830881
H       -1.1027479579    2.1653504802   -1.0004630789
C        0.0918833559   -0.3236783934    1.0663264960
H        0.0433703445   -0.6159361774    2.1109957384
13   
From optimize.out: Frame 30 / 31, Energy=    -286.8383070666
C        1.2032804335    0.3392835338    0.3347916079
C        0.6649463801   -1.0859383710   -0.1430045256
C       -0.6133333111   -0.9511261078   -0.8277092227
C       -1.0806741231    0.1429744421    0.1298472353
C       -0.5137572663    1.4334798190   -0.4498609995
N        0.7650536376    1.5127517671   -0.3783312743
H        2.2200148702    0.3337758563    0.7142682221
H        1.3730976292   -1.9076632467   -0.1834248102
H       -0.9311976298   -1.1928180351   -1.8392184772
H       -2.1199363622    0.1495444324    0.4657830881
H       -1.1027479579    2.1653504802   -1.0004630789
C        0.0918833559   -0.3236783934    1.0663264960
H        0.0433703445   -0.6159361774    2.1109957384
13   
From optimize.out: Frame 29 / 31, Energy=    -286.8383063305
C        1.2062558162    0.3415228075    0.3228119440
C        0.6765452357   -1.0791190540   -0.1609954618
C       -0.6036628152   -0.9459769320   -0.8366714958
C       -1.0737893227    0.1536104758    0.1161547407
C       -0.5123658387    1.4560687076   -0.4383314811
N        0.7599637342    1.5277267833   -0.3685782439
H        2.2073187099    0.3376677947    0.7423446818
H        1.3758701354   -1.9090925998   -0.1821631582
H       -0.9681531840   -1.2729500007   -1.8059717486
H       -2.1132177720    0.1562447843    0.4512224197
H       -1.0937718115    2.1926752704   -0.9904124360
C        0.0986914648   -0.3114161773    1.0600783165
H        0.0403156481   -0.6469618597    2.0905119228
13   
From optimize.out: Frame 28 / 31, Energy=    -286.8383040435
C        1.2099513899    0.3291578300    0.3370224454
C        0.6766716762   -1.0550290960   -0.1536843194
C       -0.5721054569   -0.9146641185   -0.8516775572
C       -1.0820167858    0.1591132193    0.1268589917
C       -0.5180638293    1.4406347998   -0.4454282213
N        0.7565185346    1.5087802721   -0.3657181565
H        2.2333357481    0.3474822427    0.6950606707
H        1.3550756404   -1.9035717403   -0.1687876630
H       -0.9467115017   -1.3066060808   -1.7938750252
H       -2.1244513097    0.1763868014    0.4528036811
H       -1.0976088471    2.1953848864   -0.9748428970
C        0.0890379259   -0.2884857889    1.0679277530
H        0.0203668156   -0.6885832272    2.0743402978
13   
From optimize.out: Frame 27 / 31, Energy=    -286.8383012725
C        1.2041982865    0.3295487230    0.3476731182
C        0.6921458908   -1.0352521224   -0.1866500457
C       -0.5960616026   -0.9545631214   -0.8123294324
C       -1.0795110802    0.1692118623    0.1159602897
C       -0.4990881846    1.4374963419   -0.4717170874
N        0.7701648411    1.5328820275   -0.3311111776
H        2.2160941783    0.3613445907    0.7381798747
H        1.3861279574   -1.8702595347   -0.2214344911
H       -0.9911020046   -1.3714589095   -1.7360438258
H       -2.1224701838    0.2101192793    0.4357527251
H       -1.0753258258    2.2098159320   -0.9785797099
C        0.0775794801   -0.2994606352    1.0519162699
H        0.0172482475   -0.7194244333    2.0483834922
13   
From optimize.out: Frame 23 / 31, Energy=    -286.8382336341
C        1.2136908160    0.3177998482    0.3331404640
C        0.7102662607   -1.0317739582   -0.2067184969
C       -0.5806514565   -0.9698494320   -0.8134075809
C       -1.0941774289    0.1804003316    0.1180823406
C       -0.5030580325    1.4325073753   -0.4793152350
N        0.7728774385    1.5171682396   -0.3433007482
H        2.2221889689    0.3639950315    0.7324102978
H        1.3967567548   -1.8733722924   -0.2159465444
H       -0.9777933028   -1.4074396758   -1.7276467087
H       -2.1355759211    0.2249114721    0.4406816539
H       -1.0748156114    2.2389891863   -0.9328854868
C        0.0540550982   -0.2563560468    1.0644379269
H       -0.0037635840   -0.7369800793    2.0304681175
13   
From optimize.out: Frame 21 / 31, Energy=    -286.8380536851
C        1.2182938921    0.3053038538    0.3150281235
C        0.7218628505   -1.0352282745   -0.2115674247
C       -0.5625344495   -0.9782978338   -0.8087525709
C       -1.1006444931    0.1911324342    0.1163572859
C       -0.5115806939    1.4361336179   -0.4794938792
N        0.7673425054    1.4984840579   -0.3591826083
H        2.2311272754    0.3648410146    0.7011537483
H        1.3995479643   -1.8853378397   -0.1917976672
H       -0.9598081075   -1.4288765774   -1.7173350787
H       -2.1451814466    0.2150848298    0.4240193306
H       -1.0725678389    2.2778567596   -0.8815477861
C        0.0386743480   -0.1995341643    1.0865372168
H       -0.0245318063   -0.7615618781    2.0065813101
13   
From optimize.out: Frame 16 / 31, Energy=    -286.8367270723
C        1.1985508803    0.3050864841    0.3148092117
C        0.7195577477   -1.0350017712   -0.2036556378
C       -0.5848737278   -1.0051403598   -0.7458755001
C       -1.0728183679    0.2000027464    0.0907724926
C       -0.5015464994    1.4589290963   -0.4873051525
N        0.7605324027    1.5204348739   -0.3303238564
H        2.2169525656    0.3765457583    0.6841041488
H        1.4136265037   -1.8730270720   -0.2018545806
H       -1.0008212131   -1.4581848836   -1.6452706931
H       -2.1312203350    0.1816940748    0.3415210577
H       -1.0430237843    2.3205566697   -0.8717092997
C        0.0507293366   -0.1810244505    1.0921597494
H       -0.0256455090   -0.8108711665    1.9626280599
13   
From optimize.out: Frame 15 / 31, Energy=    -286.8353241538
C        1.1834199131    0.3072899050    0.3108969297
C        0.7162305740   -1.0328911734   -0.1919610272
C       -0.6029466131   -1.0265583305   -0.6918224233
C       -1.0505745078    0.2098181855    0.0697238910
C       -0.4937078328    1.4796293132   -0.4948786793
N        0.7553866822    1.5397729687   -0.3101336068
H        2.2056459578    0.3898956032    0.6682478951
H        1.4222154093   -1.8619652614   -0.1981947720
H       -1.0324454626   -1.4859578984   -1.5822666047
H       -2.1201121586    0.1548861995    0.2747811016
H       -1.0178311332    2.3602571623   -0.8601302614
C        0.0610665928   -0.1704226994    1.0912865299
H       -0.0263474211   -0.8637539742    1.9144510274
13   
From optimize.out: Frame 14 / 31, Energy=    -286.8335511041
C        1.1981290433    0.3251559296    0.2830884066
C        0.7062905634   -1.0185904156   -0.1557914083
C       -0.5934157782   -1.0128792295   -0.6948609118
C       -1.0644481075    0.2257486302    0.0780246161
C       -0.5000743122    1.4867731112   -0.5009139772
N        0.7610095762    1.5422066608   -0.3460288842
H        2.2128960757    0.4138893137    0.6601126323
H        1.3952861821   -1.8589842493   -0.1057872685
H       -1.0033234687   -1.5037975225   -1.5778829724
H       -2.1274625766    0.1706697970    0.3099980327
H       -1.0207922222    2.3805513140   -0.8372897888
C        0.0602900570   -0.2109857565    1.0483855555
H       -0.0243850323   -0.9397575830    1.8389459681
13   
From optimize.out: Frame 12 / 31, Energy=    -286.8228726714
C        1.2128381736    0.3430219542    0.2552798836
C        0.6963505528   -1.0042896578   -0.1196217895
C       -0.5838849434   -0.9992001286   -0.6978994004
C       -1.0783217072    0.2416790749    0.0863253413
C       -0.5064407915    1.4939169093   -0.5069492752
N        0.7666324701    1.5446403529   -0.3819241617
H        2.2201461937    0.4378830241    0.6519773694
H        1.3683569548   -1.8560032372   -0.0133797650
H       -0.9742014747   -1.5216371467   -1.5734993401
H       -2.1348129946    0.1864533945    0.3452149637
H       -1.0237533112    2.4008454657   -0.8144493161
C        0.0595135211   -0.2515488136    1.0054845811
H       -0.0224226435   -1.0157611917    1.7634409087
13   
From optimize.out: Frame 10 / 31, Energy=    -286.8106464629
C        1.2340256466    0.3280802348    0.2340558116
C        0.7206969149   -1.0075857600   -0.1707669467
C       -0.5639105012   -1.0040124336   -0.7276306951
C       -1.0911469674    0.2432362097    0.1140269430
C       -0.5101263741    1.4734626345   -0.5082708183
N        0.7720056290    1.5259298730   -0.3800855260
H        2.2326069262    0.4148179212    0.6531846580
H        1.3943592344   -1.8595265489   -0.0726408593
H       -0.9728143831   -1.5108283224   -1.6021742701
H       -2.1473583698    0.1762572757    0.3695886155
H       -1.0221552652    2.3834030424   -0.8160524809
C        0.0263582262   -0.2041019150    1.0693663199
H       -0.0725407165   -0.9591322114    1.8373992485
13   
From optimize.out: Frame 9 / 31, Energy=    -286.8005527748
C        1.2552605519    0.3128983078    0.2128799488
C        0.7452943106   -1.0110107007   -0.2225513942
C       -0.5438595943   -1.0089601266   -0.7575574259
C       -1.1039645519    0.2446881079    0.1418705916
C       -0.5137923281    1.4528062956   -0.5095578489
N        0.7773769595    1.5070645823   -0.3779706149
H        2.2451058091    0.3914082690    0.6544603496
H        1.4207490612   -1.8630974832   -0.1330124215
H       -0.9716303574   -1.4998097435   -1.6310912441
H       -2.1599417808    0.1658709420    0.3938828763
H       -1.0205238388    2.3656843243   -0.8178346141
C       -0.0070341355   -0.1560106362    1.1340298868
H       -0.1230401056   -0.9015321386    1.9124519104
13   
From optimize.out: Frame 8 / 31, Energy=    -286.7932379459
C        1.2734640369    0.2983480100    0.1881293601
C        0.7580405424   -1.0160161119   -0.2667377071
C       -0.5317063719   -1.0146192596   -0.7948835008
C       -1.1058458315    0.2395548041    0.1638371431
C       -0.5162360679    1.4383515772   -0.5051975138
N        0.7804911370    1.4969559425   -0.3655785479
H        2.2557862150    0.3639492562    0.6486311993
H        1.4323974844   -1.8698618548   -0.1796076468
H       -0.9689938193   -1.4911672713   -1.6699658347
H       -2.1629311400    0.1414221764    0.4039840212
H       -1.0230180339    2.3511010617   -0.8136528908
C       -0.0298283528   -0.1038333843    1.1985880829
H       -0.1616197984   -0.8341849461    1.9924538353
13   
From optimize.out: Frame 7 / 31, Energy=    -286.7643168982
C        1.2886664799    0.2844230116    0.1598398681
C        0.7590543718   -1.0225861557   -0.3034020270
C       -0.5273716905   -1.0209827031   -0.8395347703
C       -1.0969003999    0.2279022892    0.1799854924
C       -0.5174698415    1.4300363324   -0.4952464057
N        0.7813707809    1.4955162023   -0.3430123134
H        2.2646663671    0.3324814618    0.6357684053
H        1.4294522288   -1.8797876618   -0.2125645892
H       -0.9649193248   -1.4848770946   -1.7186982557
H       -2.1564225903    0.1030518999    0.4000342806
H       -1.0295965075    2.3396218340   -0.8035670755
C       -0.0421306307   -0.0476111053    1.2630419641
H       -0.1883992434   -0.7571883107    2.0773554262
13   
From optimize.out: Frame 6 / 31, Energy=    -286.7581535782
C        1.2856404259    0.2756898983    0.1432636265
C        0.7508434379   -1.0280133725   -0.3203744973
C       -0.5280829683   -1.0323490696   -0.8667356019
C       -1.0831971312    0.2255022218    0.1819851736
C       -0.5186036866    1.4332453555   -0.4926747943
N        0.7749135223    1.4982437995   -0.3217156057
H        2.2513258328    0.3116057957    0.6395644673
H        1.4178952009   -1.8861548939   -0.2151816881
H       -0.9629804811   -1.4938208794   -1.7473451682
H       -2.1419420563    0.0766722315    0.3953170516
H       -1.0319175214    2.3450480022   -0.7898435352
C       -0.0319511490   -0.0108533063    1.2858154091
H       -0.1819434260   -0.7148157828    2.1079251625
13   
From optimize.out: Frame 5 / 31, Energy=    -286.7277716502
C        1.2487160985    0.2766117743    0.1484697052
C        0.7254778504   -1.0313153535   -0.3007273987
C       -0.5381778669   -1.0530190253   -0.8614850625
C       -1.0606460424    0.2403082899    0.1576735565
C       -0.5195517018    1.4578852615   -0.5038263218
N        0.7548123346    1.5087211056   -0.3027797494
H        2.1966630271    0.3104275769    0.6743398503
H        1.3903234565   -1.8859044906   -0.1613778813
H       -0.9650131593   -1.5310942073   -1.7386404517
H       -2.1126365753    0.0725906666    0.3891725774
H       -1.0263212327    2.3819119646   -0.7693551698
C        0.0200361044   -0.0102922529    1.2310786337
H       -0.1136822931   -0.7368313098    2.0374577119
13   
From optimize.out: Frame 3 / 31, Energy=    -286.7204458581
C        1.2117917712    0.2775336502    0.1536757840
C        0.7001122629   -1.0346173344   -0.2810803001
C       -0.5482727655   -1.0736889810   -0.8562345232
C       -1.0380949536    0.2551143580    0.1333619395
C       -0.5204997170    1.4825251675   -0.5149778493
N        0.7347111468    1.5191984117   -0.2838438931
H        2.1420002215    0.3092493580    0.7091152333
H        1.3627517121   -1.8856540873   -0.1075740744
H       -0.9670458376   -1.5683675352   -1.7299357351
H       -2.0833310943    0.0685091017    0.3830281032
H       -1.0207249439    2.4187759270   -0.7488668043
C        0.0720233577   -0.0097311994    1.1763418584
H       -0.0454211602   -0.7588468368    1.9669902613
13   
From optimize.out: Frame 1 / 31, Energy=    -286.5887998382
C        1.1992266048    0.2836545144    0.1483495169
C        0.6938912408   -1.0329257780   -0.2649889035
C       -0.5501076732   -1.0869175747   -0.8288559353
C       -1.0279422793    0.2659641731    0.1112008075
C       -0.5178067943    1.5020312043   -0.5195275749
N        0.7256066284    1.5290791388   -0.2761759274
H        2.1241591289    0.3184391086    0.7106827851
H        1.3591640883   -1.8796117859   -0.0759710815
H       -0.9765978676   -1.5954035810   -1.6905300406
H       -2.0706542803    0.0693407696    0.3649630815
H       -1.0110590866    2.4477742684   -0.7303293413
C        0.0867496170   -0.0259263632    1.1405962541
H       -0.0346293270   -0.7954980944    1.9105863594
13   
C5H5N+CH->C6H6N atoms 1-13 frame 119 charge +0.000 sz -1.000 sz^2 0.781
C        1.2214405367    0.2971982994    0.1279855607
C        0.7150041129   -1.0241046359   -0.2539742051
C       -0.5401492751   -1.0895216703   -0.7698837480
C       -1.0354915971    0.2711653983    0.0921100578
C       -0.5099154765    1.5142072948   -0.5146514948
N        0.7322027429    1.5381080927   -0.2845958344
H        2.1588907003    0.3424318579    0.6648374385
H        1.3898200942   -1.8653000291   -0.0760655796
H       -0.9968857467   -1.6078232185   -1.6072906388
H       -2.0817192546    0.0771873672    0.3298783483
H       -0.9955828516    2.4655423705   -0.7145773038
C        0.0482760237   -0.0660454268    1.1319655332
H       -0.1058900090   -0.8530457001    1.8742618660
13   
C5H5N+CH->C6H6N atoms 1-13 frame 120 charge +0.000 sz -1.000 sz^2 0.858
C        1.2436544686    0.3107420844    0.1076216045
C        0.7361169849   -1.0152834938   -0.2429595068
C       -0.5301908770   -1.0921257658   -0.7109115606
C       -1.0430409148    0.2763666235    0.0730193080
C       -0.5020241588    1.5263833852   -0.5097754147
N        0.7387988575    1.5471370465   -0.2930157413
H        2.1936222716    0.3664246073    0.6189920919
H        1.4204761000   -1.8509882724   -0.0761600777
H       -1.0171736257   -1.6202428560   -1.5240512370
H       -2.0927842290    0.0850339649    0.2947936151
H       -0.9801066165    2.4833104726   -0.6988252664
C        0.0098024303   -0.1061644905    1.1233348123
H       -0.1771506910   -0.9105933059    1.8379373726
13   
C5H5N+CH->C6H6N atoms 1-13 frame 121 charge -0.000 sz -1.000 sz^2 0.944
C        1.2658684005    0.3242858694    0.0872576483
C        0.7572298569   -1.0064623518   -0.2319448084
C       -0.5202324789   -1.0947298614   -0.6519393732
C       -1.0505902326    0.2815678487    0.0539285582
C       -0.4941328411    1.5385594757   -0.5048993346
N        0.7453949720    1.5561660004   -0.3014356482
H        2.2283538429    0.3904173566    0.5731467454
H        1.4511321058   -1.8366765156   -0.0762545758
H       -1.0374615047   -1.6326624936   -1.4408118353
H       -2.1038492033    0.0928805625    0.2597088819
H       -0.9646303815    2.5010785747   -0.6830732289
C       -0.0286711630   -0.1462835541    1.1147040914
H       -0.2484113730   -0.9681409116    1.8016128792
13   
C5H5N+CH->C6H6N atoms 1-13 frame 122 charge +0.000 sz -1.000 sz^2 1.014
C        1.2880823324    0.3378296544    0.0668936922
C        0.7783427289   -0.9976412097   -0.2209301100
C       -0.5102740808   -1.0973339570   -0.5929671859
C       -1.0581395504    0.2867690739    0.0348378085
C       -0.4862415234    1.5507355661   -0.5000232545
N        0.7519910865    1.5651949543   -0.3098555551
H        2.2630854143    0.4144101060    0.5273013988
H        1.4817881117   -1.8223647588   -0.0763490740
H       -1.0577493837   -1.6450821311   -1.3575724335
H       -2.1149141777    0.1007271601    0.2246241487
H       -0.9491541465    2.5188466769   -0.6673211914
C       -0.0671447563   -0.1864026177    1.1060733705
H       -0.3196720549   -1.0256885173    1.7652883859
13   
C5H5N+CH->C6H6N atoms 1-13 frame 123 charge +0.000 sz -1.000 sz^2 1.071
C        1.3097189461    0.3490350799    0.0480785584
C        0.7966979343   -0.9901166599   -0.2135859600
C       -0.5014307156   -1.0986818940   -0.5444956618
C       -1.0649317686    0.2894587920    0.0191186487
C       -0.4793023053    1.5598369055   -0.4954967703
N        0.7592659561    1.5727540091   -0.3161611654
H        2.2955035181    0.4341787732    0.4869398816
H        1.5075191177   -1.8108399951   -0.0787180796
H       -1.0761924201   -1.6528578836   -1.2879072112
H       -2.1240372541    0.1027151651    0.1947182896
H       -0.9361464796    2.5323180401   -0.6541569781
C       -0.1027257703   -0.2172783103    1.1021775282
H       -0.3839387587   -1.0705220218    1.7394889200
13   
C5H5N+CH->C6H6N atoms 1-13 frame 124 charge +0.000 sz -1.000 sz^2 1.110
C        1.3258168044    0.3378064288    0.0441227317
C        0.7885962558   -0.9950315367   -0.2414568246
C       -0.5032849068   -1.0879783235   -0.5967668531
C       -1.0644604200    0.2680532666    0.0357463144
C       -0.4814974725    1.5394392731   -0.4943242878
N        0.7730527602    1.5662109435   -0.3021823443
H        2.3057263574    0.4134218568    0.4991898853
H        1.4859999798   -1.8260534703   -0.1029085699
H       -1.0769361492   -1.6160804903   -1.3484718283
H       -2.1145298818    0.0484961935    0.2144982288
H       -0.9468221035    2.5045667557   -0.6658201894
C       -0.1105555568   -0.1594736732    1.1437078189
H       -0.3811056669   -0.9933772239    1.8146659182
13   
C5H5N+CH->C6H6N atoms 1-13 frame 125 charge -0.000 sz -1.000 sz^2 1.129
C        1.3419146627    0.3265777777    0.0401669050
C        0.7804945773   -0.9999464134   -0.2693276892
C       -0.5051390981   -1.0772747530   -0.6490380443
C       -1.0639890714    0.2466477411    0.0523739802
C       -0.4836926396    1.5190416406   -0.4931518053
N        0.7868395643    1.5596678778   -0.2882035232
H        2.3159491968    0.3926649405    0.5114398891
H        1.4644808418   -1.8412669454   -0.1270990602
H       -1.0776798784   -1.5793030971   -1.4090364454
H       -2.1050225096   -0.0057227780    0.2342781681
H       -0.9574977275    2.4768154712   -0.6774834007
C       -0.1183853432   -0.1016690361    1.1852381096
H       -0.3782725752   -0.9162324259    1.8898429164
13   
C5H5N+CH->C6H6N atoms 1-13 frame 126 charge +0.000 sz -1.000 sz^2 1.139
C        1.3580125210    0.3153491266    0.0362110783
C        0.7723928987   -1.0048612902   -0.2971985538
C       -0.5069932893   -1.0665711824   -0.7013092355
C       -1.0635177227    0.2252422157    0.0690016460
C       -0.4858878067    1.4986440082   -0.4919793229
N        0.8006263684    1.5531248121   -0.2742247021
H        2.3261720361    0.3719080241    0.5236898928
H        1.4429617039   -1.8564804206   -0.1512895505
H       -1.0784236075   -1.5425257038   -1.4696010625
H       -2.0955151373   -0.0599417496    0.2540581074
H       -0.9681733514    2.4490641868   -0.6891466120
C       -0.1262151297   -0.0438643990    1.2267684003
H       -0.3754394835   -0.8390876280    1.9650199146
13   
C5H5N+CH->C6H6N atoms 1-13 frame 127 charge +0.000 sz -1.000 sz^2 1.140
C        1.3741103793    0.3041204755    0.0322552516
C        0.7642912202   -1.0097761669   -0.3250694184
C       -0.5088474806   -1.0558676119   -0.7535804268
C       -1.0630463741    0.2038366903    0.0856293118
C       -0.4880829738    1.4782463757   -0.4908068404
N        0.8144131725    1.5465817465   -0.2602458809
H        2.3363948755    0.3511511078    0.5359398965
H        1.4214425659   -1.8716938957   -0.1754800407
H       -1.0791673367   -1.5057483105   -1.5301656797
H       -2.0860077650   -0.1141607211    0.2738380466
H       -0.9788489753    2.4213129024   -0.7008098233
C       -0.1340449162    0.0139402381    1.2682986910
H       -0.3726063918   -0.7619428301    2.0401969128
13   
C5H5N+CH->C6H6N atoms 1-13 frame 128 charge +0.000 sz -1.000 sz^2 1.136
C        1.3902082377    0.2928918244    0.0282994249
C        0.7561895417   -1.0146910437   -0.3529402830
C       -0.5107016718   -1.0451640413   -0.8058516180
C       -1.0625750255    0.1824311648    0.1022569776
C       -0.4902781410    1.4578487433   -0.4896343579
N        0.8281999766    1.5400386808   -0.2462670598
H        2.3466177148    0.3303941914    0.5481899002
H        1.3999234280   -1.8869073709   -0.1996705310
H       -1.0799110659   -1.4689709172   -1.5907302968
H       -2.0765003928   -0.1683796927    0.2936179859
H       -0.9895245993    2.3935616180   -0.7124730347
C       -0.1418747026    0.0717448752    1.3098289817
H       -0.3697733000   -0.6847980321    2.1153739109
13   
C5H5N+CH->C6H6N atoms 1-13 frame 129 charge -0.000 sz -1.000 sz^2 1.117
C        1.4051812176    0.2896038724    0.0313911216
C        0.7480666138   -1.0228802683   -0.3492245610
C       -0.5264580089   -1.0748698187   -0.7881443471
C       -1.0613602529    0.1860616150    0.0654130480
C       -0.4954405112    1.4817237343   -0.4722607046
N        0.8386125449    1.5468064367   -0.2080834048
H        2.3655903824    0.3190354034    0.5476686806
H        1.3962798842   -1.8926895704   -0.2016367035
H       -1.1047923823   -1.4982354421   -1.5576349125
H       -2.0561727814   -0.2191042799    0.2371879579
H       -0.9935149966    2.4221147611   -0.6758533238
C       -0.1556429614    0.1171874123    1.2841079588
H       -0.3603487482   -0.6547538558    2.0870691902
13   
C5H5N+CH->C6H6N atoms 1-13 frame 131 charge +0.000 sz -1.000 sz^2 1.097
C        1.4199236266    0.2879435573    0.0359273774
C        0.7399393303   -1.0317406490   -0.3390344101
C       -0.5450639243   -1.1128584613   -0.7560933114
C       -1.0599930978    0.1948237890    0.0176088322
C       -0.5012110808    1.5146734616   -0.4515662328
N        0.8483334826    1.5563025647   -0.1649383883
H        2.3863565373    0.3096029872    0.5445296924
H        1.3963003723   -1.8965386037   -0.1990474688
H       -1.1346212765   -1.5410368425   -1.5053416638
H       -2.0336273024   -0.2691126093    0.1651368688
H       -0.9961350963    2.4622088475   -0.6293368696
C       -0.1706284526    0.1600960404    1.2446021656
H       -0.3495731186   -0.6343640820    2.0375534084
13   
C5H5N+CH->C6H6N atoms 1-13 frame 132 charge -0.000 sz -1.000 sz^2 1.081
C        1.4333947297    0.2843692199    0.0324194327
C        0.7491427868   -1.0461346665   -0.3344464996
C       -0.5424310570   -1.1570306937   -0.7288316863
C       -1.0804360223    0.2174547762   -0.0108120941
C       -0.5099065042    1.5450154295   -0.4316349405
N        0.8519378393    1.5580849512   -0.1395129969
H        2.4062197020    0.3077665849    0.5298848011
H        1.4186126247   -1.9012120063   -0.2035774429
H       -1.1396176631   -1.5934076706   -1.4605668038
H       -2.0465567826   -0.2696060552    0.1247586822
H       -0.9915352572    2.5023137242   -0.5823841197
C       -0.1910297505    0.1821017155    1.2113459948
H       -0.3577946456   -0.6297153092    1.9933576729
13   
C5H5N+CH->C6H6N atoms 1-13 frame 133 charge -0.000 sz -1.000 sz^2 1.068
C        1.4454157675    0.2786117282    0.0197361870
C        0.7781138706   -1.0668404092   -0.3362485642
C       -0.5155730069   -1.2082559946   -0.7070329141
C       -1.1257557569    0.2559046799   -0.0171242329
C       -0.5219380470    1.5723829592   -0.4125741391
N        0.8485655582    1.5510689616   -0.1342987994
H        2.4250529066    0.3145942772    0.5021161536
H        1.4663511017   -1.9068256936   -0.2162276626
H       -1.1162898261   -1.6566934902   -1.4243674985
H       -2.0999493806   -0.2136222955    0.1205069471
H       -0.9787002787    2.5424309083   -0.5349337262
C       -0.2176083756    0.1802652590    1.1852182103
H       -0.3876845328   -0.6430208905    1.9552300389
13   
C5H5N+CH->C6H6N atoms 1-13 frame 134 charge +0.000 sz -1.000 sz^2 1.062
C        1.4574368052    0.2728542366    0.0070529414
C        0.8070849543   -1.0875461519   -0.3380506288
C       -0.4887149569   -1.2594812954   -0.6852341419
C       -1.1710754914    0.2943545836   -0.0234363718
C       -0.5339695898    1.5997504889   -0.3935133376
N        0.8451932770    1.5440529721   -0.1290846019
H        2.4438861111    0.3214219695    0.4743475061
H        1.5140895788   -1.9124393808   -0.2288778823
H       -1.0929619892   -1.7199793098   -1.3881681932
H       -2.1533419785   -0.1576385359    0.1162552120
H       -0.9658653001    2.5825480925   -0.4874833328
C       -0.2441870006    0.1784288025    1.1590904258
H       -0.4175744199   -0.6563264718    1.9171024050
13   
C5H5N+CH->C6H6N atoms 1-13 frame 135 charge +0.000 sz -1.000 sz^2 1.049
C        1.4694578430    0.2670967450   -0.0056303043
C        0.8360560380   -1.1082518946   -0.3398526934
C       -0.4618569069   -1.3107065963   -0.6634353698
C       -1.2163952259    0.3328044872   -0.0297485107
C       -0.5460011326    1.6271180186   -0.3744525362
N        0.8418209959    1.5370369825   -0.1238704043
H        2.4627193157    0.3282496618    0.4465788586
H        1.5618280558   -1.9180530680   -0.2415281020
H       -1.0696341522   -1.7832651294   -1.3519688879
H       -2.2067345765   -0.1016547763    0.1120034769
H       -0.9530303216    2.6226652767   -0.4400329393
C       -0.2707656257    0.1765923460    1.1329626413
H       -0.4474643071   -0.6696320531    1.8789747711
13   
C5H5N+CH->C6H6N atoms 1-13 frame 136 charge -0.000 sz -1.000 sz^2 1.038
C        1.4814788808    0.2613392533   -0.0183135500
C        0.8650271218   -1.1289576373   -0.3416547580
C       -0.4349988568   -1.3619318971   -0.6416365976
C       -1.2617149605    0.3712543909   -0.0360606495
C       -0.5580326754    1.6544855483   -0.3553917347
N        0.8384487148    1.5300209929   -0.1186562068
H        2.4815525202    0.3350773541    0.4188102111
H        1.6095665329   -1.9236667553   -0.2541783218
H       -1.0463063152   -1.8465509491   -1.3157695826
H       -2.2601271745   -0.0456710167    0.1077517418
H       -0.9401953431    2.6627824608   -0.3925825458
C       -0.2973442507    0.1747558895    1.1068348568
H       -0.4773541942   -0.6829376344    1.8408471371
13   
C5H5N+CH->C6H6N atoms 1-13 frame 137 charge +0.000 sz -1.000 sz^2 1.032
C        1.4934999186    0.2555817617   -0.0309967956
C        0.8939982055   -1.1496633800   -0.3434568226
C       -0.4081408068   -1.4131571980   -0.6198378254
C       -1.3070346950    0.4097042946   -0.0423727884
C       -0.5700642182    1.6818530780   -0.3363309333
N        0.8350764336    1.5230050034   -0.1134420093
H        2.5003857248    0.3419050464    0.3910415636
H        1.6573050099   -1.9292804425   -0.2668285415
H       -1.0229784783   -1.9098367687   -1.2795702773
H       -2.3135197724    0.0103127429    0.1035000067
H       -0.9273603645    2.7028996450   -0.3451321523
C       -0.3239228758    0.1729194330    1.0807070722
H       -0.5072440814   -0.6962432157    1.8027195032
13   
C5H5N+CH->C6H6N atoms 1-13 frame 138 charge -0.000 sz -1.000 sz^2 1.020
C        1.4933979162    0.2511808452   -0.0337691819
C        0.9102350663   -1.1649776155   -0.3527471343
C       -0.3825607059   -1.4465559143   -0.6154802171
C       -1.3306556140    0.4400817063   -0.0468660001
C       -0.5789850008    1.7090179857   -0.3300238450
N        0.8300910413    1.5232960115   -0.1098110808
H        2.5032195185    0.3427726899    0.3912059210
H        1.6914593787   -1.9347787087   -0.2968609946
H       -1.0107549187   -1.9799613260   -1.2631076683
H       -2.3346381736    0.0504514087    0.1221943989
H       -0.9183130721    2.7418283206   -0.3260881841
C       -0.3504052189    0.1718163000    1.0744833789
H       -0.5220902171   -0.7041717034    1.7868706074
13   
C5H5N+CH->C6H6N atoms 1-13 frame 139 charge +0.000 sz -1.000 sz^2 1.007
C        1.4667304874    0.2492194380   -0.0142503968
C        0.9023876099   -1.1678386797   -0.3766401312
C       -0.3601664360   -1.4413167688   -0.6455219589
C       -1.3073900660    0.4526035969   -0.0441745569
C       -0.5788414662    1.7346813609   -0.3464568380
N        0.8210357340    1.5393376436   -0.1087295042
H        2.4700425668    0.3292559406    0.4449749837
H        1.6973640932   -1.9377795638   -0.3649481795
H       -1.0194977722   -2.0684887849   -1.2886955296