13   
From optimize.out: Frame 1 / 2, Energy=    -286.8383070666
C        1.2032804335    0.3392835338    0.3347916079
C        0.6649463801   -1.0859383710   -0.1430045256
C       -0.6133333111   -0.9511261078   -0.8277092227
C       -1.0806741231    0.1429744421    0.1298472353
C       -0.5137572663    1.4334798190   -0.4498609995
N        0.7650536376    1.5127517671   -0.3783312743
H        2.2200148702    0.3337758563    0.7142682221
H        1.3730976292   -1.9076632467   -0.1834248102
H       -0.9311976298   -1.1928180351   -1.8392184772
H       -2.1199363622    0.1495444324    0.4657830881
H       -1.1027479579    2.1653504802   -1.0004630789
C        0.0918833559   -0.3236783934    1.0663264960
H        0.0433703445   -0.6159361774    2.1109957384
13   
From optimize.out: Frame 30 / 31, Energy=    -286.8383070666
C        1.2082334760    0.3349057783    0.3304165921
C        0.6766128994   -1.0662274855   -0.1570829563
C       -0.5867751210   -0.9292201041   -0.8447018821
C       -1.0781921906    0.1565552296    0.1218830440
C       -0.5154150776    1.4478093624   -0.4421292508
N        0.7581200603    1.5175876935   -0.3670476886
H        2.2212415415    0.3429199263    0.7170409819
H        1.3647421103   -1.9061381514   -0.1750053578
H       -0.9566788213   -1.2909608109   -1.7994982737
H       -2.1192293192    0.1670236405    0.4520686204
H       -1.0958251737    2.1941253020   -0.9820805087
C        0.0935254426   -0.2991451442    1.0642788862
H        0.0296401733   -0.6692352364    2.0818577935
13   
From optimize.out: Frame 29 / 31, Energy=    -286.8383063305
C        1.2056115655    0.3294526981    0.3450567264
C        0.6883445715   -1.0401104363   -0.1785518479
C       -0.5901766539   -0.9447617290   -0.8219954988
C       -1.0801266195    0.1667310794    0.1186376111
C       -0.5037496480    1.4382673200   -0.4652590941
N        0.7668125567    1.5269613090   -0.3396125575
H        2.2203296574    0.3579392346    0.7275874236
H        1.3784997982   -1.8784428470   -0.2085015308
H       -0.9801972524   -1.3555274832   -1.7502503532
H       -2.1229568574    0.2018327250    0.4399413789
H       -1.0807997630    2.2062708725   -0.9776617428
C        0.0803943055   -0.2967646085    1.0558495720
H        0.0180143396   -0.7118481346    2.0547599131
13   
From optimize.out: Frame 28 / 31, Energy=    -286.8383040435
C        1.2150325512    0.3141574327    0.3278609586
C        0.7136465118   -1.0327808453   -0.2081318946
C       -0.5753705908   -0.9723120283   -0.8120507076
C       -1.0960624918    0.1835285962    0.1175795102
C       -0.5055422745    1.4335643766   -0.4793673074
N        0.7712640794    1.5117220501   -0.3479300983
H        2.2247943659    0.3642416243    0.7232994309
H        1.3975703551   -1.8768600897   -0.2089074691
H       -0.9725508585   -1.4136882464   -1.7246410062
H       -2.1383758035    0.2220471371    0.4358248091
H       -1.0741604157    2.2503185649   -0.9179212324
C        0.0495718148   -0.2397932267    1.0708795749
H       -0.0098172435   -0.7441453454    2.0235054320
13   
From optimize.out: Frame 27 / 31, Energy=    -286.8383012725
C        1.2077867920    0.3051881711    0.3149116201
C        0.7206360901   -1.0351077309   -0.2073568241
C       -0.5744232655   -0.9925832484   -0.7752898101
C       -1.0858356135    0.1958531556    0.1027412283
C       -0.5062405621    1.4482652205   -0.4836509871
N        0.7637182139    1.5101661369   -0.3438241716
H        2.2235835887    0.3710702017    0.6920800643
H        1.4070404698   -1.8787861306   -0.1971498900
H       -0.9816350108   -1.4444742639   -1.6789828898
H       -2.1377514355    0.1973144911    0.3801142960
H       -1.0568446887    2.3005813690   -0.8763118088
C        0.0450899331   -0.1896834172    1.0895294914
H       -0.0251245115   -0.7878039549    1.9831896814
13   
From optimize.out: Frame 23 / 31, Energy=    -286.8382336341
C        1.1893375903    0.3064281535    0.3124270118
C        0.7175318219   -1.0337166220   -0.1965347553
C       -0.5958783603   -1.0181818245   -0.7129624242
C       -1.0592740167    0.2059793958    0.0779559378
C       -0.4967735125    1.4715335187   -0.4919166950
N        0.7573991585    1.5322098961   -0.3180299546
H        2.2100679392    0.3846745177    0.6744492298
H        1.4188563134   -1.8662915033   -0.1996261125
H       -1.0200773108   -1.4750959532   -1.6069073202
H       -2.1244565340    0.1653706814    0.3008829041
H       -1.0276839057    2.3447304153   -0.8646587896
C        0.0570237220   -0.1745690134    1.0916280435
H       -0.0260729053   -0.8430716622    1.9332929245
13   
From optimize.out: Frame 16 / 31, Energy=    -286.8367270723
C        1.1931107944    0.3190606569    0.2925757176
C        0.7096817529   -1.0234693420   -0.1681312374
C       -0.5966673711   -1.0175460680   -0.6938242841
C       -1.0597149128    0.2203137108    0.0751926944
C       -0.4979022886    1.4843358932   -0.4988549413
N        0.7590912383    1.5413763688   -0.3337826510
H        2.2104225850    0.4057034855    0.6628881039
H        1.4044735075   -1.8600012680   -0.1373135282
H       -1.0132588907   -1.4977112568   -1.5793785169
H       -2.1249548669    0.1652849768    0.2979832279
H       -1.0197820006    2.3736276479   -0.8450821719
C        0.0605549843   -0.1971470375    1.0630218914
H       -0.0250545318   -0.9138277676    1.8647056956
13   
From optimize.out: Frame 15 / 31, Energy=    -286.8353241538
C        1.2078470892    0.3369596763    0.2647158382
C        0.6997233853   -1.0091421737   -0.1318948210
C       -0.5871189348   -1.0038417047   -0.6968683841
C       -1.0736141340    0.2362735756    0.0835087492
C       -0.5042805254    1.4914928843   -0.5049013851
N        0.7647245165    1.5438145554   -0.3697442193
H        2.2176860924    0.4297415072    0.6547378170
H        1.3774945478   -1.8570147506   -0.0447353679
H       -0.9840831146   -1.5155838269   -1.5749867889
H       -2.1323188596    0.1810977232    0.3332651971
H       -1.0227485580    2.3939592785   -0.8221995178
C        0.0597770143   -0.2377850059    1.0200416881
H       -0.0230885189   -0.9899717386    1.7890611946
13   
From optimize.out: Frame 14 / 31, Energy=    -286.8335511041
C        1.2270480186    0.3330009613    0.2410454926
C        0.7126789764   -1.0065002613   -0.1539234148
C       -0.5704886441   -1.0024276069   -0.7178393475
C       -1.0869232502    0.2427234017    0.1049040301
C       -0.5089126086    1.4801987997   -0.5078355972
N        0.7702360974    1.5320917577   -0.3806910402
H        2.2285032582    0.4224139052    0.6527870641
H        1.3857959559   -1.8583662238   -0.0531245221
H       -0.9732711912   -1.5143879708   -1.5927308130
H       -2.1432268266    0.1796151431    0.3615616897
H       -1.0226815465    2.3891473206   -0.8155245139
C        0.0372771929   -0.2197275068    1.0483282752
H       -0.0560354322   -0.9777817197    1.8130426970
13   
From optimize.out: Frame 12 / 31, Energy=    -286.8228726714
C        1.2483913007    0.3178094891    0.2197301004
C        0.7373373319   -1.0099027712   -0.2057997124
C       -0.5503458354   -1.0073596040   -0.7478764677
C       -1.0998182086    0.2442184353    0.1328634869
C       -0.5126064335    1.4594883871   -0.5091415091
N        0.7756393949    1.5131672900   -0.3786547647
H        2.2410625622    0.3989810261    0.6540476778
H        1.4122122514   -1.8619423265   -0.1134829054
H       -0.9720133763   -1.5033741289   -1.6217369308
H       -2.1558711900    0.1692308032    0.3860239583
H       -1.0210515868    2.3714161288   -0.8172581142
C        0.0037679150   -0.1715676198    1.1131119559
H       -0.1067041256   -0.9201651093    1.8881732250
13   
From optimize.out: Frame 10 / 31, Energy=    -286.8106464629
C        1.2680535867    0.3026726579    0.1954857443
C        0.7542521000   -1.0145284007   -0.2536046258
C       -0.5353185597   -1.0129372488   -0.7837894234
C       -1.1052866765    0.2410805276    0.1573082320
C       -0.5155097381    1.4426478169   -0.5064934951
N        0.7795655394    1.4999604383   -0.3692617252
H        2.2526117787    0.3721106397    0.6503637427
H        1.4289353334   -1.8678513444   -0.1657585872
H       -0.9697774527   -1.4937359919   -1.6584115066
H       -2.1620426409    0.1486888525    0.4009817531
H       -1.0222767078    2.3554355074   -0.8148957850
C       -0.0230534424   -0.1193415371    1.1794000588
H       -0.1501531200   -0.8542019173    1.9686756173
13   
From optimize.out: Frame 9 / 31, Energy=    -286.8005527748
C        1.2843331279    0.2883922367    0.1679035936
C        0.7587653867   -1.0207134098   -0.2929511143
C       -0.5286072617   -1.0191688472   -0.8268072325
C       -1.0994502338    0.2312237586    0.1753825163
C       -0.5171181628    1.4324065358   -0.4980829007
N        0.7811200444    1.4959265903   -0.3494446636
H        2.2621351407    0.3414511406    0.6394348564
H        1.4302917537   -1.8769583787   -0.2031704391
H       -0.9660807315   -1.4866700663   -1.7048074137
H       -2.1582778077    0.1139890837    0.4011601270
H       -1.0277213588    2.3428939090   -0.8064419679
C       -0.0386239509   -0.0636368799    1.2446698278
H       -0.1807659465   -0.7791356729    2.0531548106
13   
From optimize.out: Frame 8 / 31, Energy=    -286.7932379459
C        1.2791937898    0.2758508491    0.1441725583
C        0.7464148477   -1.0285898670   -0.3169443008
C       -0.5298454415   -1.0359578471   -0.8658189077
C       -1.0792599257    0.2280872203    0.1777405967
C       -0.5187692011    1.4375472486   -0.4946217448
N        0.7714040463    1.5000730374   -0.3184095855
H        2.2417822272    0.3114000899    0.6456359182
H        1.4130814368   -1.8861111759   -0.2057880555
H       -0.9633353674   -1.5003284477   -1.7458254076
H       -2.1368255982    0.0759596291    0.3942442849
H       -1.0309404627    2.3514840992   -0.7862664616
C       -0.0228746693   -0.0107553517    1.2762588891
H       -0.1700256819   -0.7186594843    2.0956222163
13   
From optimize.out: Frame 7 / 31, Energy=    -286.7643168982
C        1.2422012915    0.2767744270    0.1493882487
C        0.7210024294   -1.0318979441   -0.2972609291
C       -0.5399589776   -1.0566659644   -0.8605586746
C       -1.0566672023    0.2429206239    0.1533840947
C       -0.5197189665    1.4622326456   -0.5057938607
N        0.7512657470    1.5105696871   -0.2994387691
H        2.1870185012    0.3102196958    0.6804755047
H        1.3854587885   -1.8858603103   -0.1518849143
H       -0.9653717984   -1.5376705909   -1.7371046201
H       -2.1074660125    0.0718705287    0.3880884665
H       -1.0253338419    2.3884161210   -0.7657402699
C        0.0292085646   -0.0101932624    1.2214210568
H       -0.1016385230   -0.7407156571    2.0250246663
13   
From optimize.out: Frame 6 / 31, Energy=    -286.7581535782
C        1.2084068385    0.2791825511    0.1522409398
C        0.6984363805   -1.0341616457   -0.2767454355
C       -0.5487670716   -1.0772526345   -0.8488589999
C       -1.0353599226    0.2580371919    0.1273919477
C       -0.5197742700    1.4877799027   -0.5162035008
N        0.7322584788    1.5218601828   -0.2817782183
H        2.1371940060    0.3117249868    0.7095375164
H        1.3617852414   -1.8840263505   -0.0990605378
H       -0.9696190609   -1.5756507810   -1.7193202272
H       -2.0799160848    0.0687331449    0.3781615634
H       -1.0181210567    2.4265877960   -0.7438729934
C        0.0759904676   -0.0140940179    1.1667123429
H       -0.0425139461   -0.7687203265    1.9517956028
13   
From optimize.out: Frame 5 / 31, Energy=    -286.7277716502
C        1.2107404941    0.2906745072    0.1377945040
C        0.7048344305   -1.0283536179   -0.2592797828
C       -0.5449460524   -1.0882673253   -0.7982895665
C       -1.0318552295    0.2686600638    0.1013057210
C       -0.5137165792    1.5083422958   -0.5170002130
N        0.7290255158    1.5337590116   -0.2805401200
H        2.1421611409    0.3308749917    0.6869202992
H        1.3750536597   -1.8721937393   -0.0760200616
H       -0.9871134483   -1.6018409075   -1.6473855284
H       -2.0763894599    0.0734078054    0.3467780193
H       -1.0030374695    2.4569838023   -0.7221647707
C        0.0668080463   -0.0467208115    1.1361227928
H       -0.0715650485   -0.8253260764    1.8917587067
13   
From optimize.out: Frame 1 / 31, Energy=    -286.5887998382
C        1.2329952467    0.3042431805    0.1173931267
C        0.7259861000   -1.0195162659   -0.2482448437
C       -0.5349693546   -1.0908762062   -0.7392090108
C       -1.0394184200    0.2738708468    0.0821798897
C       -0.5058107603    1.5205407613   -0.5121151725
N        0.7356337515    1.5428045572   -0.2889754995
H        2.1769565356    0.3549118305    0.6409907063
H        1.4057659996   -1.8578556830   -0.0761147334
H       -1.0074386087   -1.6142833675   -1.5639931644
H       -2.0874747674    0.0812688221    0.3116288137
H       -0.9875327950    2.4747845555   -0.7063837870
C        0.0282637532   -0.0869135986    1.1274762119
H       -0.1429566804   -0.8829794326    1.8553674627
13   
C5H5N+CH->C6H6N atoms 1-13 frame 119 charge +0.000 sz -1.000 sz^2 0.781
C        1.2552500779    0.3178119017    0.0969916773
C        0.7471378441   -1.0106788827   -0.2372098655
C       -0.5249926215   -1.0934850963   -0.6801282464
C       -1.0469816373    0.2790816483    0.0630539909
C       -0.4979049134    1.5327392698   -0.5072301148
N        0.7422420105    1.5518501348   -0.2974109088
H        2.2117520531    0.3789487543    0.5950609513
H        1.4364784479   -1.8435175760   -0.0762094055
H       -1.0277638409   -1.6267258715   -1.4806005059
H       -2.0985601141    0.0891298665    0.2764794841
H       -0.9720280658    2.4925853714   -0.6906027476
C       -0.0102806760   -0.1271065276    1.1188296005
H       -0.2143485645   -0.9406329925    1.8189760903
13   
C5H5N+CH->C6H6N atoms 1-13 frame 120 charge +0.000 sz -1.000 sz^2 0.858
C        1.2775049601    0.3313806539    0.0765901812
C        0.7682896366   -1.0018414793   -0.2261748621
C       -0.5150158656   -1.0960939924   -0.6210473468
C       -1.0545448719    0.2842924617    0.0439280483
C       -0.4899990484    1.5449378063   -0.5023450459
N        0.7488502846    1.5608957331   -0.3058463374
H        2.2465476504    0.4029857330    0.5491310912
H        1.4671909665   -1.8291794363   -0.0763040778
H       -1.0480891196   -1.6391684040   -1.3972076565
H       -2.1096454862    0.0969909290    0.2413300739
H       -0.9565233011    2.5103862281   -0.6748216720
C       -0.0488251935   -0.1672995487    1.1101829693
H       -0.2857406119   -0.9982866843    1.7825846346
13   
C5H5N+CH->C6H6N atoms 1-13 frame 121 charge -0.000 sz -1.000 sz^2 0.944
C        1.3015587347    0.3448089730    0.0551746535
C        0.7897753004   -0.9929545308   -0.2163557935
C       -0.5047659755   -1.0981735219   -0.5627766131
C       -1.0623700953    0.2884443695    0.0250471026
C       -0.4819194194    1.5564043511   -0.4972039260
N        0.7565222517    1.5699031247   -0.3137830154
H        2.2832770864    0.4267230546    0.5021621579
H        1.4978147134   -1.8151865398   -0.0778246132
H       -1.0692366609   -1.6499252720   -1.3141813291
H       -2.1205965016    0.1019653925    0.2059972325
H       -0.9410522986    2.5272373388   -0.6591218383
C       -0.0893064525   -0.2056335963    1.1036468384
H       -0.3597006827   -1.0536131433    1.7492191438
13   
C5H5N+CH->C6H6N atoms 1-13 frame 122 charge +0.000 sz -1.000 sz^2 1.014
C        1.3207226841    0.3413597026    0.0453745415
C        0.7911600083   -0.9934762383   -0.2326371709
C       -0.5026981534   -1.0913654371   -0.5802257872
C       -1.0646095769    0.2748269826    0.0304845382
C       -0.4808028182    1.5458940443   -0.4946953165
N        0.7686899663    1.5682814775   -0.3066059014
H        2.3024913698    0.4199903224    0.4953134074
H        1.4928096481   -1.8212392105   -0.0952535599
H       -1.0767007983   -1.6277185890   -1.3293063321
H       -2.1175384620    0.0656536288    0.2082389248
H       -0.9434438335    2.5133485686   -0.6621294002
C       -0.1080778437   -0.1777657819    1.1305656797
H       -0.3820021905   -1.0177894699    1.7908763766
13   
C5H5N+CH->C6H6N atoms 1-13 frame 123 charge +0.000 sz -1.000 sz^2 1.071
C        1.3368505317    0.3301101333    0.0414113454
C        0.7830432369   -0.9984002711   -0.2605599571
C       -0.5045557989   -1.0806419265   -0.6325943563
C       -1.0641373502    0.2533815801    0.0471431802
C       -0.4830020748    1.5254584124   -0.4935206498
N        0.7825024543    1.5617262225   -0.2926010387
H        2.3127332536    0.3991947373    0.5075862321
H        1.4712504214   -1.8364810273   -0.1194891155
H       -1.0774459130   -1.5908726819   -1.3899837771
H       -2.1080133781    0.0113336508    0.2280557128
H       -0.9541393454    2.4855455853   -0.6738143393
C       -0.1159222166   -0.1198534585    1.1721733386
H       -0.3791638210   -0.9405009563    1.8661934246
13   
C5H5N+CH->C6H6N atoms 1-13 frame 124 charge +0.000 sz -1.000 sz^2 1.110
C        1.3529781019    0.3188607574    0.0374482174
C        0.7749266051   -1.0033242193   -0.2884822631
C       -0.5064134124   -1.0699186004   -0.6849620247
C       -1.0636651316    0.2319365463    0.0638015357
C       -0.4852012936    1.5050231319   -0.4923460032
N        0.7963147048    1.5551710803   -0.2785964168
H        2.3229749613    0.3783995098    0.5198588457
H        1.4496915655   -1.8517225821   -0.1437242543
H       -1.0781910148   -1.5540274084   -1.4506601787
H       -2.0984884581   -0.0429853930    0.2478721600
H       -0.9648346734    2.4577430802   -0.6854990775
C       -0.1237664545   -0.0619421311    1.2137802820
H       -0.3763255002   -0.8632137718    1.9415091774
13   
C5H5N+CH->C6H6N atoms 1-13 frame 125 charge -0.000 sz -1.000 sz^2 1.129
C        1.3691053867    0.3076115806    0.0334851595
C        0.7668101169   -1.0082480803   -0.3164040749
C       -0.5082709931   -1.0591954640   -0.7373287662
C       -1.0631929213    0.2104918922    0.0804595964
C       -0.4874004734    1.4845882132   -0.4911713774
N        0.8101267108    1.5486160541   -0.2645920428
H        2.3332164877    0.3576046504    0.5321312421
H        1.4281330912   -1.8669638670   -0.1679589641
H       -1.0789361035   -1.5171827871   -1.5113355062
H       -2.0889637066   -0.0973034753    0.2676882564
H       -0.9755298121    2.4299410673   -0.6971836088
C       -0.1316105536   -0.0040318287    1.2553864889
H       -0.3734872296   -0.7859279554    2.0168235970
13   
C5H5N+CH->C6H6N atoms 1-13 frame 126 charge +0.000 sz -1.000 sz^2 1.139
C        1.3852323791    0.2963626077    0.0295221735
C        0.7586937758   -1.0131718521   -0.3443253806
C       -0.5101285401   -1.0484725220   -0.7896945587
C       -1.0627207197    0.1890476267    0.0971173552
C       -0.4895996134    1.4641536648   -0.4899967730
N        0.8239384665    1.5420611467   -0.2505879226
H        2.3434578285    0.3368101678    0.5444034161
H        1.4065750075   -1.8822048758   -0.1921932347
H       -1.0796811787   -1.4803388335   -1.5720097341
H       -2.0794391277   -0.1516205732    0.2875039938
H       -0.9862247569    2.4021395581   -0.7088679284
C       -0.1394545105    0.0538774241    1.2969919418
H       -0.3706490105   -0.7086435395    2.0921366517
13   
C5H5N+CH->C6H6N atoms 1-13 frame 127 charge +0.000 sz -1.000 sz^2 1.140
C        1.4031107082    0.2900585404    0.0309635923
C        0.7491898771   -1.0217478373   -0.3497383824
C       -0.5242791745   -1.0707620130   -0.7905929626
C       -1.0615282354    0.1855595853    0.0705079392
C       -0.4947266428    1.4784222276   -0.4746631865
N        0.8371726632    1.5458705707   -0.2133635573
H        2.3629667840    0.3206061313    0.5477407565
H        1.3967837246   -1.8918899902   -0.2013648151
H       -1.1013517179   -1.4941886541   -1.5622114433
H       -2.0589837456   -0.2120899290    0.2449912746
H       -0.9929631922    2.4181663452   -0.6809172093
C       -0.1537390445    0.1109034794    1.2876647404
H       -0.3616520041   -0.6589084563    2.0909832535
13   
C5H5N+CH->C6H6N atoms 1-13 frame 128 charge +0.000 sz -1.000 sz^2 1.136
C        1.4183120553    0.2881250552    0.0354314951
C        0.7408277670   -1.0307720735   -0.3401483499
C       -0.5430300125   -1.1087057202   -0.7595969810
C       -1.0601425488    0.1938659491    0.0228345659
C       -0.5005802691    1.5110715512   -0.4538284558
N        0.8472708351    1.5552644923   -0.1696548001
H        2.3840864782    0.3106340950    0.5448728320
H        1.3962981327   -1.8961178453   -0.1993305118
H       -1.1313605210   -1.5363579931   -1.5110581177
H       -2.0360918689   -0.2636459321    0.1730131575
H       -0.9958486792    2.4578259491   -0.6344218313
C       -0.1689903086    0.1554054695    1.2489207545
H       -0.3507510601   -0.6365929969    2.0429662426
13   
C5H5N+CH->C6H6N atoms 1-13 frame 131 charge +0.000 sz -1.000 sz^2 1.097
C        1.4342882079    0.2839412873    0.0314767351
C        0.7512960977   -1.0476736459   -0.3345804402
C       -0.5404347999   -1.1608380762   -0.7272114661
C       -1.0838044664    0.2203126118   -0.0112812514
C       -0.5108007632    1.5470495543   -0.4302182233
N        0.8516871904    1.5575634793   -0.1391254453
H        2.4076195028    0.3082740614    0.5278208627
H        1.4221608448   -1.9016292504   -0.2045176858
H       -1.1378837933   -1.5981114657   -1.4578762466
H       -2.0505252521   -0.2654449944    0.1244426669
H       -0.9905812819    2.5052954825   -0.5788573118
C       -0.1930052390    0.1819652187    1.2094040156
H       -0.3600162477   -0.6307042626    1.9905237903
13   
C5H5N+CH->C6H6N atoms 1-13 frame 132 charge -0.000 sz -1.000 sz^2 1.081
C        1.4463318394    0.2781729744    0.0187696510
C        0.7803216331   -1.0684183054   -0.3363858918
C       -0.5135262696   -1.2121596560   -0.7053717227
C       -1.1292093803    0.2588347829   -0.0176052541
C       -0.5228549195    1.5744685218   -0.4111215968
N        0.8483085710    1.5505343030   -0.1339014476
H        2.4264881047    0.3151145865    0.5000000235
H        1.4699890473   -1.9072534887   -0.2171916818
H       -1.1145121113   -1.6615162323   -1.4216089040
H       -2.1040182025   -0.2093560123    0.1201829406
H       -0.9777221798    2.5454880677   -0.5313177344
C       -0.2196338191    0.1801253105    1.1832271234
H       -0.3899623135   -0.6440348520    1.9523244948
13   
C5H5N+CH->C6H6N atoms 1-13 frame 133 charge -0.000 sz -1.000 sz^2 1.068
C        1.4583752549    0.2724047649    0.0060627950
C        0.8093466478   -1.0891625928   -0.3381913111
C       -0.4866182222   -1.2634803150   -0.6835323712
C       -1.1746134795    0.2973562627   -0.0239291433
C       -0.5349088596    1.6018869973   -0.3920253128
N        0.8449300122    1.5435052529   -0.1286775437
H        2.4453563681    0.3219549889    0.4721796835
H        1.5178163915   -1.9128776261   -0.2298654505
H       -1.0911408485   -1.7249198612   -1.3853422121
H       -2.1575101931   -0.1532680365    0.1159232907
H       -0.9648633084    2.5856799317   -0.4837790099
C       -0.2462619214    0.1782854354    1.1570507009
H       -0.4199078419   -0.6573652023    1.9141258846
13   
C5H5N+CH->C6H6N atoms 1-13 frame 134 charge +0.000 sz -1.000 sz^2 1.062
C        1.4704184574    0.2666366575   -0.0066438364
C        0.8383711492   -1.1099065133   -0.3399966984
C       -0.4597106505   -1.3148000664   -0.6616934059
C       -1.2200167758    0.3358770613   -0.0302529206
C       -0.5469625864    1.6293049880   -0.3729293666
N        0.8415515132    1.5364763271   -0.1234537321
H        2.4642242978    0.3287952702    0.4443598354
H        1.5656428900   -1.9185016640   -0.2425389950
H       -1.0677699991   -1.7883223689   -1.3490761616
H       -2.2110012377   -0.0971810525    0.1116637161
H       -0.9520046643    2.6258710850   -0.4362411262
C       -0.2728895528    0.1764455928    1.1308747413
H       -0.4498528408   -0.6706953168    1.8759279499
13   
C5H5N+CH->C6H6N atoms 1-13 frame 135 charge +0.000 sz -1.000 sz^2 1.049
C        1.4824614504    0.2608686504   -0.0193502467
C        0.8673951457   -1.1306500729   -0.3418020543
C       -0.4328035470   -1.3661189251   -0.6398548204
C       -1.2654192823    0.3743971899   -0.0365765880
C       -0.5590161037    1.6567225017   -0.3538337525
N        0.8381730729    1.5294475235   -0.1182300113
H        2.4830918993    0.3356354326    0.4165404712
H        1.6134685566   -1.9241256040   -0.2552123191
H       -1.0443995562   -1.8517237737   -1.3128107419
H       -2.2644913519   -0.0410950442    0.1074042156
H       -0.9391462440    2.6660615392   -0.3887040693
C       -0.2995167211    0.1746057822    1.1046992370
H       -0.4797973188   -0.6840251994    1.8377306797
13   
C5H5N+CH->C6H6N atoms 1-13 frame 136 charge -0.000 sz -1.000 sz^2 1.038
C        1.4934881938    0.2550758939   -0.0313154703
C        0.8958645677   -1.1514236902   -0.3445247068
C       -0.4052004765   -1.4169962469   -0.6193369358
C       -1.3097498252    0.4131960566   -0.0428892651
C       -0.5710896265    1.6849755755   -0.3356059587
N        0.8345033827    1.5230384536   -0.1130246486
H        2.5007114580    0.3420047786    0.3910604558
H        1.6612309180   -1.9299124462   -0.2702806519
H       -1.0215734290   -1.9178973062   -1.2776779662
H       -2.3159472482    0.0149265220    0.1056488524
H       -0.9263204144    2.7073743406   -0.3429431243
C       -0.3269669152    0.1727926323    1.0799916836
H       -0.5089505853   -0.6971545637    1.8008977360
13   
C5H5N+CH->C6H6N atoms 1-13 frame 137 charge +0.000 sz -1.000 sz^2 1.032
C        1.4838289074    0.2504770382   -0.0267653036
C        0.9074191826   -1.1660042443   -0.3613206004
C       -0.3745250244   -1.4446759644   -0.6262600224
C       -1.3223072939    0.4445749059   -0.0459002361
C       -0.5789334966    1.7182267124   -0.3359204560
N        0.8268417474    1.5290521914   -0.1094229813
H        2.4913147135    0.3379225075    0.4104997433
H        1.6935781531   -1.9358554982   -0.3212925540
H       -1.0138920956   -2.0117274193   -1.2722892985
H       -2.3194542061    0.0550745643    0.1442799572
H       -0.9179659539    2.7536952226   -0.3395531463
C       -0.3598359890    0.1710283846    1.0875034374
H       -0.5160686444   -0.7017884008    1.7964414605
13   
C5H5N+CH->C6H6N atoms 1-13 frame 138 charge -0.000 sz -1.000 sz^2 1.020
C        1.4554456236    0.2479721200   -0.0062702791
C        0.9006333174   -1.1684458869   -0.3855597452
C       -0.3532055309   -1.4388240549   -0.6565658009
C       -1.2972704810    0.4564009088   -0.0410590322
C       -0.5772577830    1.7433885102   -0.3511039513
N        0.8171539302    1.5455404574   -0.1087313896
H        2.4550798682    0.3226568266    0.4618357753
H        1.6985196650   -1.9371325546   -0.3921858530
H       -1.0178976333   -2.1002737099   -1.2946019722
H       -2.2792148844    0.0710905256    0.2041472036
H       -0.9171070141    2.7843320302   -0.3773806733
C       -0.3861692168    0.1674114418    1.1251513708
H       -0.4987098608   -0.6941166142    1.8223243471
13   
C5H5N+CH->C6H6N atoms 1-13 frame 139 charge +0.000 sz -1.000 sz^2 1.007
C        1.4221635975    0.2437467486    0.0162768159
C        0.8969748347   -1.1700040245   -0.4109646446
C       -0.3361344653   -1.4321329726   -0.6878030086
C       -1.2675835006    0.4661242016   -0.0301600208
C       -0.5714151157    1.7666844295   -0.3633396392
N        0.8057313668    1.5629531095   -0.1101483696
H        2.4104131348    0.3027428992    0.5050796442
H        1.7001702341   -1.9332176644   -0.4704954849
H       -1.0056843451   -2.1843490467   -1.3037058535
H       -2.2458299910    0.0958695717    0.2584875133
H       -0.9166559703    2.8071668585   -0.4167362140
C       -0.4119602310    0.1602549457    1.1660546928
H       -0.4801895490   -0.6858390560    1.8474545691
13   
C5H5N+CH->C6H6N atoms 1-13 frame 140 charge +0.000 sz -1.000 sz^2 0.990
C        1.3837075198    0.2374668803    0.0392733325
C        0.8967351969   -1.1712581078   -0.4379661313
C       -0.3262072937   -1.4267053921   -0.7201983547
C       -1.2341597163    0.4733924449   -0.0130751828
C       -0.5617978486    1.7869386255   -0.3740678140
N        0.7926709564    1.5805685598   -0.1162519163
H        2.3584744140    0.2793049006    0.5377223218
H        1.6975883822   -1.9235618668   -0.5548627086
H       -0.9716303318   -2.2535443064   -1.2911215835
H       -2.2210819335    0.1297105013    0.3049426697
H       -0.9171834957    2.8201762136   -0.4594667400
C       -0.4353891086    0.1509097811    1.2088300182
H       -0.4617267410   -0.6833982339    1.8762420890
13   
C5H5N+CH->C6H6N atoms 1-13 frame 141 charge +0.000 sz -1.000 sz^2 0.975
C        1.3413091974    0.2294953026    0.0610773998
C        0.8996825286   -1.1722076041   -0.4656720213
C       -0.3252246303   -1.4239272171   -0.7519477521
C       -1.1993614855    0.4777323152    0.0097895175
C       -0.5492889895    1.8024318219   -0.3838151122
N        0.7786197968    1.5973495842   -0.1284931956
H        2.3043616492    0.2552391977    0.5586974495
H        1.6917794288   -1.9092672848   -0.6404483373
H       -0.9177800004   -2.3004250025   -1.2557090114
H       -2.2051663382    0.1721590459    0.3391770971
H       -0.9198765905    2.8225515545   -0.5052271557
C       -0.4539789666    0.1411043937    1.2509859496
H       -0.4450755999   -0.6922361073    1.9115851722
13   
C5H5N+CH->C6H6N atoms 1-13 frame 144 charge -0.000 sz -1.000 sz^2 0.930
C        1.2965734490    0.2204864669    0.0813218284
C        0.9045377096   -1.1725779408   -0.4931936117
C       -0.3324274318   -1.4238450285   -0.7811382296
C       -1.1654934900    0.4792341503    0.0377007500
C       -0.5350600356    1.8124572130   -0.3923524774
N        0.7644958316    1.6126251490   -0.1462984920
H        2.2539200809    0.2334125957    0.5706974780
H        1.6854556152   -1.8927674276   -0.7231734424