13   
From optimize.out: Frame 1 / 2, Energy=    -286.8383800305
C        1.5231702074    0.3848421666   -0.2302202023
C        0.6818835944   -0.8596597199    0.0261073198
C       -0.6337825769   -0.5169814233   -0.7614113212
C       -1.1586708176    0.1354232450    0.5318720210
C       -0.5312376610    0.9630244680   -0.6810279451
N        0.8338895800    1.4116429241   -0.5732787156
H        2.5884165223    0.4562144810   -0.0161994091
H        1.1712917610   -1.8319383794   -0.0634436707
H       -1.1574084067   -1.1243740932   -1.4936532733
H       -2.1730857514    0.3727486115    0.8369039720
H       -1.2330231675    1.6128152464   -1.1936439812
C       -0.1138591228   -0.5385726553    1.2900726753
H        0.2024158383   -0.4651848709    2.3279225299
13   
From optimize.out: Frame 1 / 2, Energy=    -286.8516486485
C        1.4905838781    0.4711775155   -0.2292302004
C        0.7027017720   -0.8341092217    0.0002850662
C       -0.3007350927   -0.6077747574   -1.1338531143
C       -1.0746136457    0.4509684029    0.7482589630
C       -0.6415991178    0.8072959350   -0.6825858995
N        0.7443936819    1.4315185571   -0.6151779547
H        2.5600656925    0.5909836336   -0.0641922198
H        1.2696991906   -1.7635565714    0.0537405531
H       -1.0517684345   -1.3480311925   -1.4047025931
H       -1.8666043165    0.9453307314    1.3000824204
H       -1.3276382186    1.4161472669   -1.2694561774
C       -0.2641273627   -0.5357495884    1.1643775688
H       -0.2403580266   -1.0242007111    2.1324535877
