13   
Frame   0 IRC: Energy =  -286.8594000000 ; +0.0000 kcal/mol
C       -0.0518620000    0.0540860000   -0.0000000000
C       -0.0281600000   -0.1153570000    0.0000000000
C       -0.0617990000    0.0867100000   -0.0000000000
C       -0.0562480000   -0.1547330000    0.0000000000
C       -0.2899640000    0.1040260000   -0.0000000000
N       -0.1713050000    0.0353050000   -0.0000000000
H        0.1311210000    0.0010480000   -0.0000000000
H        0.1336970000    0.0235770000   -0.0000000000
H        0.1333470000    0.0003160000   -0.0000000000
H        0.1386190000    0.0051920000    0.0000000000
H        0.1441970000    0.0035450000   -0.0000000000
C       -0.1524440000    0.9792580000    0.0000000000
H        0.1308030000   -0.0229730000    0.0000000000
13   
Frame   1 IRC: Energy =  -286.8593970000 ; +0.0019 kcal/mol
C       -0.0517450000    0.0540600000   -0.0000000000
C       -0.0281980000   -0.1153540000    0.0000000000
C       -0.0619850000    0.0869030000   -0.0000000000
C       -0.0559280000   -0.1547050000    0.0000000000
C       -0.2899680000    0.1038640000   -0.0000000000
N       -0.1713340000    0.0352630000   -0.0000000000
H        0.1311250000    0.0010450000   -0.0000000000
H        0.1336910000    0.0235510000   -0.0000000000
H        0.1333390000    0.0003200000   -0.0000000000
H        0.1386280000    0.0051890000    0.0000000000
H        0.1441870000    0.0035530000   -0.0000000000
C       -0.1526410000    0.9793440000    0.0000000000
H        0.1308290000   -0.0230320000    0.0000000000
13   
Frame   2 IRC: Energy =  -286.8593790000 ; +0.0132 kcal/mol
C       -0.0512110000    0.0541480000   -0.0000000000
C       -0.0288410000   -0.1155560000    0.0000000000
C       -0.0615360000    0.0882080000   -0.0000000000
C       -0.0571400000   -0.1546340000    0.0000000000
C       -0.2897670000    0.1032320000   -0.0000000000
N       -0.1715270000    0.0351800000   -0.0000000000
H        0.1310950000    0.0010590000   -0.0000000000
H        0.1335950000    0.0234480000   -0.0000000000
H        0.1334560000    0.0003500000   -0.0000000000
H        0.1385700000    0.0051520000    0.0000000000
H        0.1441740000    0.0035920000   -0.0000000000
C       -0.1518390000    0.9791630000    0.0000000000
H        0.1309710000   -0.0233420000    0.0000000000
13   
Frame   3 IRC: Energy =  -286.8593740000 ; +0.0163 kcal/mol
C       -0.0510400000    0.0541200000   -0.0000000000
C       -0.0288930000   -0.1155640000    0.0000000000
C       -0.0617770000    0.0884810000   -0.0000000000
C       -0.0568180000   -0.1545970000    0.0000000000
C       -0.2897400000    0.1030170000   -0.0000000000
N       -0.1715600000    0.0351250000   -0.0000000000
H        0.1310950000    0.0010570000   -0.0000000000
H        0.1335850000    0.0234190000   -0.0000000000
H        0.1334450000    0.0003550000   -0.0000000000
H        0.1385780000    0.0051460000    0.0000000000
H        0.1441630000    0.0036040000   -0.0000000000
C       -0.1520450000    0.9792590000    0.0000000000
H        0.1310060000   -0.0234220000    0.0000000000
13   
Frame   4 IRC: Energy =  -286.8593550000 ; +0.0282 kcal/mol
C       -0.0505680000    0.0541750000   -0.0000000000
C       -0.0295380000   -0.1157420000    0.0000000000
C       -0.0612800000    0.0896750000   -0.0000000000
C       -0.0580170000   -0.1545290000    0.0000000000
C       -0.2895380000    0.1024440000   -0.0000000000
N       -0.1717500000    0.0350740000   -0.0000000000
H        0.1310700000    0.0010710000   -0.0000000000
H        0.1334960000    0.0233190000   -0.0000000000
H        0.1335600000    0.0003830000   -0.0000000000
H        0.1385230000    0.0051120000    0.0000000000
H        0.1441520000    0.0036350000   -0.0000000000
C       -0.1512520000    0.9790980000    0.0000000000
H        0.1311430000   -0.0237150000    0.0000000000
13   
Frame   5 IRC: Energy =  -286.8593490000 ; +0.0320 kcal/mol
C       -0.0503630000    0.0541490000   -0.0000000000
C       -0.0295890000   -0.1157640000    0.0000000000
C       -0.0615680000    0.0900270000   -0.0000000000
C       -0.0577360000   -0.1544780000    0.0000000000
C       -0.2894670000    0.1021650000   -0.0000000000
N       -0.1717860000    0.0350090000   -0.0000000000
H        0.1310680000    0.0010680000   -0.0000000000
H        0.1334820000    0.0232890000   -0.0000000000
H        0.1335470000    0.0003900000   -0.0000000000
H        0.1385280000    0.0051030000    0.0000000000
H        0.1441410000    0.0036520000   -0.0000000000
C       -0.1514450000    0.9792060000    0.0000000000
H        0.1311880000   -0.0238170000    0.0000000000
13   
Frame   6 IRC: Energy =  -286.8593300000 ; +0.0439 kcal/mol
C       -0.0499410000    0.0541720000   -0.0000000000
C       -0.0302400000   -0.1159160000    0.0000000000
C       -0.0610390000    0.0911020000   -0.0000000000
C       -0.0588570000   -0.1544190000    0.0000000000
C       -0.2892840000    0.1016710000   -0.0000000000
N       -0.1719750000    0.0349840000   -0.0000000000
H        0.1310470000    0.0010820000   -0.0000000000
H        0.1333990000    0.0231930000   -0.0000000000
H        0.1336590000    0.0004170000   -0.0000000000
H        0.1384810000    0.0050750000    0.0000000000
H        0.1441310000    0.0036760000   -0.0000000000
C       -0.1506970000    0.9790520000    0.0000000000
H        0.1313170000   -0.0240880000    0.0000000000
13   
Frame   7 IRC: Energy =  -286.8593220000 ; +0.0489 kcal/mol
C       -0.0497110000    0.0541400000   -0.0000000000
C       -0.0302990000   -0.1159520000    0.0000000000
C       -0.0613420000    0.0915250000   -0.0000000000
C       -0.0586970000   -0.1543490000    0.0000000000
C       -0.2891520000    0.1013130000   -0.0000000000
N       -0.1720090000    0.0349180000   -0.0000000000
H        0.1310450000    0.0010790000   -0.0000000000
H        0.1333840000    0.0231600000   -0.0000000000
H        0.1336430000    0.0004240000   -0.0000000000
H        0.1384750000    0.0050580000    0.0000000000
H        0.1441200000    0.0036980000   -0.0000000000
C       -0.1508270000    0.9792020000    0.0000000000
H        0.1313710000   -0.0242160000    0.0000000000
13   
Frame   8 IRC: Energy =  -286.8593060000 ; +0.0590 kcal/mol
C       -0.0494300000    0.0541550000   -0.0000000000
C       -0.0308490000   -0.1160560000    0.0000000000
C       -0.0608300000    0.0923200000   -0.0000000000
C       -0.0595610000   -0.1543200000    0.0000000000
C       -0.2890480000    0.1010090000   -0.0000000000
N       -0.1721800000    0.0349210000   -0.0000000000
H        0.1310320000    0.0010910000   -0.0000000000
H        0.1333180000    0.0230880000   -0.0000000000
H        0.1337440000    0.0004460000   -0.0000000000
H        0.1384490000    0.0050430000    0.0000000000
H        0.1441150000    0.0037090000   -0.0000000000
C       -0.1502330000    0.9790070000    0.0000000000
H        0.1314720000   -0.0244120000    0.0000000000
13   
Frame   9 IRC: Energy =  -286.8592970000 ; +0.0646 kcal/mol
C       -0.0490860000    0.0540890000   -0.0000000000
C       -0.0309640000   -0.1161060000    0.0000000000
C       -0.0611470000    0.0927670000   -0.0000000000
C       -0.0595480000   -0.1542450000    0.0000000000
C       -0.2888670000    0.1006310000   -0.0000000000
N       -0.1721730000    0.0348380000   -0.0000000000
H        0.1310070000    0.0010940000   -0.0000000000
H        0.1332970000    0.0230450000   -0.0000000000
H        0.1337260000    0.0004550000   -0.0000000000
H        0.1384290000    0.0050240000    0.0000000000
H        0.1441040000    0.0037310000   -0.0000000000
C       -0.1503020000    0.9792340000    0.0000000000
H        0.1315250000   -0.0245580000    0.0000000000
13   
Frame  10 IRC: Energy =  -286.8592830000 ; +0.0734 kcal/mol
C       -0.0489910000    0.0541220000   -0.0000000000
C       -0.0313780000   -0.1161780000    0.0000000000
C       -0.0606830000    0.0934280000   -0.0000000000
C       -0.0601790000   -0.1542120000    0.0000000000
C       -0.2887930000    0.1003600000   -0.0000000000
N       -0.1723700000    0.0348730000   -0.0000000000
H        0.1310270000    0.0010970000   -0.0000000000
H        0.1332490000    0.0229930000   -0.0000000000
H        0.1338120000    0.0004710000   -0.0000000000
H        0.1384180000    0.0050110000    0.0000000000
H        0.1441000000    0.0037410000   -0.0000000000
C       -0.1498290000    0.9790100000    0.0000000000
H        0.1316180000   -0.0247160000    0.0000000000
13   
Frame  11 IRC: Energy =  -286.8592730000 ; +0.0797 kcal/mol
C       -0.0485610000    0.0540370000   -0.0000000000
C       -0.0315770000   -0.1162350000    0.0000000000
C       -0.0609440000    0.0938770000   -0.0000000000
C       -0.0602870000   -0.1541510000    0.0000000000
C       -0.2886100000    0.1000320000   -0.0000000000
N       -0.1723410000    0.0347820000   -0.0000000000
H        0.1309810000    0.0011060000   -0.0000000000
H        0.1332190000    0.0229430000   -0.0000000000
H        0.1338040000    0.0004830000   -0.0000000000
H        0.1383950000    0.0049960000    0.0000000000
H        0.1440910000    0.0037590000   -0.0000000000
C       -0.1498390000    0.9792360000    0.0000000000
H        0.1316680000   -0.0248650000    0.0000000000
13   
Frame  12 IRC: Energy =  -286.8592580000 ; +0.0891 kcal/mol
C       -0.0484980000    0.0540610000   -0.0000000000
C       -0.0319520000   -0.1163030000    0.0000000000
C       -0.0605510000    0.0945760000   -0.0000000000
C       -0.0608450000   -0.1540960000    0.0000000000
C       -0.2884990000    0.0996820000   -0.0000000000
N       -0.1725540000    0.0348240000   -0.0000000000
H        0.1310150000    0.0011040000   -0.0000000000
H        0.1331760000    0.0228920000   -0.0000000000
H        0.1338780000    0.0004990000   -0.0000000000
H        0.1383840000    0.0049770000    0.0000000000
H        0.1440850000    0.0037730000   -0.0000000000
C       -0.1494100000    0.9790510000    0.0000000000
H        0.1317710000   -0.0250410000    0.0000000000
13   
Frame  13 IRC: Energy =  -286.8592480000 ; +0.0954 kcal/mol
C       -0.0480400000    0.0539690000   -0.0000000000
C       -0.0321970000   -0.1163590000    0.0000000000
C       -0.0607620000    0.0950070000   -0.0000000000
C       -0.0610140000   -0.1540480000    0.0000000000
C       -0.2883230000    0.0994030000   -0.0000000000
N       -0.1725150000    0.0347320000   -0.0000000000
H        0.1309580000    0.0011180000   -0.0000000000
H        0.1331430000    0.0228390000   -0.0000000000
H        0.1338800000    0.0005120000   -0.0000000000
H        0.1383610000    0.0049660000    0.0000000000
H        0.1440770000    0.0037880000   -0.0000000000
C       -0.1493870000    0.9792570000    0.0000000000
H        0.1318180000   -0.0251840000    0.0000000000
13   
Frame  14 IRC: Energy =  -286.8592280000 ; +0.1079 kcal/mol
C       -0.0479290000    0.0539690000   -0.0000000000
C       -0.0326290000   -0.1164380000    0.0000000000
C       -0.0603940000    0.0958580000   -0.0000000000
C       -0.0616170000   -0.1539600000    0.0000000000
C       -0.2881440000    0.0989250000   -0.0000000000
N       -0.1727590000    0.0347750000   -0.0000000000
H        0.1309970000    0.0011140000   -0.0000000000
H        0.1330940000    0.0227770000   -0.0000000000
H        0.1339510000    0.0005310000   -0.0000000000
H        0.1383450000    0.0049400000    0.0000000000
H        0.1440690000    0.0038060000   -0.0000000000
C       -0.1489290000    0.9791150000    0.0000000000
H        0.1319460000   -0.0254130000    0.0000000000
13   
Frame  15 IRC: Energy =  -286.8592180000 ; +0.1142 kcal/mol
C       -0.0474580000    0.0538800000   -0.0000000000
C       -0.0329110000   -0.1164920000    0.0000000000
C       -0.0605710000    0.0962600000   -0.0000000000
C       -0.0618150000   -0.1539240000    0.0000000000
C       -0.2879700000    0.0986960000   -0.0000000000
N       -0.1727100000    0.0346820000   -0.0000000000
H        0.1309340000    0.0011300000   -0.0000000000
H        0.1330580000    0.0227250000   -0.0000000000
H        0.1339580000    0.0005460000   -0.0000000000
H        0.1383230000    0.0049320000    0.0000000000
H        0.1440630000    0.0038190000   -0.0000000000
C       -0.1488900000    0.9792950000    0.0000000000
H        0.1319880000   -0.0255490000    0.0000000000
13   
Frame  16 IRC: Energy =  -286.8591890000 ; +0.1324 kcal/mol
C       -0.0472190000    0.0538120000   -0.0000000000
C       -0.0334900000   -0.1165920000    0.0000000000
C       -0.0602160000    0.0974700000   -0.0000000000
C       -0.0626270000   -0.1537830000    0.0000000000
C       -0.2876610000    0.0979580000   -0.0000000000
N       -0.1730120000    0.0347230000   -0.0000000000
H        0.1309740000    0.0011280000   -0.0000000000
H        0.1329920000    0.0226280000   -0.0000000000
H        0.1340480000    0.0005720000   -0.0000000000
H        0.1382990000    0.0048940000    0.0000000000
H        0.1440500000    0.0038460000   -0.0000000000
C       -0.1483130000    0.9792250000    0.0000000000
H        0.1321730000   -0.0258820000    0.0000000000
13   
Frame  17 IRC: Energy =  -286.8591780000 ; +0.1393 kcal/mol
C       -0.0467380000    0.0537140000   -0.0000000000
C       -0.0337910000   -0.1166330000    0.0000000000
C       -0.0604040000    0.0978680000   -0.0000000000
C       -0.0628490000   -0.1537630000    0.0000000000
C       -0.2874670000    0.0977520000   -0.0000000000
N       -0.1729470000    0.0346240000   -0.0000000000
H        0.1309060000    0.0011430000   -0.0000000000
H        0.1329570000    0.0225690000   -0.0000000000
H        0.1340660000    0.0005830000   -0.0000000000
H        0.1382830000    0.0048870000    0.0000000000
H        0.1440440000    0.0038560000   -0.0000000000
C       -0.1482770000    0.9794040000    0.0000000000
H        0.1322160000   -0.0260040000    0.0000000000
13   
Frame  18 IRC: Energy =  -286.8590900000 ; +0.1945 kcal/mol
C       -0.0455610000    0.0533330000   -0.0000000000
C       -0.0356780000   -0.1169380000    0.0000000000
C       -0.0597210000    0.1011510000   -0.0000000000
C       -0.0649970000   -0.1533390000    0.0000000000
C       -0.2863870000    0.0957430000   -0.0000000000
N       -0.1736200000    0.0346740000   -0.0000000000
H        0.1309250000    0.0011610000   -0.0000000000
H        0.1327550000    0.0222890000   -0.0000000000
H        0.1342460000    0.0006790000   -0.0000000000
H        0.1381940000    0.0047850000    0.0000000000
H        0.1440150000    0.0039280000   -0.0000000000
C       -0.1468860000    0.9795710000    0.0000000000
H        0.1327130000   -0.0270370000    0.0000000000
13   
Frame  19 IRC: Energy =  -286.8590690000 ; +0.2077 kcal/mol
C       -0.0453890000    0.0537940000   -0.0000000000
C       -0.0365670000   -0.1169120000    0.0000000000
C       -0.0597460000    0.1018830000   -0.0000000000
C       -0.0654290000   -0.1534680000    0.0000000000
C       -0.2857260000    0.0956370000   -0.0000000000
N       -0.1735440000    0.0345390000   -0.0000000000
H        0.1309480000    0.0011390000   -0.0000000000
H        0.1327150000    0.0222150000   -0.0000000000
H        0.1343740000    0.0006650000   -0.0000000000
H        0.1381910000    0.0047550000    0.0000000000
H        0.1439840000    0.0039360000   -0.0000000000
C       -0.1466000000    0.9789530000    0.0000000000
H        0.1327880000   -0.0271350000    0.0000000000
13   
Frame  20 IRC: Energy =  -286.8589320000 ; +0.2937 kcal/mol
C       -0.0431540000    0.0521390000   -0.0000000000
C       -0.0389620000   -0.1173310000    0.0000000000
C       -0.0591880000    0.1063950000   -0.0000000000
C       -0.0685600000   -0.1525640000    0.0000000000
C       -0.2841770000    0.0923610000   -0.0000000000
N       -0.1744940000    0.0347620000   -0.0000000000
H        0.1308410000    0.0012190000   -0.0000000000
H        0.1324320000    0.0217750000   -0.0000000000
H        0.1344950000    0.0008510000   -0.0000000000
H        0.1380510000    0.0046280000    0.0000000000
H        0.1439840000    0.0040240000   -0.0000000000
C       -0.1448130000    0.9805420000    0.0000000000
H        0.1335440000   -0.0288020000    0.0000000000
13   
Frame  21 IRC: Energy =  -286.8589050000 ; +0.3106 kcal/mol
C       -0.0428970000    0.0514720000   -0.0000000000
C       -0.0387470000   -0.1174300000    0.0000000000
C       -0.0589540000    0.1067180000   -0.0000000000
C       -0.0689900000   -0.1522620000    0.0000000000
C       -0.2844040000    0.0917720000   -0.0000000000
N       -0.1747530000    0.0349070000   -0.0000000000
H        0.1308100000    0.0012520000   -0.0000000000
H        0.1324060000    0.0217480000   -0.0000000000
H        0.1344120000    0.0009000000   -0.0000000000
H        0.1380220000    0.0046250000    0.0000000000
H        0.1440100000    0.0040390000   -0.0000000000
C       -0.1445630000    0.9813160000    0.0000000000
H        0.1336480000   -0.0290580000    0.0000000000
13   
Frame  22 IRC: Energy =  -286.8587540000 ; +0.4054 kcal/mol
C       -0.0408370000    0.0506720000   -0.0000000000
C       -0.0429660000   -0.1175750000    0.0000000000
C       -0.0586710000    0.1119370000   -0.0000000000
C       -0.0723320000   -0.1516560000    0.0000000000
C       -0.2812420000    0.0886980000   -0.0000000000
N       -0.1753760000    0.0350060000   -0.0000000000
H        0.1308110000    0.0012640000   -0.0000000000
H        0.1321070000    0.0212120000   -0.0000000000
H        0.1347580000    0.0010450000   -0.0000000000
H        0.1379300000    0.0044450000    0.0000000000
H        0.1439560000    0.0040940000   -0.0000000000
C       -0.1425830000    0.9815970000    0.0000000000
H        0.1344430000   -0.0307400000    0.0000000000
13   
Frame  23 IRC: Energy =  -286.8587160000 ; +0.4292 kcal/mol
C       -0.0405620000    0.0499010000   -0.0000000000
C       -0.0431240000   -0.1176390000    0.0000000000
C       -0.0583810000    0.1127810000   -0.0000000000
C       -0.0732880000   -0.1512690000    0.0000000000
C       -0.2810550000    0.0878160000   -0.0000000000
N       -0.1756700000    0.0351860000   -0.0000000000
H        0.1307890000    0.0012970000   -0.0000000000
H        0.1320650000    0.0211260000   -0.0000000000
H        0.1347260000    0.0011170000   -0.0000000000
H        0.1378920000    0.0044220000    0.0000000000
H        0.1439770000    0.0041100000   -0.0000000000
C       -0.1420070000    0.9823150000    0.0000000000
H        0.1346360000   -0.0311640000    0.0000000000
13   
Frame  24 IRC: Energy =  -286.8586490000 ; +0.4713 kcal/mol
C       -0.0394690000    0.0496870000   -0.0000000000
C       -0.0453990000   -0.1176250000    0.0000000000
C       -0.0583660000    0.1149700000   -0.0000000000
C       -0.0743690000   -0.1510610000    0.0000000000
C       -0.2795140000    0.0865990000   -0.0000000000
N       -0.1758470000    0.0351280000   -0.0000000000
H        0.1307960000    0.0012880000   -0.0000000000
H        0.1319300000    0.0208870000   -0.0000000000
H        0.1348720000    0.0011660000   -0.0000000000
H        0.1378820000    0.0043390000    0.0000000000
H        0.1439480000    0.0041250000   -0.0000000000
C       -0.1413860000    0.9823320000    0.0000000000
H        0.1349240000   -0.0318340000    0.0000000000
13   
Frame  25 IRC: Energy =  -286.8586040000 ; +0.4995 kcal/mol
C       -0.0391860000    0.0488260000   -0.0000000000
C       -0.0456940000   -0.1176660000    0.0000000000
C       -0.0579150000    0.1159220000   -0.0000000000
C       -0.0755780000   -0.1505710000    0.0000000000
C       -0.2791930000    0.0856400000   -0.0000000000
N       -0.1761790000    0.0353350000   -0.0000000000
H        0.1307610000    0.0013250000   -0.0000000000
H        0.1318900000    0.0207910000   -0.0000000000
H        0.1348270000    0.0012640000   -0.0000000000
H        0.1378290000    0.0043060000    0.0000000000
H        0.1439670000    0.0041440000   -0.0000000000
C       -0.1406400000    0.9830070000    0.0000000000
H        0.1351110000   -0.0323240000    0.0000000000
13   
Frame  26 IRC: Energy =  -286.8582100000 ; +0.7467 kcal/mol
C       -0.0348820000    0.0432990000   -0.0000000000
C       -0.0554470000   -0.1171250000    0.0000000000
C       -0.0570300000    0.1269910000   -0.0000000000
C       -0.0838560000   -0.1475090000    0.0000000000
C       -0.2714670000    0.0767840000   -0.0000000000
N       -0.1777910000    0.0363770000   -0.0000000000
H        0.1308170000    0.0014160000   -0.0000000000
H        0.1313560000    0.0194370000   -0.0000000000
H        0.1351820000    0.0018270000   -0.0000000000
H        0.1377390000    0.0038610000    0.0000000000
H        0.1440060000    0.0041630000   -0.0000000000
C       -0.1355540000    0.9870460000    0.0000000000
H        0.1369280000   -0.0365660000    0.0000000000
13   
Frame  27 IRC: Energy =  -286.8581690000 ; +0.7725 kcal/mol
C       -0.0350380000    0.0436750000   -0.0000000000
C       -0.0567420000   -0.1169580000    0.0000000000
C       -0.0572980000    0.1281420000   -0.0000000000
C       -0.0845360000   -0.1476010000    0.0000000000
C       -0.2701300000    0.0764980000   -0.0000000000
N       -0.1775830000    0.0362610000   -0.0000000000
H        0.1308790000    0.0013740000   -0.0000000000
H        0.1313070000    0.0192680000   -0.0000000000
H        0.1353050000    0.0018240000   -0.0000000000
H        0.1377730000    0.0038090000    0.0000000000
H        0.1439580000    0.0041590000   -0.0000000000
C       -0.1349930000    0.9862780000    0.0000000000
H        0.1370990000   -0.0367290000    0.0000000000
13   
Frame  28 IRC: Energy =  -286.8578170000 ; +0.9933 kcal/mol
C       -0.0319240000    0.0349440000   -0.0000000000
C       -0.0648290000   -0.1152290000    0.0000000000
C       -0.0572850000    0.1382040000   -0.0000000000
C       -0.0922060000   -0.1426800000    0.0000000000
C       -0.2626100000    0.0661110000   -0.0000000000
N       -0.1787980000    0.0380380000   -0.0000000000
H        0.1308960000    0.0015370000   -0.0000000000
H        0.1310330000    0.0177800000   -0.0000000000
H        0.1352380000    0.0026780000   -0.0000000000
H        0.1377580000    0.0033160000    0.0000000000
H        0.1441420000    0.0040550000   -0.0000000000
C       -0.1296430000    0.9917280000    0.0000000000
H        0.1382280000   -0.0404820000    0.0000000000
13   
Frame  29 IRC: Energy =  -286.8577880000 ; +1.0115 kcal/mol
C       -0.0320030000    0.0349170000   -0.0000000000
C       -0.0658980000   -0.1150540000    0.0000000000
C       -0.0576490000    0.1391510000   -0.0000000000
C       -0.0926320000   -0.1425620000    0.0000000000
C       -0.2614830000    0.0656160000   -0.0000000000
N       -0.1785860000    0.0380560000   -0.0000000000
H        0.1309460000    0.0015170000   -0.0000000000
H        0.1309880000    0.0176290000   -0.0000000000
H        0.1352940000    0.0026990000   -0.0000000000
H        0.1377930000    0.0032660000    0.0000000000
H        0.1441140000    0.0040400000   -0.0000000000
C       -0.1292050000    0.9913640000    0.0000000000
H        0.1383210000   -0.0406390000    0.0000000000
13   
Frame  30 IRC: Energy =  -286.8576360000 ; +1.1069 kcal/mol
C       -0.0314060000    0.0304390000   -0.0000000000
C       -0.0685050000   -0.1137130000    0.0000000000
C       -0.0587500000    0.1438200000   -0.0000000000
C       -0.0959200000   -0.1399650000    0.0000000000
C       -0.2578060000    0.0605360000   -0.0000000000
N       -0.1788330000    0.0388450000   -0.0000000000
H        0.1309350000    0.0015920000   -0.0000000000
H        0.1309760000    0.0168540000   -0.0000000000
H        0.1351740000    0.0031810000   -0.0000000000
H        0.1377820000    0.0030260000    0.0000000000
H        0.1442300000    0.0039500000   -0.0000000000
C       -0.1264820000    0.9933360000    0.0000000000
H        0.1386050000   -0.0419000000    0.0000000000
13   
Frame  31 IRC: Energy =  -286.8576070000 ; +1.1251 kcal/mol
C       -0.0315110000    0.0301260000   -0.0000000000
C       -0.0693510000   -0.1135130000    0.0000000000
C       -0.0590860000    0.1446750000   -0.0000000000
C       -0.0962850000   -0.1396930000    0.0000000000
C       -0.2568580000    0.0598770000   -0.0000000000
N       -0.1786710000    0.0389510000   -0.0000000000
H        0.1309880000    0.0015850000   -0.0000000000
H        0.1309660000    0.0167180000   -0.0000000000
H        0.1352500000    0.0032330000   -0.0000000000
H        0.1378030000    0.0029730000    0.0000000000
H        0.1442120000    0.0039160000   -0.0000000000
C       -0.1260990000    0.9931900000    0.0000000000
H        0.1386420000   -0.0420390000    0.0000000000
13   
Frame  32 IRC: Energy =  -286.8575370000 ; +1.1691 kcal/mol
C       -0.0316050000    0.0280860000   -0.0000000000
C       -0.0698670000   -0.1127820000    0.0000000000
C       -0.0601170000    0.1468780000   -0.0000000000
C       -0.0976900000   -0.1385600000    0.0000000000
C       -0.2551010000    0.0575850000   -0.0000000000
N       -0.1787580000    0.0393020000   -0.0000000000
H        0.1309680000    0.0016140000   -0.0000000000
H        0.1309720000    0.0163470000   -0.0000000000
H        0.1350870000    0.0034630000   -0.0000000000
H        0.1377840000    0.0028760000    0.0000000000
H        0.1442840000    0.0038820000   -0.0000000000
C       -0.1247160000    0.9937830000    0.0000000000
H        0.1387580000   -0.0424750000    0.0000000000
13   
Frame  33 IRC: Energy =  -286.8575050000 ; +1.1891 kcal/mol
C       -0.0317730000    0.0277140000   -0.0000000000
C       -0.0705800000   -0.1125870000    0.0000000000
C       -0.0605680000    0.1476570000   -0.0000000000
C       -0.0979680000   -0.1382650000    0.0000000000
C       -0.2541910000    0.0568870000   -0.0000000000
N       -0.1785560000    0.0394570000   -0.0000000000
H        0.1310200000    0.0016140000   -0.0000000000
H        0.1309700000    0.0162160000   -0.0000000000
H        0.1351720000    0.0035260000   -0.0000000000
H        0.1377930000    0.0028220000    0.0000000000
H        0.1442700000    0.0038380000   -0.0000000000
C       -0.1243600000    0.9937100000    0.0000000000
H        0.1387720000   -0.0425890000    0.0000000000
13   
Frame  34 IRC: Energy =  -286.8573520000 ; +1.2851 kcal/mol
C       -0.0329710000    0.0253420000   -0.0000000000
C       -0.0703330000   -0.1114970000    0.0000000000
C       -0.0636580000    0.1517920000   -0.0000000000
C       -0.0994810000   -0.1371250000    0.0000000000
C       -0.2508050000    0.0537460000   -0.0000000000
N       -0.1784650000    0.0401100000   -0.0000000000
H        0.1310300000    0.0016310000   -0.0000000000
H        0.1309830000    0.0156820000   -0.0000000000
H        0.1349820000    0.0038380000   -0.0000000000
H        0.1376880000    0.0026950000    0.0000000000
H        0.1443580000    0.0037510000   -0.0000000000
C       -0.1222540000    0.9930170000    0.0000000000
H        0.1389250000   -0.0429830000    0.0000000000
13   
Frame  35 IRC: Energy =  -286.8573050000 ; +1.3146 kcal/mol
C       -0.0333620000    0.0252290000   -0.0000000000
C       -0.0707550000   -0.1113090000    0.0000000000
C       -0.0649480000    0.1527340000   -0.0000000000
C       -0.0993810000   -0.1370420000    0.0000000000
C       -0.2496240000    0.0531900000   -0.0000000000
N       -0.1779860000    0.0402460000   -0.0000000000
H        0.1310430000    0.0016350000   -0.0000000000
H        0.1309290000    0.0155260000   -0.0000000000
H        0.1349990000    0.0038660000   -0.0000000000
H        0.1377020000    0.0026610000    0.0000000000
H        0.1443260000    0.0037150000   -0.0000000000
C       -0.1219230000    0.9925830000    0.0000000000
H        0.1389790000   -0.0430350000    0.0000000000
13   
Frame  36 IRC: Energy =  -286.8571550000 ; +1.4088 kcal/mol
C       -0.0343630000    0.0239350000   -0.0000000000
C       -0.0697150000   -0.1106570000    0.0000000000
C       -0.0670620000    0.1558170000   -0.0000000000
C       -0.1002480000   -0.1366490000    0.0000000000
C       -0.2476590000    0.0514380000   -0.0000000000
N       -0.1781490000    0.0406180000   -0.0000000000
H        0.1310310000    0.0016320000   -0.0000000000
H        0.1309740000    0.0152570000   -0.0000000000
H        0.1349100000    0.0040660000   -0.0000000000
H        0.1375500000    0.0026110000    0.0000000000
H        0.1444170000    0.0036570000   -0.0000000000
C       -0.1207060000    0.9914400000    0.0000000000
H        0.1390200000   -0.0431650000    0.0000000000
13   
Frame  37 IRC: Energy =  -286.8570610000 ; +1.4677 kcal/mol
C       -0.0350780000    0.0238460000   -0.0000000000
C       -0.0698670000   -0.1104170000    0.0000000000
C       -0.0692840000    0.1571550000   -0.0000000000
C       -0.0996920000   -0.1365910000    0.0000000000
C       -0.2461620000    0.0506400000   -0.0000000000
N       -0.1774990000    0.0409540000   -0.0000000000
H        0.1310690000    0.0016410000   -0.0000000000
H        0.1308730000    0.0150720000   -0.0000000000
H        0.1348730000    0.0040640000   -0.0000000000
H        0.1375580000    0.0025810000    0.0000000000
H        0.1443790000    0.0036160000   -0.0000000000
C       -0.1202970000    0.9906470000    0.0000000000
H        0.1391290000   -0.0432060000    0.0000000000
13   
Frame  38 IRC: Energy =  -286.8567890000 ; +1.6384 kcal/mol
C       -0.0364510000    0.0231170000   -0.0000000000
C       -0.0679290000   -0.1097720000    0.0000000000
C       -0.0720630000    0.1617760000   -0.0000000000
C       -0.1002160000   -0.1368040000    0.0000000000
C       -0.2440630000    0.0490480000   -0.0000000000
N       -0.1776750000    0.0412390000   -0.0000000000
H        0.1310420000    0.0016130000   -0.0000000000
H        0.1309080000    0.0148230000   -0.0000000000
H        0.1349440000    0.0042000000   -0.0000000000
H        0.1373050000    0.0025750000    0.0000000000
H        0.1444830000    0.0035510000   -0.0000000000
C       -0.1193990000    0.9878220000    0.0000000000
H        0.1391150000   -0.0431890000    0.0000000000
13   