13   
Frame   0 IRC: Energy =  -286.8594000000 ; +0.0000 kcal/mol
C        1.5286564080    0.3902593351   -0.2351654439
C        0.6872409828   -0.8528845778    0.0304922217
C       -0.6295034296   -0.5150137283   -0.7595644898
C       -1.1528297976    0.1518669129    0.5354444224
C       -0.5304017605    0.9647109220   -0.6913757028
N        0.8347262269    1.4122124347   -0.5895994139
H        2.5936668892    0.4665516664   -0.0262275024
H        1.1788224180   -1.8235410863   -0.0544178491
H       -1.1605439096   -1.1327097683   -1.4764933270
H       -2.1642826977    0.3944223823    0.8427326584
H       -1.2332577065    1.6097159869   -1.2070020273
C       -0.1130656199   -0.5300159174    1.2902507148
H        0.1607719970   -0.5355745619    2.3409257385
13   
Frame   1 IRC: Energy =  -286.8593970000 ; +0.0019 kcal/mol
C        1.5285986825    0.3902860618   -0.2353033890
C        0.6873480871   -0.8526901158    0.0305354970
C       -0.6295252104   -0.5150457023   -0.7595475414
C       -1.1525065079    0.1520666494    0.5354098177
C       -0.5303483131    0.9647384288   -0.6914585752
N        0.8346929811    1.4123290937   -0.5898764902
H        2.5938133204    0.4667533477   -0.0264722709
H        1.1789701906   -1.8234325385   -0.0542676647
H       -1.1605625726   -1.1328240696   -1.4761360327
H       -2.1642919421    0.3947423092    0.8428648773
H       -1.2332819920    1.6096303073   -1.2072111406
C       -0.1130103528   -0.5298980679    1.2905174705
H        0.1601036290   -0.5366557037    2.3409454424
13   
Frame   2 IRC: Energy =  -286.8593790000 ; +0.0132 kcal/mol
C        1.5290040785    0.3911631360   -0.2362236071
C        0.6879363816   -0.8520170935    0.0310680186
C       -0.6291036223   -0.5148403690   -0.7589060041
C       -1.1520092061    0.1536802025    0.5359183107
C       -0.5302794087    0.9648908590   -0.6921446889
N        0.8348048912    1.4126164552   -0.5915632701
H        2.5941437048    0.4679651005   -0.0281720619
H        1.1798526488   -1.8225154292   -0.0532736329
H       -1.1609333768   -1.1338396732   -1.4741388160
H       -2.1632855708    0.3965654939    0.8433875487
H       -1.2334073361    1.6090244935   -1.2084759777
C       -0.1127235659   -0.5290047358    1.2903706434
H        0.1560003818   -0.5436884400    2.3421535374
13   
Frame   3 IRC: Energy =  -286.8593740000 ; +0.0163 kcal/mol
C        1.5289439203    0.3912391840   -0.2364159474
C        0.6880630262   -0.8517496980    0.0311397677
C       -0.6291344266   -0.5148868935   -0.7588883151
C       -1.1516223128    0.1539571464    0.5358973915
C       -0.5301807555    0.9649015632   -0.6922345944
N        0.8347764250    1.4127390694   -0.5919226285
H        2.5943167072    0.4682287471   -0.0285023547
H        1.1800510379   -1.8223810335   -0.0530697697
H       -1.1609536196   -1.1339871115   -1.4736612896
H       -2.1632675800    0.3969786903    0.8435562350
H       -1.2334591288    1.6089242235   -1.2087643727
C       -0.1126457530   -0.5288325920    1.2906618728
H        0.1551124597   -0.5451312954    2.3422040053
13   
Frame   4 IRC: Energy =  -286.8593550000 ; +0.0282 kcal/mol
C        1.5293454306    0.3920310716   -0.2372522983
C        0.6886113830   -0.8511829283    0.0316246357
C       -0.6287169186   -0.5146793385   -0.7582589050
C       -1.1512093648    0.1554354039    0.5363740162
C       -0.5301775536    0.9650670271   -0.6928760374
N        0.8348802879    1.4130031233   -0.5934525578
H        2.5946042026    0.4693193658   -0.0300492945
H        1.1808286880   -1.8215325526   -0.0521404502
H       -1.1612982419   -1.1349195824   -1.4718812074
H       -2.1623269636    0.3986081151    0.8440336019
H       -1.2335520272    1.6083460379   -1.2098845706
C       -0.1123497942   -0.5279585364    1.2905007153
H        0.1513608718   -0.5515372067    2.3432623521
13   
Frame   5 IRC: Energy =  -286.8593490000 ; +0.0320 kcal/mol
C        1.5292826954    0.3921434809   -0.2374948379
C        0.6887538359   -0.8508390510    0.0317269962
C       -0.6287568289   -0.5147412269   -0.7582438455
C       -1.1507871593    0.1557941061    0.5363715889
C       -0.5300152942    0.9650470000   -0.6929599227
N        0.8348474172    1.4131399991   -0.5938932401
H        2.5948043222    0.4696409553   -0.0304594114
H        1.1810747130   -1.8213784448   -0.0518839395
H       -1.1613184203   -1.1350966043   -1.4712904119
H       -2.1622693257    0.3991028538    0.8442338014
H       -1.2336400887    1.6082402638   -1.2102534121
C       -0.1122392876   -0.5277307211    1.2908060263
H        0.1502634211   -0.5533226110    2.3433406081
13   
Frame   6 IRC: Energy =  -286.8593300000 ; +0.0439 kcal/mol
C        1.5296797784    0.3928577803   -0.2382443608
C        0.6892591781   -0.8503833506    0.0321597393
C       -0.6283475162   -0.5145317681   -0.7576262839
C       -1.1504210465    0.1571175798    0.5368072974
C       -0.5300974007    0.9652363451   -0.6935659715
N        0.8349519187    1.4133708994   -0.5952570008
H        2.5950443950    0.4706078334   -0.0318474262
H        1.1817479929   -1.8205987230   -0.0510289155
H       -1.1616374752   -1.1359446221   -1.4697314001
H       -2.1614189759    0.4005439544    0.8446674676
H       -1.2336906390    1.6076849725   -1.2112211016
C       -0.1119532653   -0.5268831341    1.2906318453
H        0.1468830557   -0.5590777672    2.3442561107
13   
Frame   7 IRC: Energy =  -286.8593220000 ; +0.0489 kcal/mol
C        1.5296186743    0.3929967501   -0.2385307686
C        0.6894233621   -0.8499762754    0.0322887537
C       -0.6283920749   -0.5146120325   -0.7576209081
C       -1.1500351648    0.1575737950    0.5368321743
C       -0.5298604192    0.9651847504   -0.6936398519
N        0.8349064121    1.4135262636   -0.5957758599
H        2.5952685485    0.4709812488   -0.0323300364
H        1.1820336142   -1.8204232384   -0.0507217581
H       -1.1616569787   -1.1361473953   -1.4690370863
H       -2.1612906381    0.4011025798    0.8448880121
H       -1.2338172096    1.6075771381   -1.2116639532
C       -0.1117855220   -0.5266066096    1.2909671139
H        0.1455873961   -0.5611769747    2.3443441685
13   
Frame   8 IRC: Energy =  -286.8593060000 ; +0.0590 kcal/mol
C        1.5299895035    0.3935310206   -0.2390739930
C        0.6897986462   -0.8497078777    0.0326139524
C       -0.6280365725   -0.5144086615   -0.7570791732
C       -1.1497336737    0.1585285208    0.5371687095
C       -0.5300434355    0.9653737914   -0.6941357528
N        0.8349980805    1.4136962381   -0.5967773250
H        2.5954059319    0.4716847265   -0.0333603094
H        1.1825114086   -1.8198199753   -0.0500771575
H       -1.1619167064   -1.1368011297   -1.4679351723
H       -2.1606661334    0.4021581708    0.8452114574
H       -1.2338073208    1.6071223333   -1.2123365728
C       -0.1115956289   -0.5259234465    1.2907338637
H        0.1430959004   -0.5654337108    2.3450474730
13   
Frame   9 IRC: Energy =  -286.8592970000 ; +0.0646 kcal/mol
C        1.5298165744    0.3937927284   -0.2394284248
C        0.6899954769   -0.8493003501    0.0327529276
C       -0.6280693524   -0.5144955409   -0.7570745443
C       -1.1494206945    0.1590419575    0.5372262824
C       -0.5297807795    0.9653251794   -0.6942183060
N        0.8350282382    1.4137526379   -0.5972923046
H        2.5956712329    0.4720803241   -0.0338683186
H        1.1828039315   -1.8196245867   -0.0497418047
H       -1.1619387904   -1.1370185825   -1.4672003982
H       -2.1604750791    0.4027360144    0.8454336951
H       -1.2339479806    1.6070042778   -1.2128046534
C       -0.1113889707   -0.5256166596    1.2910834240
H        0.1417061932   -0.5676773996    2.3451324256
13   
Frame  10 IRC: Energy =  -286.8592830000 ; +0.0734 kcal/mol
C        1.5302823228    0.3940846303   -0.2398072339
C        0.6902766765   -0.8490673465    0.0330200370
C       -0.6277865987   -0.5143280250   -0.7566210957
C       -1.1491240862    0.1598062245    0.5374811090
C       -0.5299489052    0.9654692230   -0.6946115471
N        0.8350007568    1.4140266139   -0.5981525321
H        2.5957336163    0.4726464647   -0.0347139676
H        1.1831933021   -1.8191422263   -0.0492126048
H       -1.1621465962   -1.1375463508   -1.4663137285
H       -2.1599946977    0.4035905820    0.8457071712
H       -1.2339341198    1.6066326983   -1.2133458173
C       -0.1112279354   -0.5250354673    1.2908872060
H        0.1396762647   -0.5711370208    2.3456830038
13   
Frame  11 IRC: Energy =  -286.8592730000 ; +0.0797 kcal/mol
C        1.5300382722    0.3944708637   -0.2402115709
C        0.6904960005   -0.8487133940    0.0331664685
C       -0.6277729040   -0.5143833850   -0.7565607361
C       -1.1488409657    0.1603294677    0.5375716481
C       -0.5297463991    0.9654589311   -0.6947330735
N        0.8351193446    1.4139747107   -0.5986383355
H        2.5960106414    0.4730456129   -0.0352303597
H        1.1834751999   -1.8189172562   -0.0488616482
H       -1.1621896635   -1.1377917932   -1.4655960775
H       -2.1597694660    0.4041715558    0.8459262473
H       -1.2340525255    1.6064833558   -1.2137989134
C       -0.1110288236   -0.5246920065    1.2911623313
H        0.1382612887   -0.5734366628    2.3458040198
13   
Frame  12 IRC: Energy =  -286.8592580000 ; +0.0891 kcal/mol
C        1.5305393443    0.3946858886   -0.2405805743
C        0.6907744948   -0.8484100731    0.0334376521
C       -0.6275327043   -0.5142534524   -0.7561517262
C       -1.1485086111    0.1611243616    0.5378052265
C       -0.5298493531    0.9655635697   -0.6950912221
N        0.8350294678    1.4143287240   -0.5995485910
H        2.5960837062    0.4736294622   -0.0360988711
H        1.1838831886   -1.8184516169   -0.0483115352
H       -1.1623750734   -1.1383035583   -1.4646544755
H       -2.1593009736    0.4050472059    0.8462211959
H       -1.2340695179    1.6061270461   -1.2143774091
C       -0.1108202569   -0.5240843589    1.2910609709
H        0.1361462885   -0.5770031986    2.3462893591
13   
Frame  13 IRC: Energy =  -286.8592480000 ; +0.0954 kcal/mol
C        1.5302682461    0.3951284458   -0.2409959624
C        0.6909957913   -0.8481086647    0.0335804115
C       -0.6274843662   -0.5142855372   -0.7560530558
C       -1.1482451236    0.1616261326    0.5379111410
C       -0.5296966810    0.9655839022   -0.6952333189
N        0.8351908618    1.4142131994   -0.5999944622
H        2.5963537536    0.4740110788   -0.0365963695
H        1.1841438648   -1.8182181520   -0.0479652966
H       -1.1624313627   -1.1385571473   -1.4639857875
H       -2.1590731288    0.4056032856    0.8464313358
H       -1.2341661188    1.6059621384   -1.2147972970
C       -0.1106365581   -0.5237264026    1.2912717698
H        0.1347808217   -0.5792322790    2.3464268918
13   
Frame  14 IRC: Energy =  -286.8592280000 ; +0.1079 kcal/mol
C        1.5308102535    0.3953702821   -0.2414460066
C        0.6913299750   -0.8476891543    0.0339065816
C       -0.6272497884   -0.5141702966   -0.7556082848
C       -1.1478274874    0.1625847224    0.5381698084
C       -0.5297552558    0.9656719191   -0.6956188620
N        0.8350771802    1.4146381437   -0.6010903288
H        2.5964728119    0.4747160747   -0.0376353305
H        1.1846358290   -1.8176835066   -0.0472953252
H       -1.1626215960   -1.1391375160   -1.4628229383
H       -2.1585214956    0.4066491415    0.8467955106
H       -1.2342174414    1.6055557593   -1.2155129926
C       -0.1103374645   -0.5229746180    1.2912470280
H        0.1322044795   -0.5835309514    2.3469111403
13   
Frame  15 IRC: Energy =  -286.8592180000 ; +0.1142 kcal/mol
C        1.5305146828    0.3958415615   -0.2418553489
C        0.6915421345   -0.8474342600    0.0340543331
C       -0.6271885056   -0.5141902815   -0.7554724149
C       -1.1475792512    0.1630417620    0.5382836458
C       -0.5296278750    0.9657276726   -0.6957609367
N        0.8352568470    1.4144676655   -0.6014910800
H        2.5967345994    0.4750715497   -0.0380998253
H        1.1848698982   -1.8174510149   -0.0469663972
H       -1.1626826185   -1.1393866243   -1.4622159156
H       -2.1582915402    0.4071642647    0.8469874196
H       -1.2342983024    1.6053863915   -1.2158971418
C       -0.1101680052   -0.5226120148    1.2914074287
H        0.1309179362   -0.5856266719    2.3470262332
13   
Frame  16 IRC: Energy =  -286.8591890000 ; +0.1324 kcal/mol
C        1.5311419198    0.3962368289   -0.2425530096
C        0.6920228113   -0.8468076787    0.0344721923
C       -0.6268715344   -0.5140711796   -0.7549587403
C       -1.1469712842    0.1644280792    0.5386261004
C       -0.5296649456    0.9658050098   -0.6962716748
N        0.8351430291    1.4150289435   -0.6029825925
H        2.5969460544    0.4760424676   -0.0395246949
H        1.1855461883   -1.8167522714   -0.0460062858
H       -1.1629322900   -1.1401764574   -1.4605959440
H       -2.1575677835    0.4086036003    0.8475190527
H       -1.2344031007    1.6048473468   -1.2169111230
C       -0.1097101343   -0.5215672258    1.2915073424
H        0.1273210697   -0.5916174632    2.3476793772
13   
Frame  17 IRC: Energy =  -286.8591780000 ; +0.1393 kcal/mol
C        1.5308138271    0.3967444981   -0.2429689481
C        0.6922211910   -0.8466010058    0.0345408858
C       -0.6267299639   -0.5141180779   -0.7548303362
C       -1.1467342528    0.1648813695    0.5387372520
C       -0.5295213238    0.9659160140   -0.6964216413
N        0.8353061143    1.4148083198   -0.6033360592
H        2.5972089062    0.4763626226   -0.0399471730
H        1.1857499739   -1.8165309514   -0.0456819639
H       -1.1630154618   -1.1404300087   -1.4600656924
H       -2.1573925992    0.4090803143    0.8477163434
H       -1.2344791705    1.6046856542   -1.2172599973
C       -0.1095675389   -0.5212301728    1.2916650836
H        0.1261402985   -0.5935685760    2.3478522466
13   
Frame  18 IRC: Energy =  -286.8590900000 ; +0.1945 kcal/mol
C        1.5319075528    0.3981402856   -0.2450039248
C        0.6935711253   -0.8448276125    0.0358049548
C       -0.6261033170   -0.5138822179   -0.7533277864
C       -1.1451046984    0.1684775467    0.5396494615
C       -0.5294857272    0.9660915773   -0.6976684989
N        0.8353075336    1.4157884834   -0.6072227229
H        2.5980342777    0.4789953382   -0.0437247399
H        1.1874866278   -1.8146626071   -0.0430137956
H       -1.1635434745   -1.1424102226   -1.4556684483
H       -2.1554187370    0.4128670353    0.8492142208
H       -1.2348279213    1.6031807940   -1.2199583638
C       -0.1080286157   -0.5178935164    1.2920363622
H        0.1162053739   -0.6098648841    2.3488832811
13   
Frame  19 IRC: Energy =  -286.8590690000 ; +0.2077 kcal/mol
C        1.5319564523    0.3985969338   -0.2453919771
C        0.6935978784   -0.8448557373    0.0358932606
C       -0.6253555260   -0.5142644341   -0.7526366196
C       -1.1447580039    0.1690199537    0.5398606492
C       -0.5283112644    0.9674485669   -0.6978260169
N        0.8341189015    1.4153541227   -0.6079311785
H        2.5984152278    0.4793289085   -0.0442558630
H        1.1876535203   -1.8141591349   -0.0425827858
H       -1.1639167223   -1.1430193374   -1.4553417256
H       -2.1553181173    0.4134805582    0.8495211337
H       -1.2349355463    1.6028486270   -1.2203623955
C       -0.1077907662   -0.5173704931    1.2920136153
H        0.1146439661   -0.6124085341    2.3490399031
13   
Frame  20 IRC: Energy =  -286.8589320000 ; +0.2937 kcal/mol
C        1.5328516414    0.4007748209   -0.2485344804
C        0.6957315793   -0.8420916025    0.0375745551
C       -0.6251029960   -0.5136945926   -0.7511404556
C       -1.1424479195    0.1741786230    0.5410296913
C       -0.5295247541    0.9662731996   -0.6994564650
N        0.8357209943    1.4168213799   -0.6129237348
H        2.5994313527    0.4828648781   -0.0492943127
H        1.1898964219   -1.8119910443   -0.0386043221
H       -1.1642323356   -1.1453275107   -1.4491696988
H       -2.1524321822    0.4183565911    0.8516452833
H       -1.2355114126    1.6008688655   -1.2240032876
C       -0.1051232279   -0.5120204150    1.2929840667
H        0.1007428382   -0.6350131929    2.3498931605
13   
Frame  21 IRC: Energy =  -286.8589050000 ; +0.3106 kcal/mol
C        1.5330586895    0.4008421233   -0.2488546591
C        0.6961743105   -0.8415011473    0.0378827629
C       -0.6256822464   -0.5131987135   -0.7513841179
C       -1.1423104381    0.1748313438    0.5410978236
C       -0.5307478358    0.9649044549   -0.6996991089
N        0.8369871392    1.4174931721   -0.6134125316
H        2.5993204783    0.4833501525   -0.0499416973
H        1.1902490592   -1.8119232891   -0.0381387485
H       -1.1639942293   -1.1453182548   -1.4481064224
H       -2.1518660413    0.4189005527    0.8518241275
H       -1.2355117292    1.6007010974   -1.2244319602
C       -0.1047904139   -0.5113860927    1.2931287184
H        0.0991132576   -0.6376953993    2.3500358134
13   
Frame  22 IRC: Energy =  -286.8587540000 ; +0.4054 kcal/mol
C        1.5339350651    0.4032621097   -0.2520061756
C        0.6977735603   -0.8395084703    0.0392951242
C       -0.6239242205   -0.5139086934   -0.7485761778
C       -1.1397835102    0.1798445811    0.5423781455
C       -0.5291405706    0.9669226793   -0.7009648763
N        0.8354466019    1.4176004291   -0.6184989621
H        2.6008895317    0.4865184553   -0.0546388467
H        1.1920775083   -1.8093230973   -0.0340733024
H       -1.1649538861   -1.1482775637   -1.4431080797
H       -2.1495875933    0.4235972341    0.8542039771
H       -1.2362502708    1.5983854385   -1.2277704063
C       -0.1014674700   -0.5049790356    1.2940267532
H        0.0849852541   -0.6601340668    2.3497328269
13   
Frame  23 IRC: Energy =  -286.8587160000 ; +0.4292 kcal/mol
C        1.5341787252    0.4034360876   -0.2526052189
C        0.6983996340   -0.8388015025    0.0398062450
C       -0.6242749413   -0.5135535735   -0.7484581144
C       -1.1395110451    0.1809565933    0.5426650966
C       -0.5302178190    0.9657896337   -0.7012779013
N        0.8365696874    1.4183685401   -0.6194607438
H        2.6009620397    0.4872905860   -0.0556884426
H        1.1925476278   -1.8089691205   -0.0332326738
H       -1.1648451438   -1.1485769397   -1.4416849850
H       -2.1487530745    0.4245370361    0.8545796787
H       -1.2363342969    1.5979971922   -1.2284841800
C       -0.1007293256   -0.5035926768    1.2941542841
H        0.0820079321   -0.6648818560    2.3496869555
13   
Frame  24 IRC: Energy =  -286.8586490000 ; +0.4713 kcal/mol
C        1.5345368656    0.4046691357   -0.2538806436
C        0.6988623260   -0.8380600862    0.0402159845
C       -0.6233177565   -0.5140484158   -0.7471311311
C       -1.1383180534    0.1828871299    0.5430782376
C       -0.5289173765    0.9671993300   -0.7017196814
N        0.8353135703    1.4178952556   -0.6215297342
H        2.6016944980    0.4885108584   -0.0575323417
H        1.1932641524   -1.8078936886   -0.0315831252
H       -1.1652778955   -1.1497993068   -1.4397511658
H       -2.1481299484    0.4264690013    0.8556792009
H       -1.2366268663    1.5969444261   -1.2297488391
C       -0.0993344526   -0.5009082352    1.2947754592
H        0.0762509368   -0.6738654044    2.3491277799
13   
Frame  25 IRC: Energy =  -286.8586040000 ; +0.4995 kcal/mol
C        1.5347480994    0.4048526459   -0.2544500210
C        0.6996555778   -0.8372579543    0.0409841425
C       -0.6236873747   -0.5137434851   -0.7466628646
C       -1.1381339117    0.1839991475    0.5435160547
C       -0.5300533572    0.9659799797   -0.7019780735
N        0.8366246641    1.4186944377   -0.6227556960
H        2.6017251221    0.4894244174   -0.0587709081
H        1.1937429808   -1.8073893239   -0.0306413578
H       -1.1651132110   -1.1500577204   -1.4380571942
H       -2.1470852278    0.4275837183    0.8560961917
H       -1.2366932612    1.5964496681   -1.2305400330
C       -0.0984126372   -0.4992056598    1.2947045152
H        0.0726825366   -0.6793298710    2.3485552441
13   
Frame  26 IRC: Energy =  -286.8582100000 ; +0.7467 kcal/mol
C        1.5370380140    0.4092415596   -0.2613735008
C        0.7033570510   -0.8321637462    0.0438641685
C       -0.6219076770   -0.5147703541   -0.7413641878
C       -1.1323069012    0.1953640919    0.5457756146
C       -0.5297770839    0.9669167580   -0.7044725014
N        0.8358525959    1.4200155378   -0.6332283738
H        2.6040147091    0.4958015629   -0.0669401321
H        1.1968362447   -1.8028774091   -0.0211705876
H       -1.1669940037   -1.1554283472   -1.4267216610
H       -2.1418089572    0.4354598713    0.8610355278
H       -1.2381691247    1.5918323233   -1.2374461197
C       -0.0877946681   -0.4809181704    1.2984550799
H        0.0416598010   -0.7284736778    2.3435866733
13   
Frame  27 IRC: Energy =  -286.8581690000 ; +0.7725 kcal/mol
C        1.5369117159    0.4096247069   -0.2618626085
C        0.7035140034   -0.8324606362    0.0438156668
C       -0.6209849283   -0.5154838940   -0.7405856351
C       -1.1317956968    0.1960528332    0.5460442335
C       -0.5278802445    0.9688111045   -0.7045605403
N        0.8339050869    1.4194903387   -0.6340814664
H        2.6046468324    0.4960947901   -0.0673339809
H        1.1968144952   -1.8021900921   -0.0205565390
H       -1.1674686130   -1.1561364404   -1.4264413150
H       -2.1418255230    0.4359691896    0.8614630413
H       -1.2383967438    1.5914677444   -1.2378878638
C       -0.0872130817   -0.4796914846    1.2985223487
H        0.0397726973   -0.7315481601    2.3434646586
13   
Frame  28 IRC: Energy =  -286.8578170000 ; +0.9933 kcal/mol
C        1.5383524656    0.4131770786   -0.2674693664
C        0.7070166022   -0.8275297326    0.0462793686
C       -0.6212198363   -0.5171816430   -0.7356836349
C       -1.1263255188    0.2069739742    0.5483005786
C       -0.5311514630    0.9652593326   -0.7065862422
N        0.8354314074    1.4209057456   -0.6433317215
H        2.6044226326    0.5028201589   -0.0700900886
H        1.1995457575   -1.7989850846   -0.0130254595
H       -1.1669081290   -1.1605933841   -1.4180443439
H       -2.1335934231    0.4482067086    0.8694141360
H       -1.2412701156    1.5842514783   -1.2440274800
C       -0.0745067149   -0.4597815389    1.3023209622
H        0.0102063353   -0.7775230937    2.3319432917
13   
Frame  29 IRC: Energy =  -286.8577880000 ; +1.0115 kcal/mol
C        1.5382823911    0.4135622169   -0.2679098848
C        0.7070855731   -0.8277445541    0.0464259096
C       -0.6206352702   -0.5178348393   -0.7350641973
C       -1.1257963940    0.2076342573    0.5484295525
C       -0.5297540446    0.9665599644   -0.7066902569
N        0.8339262068    1.4204544975   -0.6440658390
H        2.6047735832    0.5031629538   -0.0701573767
H        1.1995327707   -1.7984174620   -0.0125397618
H       -1.1671271381   -1.1611565650   -1.4178245882
H       -2.1334615195    0.4490788217    0.8700905383
H       -1.2415844894    1.5837047695   -1.2444268669
C       -0.0735479486   -0.4585274474    1.3024794110
H        0.0083062793   -0.7804766134    2.3312533602
13   
Frame  30 IRC: Energy =  -286.8576360000 ; +1.1069 kcal/mol
C        1.5381812812    0.4150969242   -0.2700849807
C        0.7085192261   -0.8258333943    0.0470705538
C       -0.6210721296   -0.5192164510   -0.7330869805
C       -1.1231271953    0.2127446183    0.5498957738
C       -0.5322060599    0.9635020203   -0.7076215331
N        0.8346100843    1.4208259387   -0.6482724758
H        2.6035413570    0.5068870700   -0.0692480080
H        1.2009861032   -1.7973665495   -0.0100818917
H       -1.1646861845   -1.1632886222   -1.4167278625
H       -2.1273461139    0.4591171747    0.8764816529
H       -1.2441992786    1.5784711124   -1.2471365072
C       -0.0680533712   -0.4502124767    1.3042805905
H       -0.0051477189   -0.8007273647    2.3245316686
13   
Frame  31 IRC: Energy =  -286.8576070000 ; +1.1251 kcal/mol
C        1.5380816931    0.4154670737   -0.2705048119
C        0.7084417270   -0.8258225458    0.0472442769
C       -0.6204910955   -0.5198322891   -0.7323562853
C       -1.1225387747    0.2135408519    0.5499896985
C       -0.5313758251    0.9644131748   -0.7078706134
N        0.8333095889    1.4203670255   -0.6490566449
H        2.6036048593    0.5074227522   -0.0689729869
H        1.2011077975   -1.7969666380   -0.0097051633
H       -1.1645259614   -1.1639452462   -1.4169779582
H       -2.1266972479    0.4609535632    0.8777575358
H       -1.2446778283    1.5774314241   -1.2474999643
C       -0.0668828922   -0.4490603697    1.3045560834
H       -0.0073560407   -0.8039687766    2.3233968336
13   
Frame  32 IRC: Energy =  -286.8575370000 ; +1.1691 kcal/mol
C        1.5378678231    0.4159642458   -0.2712207410
C        0.7092148677   -0.8252280294    0.0473261720
C       -0.6211896885   -0.5205973584   -0.7320362909
C       -1.1214349837    0.2157190294    0.5509175486
C       -0.5330206336    0.9619840325   -0.7081525403
N        0.8339649549    1.4207749681   -0.6508586073
H        2.6025653018    0.5092624162   -0.0679875478
H        1.2018511761   -1.7966514161   -0.0090256341
H       -1.1623944026   -1.1647179594   -1.4173923846
H       -2.1230586295    0.4669181756    0.8814704119
H       -1.2463677700    1.5746588714   -1.2487064022
C       -0.0649639491   -0.4457815187    1.3052223292
H       -0.0130340666   -0.8123054569    2.3204436864
13   
Frame  33 IRC: Energy =  -286.8575050000 ; +1.1891 kcal/mol
C        1.5376490859    0.4163587221   -0.2716173386
C        0.7090350200   -0.8252606154    0.0475143095
C       -0.6205880569   -0.5212644876   -0.7313090927
C       -1.1208654947    0.2165464711    0.5509309594
C       -0.5323252702    0.9627944959   -0.7084819098
N        0.8325641187    1.4202078032   -0.6516383533
H        2.6024647619    0.5099071803   -0.0674368247
H        1.2020415027   -1.7963022576   -0.0087949922
H       -1.1618516741   -1.1654657725   -1.4181963736
H       -2.1220680728    0.4696212591    0.8833046797
H       -1.2470459484    1.5732468155   -1.2490121272
C       -0.0636993868   -0.4449064131    1.3055107318
H       -0.0153105852   -0.8154832010    2.3192263317
13   
Frame  34 IRC: Energy =  -286.8573520000 ; +1.2851 kcal/mol
C        1.5366143782    0.4170430624   -0.2720578429
C        0.7095031350   -0.8252021638    0.0472565380
C       -0.6212090612   -0.5234765667   -0.7316098723
C       -1.1191964173    0.2196230222    0.5525484565
C       -0.5346522133    0.9589644249   -0.7089410314
N        0.8316954644    1.4203821162   -0.6538884545
H        2.5999654661    0.5131414194   -0.0650249777
H        1.2038714911   -1.7960056660   -0.0086033633
H       -1.1556839370   -1.1675689840   -1.4229609137
H       -2.1140263089    0.4845315120    0.8928901010
H       -1.2509448976    1.5672366543   -1.2504445705
C       -0.0620814561   -0.4424410170    1.3057792843
H       -0.0238556434   -0.8262278139    2.3150566467
13   
Frame  35 IRC: Energy =  -286.8573050000 ; +1.3146 kcal/mol
C        1.5357611843    0.4175114103   -0.2723840020
C        0.7094925693   -0.8258439237    0.0475616944
C       -0.6207346919   -0.5245020145   -0.7313535942
C       -1.1186499083    0.2202828824    0.5524363100
C       -0.5335677923    0.9599210382   -0.7091553980
N        0.8298292221    1.4195973453   -0.6543977064
H        2.5999390448    0.5137840875   -0.0643344295
H        1.2040080093   -1.7954142249   -0.0085732124
H       -1.1544582253   -1.1683945117   -1.4245371876
H       -2.1128024914    0.4882889977    0.8954974530
H       -1.2518802083    1.5656259566   -1.2506220312
C       -0.0611438560   -0.4423375694    1.3055638434
H       -0.0257928564   -0.8285194737    2.3142982606
13   
Frame  36 IRC: Energy =  -286.8571550000 ; +1.4088 kcal/mol
C        1.5350448836    0.4178174389   -0.2721010173
C        0.7094376244   -0.8257336071    0.0468044835
C       -0.6212285948   -0.5258904261   -0.7324081342
C       -1.1179055020    0.2220225087    0.5539369324
C       -0.5363172483    0.9560846076   -0.7093874639
N        0.8297509216    1.4201028582   -0.6551417316
H        2.5976516828    0.5160555177   -0.0629204067
H        1.2059101187   -1.7957639793   -0.0086271567
H       -1.1489538595   -1.1702173835   -1.4292434617
H       -2.1057776608    0.5003151121    0.9033356789
H       -1.2548079036    1.5613547351   -1.2514045044
C       -0.0616866242   -0.4421408942    1.3054716905
H       -0.0311178378   -0.8340064881    2.3116850911
13   
Frame  37 IRC: Energy =  -286.8570610000 ; +1.4677 kcal/mol
C        1.5338906276    0.4182598182   -0.2722137005
C        0.7094929860   -0.8267778170    0.0473252388
C       -0.6208478002   -0.5274903569   -0.7326161817
C       -1.1173378177    0.2228406596    0.5535018483
C       -0.5350336450    0.9571310679   -0.7095834074
N        0.8270747767    1.4192076115   -0.6554857108
H        2.5972828502    0.5169841353   -0.0621507181
H        1.2062251996   -1.7948681169   -0.0085958079
H       -1.1465238896   -1.1715429962   -1.4320223427
H       -2.1035978597    0.5066453974    0.9078315648
H       -1.2562951714    1.5589928496   -1.2515655715
C       -0.0606456773   -0.4429643840    1.3045864329
H       -0.0336845792   -0.8364178688    2.3109883558
13   
Frame  38 IRC: Energy =  -286.8567890000 ; +1.6384 kcal/mol
C        1.5326503193    0.4189506660   -0.2713592235
C        0.7090167713   -0.8269908082    0.0458536150
C       -0.6206428832   -0.5291761762   -0.7352269631
C       -1.1167464855    0.2248648075    0.5554746517
C       -0.5385883814    0.9522745389   -0.7097192278
N        0.8263413237    1.4201974232   -0.6550512278
H        2.5947311021    0.5194531943   -0.0612399512
H        1.2090454939   -1.7956371617   -0.0082525504
H       -1.1391662081   -1.1748623542   -1.4389819352
H       -2.0938249762    0.5225494655    0.9188779448
H       -1.2597972611    1.5540084978   -1.2522528651
C       -0.0635093153   -0.4448560329    1.3037746374
H       -0.0395094996   -0.8407760600    2.3081030951
13   