
Running Job 1 of 1 irc_product.in
qchem irc_product.in_14586.0 ./irc_product.d/ 1
/home/leeping/opt/qchem/5.0.2-openmp/exe/qcprog.exe_s irc_product.in_14586.0 ./irc_product.d/
Check license passed

                  Welcome to Q-Chem
     A Quantum Leap Into The Future Of Chemistry


 Q-Chem 5.0, Q-Chem, Inc., Pleasanton, CA (2017)

 Yihan Shao,  Zhengting Gan,  E. Epifanovsky,  A. T. B. Gilbert,  M. Wormit,  
 J. Kussmann,  A. W. Lange,  A. Behn,  Jia Deng,  Xintian Feng,  D. Ghosh,  
 M. Goldey,  P. R. Horn,  L. D. Jacobson,  I. Kaliman,  T. Kus,  A. Landau,  
 Jie Liu,  E. I. Proynov,  R. M. Richard,  R. P. Steele,  E. J. Sundstrom,  
 H. L. Woodcock III,  P. M. Zimmerman,  D. Zuev,  B. Albrecht,  E. Alguire,  
 S. A. Baeppler,  D. Barton,  Z. Benda,  Y. A. Bernard,  E. J. Berquist,  
 K. B. Bravaya,  H. Burton,  D. Casanova,  Chun-Min Chang,  Yunqing Chen,  
 A. Chien,  K. D. Closser,  M. P. Coons,  S. Dasgupta,  A. L. Dempwolff,  
 M. Diedenhofen,  Hainam Do,  R. G. Edgar,  Po-Tung Fang,  S. Fatehi,  
 Qingguo Feng,  J. Fosso-Tande,  Qinghui Ge,  A. Ghysels,  G. Gidofalvi,  
 J. Gomes,  J. Gonthier,  A. Gunina,  M. W. D. Hanson-Heine,  
 P. H. P. Harbach,  A. W. Hauser,  J. E. Herr,  E. G. Hohenstein,  
 Z. C. Holden,  Kerwin Hui,  T.-C. Jagau,  Hyunjun Ji,  B. Kaduk,  
 K. Khistyaev,  Jaehoon Kim,  P. Klunzinger,  K. Koh,  D. Kosenkov,  
 L. Koulias,  T. Kowalczyk,  C. M. Krauter,  A. Kunitsa,  Ka Un Lao,  
 A. Laurent,  K. V. Lawler,  Joonho Lee,  D. Lefrancois,  S. Lehtola,  
 D. S. Levine,  Yi-Pei Li,  You-Sheng Lin,  Fenglai Liu,  E. Livshits,  
 A. Luenser,  P. Manohar,  E. Mansoor,  S. F. Manzer,  Shan-Ping Mao,  
 Yuezhi Mao,  N. Mardirossian,  A. V. Marenich,  T. Markovich,  
 L. A. Martinez-Martinez,  S. A. Maurer,  N. J. Mayhall,  S. C. McKenzie,  
 J.-M. Mewes,  A. F. Morrison,  J. W. Mullinax,  K. Nanda,  
 T. S. Nguyen-Beck,  R. Olivares-Amaya,  J. A. Parkhill,  T. M. Perrine,  
 F. Plasser,  S. Prager,  A. Prociuk,  E. Ramos,  D. R. Rehn,  F. Rob,  
 M. Schneider,  N. Sergueev,  S. M. Sharada,  S. Sharma,  D. W. Small,  
 T. Stauch,  T. Stein,  Yu-Chuan Su,  A. J. W. Thom,  A. Tkatchenko,  
 T. Tsuchimochi,  L. Vogt,  O. Vydrov,  M. A. Watson,  J. Wenzel,  
 M. de Wergifosse,  T. A. Wesolowski,  A. White,  J. Witte,  A. Yamada,  
 Jun Yang,  K. Yao,  S. Yeganeh,  S. R. Yost,  Zhi-Qiang You,  A. Zech,  
 Igor Ying Zhang,  Xing Zhang,  Yan Zhao,  Ying Zhu,  B. R. Brooks,  
 G. K. L. Chan,  C. J. Cramer,  M. S. Gordon,  W. J. Hehre,  A. Klamt,  
 M. W. Schmidt,  C. D. Sherrill,  D. G. Truhlar,  A. Aspuru-Guzik,  R. Baer,  
 A. T. Bell,  N. A. Besley,  Jeng-Da Chai,  R. A. DiStasio Jr.,  A. Dreuw,  
 B. D. Dunietz,  T. R. Furlani,  Chao-Ping Hsu,  Yousung Jung,  Jing Kong,  
 D. S. Lambrecht,  WanZhen Liang,  C. Ochsenfeld,  V. A. Rassolov,  
 L. V. Slipchenko,  J. E. Subotnik,  T. Van Voorhis,  J. M. Herbert,  
 A. I. Krylov,  P. M. W. Gill,  M. Head-Gordon

 Contributors to earlier versions of Q-Chem not listed above: 
 R. D. Adamson,  B. Austin,  J. Baker,  G. J. O. Beran,  K. Brandhorst,  
 S. T. Brown,  E. F. C. Byrd,  A. K. Chakraborty,  C.-L. Cheng,  
 Siu Hung Chien,  D. M. Chipman,  D. L. Crittenden,  H. Dachsel,  
 R. J. Doerksen,  A. D. Dutoi,  L. Fusti-Molnar,  W. A. Goddard III,  
 A. Golubeva-Zadorozhnaya,  S. R. Gwaltney,  G. Hawkins,  A. Heyden,  
 S. Hirata,  G. Kedziora,  F. J. Keil,  C. Kelley,  Jihan Kim,  R. A. King,  
 R. Z. Khaliullin,  P. P. Korambath,  W. Kurlancheek,  A. M. Lee,  M. S. Lee,  
 S. V. Levchenko,  Ching Yeh Lin,  D. Liotard,  R. C. Lochan,  I. Lotan,  
 P. E. Maslen,  N. Nair,  D. P. O'Neill,  D. Neuhauser,  E. Neuscamman,  
 C. M. Oana,  R. Olson,  B. Peters,  R. Peverati,  P. A. Pieniazek,  
 Y. M. Rhee,  J. Ritchie,  M. A. Rohrdanz,  E. Rosta,  N. J. Russ,  
 H. F. Schaefer III,  N. E. Schultz,  N. Shenvi,  A. C. Simmonett,  A. Sodt,  
 D. Stuck,  K. S. Thanthiriwatte,  V. Vanovschi,  Tao Wang,  A. Warshel,  
 C. F. Williams,  Q. Wu,  X. Xu,  W. Zhang

 Please cite Q-Chem as follows:
 Y. Shao et al., Mol. Phys. 113, 184-215 (2015)
 DOI: 10.1080/00268976.2014.952696

 Q-Chem 5.0.2 for Intel X86 EM64T Linux

 Parts of Q-Chem use Armadillo 5.200.1 (Boston Tea Smuggler).
 http://arma.sourceforge.net/

 Q-Chem begins on Wed Mar  2 11:16:05 2022  

Host: 
0

     Scratch files written to ./irc_product.d//
 Dec517 15110_ 26548  26544 5633   
Processing $rem in /home/leeping/opt/qchem/5.0.2-openmp/config/preferences.
 MEM_STATIC 2000
 MEM_TOTAL  8000
 SYMMETRY   OFF
 SYM_IGNORE TRUE 

Checking the input file for inconsistencies... 	...done.

--------------------------------------------------------------
User input:
--------------------------------------------------------------
$molecule
0 2
C        1.4956025620    0.4670410401   -0.2289301929
C        0.7034406651   -0.8338871506    0.0039744227
C       -0.3040337305   -0.6069548509   -1.1287569747
C       -1.0784236043    0.4520358916    0.7473299644
C       -0.6401905716    0.8106003920   -0.6828536631
N        0.7468592491    1.4284081184   -0.6137036797
H        2.5656966896    0.5836322925   -0.0710247403
H        1.2670569459   -1.7648816519    0.0572083986
H       -1.0510917850   -1.3449674063   -1.4127903032
H       -1.8838475559    0.9318405767    1.2906739532
H       -1.3225631791    1.4223563015   -1.2692059068
C       -0.2618234258   -0.5303782599    1.1692420315
H       -0.2366822596   -1.0148452932    2.1388366903
$end

$rem
method                b3lyp
basis                 6-31+g(d,p)
unrestricted          true
symmetry              off
sym_ignore            true
incdft                false
incfock               0
scf_convergence       8
thresh                14
jobtype               sp
scf_guess             read
scf_algorithm         diis
max_scf_cycles        100
scf_final_print       1
$end

--------------------------------------------------------------
 ----------------------------------------------------------------
             Standard Nuclear Orientation (Angstroms)
    I     Atom           X                Y                Z
 ----------------------------------------------------------------
    1      C       1.4956025620     0.4670410401    -0.2289301929
    2      C       0.7034406651    -0.8338871506     0.0039744227
    3      C      -0.3040337305    -0.6069548509    -1.1287569747
    4      C      -1.0784236043     0.4520358916     0.7473299644
    5      C      -0.6401905716     0.8106003920    -0.6828536631
    6      N       0.7468592491     1.4284081184    -0.6137036797
    7      H       2.5656966896     0.5836322925    -0.0710247403
    8      H       1.2670569459    -1.7648816519     0.0572083986
    9      H      -1.0510917850    -1.3449674063    -1.4127903032
   10      H      -1.8838475559     0.9318405767     1.2906739532
   11      H      -1.3225631791     1.4223563015    -1.2692059068
   12      C      -0.2618234258    -0.5303782599     1.1692420315
   13      H      -0.2366822596    -1.0148452932     2.1388366903
 ----------------------------------------------------------------
 Nuclear Repulsion Energy =   279.0008825928 hartrees
 There are       25 alpha and       24 beta electrons
 Requested basis set is 6-31+G(d,p)
 There are 53 shells and 163 basis functions

 Total QAlloc Memory Limit   8000 MB
 Mega-Array Size      1956 MB
 MEM_STATIC part      2000 MB

                       Distance Matrix (Angstroms)
             C (  1)   C (  2)   C (  3)   C (  4)   C (  5)   N (  6)
   C (  2)  1.540837
   C (  3)  2.280756  1.532835
   C (  4)  2.752984  2.319745  2.289289
   C (  5)  2.210360  2.231909  1.523579  1.538194
   N (  6)  1.277847  2.345504  2.347841  2.477372  1.519992
   H (  7)  1.087947  2.341577  3.282019  3.737196  3.271630  2.077575
   H (  8)  2.261766  1.089609  2.283776  3.300344  3.289133  3.304214
   H (  9)  3.342237  2.312317  1.087857  2.809998  2.312600  3.400409
   H ( 10)  3.734423  3.386362  3.273736  1.083579  2.335850  3.285400
   H ( 11)  3.152278  3.288817  2.274914  2.251120  1.087974  2.170767
   C ( 12)  2.457291  1.543276  2.299662  1.345356  2.317681  2.834287
   H ( 13)  3.286810  2.339704  3.293642  2.190105  3.384820  3.809635
             H (  7)   H (  8)   H (  9)   H ( 10)   H ( 11)   C ( 12)
   H (  8)  2.686713
   H (  9)  4.312887  2.776876
   H ( 10)  4.666253  4.326887  3.631261
   H ( 11)  4.154234  4.315552  2.784312  2.666202
   C ( 12)  3.282400  2.257896  2.820176  2.187188  3.299147
   H ( 13)  3.910492  2.675250  3.658729  2.687400  4.328261  1.084184

 
 A cutoff of  1.0D-14 yielded   1410 shell pairs
 There are     13528 function pairs
 
 -------------------------------------------------------
 OpenMP Integral Computing Module                       
 Release: version 1.0, May 2013, Q-Chem Inc. Pittsburgh 
 -------------------------------------------------------
 Integral Job Info:
 Integral job number is                      11
 Integral operator is                         1
 short-range coefficients                     0
 long-range coefficients              100000000
 Omega coefficients                           0
 if combine SR and LR in K                    0
 Integral screening is                        0
 Integral computing path is                   2
 max size of driver memory is            800000
 size of driver memory is                593474
 size of scratch memory is              2361544
 max col of scratch BK array               1296
 max len of scratch array in speh3          155
 max len of scratch index in speh4           18
 max int batch size is                      520
 min int batch size is                       52
 fixed nKL is                                52
 max L of basis functions is                  2
 order of int derivative is                   0
 number of shells is                         53
 number of basis is                         163
 number of cartesian basis is               163
 number of contracted shell pairs          1410
 number of primitive shell pairs           4819
 maxK2 (contraction) of shell pair           36
 max number of K2 of shell pair               1
 max number of CS2 of shell pair            127
 max number of PS2 of shell pair            684
 mem total for path MDJ                  535308
 -------------------------------------------------------
 Smallest overlap matrix eigenvalue = 2.24E-05

 Scale SEOQF with 1.000000e-01/1.000000e-01/1.000000e-01

 Standard Electronic Orientation quadrupole field applied
 Nucleus-field energy     =     0.0000000006 hartrees
 Guess MOs from SCF MO coefficient file
 Reading MOs from coefficient file
 Reading MOs from coefficient file
 An unrestricted hybrid HF-DFT SCF calculation will be
 performed using Pulay DIIS extrapolation
 Exchange:     0.2000 Hartree-Fock + 0.0800 Slater + 0.7200 B88
 Correlation:  0.1900 VWN1RPA + 0.8100 LYP
 Using SG-1 standard quadrature grid
 SCF converges when DIIS error is below 1.0E-08
Using Q-Chem read-in guess as SCF_GUESS READ specified.

 using 4 threads for integral computing
 -------------------------------------------------------
 OpenMP Integral computing Module                
 Release: version 1.0, May 2013, Q-Chem Inc. Pittsburgh 
 -------------------------------------------------------
 -------------------------------------------------------
 OpenMP BLAS3 based DFT computing Module                
 Release: version 1.0, May 2013, Q-Chem Inc. Pittsburgh 
 -------------------------------------------------------
 ---------------------------------------
  Cycle       Energy         DIIS Error
 ---------------------------------------
    1    -286.8734738781      6.21E-10
    2    -286.8734738781      1.33E-09 Convergence criterion met
 ---------------------------------------
 One-Electron    Energy =  -938.5262308476
 Total Coulomb   Energy =   414.2557275208
 Alpha Exchange  Energy =    -4.0199553586
 Beta  Exchange  Energy =    -3.9249584840
 DFT   Exchange  Energy =   -31.5528228775
 DFT Correlation Energy =    -2.1061164247
 Nuclear Repu.   Energy =   279.0008825934
 Nuclear Attr.   Energy = -1222.6844504003
 Kinetic         Energy =   284.1582195527
 <S^2> = 0.7539
 SCF time:  CPU 10.28 s  wall 6.54 s
 Final Alpha MO Eigenvalues
            1           2           3           4           5           6
    1 -14.3365516 -10.2345353 -10.2307793 -10.2206576 -10.2163537 -10.2129788
            7           8           9          10          11          12
    1 -10.2091561  -0.9646047  -0.8324320  -0.7367339  -0.7150816  -0.5888098
           13          14          15          16          17          18
    1  -0.5830325  -0.5393736  -0.5201981  -0.4813837  -0.4290004  -0.4203007
           19          20          21          22          23          24
    1  -0.3910679  -0.3823069  -0.3580502  -0.3045730  -0.2830735  -0.2710122
           25          26          27          28          29          30
    1  -0.2057871  -0.0409583   0.0020113   0.0023248   0.0204179   0.0259559
 Final Beta MO Eigenvalues
            1           2           3           4           5           6
    1 -14.3359482 -10.2345598 -10.2311859 -10.2209902 -10.2113508 -10.2081394
            7           8           9          10          11          12
    1 -10.2025038  -0.9612330  -0.8266464  -0.7353401  -0.7002838  -0.5870358
           13          14          15          16          17          18
    1  -0.5706377  -0.5359131  -0.5174242  -0.4724360  -0.4255824  -0.4160203
           19          20          21          22          23          24
    1  -0.3891947  -0.3790671  -0.3524138  -0.2975320  -0.2727417  -0.2680041
           25          26          27          28          29
    1  -0.0640165  -0.0356585   0.0025602   0.0034863   0.0206767
 SCF   energy in the final basis set = -286.87347388
 Total energy in the final basis set = -286.87347388
 
 --------------------------------------------------------------
 
                    Orbital Energies (a.u.)
 --------------------------------------------------------------
 
 Alpha MOs
 -- Occupied --
-14.337 -10.235 -10.231 -10.221 -10.216 -10.213 -10.209  -0.965
 -0.832  -0.737  -0.715  -0.589  -0.583  -0.539  -0.520  -0.481
 -0.429  -0.420  -0.391  -0.382  -0.358  -0.305  -0.283  -0.271
 -0.206
 -- Virtual --
 -0.041   0.002   0.002   0.020   0.026   0.032   0.048   0.049
  0.065   0.072   0.075   0.094   0.104   0.106   0.109   0.120
  0.121   0.131   0.138   0.150   0.170   0.171   0.185   0.190
  0.193   0.199   0.204   0.219   0.230   0.234   0.239   0.248
  0.257   0.267   0.280   0.287   0.303   0.325   0.336   0.342
  0.353   0.392   0.420   0.455   0.616   0.669   0.682   0.701
  0.707   0.717   0.727   0.737   0.746   0.764   0.777   0.789
  0.806   0.832   0.859   0.893   0.898   0.951   0.958   0.994
  1.011   1.027   1.052   1.071   1.083   1.107   1.121   1.145
  1.210   1.288   1.308   1.332   1.359   1.406   1.429   1.481
  1.498   1.576   1.625   1.686   1.743   1.752   1.809   1.832
  1.891   1.899   1.971   1.986   2.032   2.047   2.094   2.111
  2.121   2.170   2.220   2.265   2.292   2.322   2.354   2.396
  2.401   2.449   2.455   2.479   2.493   2.513   2.517   2.557
  2.590   2.605   2.625   2.636   2.686   2.742   2.776   2.791
  2.817   2.867   2.916   3.043   3.109   3.285   3.328   3.388
  3.448   3.542   3.716   4.140   4.376   4.473   4.555   4.611
  4.764   4.825
 
 Beta MOs
 -- Occupied --
-14.336 -10.235 -10.231 -10.221 -10.211 -10.208 -10.203  -0.961
 -0.827  -0.735  -0.700  -0.587  -0.571  -0.536  -0.517  -0.472
 -0.426  -0.416  -0.389  -0.379  -0.352  -0.298  -0.273  -0.268
 -- Virtual --
 -0.064  -0.036   0.003   0.003   0.021   0.028   0.033   0.048
  0.050   0.068   0.073   0.076   0.094   0.105   0.107   0.109
  0.120   0.127   0.132   0.140   0.152   0.170   0.171   0.185
  0.191   0.197   0.200   0.208   0.223   0.233   0.238   0.241
  0.251   0.261   0.269   0.280   0.291   0.308   0.328   0.340
  0.345   0.361   0.393   0.422   0.457   0.620   0.682   0.687
  0.710   0.714   0.725   0.733   0.740   0.749   0.769   0.790
  0.795   0.808   0.835   0.861   0.899   0.905   0.953   0.967
  0.999   1.013   1.029   1.057   1.077   1.084   1.109   1.126
  1.148   1.213   1.293   1.310   1.337   1.363   1.408   1.433
  1.487   1.508   1.584   1.631   1.692   1.747   1.759   1.817
  1.841   1.895   1.911   1.973   1.990   2.048   2.055   2.097
  2.122   2.129   2.172   2.226   2.272   2.306   2.324   2.359
  2.399   2.405   2.452   2.458   2.480   2.495   2.517   2.521
  2.564   2.601   2.610   2.636   2.638   2.689   2.745   2.779
  2.796   2.820   2.871   2.918   3.045   3.111   3.286   3.329
  3.396   3.451   3.543   3.718   4.142   4.386   4.477   4.570
  4.619   4.766   4.827
 --------------------------------------------------------------
 
          Ground-State Mulliken Net Atomic Charges

     Atom                 Charge (a.u.)    Spin (a.u.)
  --------------------------------------------------------
      1 C                    -0.092306      -0.031927
      2 C                     0.010433      -0.061334
      3 C                    -0.269849       1.034224
      4 C                    -0.148350       0.044432
      5 C                     0.022799      -0.089103
      6 N                    -0.203406       0.026057
      7 H                     0.137399      -0.000087
      8 H                     0.124798       0.003452
      9 H                     0.138764      -0.026046
     10 H                     0.138858       0.000724
     11 H                     0.129424       0.003598
     12 C                    -0.127031       0.095947
     13 H                     0.138466       0.000064
  --------------------------------------------------------
  Sum of atomic charges =     0.000000
  Sum of spin   charges =     1.000000

 -----------------------------------------------------------------
                    Cartesian Multipole Moments
 -----------------------------------------------------------------
    Charge (ESU x 10^10)
                 0.0000
    Dipole Moment (Debye)
         X      -0.6102      Y      -2.1354      Z       1.3361
       Tot       2.5918
    Quadrupole Moments (Debye-Ang)
        XX     -37.7770     XY      -3.9400     YY     -45.1907
        XZ       1.6776     YZ       0.7104     ZZ     -42.5024
    Octopole Moments (Debye-Ang^2)
       XXX      -2.6939    XXY      -3.8045    XYY      -9.3802
       YYY     -30.9032    XXZ       4.4152    XYZ       0.4622
       YYZ       6.8897    XZZ      -8.2625    YZZ      -8.5042
       ZZZ      19.1037
    Hexadecapole Moments (Debye-Ang^3)
      XXXX    -243.4047   XXXY      -7.5003   XXYY     -83.2880
      XYYY     -21.1119   YYYY    -258.8716   XXXZ      18.8297
      XXYZ      11.6532   XYYZ      13.1284   YYYZ      28.0888
      XXZZ     -80.8323   XYZZ      -5.0716   YYZZ     -77.5431
      XZZZ      21.1690   YZZZ      13.7309   ZZZZ    -230.1273
 -----------------------------------------------------------------
 Mayer SCF Bond Order, atomic valence on the diagonal:

            1           2           3           4           5           6
    1   3.9439710   0.8719063   0.0773448   0.0745123   0.0308621   1.8288843
    2   0.8719063   3.4438956   1.0067324  -0.0328004  -0.1326357  -0.0546813
    3   0.0773448   1.0067324   3.3258696   0.1801720   0.9244350   0.0197559
    4   0.0745123  -0.0328004   0.1801720   4.0704372   0.8574521  -0.0206934
    5   0.0308621  -0.1326357   0.9244350   0.8574521   3.5186912   0.9768277
    6   1.8288843  -0.0546813   0.0197559  -0.0206934   0.9768277   2.7635226
    7   0.9638347  -0.0429156   0.0244072   0.0017129   0.0006446  -0.0175670
    8  -0.0000485   0.8819933   0.0111252   0.0052603   0.0213437   0.0116835
    9   0.0084547   0.0135542   0.9071752   0.0148840   0.0009964   0.0121821
   10   0.0073792  -0.0009085   0.0055730   0.8470809   0.0253892   0.0001190
   11   0.0046938   0.0204237   0.0034625   0.0107444   0.9157279  -0.0227673
   12   0.0609540   0.9083758   0.1604233   2.0749314  -0.1077711   0.0283070
   13   0.0151934   0.0048514   0.0052631   0.0571808   0.0054193   0.0014722
            7           8           9          10          11          12
    1   0.9638347  -0.0000485   0.0084547   0.0073792   0.0046938   0.0609540
    2  -0.0429156   0.8819933   0.0135542  -0.0009085   0.0204237   0.9083758
    3   0.0244072   0.0111252   0.9071752   0.0055730   0.0034625   0.1604233
    4   0.0017129   0.0052603   0.0148840   0.8470809   0.0107444   2.0749314
    5   0.0006446   0.0213437   0.0009964   0.0253892   0.9157279  -0.1077711
    6  -0.0175670   0.0116835   0.0121821   0.0001190  -0.0227673   0.0283070
    7   0.9477730   0.0001271   0.0007586   0.0001757   0.0015327   0.0148420
    8   0.0001271   0.9568928   0.0001438   0.0012831   0.0026602   0.0211004
    9   0.0007586   0.0001438   0.9545338  -0.0000144   0.0001208  -0.0036720
   10   0.0001757   0.0012831  -0.0000144   0.9547627   0.0001787   0.0677580
   11   0.0015327   0.0026602   0.0001208   0.0001787   0.9484184   0.0102105
   12   0.0148420   0.0211004  -0.0036720   0.0677580   0.0102105   4.0990297
   13   0.0002201   0.0002208  -0.0000496   0.0007488   0.0014305   0.8635704
           13
    1   0.0151934
    2   0.0048514
    3   0.0052631
    4   0.0571808
    5   0.0054193
    6   0.0014722
    7   0.0002201
    8   0.0002208
    9  -0.0000496
   10   0.0007488
   11   0.0014305
   12   0.8635704
   13   0.9555213


Archival summary:
1\1\c8-66\SP\ProcedureUnspecified\6-31+G**\166(2)\hpark21\WedMar211:16:202022WedMar211:16:202022\0\\#,ProcedureUnspecified,6-31+G**,\\0,2\N\C,1,1.27785\H,2,1.08795,1,122.643\C,1,1.51999,2,104.04,3,-179.526,0\H,4,1.08797,1,111.612,2,-163.205,0\C,4,1.52358,1,100.961,2,-34.2503,0\H,6,1.08786,4,123.786,1,-172.272,0\C,6,1.53284,4,93.8121,1,53.268,0\H,8,1.08961,6,120.171,4,-176.936,0\C,4,1.53819,1,108.206,2,66.7214,0\H,10,1.08358,4,125.084,1,112.376,0\C,10,1.34536,4,106.791,1,-66.5708,0\H,12,1.08418,10,128.377,4,177.363,0\\\@

 Total job time:  15.11s(wall), 12.05s(cpu) 
 Wed Mar  2 11:16:20 2022

        *************************************************************
        *                                                           *
        *  Thank you very much for using Q-Chem.  Have a nice day.  *
        *                                                           *
        *************************************************************


