
Running Job 1 of 1 irc_transition.in
qchem irc_transition.in_14745.0 ./irc_transition.d/ 1
/home/leeping/opt/qchem/5.0.2-openmp/exe/qcprog.exe_s irc_transition.in_14745.0 ./irc_transition.d/
Check license passed

                  Welcome to Q-Chem
     A Quantum Leap Into The Future Of Chemistry


 Q-Chem 5.0, Q-Chem, Inc., Pleasanton, CA (2017)

 Yihan Shao,  Zhengting Gan,  E. Epifanovsky,  A. T. B. Gilbert,  M. Wormit,  
 J. Kussmann,  A. W. Lange,  A. Behn,  Jia Deng,  Xintian Feng,  D. Ghosh,  
 M. Goldey,  P. R. Horn,  L. D. Jacobson,  I. Kaliman,  T. Kus,  A. Landau,  
 Jie Liu,  E. I. Proynov,  R. M. Richard,  R. P. Steele,  E. J. Sundstrom,  
 H. L. Woodcock III,  P. M. Zimmerman,  D. Zuev,  B. Albrecht,  E. Alguire,  
 S. A. Baeppler,  D. Barton,  Z. Benda,  Y. A. Bernard,  E. J. Berquist,  
 K. B. Bravaya,  H. Burton,  D. Casanova,  Chun-Min Chang,  Yunqing Chen,  
 A. Chien,  K. D. Closser,  M. P. Coons,  S. Dasgupta,  A. L. Dempwolff,  
 M. Diedenhofen,  Hainam Do,  R. G. Edgar,  Po-Tung Fang,  S. Fatehi,  
 Qingguo Feng,  J. Fosso-Tande,  Qinghui Ge,  A. Ghysels,  G. Gidofalvi,  
 J. Gomes,  J. Gonthier,  A. Gunina,  M. W. D. Hanson-Heine,  
 P. H. P. Harbach,  A. W. Hauser,  J. E. Herr,  E. G. Hohenstein,  
 Z. C. Holden,  Kerwin Hui,  T.-C. Jagau,  Hyunjun Ji,  B. Kaduk,  
 K. Khistyaev,  Jaehoon Kim,  P. Klunzinger,  K. Koh,  D. Kosenkov,  
 L. Koulias,  T. Kowalczyk,  C. M. Krauter,  A. Kunitsa,  Ka Un Lao,  
 A. Laurent,  K. V. Lawler,  Joonho Lee,  D. Lefrancois,  S. Lehtola,  
 D. S. Levine,  Yi-Pei Li,  You-Sheng Lin,  Fenglai Liu,  E. Livshits,  
 A. Luenser,  P. Manohar,  E. Mansoor,  S. F. Manzer,  Shan-Ping Mao,  
 Yuezhi Mao,  N. Mardirossian,  A. V. Marenich,  T. Markovich,  
 L. A. Martinez-Martinez,  S. A. Maurer,  N. J. Mayhall,  S. C. McKenzie,  
 J.-M. Mewes,  A. F. Morrison,  J. W. Mullinax,  K. Nanda,  
 T. S. Nguyen-Beck,  R. Olivares-Amaya,  J. A. Parkhill,  T. M. Perrine,  
 F. Plasser,  S. Prager,  A. Prociuk,  E. Ramos,  D. R. Rehn,  F. Rob,  
 M. Schneider,  N. Sergueev,  S. M. Sharada,  S. Sharma,  D. W. Small,  
 T. Stauch,  T. Stein,  Yu-Chuan Su,  A. J. W. Thom,  A. Tkatchenko,  
 T. Tsuchimochi,  L. Vogt,  O. Vydrov,  M. A. Watson,  J. Wenzel,  
 M. de Wergifosse,  T. A. Wesolowski,  A. White,  J. Witte,  A. Yamada,  
 Jun Yang,  K. Yao,  S. Yeganeh,  S. R. Yost,  Zhi-Qiang You,  A. Zech,  
 Igor Ying Zhang,  Xing Zhang,  Yan Zhao,  Ying Zhu,  B. R. Brooks,  
 G. K. L. Chan,  C. J. Cramer,  M. S. Gordon,  W. J. Hehre,  A. Klamt,  
 M. W. Schmidt,  C. D. Sherrill,  D. G. Truhlar,  A. Aspuru-Guzik,  R. Baer,  
 A. T. Bell,  N. A. Besley,  Jeng-Da Chai,  R. A. DiStasio Jr.,  A. Dreuw,  
 B. D. Dunietz,  T. R. Furlani,  Chao-Ping Hsu,  Yousung Jung,  Jing Kong,  
 D. S. Lambrecht,  WanZhen Liang,  C. Ochsenfeld,  V. A. Rassolov,  
 L. V. Slipchenko,  J. E. Subotnik,  T. Van Voorhis,  J. M. Herbert,  
 A. I. Krylov,  P. M. W. Gill,  M. Head-Gordon

 Contributors to earlier versions of Q-Chem not listed above: 
 R. D. Adamson,  B. Austin,  J. Baker,  G. J. O. Beran,  K. Brandhorst,  
 S. T. Brown,  E. F. C. Byrd,  A. K. Chakraborty,  C.-L. Cheng,  
 Siu Hung Chien,  D. M. Chipman,  D. L. Crittenden,  H. Dachsel,  
 R. J. Doerksen,  A. D. Dutoi,  L. Fusti-Molnar,  W. A. Goddard III,  
 A. Golubeva-Zadorozhnaya,  S. R. Gwaltney,  G. Hawkins,  A. Heyden,  
 S. Hirata,  G. Kedziora,  F. J. Keil,  C. Kelley,  Jihan Kim,  R. A. King,  
 R. Z. Khaliullin,  P. P. Korambath,  W. Kurlancheek,  A. M. Lee,  M. S. Lee,  
 S. V. Levchenko,  Ching Yeh Lin,  D. Liotard,  R. C. Lochan,  I. Lotan,  
 P. E. Maslen,  N. Nair,  D. P. O'Neill,  D. Neuhauser,  E. Neuscamman,  
 C. M. Oana,  R. Olson,  B. Peters,  R. Peverati,  P. A. Pieniazek,  
 Y. M. Rhee,  J. Ritchie,  M. A. Rohrdanz,  E. Rosta,  N. J. Russ,  
 H. F. Schaefer III,  N. E. Schultz,  N. Shenvi,  A. C. Simmonett,  A. Sodt,  
 D. Stuck,  K. S. Thanthiriwatte,  V. Vanovschi,  Tao Wang,  A. Warshel,  
 C. F. Williams,  Q. Wu,  X. Xu,  W. Zhang

 Please cite Q-Chem as follows:
 Y. Shao et al., Mol. Phys. 113, 184-215 (2015)
 DOI: 10.1080/00268976.2014.952696

 Q-Chem 5.0.2 for Intel X86 EM64T Linux

 Parts of Q-Chem use Armadillo 5.200.1 (Boston Tea Smuggler).
 http://arma.sourceforge.net/

 Q-Chem begins on Wed Mar  2 11:18:26 2022  

Host: 
0

     Scratch files written to ./irc_transition.d//
 Dec517 15110_ 26548  26544 5633   
Processing $rem in /home/leeping/opt/qchem/5.0.2-openmp/config/preferences.
 MEM_STATIC 2000
 MEM_TOTAL  8000
 SYMMETRY   OFF
 SYM_IGNORE TRUE 

Checking the input file for inconsistencies... 	...done.

--------------------------------------------------------------
User input:
--------------------------------------------------------------
$molecule
0 2
C        1.5200175892    0.4258871807   -0.2674924398
C        0.7040930143   -0.8341237823    0.0296178461
C       -0.5138236743   -0.5670896138   -0.8863604372
C       -1.0883740671    0.3373673747    0.6435784656
C       -0.5773086353    0.9042937100   -0.6816083330
N        0.7962936072    1.4221318695   -0.6341577794
H        2.5865037431    0.5278563325   -0.0783760758
H        1.2199154053   -1.7936748067    0.0137148123
H       -1.1173050561   -1.2399639544   -1.4794878908
H       -2.0597768039    0.6259645248    1.0355800294
H       -1.2838303159    1.5117441765   -1.2396797539
C       -0.1305996837   -0.4835585560    1.2605151976
H       -0.0733804064   -0.8533713129    2.2747208754
$end

$rem
method                b3lyp
basis                 6-31+g(d,p)
unrestricted          true
symmetry              off
sym_ignore            true
incdft                false
incfock               0
scf_convergence       6
thresh                14
jobtype               sp
scf_guess             read
scf_algorithm         diis
max_scf_cycles        100
stability_analysis    true
max_cis_cycles        100
cis_n_roots           4
$end

--------------------------------------------------------------
 ----------------------------------------------------------------
             Standard Nuclear Orientation (Angstroms)
    I     Atom           X                Y                Z
 ----------------------------------------------------------------
    1      C       1.5200175892     0.4258871807    -0.2674924398
    2      C       0.7040930143    -0.8341237823     0.0296178461
    3      C      -0.5138236743    -0.5670896138    -0.8863604372
    4      C      -1.0883740671     0.3373673747     0.6435784656
    5      C      -0.5773086353     0.9042937100    -0.6816083330
    6      N       0.7962936072     1.4221318695    -0.6341577794
    7      H       2.5865037431     0.5278563325    -0.0783760758
    8      H       1.2199154053    -1.7936748067     0.0137148123
    9      H      -1.1173050561    -1.2399639544    -1.4794878908
   10      H      -2.0597768039     0.6259645248     1.0355800294
   11      H      -1.2838303159     1.5117441765    -1.2396797539
   12      C      -0.1305996837    -0.4835585560     1.2605151976
   13      H      -0.0733804064    -0.8533713129     2.2747208754
 ----------------------------------------------------------------
 Nuclear Repulsion Energy =   281.0182594938 hartrees
 There are       25 alpha and       24 beta electrons
 Requested basis set is 6-31+G(d,p)
 There are 53 shells and 163 basis functions

 Total QAlloc Memory Limit   8000 MB
 Mega-Array Size      1956 MB
 MEM_STATIC part      2000 MB

                       Distance Matrix (Angstroms)
             C (  1)   C (  2)   C (  3)   C (  4)   C (  5)   N (  6)
   C (  2)  1.530240
   C (  3)  2.346382  1.547141
   C (  4)  2.764343  2.227617  1.867850
   C (  5)  2.190694  2.273748  1.486917  1.529285
   N (  6)  1.284805  2.353676  2.395207  2.522161  1.468738
   H (  7)  1.087913  2.325967  3.385820  3.749964  3.242731  2.076891
   H (  8)  2.257342  1.089525  2.306620  3.204102  3.315497  3.307659
   H (  9)  3.346560  2.399916  1.081087  2.645037  2.350755  3.385734
   H ( 10)  3.814834  3.283717  2.739928  1.086544  2.285589  3.402800
   H ( 11)  3.160031  3.326568  2.244837  2.228009  1.086100  2.168318
   C ( 12)  2.426198  1.527978  2.182410  1.404230  2.428482  2.842635
   H ( 13)  3.261636  2.375989  3.204432  2.260243  3.476092  3.794183
             H (  7)   H (  8)   H (  9)   H ( 10)   H ( 11)   C ( 12)
   H (  8)  2.695469
   H (  9)  4.336646  2.828224
   H ( 10)  4.778959  4.201814  3.270399
   H ( 11)  4.158864  4.331921  2.767153  2.561934
   C ( 12)  3.193468  2.257168  3.008879  2.236820  3.400316
   H ( 13)  3.810491  2.769284  3.915778  2.769418  4.405675  1.081041

 
 A cutoff of  1.0D-14 yielded   1405 shell pairs
 There are     13515 function pairs
 Smallest overlap matrix eigenvalue = 2.76E-05

 Scale SEOQF with 1.000000e-01/1.000000e-01/1.000000e-01

 Standard Electronic Orientation quadrupole field applied
 Nucleus-field energy     =     0.0000000008 hartrees
 Guess MOs from SCF MO coefficient file
 Reading MOs from coefficient file
 Reading MOs from coefficient file
 An unrestricted hybrid HF-DFT SCF calculation will be
 performed using Pulay DIIS extrapolation
 Exchange:     0.2000 Hartree-Fock + 0.0800 Slater + 0.7200 B88
 Correlation:  0.1900 VWN1RPA + 0.8100 LYP
 Using SG-1 standard quadrature grid
 SCF converges when DIIS error is below 1.0E-06
Using Q-Chem read-in guess as SCF_GUESS READ specified.

 -------------------------------------------------------
 OpenMP BLAS3 based DFT computing Module                
 -------------------------------------------------------
 ---------------------------------------
  Cycle       Energy         DIIS Error
 ---------------------------------------
    1    -286.8475538750      2.42E-09
    2    -286.8475538750      2.89E-09 Convergence criterion met
 ---------------------------------------
 <S^2> = 0.7774
 SCF time:  CPU 6.55 s  wall 13.52 s
 SCF   energy in the final basis set = -286.84755387
 Total energy in the final basis set = -286.84755387
 
 Direct TDDFT/TDA calculation will be performed
 Exchange:     0.2000 Hartree-Fock + 0.0800 Slater + 0.7200 B88
 Correlation:  0.1900 VWN1RPA + 0.8100 LYP
 Using SG-1 standard quadrature grid
 CIS energy converged when residual is below 10e- 6
 ---------------------------------------------------
 Iter    Rts Conv    Rts Left    Ttl Dev     Max Dev
 ---------------------------------------------------
   1         0           4      0.002866    0.001245
   2         0           4      0.000795    0.000286
   3         0           4      0.000369    0.000157
   4         0           4      0.000153    0.000057
   5         0           4      0.000056    0.000021
   6         1           3      0.000020    0.000012
   7         2           2      0.000009    0.000005
   8         3           1      0.000005    0.000002
   9         4           0      0.000003    0.000001    Roots Converged
 ---------------------------------------------------
 
 ---------------------------------------------------
         TDDFT/TDA Excitation Energies              
 ---------------------------------------------------

 Excited state   1: excitation energy (eV) =    2.5782
 Total energy for state  1:                  -286.75280819 au
    <S**2>     :  0.7785
    Trans. Mom.:  0.2657 X   0.1673 Y   0.3376 Z
    Strength   :     0.0134284336
    S(  1) --> V(  1) amplitude =  0.8606 alpha
    S(  1) --> V(  2) amplitude = -0.4229 alpha
    D( 24) --> S(  1) amplitude = -0.1670 beta

 Excited state   2: excitation energy (eV) =    2.8302
 Total energy for state  2:                  -286.74354543 au
    <S**2>     :  0.7984
    Trans. Mom.:  0.3778 X   0.2077 Y  -0.2951 Z
    Strength   :     0.0189303316
    S(  1) --> V(  1) amplitude =  0.4659 alpha
    S(  1) --> V(  2) amplitude =  0.8463 alpha
    D( 24) --> S(  1) amplitude =  0.1612 beta

 Excited state   3: excitation energy (eV) =    3.3864
 Total energy for state  3:                  -286.72310676 au
    <S**2>     :  0.7859
    Trans. Mom.: -0.0145 X   0.1291 Y   0.2505 Z
    Strength   :     0.0066076604
    S(  1) --> V(  3) amplitude =  0.9859 alpha

 Excited state   4: excitation energy (eV) =    3.9258
 Total energy for state  4:                  -286.70328221 au
    <S**2>     :  0.7898
    Trans. Mom.:  0.2088 X  -0.0703 Y   0.1531 Z
    Strength   :     0.0069244589
    S(  1) --> V(  4) amplitude =  0.9824 alpha
 
 ---------------------------------------------------

 Stability analysis will be performed
 ---------------------------------------------------
 Iter    Rts Conv    Rts Left    Ttl Dev     Max Dev
 ---------------------------------------------------
   1         0           8      0.002961    0.000606
   2         0           8      0.001086    0.000407
   3         0           8      0.000746    0.000251
   4         1           7      0.001410    0.001098
   5         4           4      0.000696    0.000523
   6         4           4      0.000238    0.000178
   7         5           3      0.000073    0.000055
   8         6           2      0.000020    0.000014
   9         7           1      0.000008    0.000004
  10         7           1      0.000004    0.000001
  11         8           0      0.000003    0.000001    Roots Converged
 UKS-> UKS   stable,    smallest eigenvalue:      0.0817401
 UKS->CUKS   stable,    smallest eigenvalue:      0.0945984
 ---------------------------------------------------
  SETman timing summary (seconds)
  CPU time               179.97s
  System time              0.00s
  Wall time              294.94s
 
 --------------------------------------------------------------
 
                    Orbital Energies (a.u.)
 --------------------------------------------------------------
 
 Alpha MOs
 -- Occupied --
-14.330 -10.235 -10.230 -10.229 -10.226 -10.221 -10.206  -0.972
 -0.849  -0.751  -0.696  -0.601  -0.585  -0.548  -0.522  -0.472
 -0.444  -0.424  -0.409  -0.378  -0.356  -0.296  -0.284  -0.277
 -0.157
 -- Virtual --
 -0.017  -0.010   0.001   0.018   0.029   0.033   0.046   0.048
  0.063   0.071   0.074   0.095   0.100   0.107   0.109   0.118
  0.124   0.129   0.141   0.153   0.165   0.178   0.180   0.185
  0.192   0.197   0.207   0.218   0.225   0.234   0.240   0.251
  0.259   0.268   0.281   0.287   0.309   0.313   0.331   0.368
  0.372   0.382   0.407   0.455   0.629   0.668   0.675   0.695
  0.699   0.714   0.725   0.734   0.744   0.753   0.778   0.793
  0.806   0.814   0.858   0.901   0.917   0.936   0.955   1.002
  1.015   1.033   1.047   1.070   1.082   1.094   1.104   1.139
  1.202   1.217   1.327   1.340   1.384   1.419   1.437   1.487
  1.558   1.621   1.626   1.691   1.724   1.767   1.817   1.865
  1.879   1.908   1.952   1.980   2.042   2.093   2.104   2.126
  2.156   2.212   2.220   2.277   2.304   2.327   2.363   2.397
  2.404   2.437   2.447   2.485   2.504   2.520   2.534   2.553
  2.569   2.606   2.618   2.655   2.686   2.703   2.745   2.777
  2.852   2.857   2.981   3.071   3.083   3.291   3.316   3.326
  3.508   3.599   3.687   4.171   4.413   4.487   4.569   4.620
  4.694   4.830
 
 Beta MOs
 -- Occupied --
-14.329 -10.235 -10.231 -10.230 -10.222 -10.217 -10.197  -0.968
 -0.841  -0.747  -0.684  -0.597  -0.577  -0.541  -0.519  -0.463
 -0.441  -0.419  -0.406  -0.373  -0.351  -0.287  -0.275  -0.265
 -- Virtual --
 -0.054  -0.009  -0.002   0.003   0.019   0.031   0.038   0.047
  0.049   0.063   0.072   0.077   0.096   0.101   0.108   0.109
  0.119   0.128   0.132   0.142   0.153   0.164   0.179   0.181
  0.188   0.195   0.197   0.208   0.223   0.228   0.237   0.242
  0.254   0.260   0.273   0.282   0.288   0.312   0.315   0.333
  0.372   0.376   0.385   0.411   0.457   0.634   0.674   0.678
  0.700   0.711   0.727   0.734   0.744   0.749   0.759   0.784
  0.796   0.808   0.817   0.859   0.905   0.919   0.939   0.958
  1.005   1.019   1.036   1.049   1.071   1.087   1.101   1.109
  1.147   1.207   1.221   1.331   1.346   1.387   1.425   1.442
  1.491   1.566   1.626   1.635   1.698   1.732   1.770   1.828
  1.870   1.885   1.913   1.956   1.984   2.048   2.102   2.109
  2.129   2.165   2.220   2.229   2.283   2.310   2.330   2.367
  2.403   2.406   2.443   2.454   2.489   2.508   2.525   2.542
  2.556   2.573   2.614   2.620   2.664   2.692   2.706   2.747
  2.782   2.856   2.861   2.983   3.074   3.085   3.293   3.318
  3.327   3.509   3.602   3.691   4.173   4.423   4.487   4.581
  4.626   4.696   4.835
 --------------------------------------------------------------
 
          Ground-State Mulliken Net Atomic Charges

     Atom                 Charge (a.u.)    Spin (a.u.)
  --------------------------------------------------------
      1 C                    -0.069824      -0.002341
      2 C                     0.001284      -0.101933
      3 C                    -0.199883       0.596101
      4 C                    -0.102934      -0.234135
      5 C                    -0.133545      -0.020982
      6 N                    -0.179468       0.062405
      7 H                     0.132699       0.001550
      8 H                     0.129148       0.010609
      9 H                     0.145967      -0.024522
     10 H                     0.139210       0.010355
     11 H                     0.138901       0.004347
     12 C                    -0.140592       0.727180
     13 H                     0.139037      -0.028636
  --------------------------------------------------------
  Sum of atomic charges =     0.000000
  Sum of spin   charges =     1.000000

 -----------------------------------------------------------------
                    Cartesian Multipole Moments
 -----------------------------------------------------------------
    Charge (ESU x 10^10)
                 0.0000
    Dipole Moment (Debye)
         X      -1.1094      Y      -2.2919      Z       0.5224
       Tot       2.5993
    Quadrupole Moments (Debye-Ang)
        XX     -37.6965     XY      -4.3932     YY     -45.6757
        XZ       1.7818     YZ       1.2673     ZZ     -41.9839
    Octopole Moments (Debye-Ang^2)
       XXX      -6.4883    XXY      -4.9498    XYY      -9.4593
       YYY     -30.9507    XXZ       2.9986    XYZ       0.9444
       YYZ       3.4888    XZZ      -8.8236    YZZ      -9.9034
       ZZZ      11.9187
    Hexadecapole Moments (Debye-Ang^3)
      XXXX    -251.3599   XXXY     -11.4843   XXYY     -86.4466
      XYYY     -25.8567   YYYY    -253.0626   XXXZ      12.7943
      XXYZ      13.6139   XYYZ      13.4362   YYYZ      36.8971
      XXZZ     -81.9557   XYZZ      -6.1373   YYZZ     -75.1139
      XZZZ      16.1784   YZZZ      24.0238   ZZZZ    -213.5886
 -----------------------------------------------------------------
Archival summary:
1\1\c8-66\SP\ProcedureUnspecified\6-31+G**\166(2)\hpark21\WedMar211:23:432022WedMar211:23:432022\0\\#,ProcedureUnspecified,6-31+G**,\\0,2\N\C,1,1.2848\H,2,1.08791,1,121.947\C,1,1.46874,2,105.227,3,-175.748,0\H,4,1.0861,1,115.327,2,-163.081,0\C,4,1.48692,1,108.265,2,-24.4108,0\H,6,1.08109,4,131.884,1,-141.071,0\C,4,1.52929,1,114.535,2,58.7345,0\H,8,1.08654,4,120.86,1,131.536,0\C,8,1.40423,4,111.684,1,-44.8415,0\H,10,1.08104,8,130.411,4,164.734,0\C,10,1.52798,8,98.7891,4,-21.9049,0\H,12,1.08952,10,118.193,8,-150.646,0\\\@

 Total job time:  317.09s(wall), 186.77s(cpu) 
 Wed Mar  2 11:23:43 2022

        *************************************************************
        *                                                           *
        *  Thank you very much for using Q-Chem.  Have a nice day.  *
        *                                                           *
        *************************************************************


