
Running Job 1 of 1 qcopt_prd.in
qchem qcopt_prd.in_45565.0 ./qcopt_prd.d/ 1
/home/leeping/opt/qchem/5.0.2-openmp/exe/qcprog.exe_s qcopt_prd.in_45565.0 ./qcopt_prd.d/
Check license passed

                  Welcome to Q-Chem
     A Quantum Leap Into The Future Of Chemistry


 Q-Chem 5.0, Q-Chem, Inc., Pleasanton, CA (2017)

 Yihan Shao,  Zhengting Gan,  E. Epifanovsky,  A. T. B. Gilbert,  M. Wormit,  
 J. Kussmann,  A. W. Lange,  A. Behn,  Jia Deng,  Xintian Feng,  D. Ghosh,  
 M. Goldey,  P. R. Horn,  L. D. Jacobson,  I. Kaliman,  T. Kus,  A. Landau,  
 Jie Liu,  E. I. Proynov,  R. M. Richard,  R. P. Steele,  E. J. Sundstrom,  
 H. L. Woodcock III,  P. M. Zimmerman,  D. Zuev,  B. Albrecht,  E. Alguire,  
 S. A. Baeppler,  D. Barton,  Z. Benda,  Y. A. Bernard,  E. J. Berquist,  
 K. B. Bravaya,  H. Burton,  D. Casanova,  Chun-Min Chang,  Yunqing Chen,  
 A. Chien,  K. D. Closser,  M. P. Coons,  S. Dasgupta,  A. L. Dempwolff,  
 M. Diedenhofen,  Hainam Do,  R. G. Edgar,  Po-Tung Fang,  S. Fatehi,  
 Qingguo Feng,  J. Fosso-Tande,  Qinghui Ge,  A. Ghysels,  G. Gidofalvi,  
 J. Gomes,  J. Gonthier,  A. Gunina,  M. W. D. Hanson-Heine,  
 P. H. P. Harbach,  A. W. Hauser,  J. E. Herr,  E. G. Hohenstein,  
 Z. C. Holden,  Kerwin Hui,  T.-C. Jagau,  Hyunjun Ji,  B. Kaduk,  
 K. Khistyaev,  Jaehoon Kim,  P. Klunzinger,  K. Koh,  D. Kosenkov,  
 L. Koulias,  T. Kowalczyk,  C. M. Krauter,  A. Kunitsa,  Ka Un Lao,  
 A. Laurent,  K. V. Lawler,  Joonho Lee,  D. Lefrancois,  S. Lehtola,  
 D. S. Levine,  Yi-Pei Li,  You-Sheng Lin,  Fenglai Liu,  E. Livshits,  
 A. Luenser,  P. Manohar,  E. Mansoor,  S. F. Manzer,  Shan-Ping Mao,  
 Yuezhi Mao,  N. Mardirossian,  A. V. Marenich,  T. Markovich,  
 L. A. Martinez-Martinez,  S. A. Maurer,  N. J. Mayhall,  S. C. McKenzie,  
 J.-M. Mewes,  A. F. Morrison,  J. W. Mullinax,  K. Nanda,  
 T. S. Nguyen-Beck,  R. Olivares-Amaya,  J. A. Parkhill,  T. M. Perrine,  
 F. Plasser,  S. Prager,  A. Prociuk,  E. Ramos,  D. R. Rehn,  F. Rob,  
 M. Schneider,  N. Sergueev,  S. M. Sharada,  S. Sharma,  D. W. Small,  
 T. Stauch,  T. Stein,  Yu-Chuan Su,  A. J. W. Thom,  A. Tkatchenko,  
 T. Tsuchimochi,  L. Vogt,  O. Vydrov,  M. A. Watson,  J. Wenzel,  
 M. de Wergifosse,  T. A. Wesolowski,  A. White,  J. Witte,  A. Yamada,  
 Jun Yang,  K. Yao,  S. Yeganeh,  S. R. Yost,  Zhi-Qiang You,  A. Zech,  
 Igor Ying Zhang,  Xing Zhang,  Yan Zhao,  Ying Zhu,  B. R. Brooks,  
 G. K. L. Chan,  C. J. Cramer,  M. S. Gordon,  W. J. Hehre,  A. Klamt,  
 M. W. Schmidt,  C. D. Sherrill,  D. G. Truhlar,  A. Aspuru-Guzik,  R. Baer,  
 A. T. Bell,  N. A. Besley,  Jeng-Da Chai,  R. A. DiStasio Jr.,  A. Dreuw,  
 B. D. Dunietz,  T. R. Furlani,  Chao-Ping Hsu,  Yousung Jung,  Jing Kong,  
 D. S. Lambrecht,  WanZhen Liang,  C. Ochsenfeld,  V. A. Rassolov,  
 L. V. Slipchenko,  J. E. Subotnik,  T. Van Voorhis,  J. M. Herbert,  
 A. I. Krylov,  P. M. W. Gill,  M. Head-Gordon

 Contributors to earlier versions of Q-Chem not listed above: 
 R. D. Adamson,  B. Austin,  J. Baker,  G. J. O. Beran,  K. Brandhorst,  
 S. T. Brown,  E. F. C. Byrd,  A. K. Chakraborty,  C.-L. Cheng,  
 Siu Hung Chien,  D. M. Chipman,  D. L. Crittenden,  H. Dachsel,  
 R. J. Doerksen,  A. D. Dutoi,  L. Fusti-Molnar,  W. A. Goddard III,  
 A. Golubeva-Zadorozhnaya,  S. R. Gwaltney,  G. Hawkins,  A. Heyden,  
 S. Hirata,  G. Kedziora,  F. J. Keil,  C. Kelley,  Jihan Kim,  R. A. King,  
 R. Z. Khaliullin,  P. P. Korambath,  W. Kurlancheek,  A. M. Lee,  M. S. Lee,  
 S. V. Levchenko,  Ching Yeh Lin,  D. Liotard,  R. C. Lochan,  I. Lotan,  
 P. E. Maslen,  N. Nair,  D. P. O'Neill,  D. Neuhauser,  E. Neuscamman,  
 C. M. Oana,  R. Olson,  B. Peters,  R. Peverati,  P. A. Pieniazek,  
 Y. M. Rhee,  J. Ritchie,  M. A. Rohrdanz,  E. Rosta,  N. J. Russ,  
 H. F. Schaefer III,  N. E. Schultz,  N. Shenvi,  A. C. Simmonett,  A. Sodt,  
 D. Stuck,  K. S. Thanthiriwatte,  V. Vanovschi,  Tao Wang,  A. Warshel,  
 C. F. Williams,  Q. Wu,  X. Xu,  W. Zhang

 Please cite Q-Chem as follows:
 Y. Shao et al., Mol. Phys. 113, 184-215 (2015)
 DOI: 10.1080/00268976.2014.952696

 Q-Chem 5.0.2 for Intel X86 EM64T Linux

 Parts of Q-Chem use Armadillo 5.200.1 (Boston Tea Smuggler).
 http://arma.sourceforge.net/

 Q-Chem begins on Wed Mar  2 03:30:45 2022  

Host: 
0

     Scratch files written to ./qcopt_prd.d//
 Dec517 15110_ 26548  26544 5633   
Processing $rem in /home/leeping/opt/qchem/5.0.2-openmp/config/preferences.
 MEM_STATIC 2000
 MEM_TOTAL  8000
 SYMMETRY   OFF
 SYM_IGNORE TRUE 

Checking the input file for inconsistencies... 	...done.

--------------------------------------------------------------
User input:
--------------------------------------------------------------
$molecule
0 2
C        1.4905838781    0.4711775155   -0.2292302004
C        0.7027017720   -0.8341092217    0.0002850662
C       -0.3007350927   -0.6077747574   -1.1338531143
C       -1.0746136457    0.4509684029    0.7482589630
C       -0.6415991178    0.8072959350   -0.6825858995
N        0.7443936819    1.4315185571   -0.6151779547
H        2.5600656925    0.5909836336   -0.0641922198
H        1.2696991906   -1.7635565714    0.0537405531
H       -1.0517684345   -1.3480311925   -1.4047025931
H       -1.8666043165    0.9453307314    1.3000824204
H       -1.3276382186    1.4161472669   -1.2694561774
C       -0.2641273627   -0.5357495884    1.1643775688
H       -0.2403580266   -1.0242007111    2.1324535877
$end

$rem
method                b3lyp
basis                 6-31g(d)
unrestricted          true
symmetry              off
sym_ignore            true
incdft                false
incfock               0
scf_convergence       8
thresh                14
jobtype               opt
scf_guess             core
scf_guess_mix         5
scf_algorithm         diis
max_scf_cycles        100
geom_opt_max_cycles   300
$end

--------------------------------------------------------------
 ----------------------------------------------------------------
             Standard Nuclear Orientation (Angstroms)
    I     Atom           X                Y                Z
 ----------------------------------------------------------------
    1      C       1.4905838781     0.4711775155    -0.2292302004
    2      C       0.7027017720    -0.8341092217     0.0002850662
    3      C      -0.3007350927    -0.6077747574    -1.1338531143
    4      C      -1.0746136457     0.4509684029     0.7482589630
    5      C      -0.6415991178     0.8072959350    -0.6825858995
    6      N       0.7443936819     1.4315185571    -0.6151779547
    7      H       2.5600656925     0.5909836336    -0.0641922198
    8      H       1.2696991906    -1.7635565714     0.0537405531
    9      H      -1.0517684345    -1.3480311925    -1.4047025931
   10      H      -1.8666043165     0.9453307314     1.3000824204
   11      H      -1.3276382186     1.4161472669    -1.2694561774
   12      C      -0.2641273627    -0.5357495884     1.1643775688
   13      H      -0.2403580266    -1.0242007111     2.1324535877
 ----------------------------------------------------------------
 Nuclear Repulsion Energy =   279.1177648936 hartrees
 There are       25 alpha and       24 beta electrons
 Requested basis set is 6-31G(d)
 There are 40 shells and 117 basis functions

 Total QAlloc Memory Limit   8000 MB
 Mega-Array Size      1956 MB
 MEM_STATIC part      2000 MB
 A cutoff of  1.0D-14 yielded    814 shell pairs
 There are      7086 function pairs
 
 -------------------------------------------------------
 OpenMP Integral Computing Module                       
 Release: version 1.0, May 2013, Q-Chem Inc. Pittsburgh 
 -------------------------------------------------------
 Integral Job Info:
 Integral job number is                      11
 Integral operator is                         1
 short-range coefficients                     0
 long-range coefficients              100000000
 Omega coefficients                           0
 if combine SR and LR in K                    0
 Integral screening is                        0
 Integral computing path is                   2
 max size of driver memory is            800000
 size of driver memory is                593474
 size of scratch memory is              2361544
 max col of scratch BK array               1296
 max len of scratch array in speh3          155
 max len of scratch index in speh4           18
 max int batch size is                      520
 min int batch size is                       52
 fixed nKL is                                52
 max L of basis functions is                  2
 order of int derivative is                   0
 number of shells is                         40
 number of basis is                         117
 number of cartesian basis is               117
 number of contracted shell pairs           814
 number of primitive shell pairs           3589
 maxK2 (contraction) of shell pair           36
 max number of K2 of shell pair               1
 max number of CS2 of shell pair             85
 max number of PS2 of shell pair            390
 mem total for path MDJ                  535308
 -------------------------------------------------------
 Smallest overlap matrix eigenvalue = 1.11E-03

 Scale SEOQF with 1.000000e-01/1.000000e-01/1.000000e-01

 Standard Electronic Orientation quadrupole field applied
 Nucleus-field energy     =     0.0000000006 hartrees
 Guess MOs from core Hamiltonian diagonalization
 Mixing HOMO and LUMO in initial guess
 Adding  50% of the LUMO to the HOMO
 An unrestricted hybrid HF-DFT SCF calculation will be
 performed using Pulay DIIS extrapolation
 Exchange:     0.2000 Hartree-Fock + 0.0800 Slater + 0.7200 B88
 Correlation:  0.1900 VWN1RPA + 0.8100 LYP
 Using SG-1 standard quadrature grid
 SCF converges when DIIS error is below 1.0E-08
 using 4 threads for integral computing
 -------------------------------------------------------
 OpenMP Integral computing Module                
 Release: version 1.0, May 2013, Q-Chem Inc. Pittsburgh 
 -------------------------------------------------------
 -------------------------------------------------------
 OpenMP BLAS3 based DFT computing Module                
 Release: version 1.0, May 2013, Q-Chem Inc. Pittsburgh 
 -------------------------------------------------------
 ---------------------------------------
  Cycle       Energy         DIIS Error
 ---------------------------------------
    1    -235.0467510883      1.38E-01
    2    -230.1637768017      1.00E-01
    3    -251.0160832107      1.10E-01
    4    -282.7493314531      4.18E-02
    5    -282.6469084980      4.16E-02
    6    -286.2717746919      1.59E-02
    7    -286.5079304471      1.14E-02
    8    -286.7775411425      5.49E-03
    9    -286.8417104434      1.94E-03
   10    -286.8490898259      1.14E-03
   11    -286.8511977647      3.16E-04
   12    -286.8515731539      1.03E-04
   13    -286.8516320889      5.07E-05
   14    -286.8516454016      1.31E-05
   15    -286.8516474639      5.70E-06
   16    -286.8516480367      1.48E-06
   17    -286.8516483404      6.33E-07
   18    -286.8516484933      4.46E-07
   19    -286.8516486297      1.79E-07
   20    -286.8516486485      2.26E-08
   21    -286.8516486485      6.39E-09 Convergence criterion met
 ---------------------------------------
 <S^2> = 0.7537
 SCF time:  CPU 55.24 s  wall 45.96 s
 SCF   energy in the final basis set = -286.85164865
 Total energy in the final basis set = -286.85164865
 
 --------------------------------------------------------------
 
                    Orbital Energies (a.u.)
 --------------------------------------------------------------
 
 Alpha MOs
 -- Occupied --
-14.322 -10.223 -10.220 -10.210 -10.204 -10.201 -10.197  -0.952
 -0.821  -0.726  -0.705  -0.579  -0.573  -0.531  -0.512  -0.472
 -0.418  -0.410  -0.381  -0.373  -0.348  -0.294  -0.271  -0.258
 -0.196
 -- Virtual --
 -0.021   0.029   0.103   0.140   0.150   0.154   0.159   0.163
  0.173   0.210   0.215   0.255   0.288   0.322   0.346   0.366
  0.495   0.510   0.532   0.540   0.570   0.599   0.606   0.622
  0.635   0.640   0.655   0.689   0.701   0.728   0.779   0.791
  0.799   0.817   0.825   0.846   0.858   0.876   0.891   0.940
  0.965   1.005   1.059   1.092   1.201   1.264   1.334   1.339
  1.396   1.407   1.487   1.510   1.563   1.610   1.659   1.725
  1.784   1.796   1.827   1.892   1.954   1.986   2.000   2.049
  2.097   2.138   2.173   2.208   2.235   2.276   2.315   2.335
  2.425   2.476   2.515   2.532   2.548   2.619   2.629   2.645
  2.722   2.835   2.856   2.904   2.939   3.922   4.187   4.267
  4.279   4.396   4.543   4.678
 
 Beta MOs
 -- Occupied --
-14.321 -10.224 -10.221 -10.210 -10.200 -10.196 -10.190  -0.949
 -0.815  -0.725  -0.690  -0.577  -0.561  -0.527  -0.509  -0.463
 -0.414  -0.406  -0.379  -0.369  -0.342  -0.287  -0.261  -0.255
 -- Virtual --
 -0.045  -0.016   0.031   0.105   0.143   0.153   0.158   0.160
  0.166   0.176   0.216   0.224   0.267   0.290   0.324   0.349
  0.369   0.497   0.529   0.540   0.544   0.577   0.604   0.611
  0.624   0.641   0.658   0.662   0.693   0.708   0.742   0.782
  0.793   0.810   0.819   0.827   0.848   0.860   0.879   0.894
  0.942   0.973   1.013   1.060   1.099   1.204   1.265   1.338
  1.345   1.401   1.411   1.489   1.513   1.578   1.619   1.665
  1.728   1.793   1.799   1.837   1.910   1.965   1.998   2.003
  2.054   2.119   2.144   2.179   2.224   2.249   2.281   2.318
  2.339   2.428   2.494   2.517   2.542   2.553   2.630   2.636
  2.648   2.729   2.837   2.859   2.906   2.942   3.923   4.190
  4.269   4.307   4.399   4.549   4.679
 --------------------------------------------------------------
 
          Ground-State Mulliken Net Atomic Charges

     Atom                 Charge (a.u.)    Spin (a.u.)
  --------------------------------------------------------
      1 C                     0.092206      -0.008775
      2 C                    -0.245935      -0.043975
      3 C                    -0.096018       0.975962
      4 C                    -0.087449       0.040250
      5 C                    -0.095041      -0.045115
      6 N                    -0.325106       0.022063
      7 H                     0.149699      -0.000179
      8 H                     0.133780       0.002860
      9 H                     0.138822      -0.026494
     10 H                     0.146062       0.000846
     11 H                     0.139802       0.003006
     12 C                    -0.096455       0.079206
     13 H                     0.145632       0.000347
  --------------------------------------------------------
  Sum of atomic charges =     0.000000
  Sum of spin   charges =     1.000000

 -----------------------------------------------------------------
                    Cartesian Multipole Moments
 -----------------------------------------------------------------
    Charge (ESU x 10^10)
                 0.0000
    Dipole Moment (Debye)
         X      -0.5648      Y      -1.9426      Z       1.2415
       Tot       2.3736
    Quadrupole Moments (Debye-Ang)
        XX     -36.9524     XY      -3.3722     YY     -43.6383
        XZ       1.3209     YZ       0.7214     ZZ     -40.8875
    Octopole Moments (Debye-Ang^2)
       XXX      -3.2898    XXY      -3.7266    XYY      -8.5495
       YYY     -28.1001    XXZ       4.3302    XYZ       0.5046
       YYZ       6.7467    XZZ      -7.2767    YZZ      -7.7939
       ZZZ      17.4311
    Hexadecapole Moments (Debye-Ang^3)
      XXXX    -232.6208   XXXY      -4.9522   XXYY     -78.4229
      XYYY     -16.8820   YYYY    -241.3432   XXXZ      17.0871
      XXYZ      10.7430   XYYZ      11.4295   YYYZ      26.6731
      XXZZ     -76.0714   XYZZ      -4.0508   YYZZ     -72.0626
      XZZZ      18.5359   YZZZ      14.6662   ZZZZ    -211.0241
 -----------------------------------------------------------------
 Calculating analytic gradient of the SCF energy
 Gradient of SCF Energy
            1           2           3           4           5           6
    1  -0.0001725  -0.0001695   0.0002652   0.0001033  -0.0003037   0.0001854
    2   0.0000465   0.0002129  -0.0000847   0.0002248  -0.0000879  -0.0001138
    3   0.0000461  -0.0004483  -0.0000763   0.0001461   0.0004051  -0.0000551
            7           8           9          10          11          12
    1   0.0000123  -0.0000707   0.0000726  -0.0000116   0.0000550   0.0001033
    2  -0.0000068   0.0000087  -0.0000261   0.0000967  -0.0000579  -0.0002547
    3  -0.0000338   0.0000878  -0.0000301  -0.0000355  -0.0000378  -0.0000338
           13
    1  -0.0000692
    2   0.0000423
    3   0.0000655
 Max gradient component =       4.483E-04
 RMS gradient           =       1.533E-04
 Gradient time:  CPU 7.95 s  wall 6.86 s
 Geometry Optimization Parameters
   NAtoms,    NIC,     NZ,  NCons,   NDum,   NFix, NCnnct, MaxDiis
       13     104       0       0       0       0       0       0


** GEOMETRY OPTIMIZATION IN DELOCALIZED INTERNAL COORDINATES **
   Searching for a Minimum

   Optimization Cycle:   1

                       Coordinates (Angstroms)
     ATOM                X               Y               Z
      1  C         1.4905838781    0.4711775155   -0.2292302004
      2  C         0.7027017720   -0.8341092217    0.0002850662
      3  C        -0.3007350927   -0.6077747574   -1.1338531143
      4  C        -1.0746136457    0.4509684029    0.7482589630
      5  C        -0.6415991178    0.8072959350   -0.6825858995
      6  N         0.7443936819    1.4315185571   -0.6151779547
      7  H         2.5600656925    0.5909836336   -0.0641922198
      8  H         1.2696991906   -1.7635565714    0.0537405531
      9  H        -1.0517684345   -1.3480311925   -1.4047025931
     10  H        -1.8666043165    0.9453307314    1.3000824204
     11  H        -1.3276382186    1.4161472669   -1.2694561774
     12  C        -0.2641273627   -0.5357495884    1.1643775688
     13  H        -0.2403580266   -1.0242007111    2.1324535877
   Point Group: c1    Number of degrees of freedom:    33


   Energy is   -286.851648649


 Attempting to Generate Delocalized Internal Coordinates

 33 Hessian modes will be used to form the next step
  Hessian Eigenvalues:
     0.009943    0.010765    0.012051    0.014604    0.016774    0.021815
     0.046792    0.047564    0.055605    0.062877    0.065863    0.081665
     0.108108    0.130909    0.141911    0.159742    0.159878    0.159953
     0.185986    0.252872    0.254568    0.262990    0.268843    0.283726
     0.293641    0.348065    0.349367    0.349568    0.349572    0.354462
     0.354554    0.507220    0.664608

 Minimum Search - Taking Simple RFO Step
 Searching for Lamda that Minimizes Along All modes
 Value Taken    Lamda =  -0.00000495
 Step Taken.  Stepsize is  0.014004

                             Maximum     Tolerance    Cnvgd?
         Gradient           0.000247      0.000300     YES
         Displacement       0.005885      0.001200      NO
         Energy change     *********      0.000001      NO


 New Cartesian Coordinates Obtained by Inverse Iteration

 Displacement from previous Coordinates is:  0.013978
 ----------------------------------------------------------------
             Standard Nuclear Orientation (Angstroms)
    I     Atom           X                Y                Z
 ----------------------------------------------------------------
    1      C       1.4915006193     0.4707680397    -0.2299696084
    2      C       0.7031909931    -0.8341733757     0.0005491014
    3      C      -0.3015959819    -0.6076286865    -1.1331193144
    4      C      -1.0757944373     0.4496170825     0.7468420918
    5      C      -0.6409511846     0.8079249894    -0.6831378502
    6      N       0.7450219386     1.4318339408    -0.6138560146
    7      H       2.5608541869     0.5905529991    -0.0641616394
    8      H       1.2700037008    -1.7638462736     0.0532873869
    9      H      -1.0542331395    -1.3469961836    -1.4021140459
   10      H      -1.8691259471     0.9421425463     1.2982820928
   11      H      -1.3267328270     1.4174688714    -1.2697204015
   12      C      -0.2631794353    -0.5346399084     1.1645404988
   13      H      -0.2389584859    -1.0230240414     2.1325777025
 ----------------------------------------------------------------
 Nuclear Repulsion Energy =   279.1115341282 hartrees
 There are       25 alpha and       24 beta electrons
 Applying Cartesian multipole field
    Component          Value
    ---------          -----
     (2,0,0)        1.00000E-11
     (0,2,0)        2.00000E-11
     (0,0,2)       -3.00000E-11
 Nucleus-field energy     =     0.0000000006 hartrees
 Requested basis set is 6-31G(d)
 There are 40 shells and 117 basis functions
 A cutoff of  1.0D-14 yielded    814 shell pairs
 There are      7086 function pairs
 Smallest overlap matrix eigenvalue = 1.11E-03
 Guess MOs from SCF MO coefficient file
 Reading MOs from coefficient file
 Mixing HOMO and LUMO in initial guess
 Adding  50% of the LUMO to the HOMO
 Reading MOs from coefficient file
 An unrestricted hybrid HF-DFT SCF calculation will be
 performed using Pulay DIIS extrapolation
 Exchange:     0.2000 Hartree-Fock + 0.0800 Slater + 0.7200 B88
 Correlation:  0.1900 VWN1RPA + 0.8100 LYP
 Using SG-1 standard quadrature grid
 SCF converges when DIIS error is below 1.0E-08
 Geometry optimization detected.  Setting ReadMinima to 0
 Setting SaveMinima to 0
 using 4 threads for integral computing
 -------------------------------------------------------
 OpenMP Integral computing Module                
 Release: version 1.0, May 2013, Q-Chem Inc. Pittsburgh 
 -------------------------------------------------------
 -------------------------------------------------------
 OpenMP BLAS3 based DFT computing Module                
 Release: version 1.0, May 2013, Q-Chem Inc. Pittsburgh 
 -------------------------------------------------------
 ---------------------------------------
  Cycle       Energy         DIIS Error
 ---------------------------------------
    1    -286.8206181893      1.81E-03
    2    -286.8199976238      4.09E-03
    3    -286.8491442492      8.16E-04
    4    -286.8508434432      4.72E-04
    5    -286.8514767272      9.21E-05
    6    -286.8515740998      9.48E-05
    7    -286.8516105491      2.51E-05
    8    -286.8516321632      1.06E-05
    9    -286.8516404728      3.24E-06
   10    -286.8516464957      1.75E-06
   11    -286.8516489376      1.12E-06
   12    -286.8516497766      6.00E-07
   13    -286.8516499335      1.45E-07
   14    -286.8516499355      5.35E-08
   15    -286.8516499355      1.54E-08
   16    -286.8516499356      3.94E-09 Convergence criterion met
 ---------------------------------------
 <S^2> = 0.7537
 SCF time:  CPU 41.64 s  wall 42.11 s
 SCF   energy in the final basis set = -286.85164994
 Total energy in the final basis set = -286.85164994
 
 --------------------------------------------------------------
 
                    Orbital Energies (a.u.)
 --------------------------------------------------------------
 
 Alpha MOs
 -- Occupied --
-14.322 -10.224 -10.220 -10.210 -10.204 -10.201 -10.197  -0.952
 -0.821  -0.726  -0.705  -0.579  -0.573  -0.531  -0.512  -0.472
 -0.418  -0.410  -0.381  -0.373  -0.348  -0.294  -0.271  -0.258
 -0.196
 -- Virtual --
 -0.021   0.029   0.103   0.140   0.150   0.154   0.159   0.163
  0.172   0.210   0.215   0.255   0.288   0.322   0.346   0.366
  0.495   0.510   0.532   0.540   0.570   0.599   0.606   0.622
  0.635   0.641   0.655   0.689   0.700   0.728   0.778   0.791
  0.799   0.817   0.825   0.846   0.858   0.876   0.891   0.940
  0.965   1.005   1.059   1.092   1.201   1.264   1.334   1.339
  1.395   1.407   1.487   1.511   1.563   1.611   1.659   1.725
  1.784   1.796   1.827   1.892   1.954   1.986   1.999   2.049
  2.097   2.138   2.172   2.208   2.234   2.276   2.314   2.335
  2.425   2.476   2.515   2.532   2.548   2.618   2.629   2.646
  2.722   2.835   2.856   2.904   2.939   3.922   4.187   4.267
  4.279   4.396   4.543   4.678
 
 Beta MOs
 -- Occupied --
-14.321 -10.224 -10.221 -10.210 -10.200 -10.196 -10.190  -0.949
 -0.815  -0.725  -0.690  -0.577  -0.561  -0.527  -0.509  -0.463
 -0.414  -0.406  -0.380  -0.369  -0.342  -0.287  -0.261  -0.255
 -- Virtual --
 -0.045  -0.016   0.031   0.105   0.143   0.153   0.158   0.160
  0.166   0.176   0.216   0.223   0.267   0.290   0.324   0.349
  0.369   0.497   0.529   0.540   0.544   0.577   0.604   0.611
  0.624   0.641   0.658   0.662   0.693   0.708   0.742   0.782
  0.793   0.810   0.819   0.827   0.848   0.860   0.879   0.894
  0.942   0.973   1.013   1.060   1.099   1.204   1.266   1.338
  1.345   1.400   1.411   1.489   1.513   1.578   1.619   1.665
  1.728   1.793   1.799   1.837   1.910   1.966   1.999   2.003
  2.054   2.119   2.144   2.179   2.224   2.249   2.281   2.317
  2.338   2.428   2.493   2.517   2.542   2.553   2.630   2.636
  2.648   2.729   2.837   2.859   2.906   2.942   3.923   4.190
  4.269   4.307   4.399   4.549   4.679
 --------------------------------------------------------------
 
          Ground-State Mulliken Net Atomic Charges

     Atom                 Charge (a.u.)    Spin (a.u.)
  --------------------------------------------------------
      1 C                     0.092265      -0.008941
      2 C                    -0.246051      -0.043897
      3 C                    -0.096229       0.975641
      4 C                    -0.087811       0.039867
      5 C                    -0.094805      -0.045044
      6 N                    -0.325170       0.022035
      7 H                     0.149701      -0.000171
      8 H                     0.133845       0.002867
      9 H                     0.138828      -0.026527
     10 H                     0.146035       0.000921
     11 H                     0.139880       0.003030
     12 C                    -0.096153       0.079932
     13 H                     0.145664       0.000287
  --------------------------------------------------------
  Sum of atomic charges =    -0.000000
  Sum of spin   charges =     1.000000

 -----------------------------------------------------------------
                    Cartesian Multipole Moments
 -----------------------------------------------------------------
    Charge (ESU x 10^10)
                 0.0000
    Dipole Moment (Debye)
         X      -0.5660      Y      -1.9432      Z       1.2412
       Tot       2.3742
    Quadrupole Moments (Debye-Ang)
        XX     -36.9425     XY      -3.3747     YY     -43.6451
        XZ       1.3206     YZ       0.7088     ZZ     -40.8914
    Octopole Moments (Debye-Ang^2)
       XXX      -3.3239    XXY      -3.7389    XYY      -8.5555
       YYY     -28.1089    XXZ       4.3320    XYZ       0.5092
       YYZ       6.7330    XZZ      -7.2714    YZZ      -7.7822
       ZZZ      17.4434
    Hexadecapole Moments (Debye-Ang^3)
      XXXX    -232.8027   XXXY      -4.9797   XXYY     -78.4659
      XYYY     -16.9258   YYYY    -241.3057   XXXZ      17.0433
      XXYZ      10.7485   XYYZ      11.4270   YYYZ      26.6633
      XXZZ     -76.0843   XYZZ      -4.0571   YYZZ     -72.0360
      XZZZ      18.5025   YZZZ      14.6590   ZZZZ    -210.8738
 -----------------------------------------------------------------
 Calculating analytic gradient of the SCF energy
 Gradient of SCF Energy
            1           2           3           4           5           6
    1   0.0000945  -0.0000901  -0.0000336  -0.0001443  -0.0001790   0.0001610
    2  -0.0000493  -0.0000150  -0.0000037  -0.0001382   0.0000352   0.0000636
    3  -0.0002155  -0.0000924   0.0001720  -0.0001332   0.0000755   0.0002059
            7           8           9          10          11          12
    1   0.0000042   0.0000003   0.0000001   0.0000188  -0.0000030   0.0001665
    2  -0.0000144  -0.0000185  -0.0000036   0.0000261   0.0000071   0.0000840
    3   0.0000002   0.0000180  -0.0000546  -0.0000335  -0.0000163   0.0000558
           13
    1   0.0000044
    2   0.0000266
    3   0.0000182
 Max gradient component =       2.155E-04
 RMS gradient           =       9.054E-05
 Gradient time:  CPU 7.69 s  wall 2.50 s
 Geometry Optimization Parameters
   NAtoms,    NIC,     NZ,  NCons,   NDum,   NFix, NCnnct, MaxDiis
       13     104       0       0       0       0       0       0

 Cartesian Hessian Update
 Hessian Updated using BFGS Update


** GEOMETRY OPTIMIZATION IN DELOCALIZED INTERNAL COORDINATES **
   Searching for a Minimum

   Optimization Cycle:   2

                       Coordinates (Angstroms)
     ATOM                X               Y               Z
      1  C         1.4915006193    0.4707680397   -0.2299696084
      2  C         0.7031909931   -0.8341733757    0.0005491014
      3  C        -0.3015959819   -0.6076286865   -1.1331193144
      4  C        -1.0757944373    0.4496170825    0.7468420918
      5  C        -0.6409511846    0.8079249894   -0.6831378502
      6  N         0.7450219386    1.4318339408   -0.6138560146
      7  H         2.5608541869    0.5905529991   -0.0641616394
      8  H         1.2700037008   -1.7638462736    0.0532873869
      9  H        -1.0542331395   -1.3469961836   -1.4021140459
     10  H        -1.8691259471    0.9421425463    1.2982820928
     11  H        -1.3267328270    1.4174688714   -1.2697204015
     12  C        -0.2631794353   -0.5346399084    1.1645404988
     13  H        -0.2389584859   -1.0230240414    2.1325777025
   Point Group: c1    Number of degrees of freedom:    33


   Energy is   -286.851649936

 Hessian Updated using BFGS Update

 33 Hessian modes will be used to form the next step
  Hessian Eigenvalues:
     0.010231    0.010494    0.013076    0.016638    0.018701    0.025372
     0.045712    0.049140    0.055498    0.061794    0.066462    0.081695
     0.108015    0.128527    0.142308    0.153912    0.159915    0.160099
     0.184686    0.247016    0.253834    0.259346    0.268499    0.285510
     0.299774    0.348207    0.349451    0.349560    0.349751    0.354373
     0.354786    0.505102    0.661247

 Minimum Search - Taking Simple RFO Step
 Searching for Lamda that Minimizes Along All modes
 Value Taken    Lamda =  -0.00000259
 Step Taken.  Stepsize is  0.010738

                             Maximum     Tolerance    Cnvgd?
         Gradient           0.000134      0.000300     YES
         Displacement       0.004892      0.001200      NO
         Energy change     -0.000001      0.000001      NO


 New Cartesian Coordinates Obtained by Inverse Iteration

 Displacement from previous Coordinates is:  0.008981
 ----------------------------------------------------------------
             Standard Nuclear Orientation (Angstroms)
    I     Atom           X                Y                Z
 ----------------------------------------------------------------
    1      C       1.4911941874     0.4714336195    -0.2289717559
    2      C       0.7034291338    -0.8341089461     0.0007362804
    3      C      -0.3017785272    -0.6079099588    -1.1330174024
    4      C      -1.0747827748     0.4502358855     0.7468664244
    5      C      -0.6406011864     0.8079023838    -0.6838000855
    6      N       0.7451032510     1.4316818215    -0.6157796221
    7      H       2.5604990025     0.5914968476    -0.0631039254
    8      H       1.2706832759    -1.7635461480     0.0529996396
    9      H      -1.0552441733    -1.3470421114    -1.4003503834
   10      H      -1.8679135414     0.9426776124     1.2986717610
   11      H      -1.3268377145     1.4173575114    -1.2699622629
   12      C      -0.2636855739    -0.5354077592     1.1640899444
   13      H      -0.2400653590    -1.0247707584     2.1316213879
 ----------------------------------------------------------------
 Nuclear Repulsion Energy =   279.1126496750 hartrees
 There are       25 alpha and       24 beta electrons
 Applying Cartesian multipole field
    Component          Value
    ---------          -----
     (2,0,0)        1.00000E-11
     (0,2,0)        2.00000E-11
     (0,0,2)       -3.00000E-11
 Nucleus-field energy     =     0.0000000006 hartrees
 Requested basis set is 6-31G(d)
 There are 40 shells and 117 basis functions
 A cutoff of  1.0D-14 yielded    814 shell pairs
 There are      7086 function pairs
 Smallest overlap matrix eigenvalue = 1.11E-03
 Guess MOs from SCF MO coefficient file
 Reading MOs from coefficient file
 Mixing HOMO and LUMO in initial guess
 Adding  50% of the LUMO to the HOMO
 Reading MOs from coefficient file
 An unrestricted hybrid HF-DFT SCF calculation will be
 performed using Pulay DIIS extrapolation
 Exchange:     0.2000 Hartree-Fock + 0.0800 Slater + 0.7200 B88
 Correlation:  0.1900 VWN1RPA + 0.8100 LYP
 Using SG-1 standard quadrature grid
 SCF converges when DIIS error is below 1.0E-08
 Geometry optimization detected.  Setting ReadMinima to 0
 Setting SaveMinima to 0
 using 4 threads for integral computing
 -------------------------------------------------------
 OpenMP Integral computing Module                
 Release: version 1.0, May 2013, Q-Chem Inc. Pittsburgh 
 -------------------------------------------------------
 -------------------------------------------------------
 OpenMP BLAS3 based DFT computing Module                
 Release: version 1.0, May 2013, Q-Chem Inc. Pittsburgh 
 -------------------------------------------------------
 ---------------------------------------
  Cycle       Energy         DIIS Error
 ---------------------------------------
    1    -286.8204041213      1.81E-03
    2    -286.8198646807      4.09E-03
    3    -286.8491236122      8.20E-04
    4    -286.8508358505      4.74E-04
    5    -286.8514755293      9.34E-05
    6    -286.8515736995      9.63E-05
    7    -286.8516109969      2.53E-05
    8    -286.8516328137      1.06E-05
    9    -286.8516412134      3.26E-06
   10    -286.8516473102      1.76E-06
   11    -286.8516497624      1.12E-06
   12    -286.8516505988      5.96E-07
   13    -286.8516507552      1.46E-07
   14    -286.8516507571      5.38E-08
   15    -286.8516507571      1.51E-08
   16    -286.8516507571      4.00E-09 Convergence criterion met
 ---------------------------------------
 <S^2> = 0.7537
 SCF time:  CPU 41.69 s  wall 29.65 s
 SCF   energy in the final basis set = -286.85165076
 Total energy in the final basis set = -286.85165076
 
 --------------------------------------------------------------
 
                    Orbital Energies (a.u.)
 --------------------------------------------------------------
 
 Alpha MOs
 -- Occupied --
-14.322 -10.224 -10.220 -10.210 -10.204 -10.201 -10.198  -0.952
 -0.821  -0.726  -0.705  -0.579  -0.573  -0.531  -0.512  -0.472
 -0.418  -0.410  -0.381  -0.373  -0.348  -0.294  -0.271  -0.258
 -0.196
 -- Virtual --
 -0.021   0.029   0.103   0.140   0.150   0.154   0.159   0.163
  0.172   0.210   0.215   0.255   0.288   0.321   0.346   0.366
  0.495   0.510   0.532   0.540   0.570   0.599   0.606   0.622
  0.635   0.641   0.655   0.689   0.700   0.728   0.778   0.791
  0.799   0.817   0.825   0.846   0.858   0.876   0.891   0.940
  0.965   1.005   1.059   1.093   1.201   1.264   1.334   1.339
  1.395   1.406   1.487   1.511   1.563   1.611   1.659   1.725
  1.784   1.796   1.827   1.892   1.954   1.986   2.000   2.048
  2.097   2.138   2.172   2.208   2.234   2.276   2.314   2.335
  2.425   2.476   2.515   2.532   2.548   2.618   2.629   2.645
  2.722   2.835   2.856   2.904   2.939   3.922   4.188   4.267
  4.279   4.396   4.543   4.678
 
 Beta MOs
 -- Occupied --
-14.321 -10.224 -10.221 -10.210 -10.200 -10.196 -10.190  -0.949
 -0.815  -0.725  -0.690  -0.577  -0.561  -0.527  -0.509  -0.463
 -0.414  -0.406  -0.380  -0.369  -0.342  -0.287  -0.261  -0.255
 -- Virtual --
 -0.045  -0.016   0.031   0.105   0.143   0.153   0.158   0.160
  0.166   0.176   0.216   0.223   0.267   0.290   0.324   0.349
  0.369   0.497   0.529   0.540   0.544   0.577   0.604   0.611
  0.624   0.641   0.658   0.662   0.693   0.708   0.742   0.782
  0.793   0.810   0.819   0.827   0.848   0.860   0.879   0.894
  0.942   0.973   1.013   1.060   1.099   1.204   1.265   1.338
  1.345   1.400   1.411   1.489   1.513   1.578   1.619   1.665
  1.728   1.792   1.799   1.837   1.910   1.966   1.999   2.003
  2.054   2.119   2.144   2.179   2.224   2.249   2.281   2.317
  2.339   2.428   2.493   2.517   2.542   2.553   2.630   2.636
  2.648   2.729   2.837   2.859   2.906   2.942   3.923   4.190
  4.269   4.307   4.399   4.549   4.679
 --------------------------------------------------------------
 
          Ground-State Mulliken Net Atomic Charges

     Atom                 Charge (a.u.)    Spin (a.u.)
  --------------------------------------------------------
      1 C                     0.092214      -0.008808
      2 C                    -0.246085      -0.043814
      3 C                    -0.096147       0.975538
      4 C                    -0.087963       0.040380
      5 C                    -0.094790      -0.045020
      6 N                    -0.325105       0.021748
      7 H                     0.149696      -0.000177
      8 H                     0.133886       0.002878
      9 H                     0.138807      -0.026498
     10 H                     0.146022       0.000902
     11 H                     0.139868       0.003034
     12 C                    -0.096088       0.079529
     13 H                     0.145684       0.000307
  --------------------------------------------------------
  Sum of atomic charges =    -0.000000
  Sum of spin   charges =     1.000000

 -----------------------------------------------------------------
                    Cartesian Multipole Moments
 -----------------------------------------------------------------
    Charge (ESU x 10^10)
                -0.0000
    Dipole Moment (Debye)
         X      -0.5665      Y      -1.9424      Z       1.2459
       Tot       2.3761
    Quadrupole Moments (Debye-Ang)
        XX     -36.9449     XY      -3.3718     YY     -43.6399
        XZ       1.3233     YZ       0.7096     ZZ     -40.9003
    Octopole Moments (Debye-Ang^2)
       XXX      -3.3314    XXY      -3.7429    XYY      -8.5566
       YYY     -28.1058    XXZ       4.3450    XYZ       0.5195
       YYZ       6.7612    XZZ      -7.2799    YZZ      -7.7849
       ZZZ      17.4751
    Hexadecapole Moments (Debye-Ang^3)
      XXXX    -232.7413   XXXY      -4.9991   XXYY     -78.4542
      XYYY     -16.9525   YYYY    -241.3568   XXXZ      17.0486
      XXYZ      10.7709   XYYZ      11.4267   YYYZ      26.7233
      XXZZ     -76.0790   XYZZ      -4.0768   YYZZ     -72.0663
      XZZZ      18.4799   YZZZ      14.7045   ZZZZ    -210.9336
 -----------------------------------------------------------------
 Calculating analytic gradient of the SCF energy
 Gradient of SCF Energy
            1           2           3           4           5           6
    1   0.0000034   0.0000226  -0.0001198   0.0000703  -0.0001107   0.0000984
    2   0.0000702  -0.0000646   0.0000091  -0.0000652  -0.0000064   0.0000694
    3   0.0001754  -0.0000183   0.0001777  -0.0000776  -0.0000262  -0.0001403
            7           8           9          10          11          12
    1   0.0000042   0.0000013  -0.0000232   0.0000349   0.0000034  -0.0000099
    2  -0.0000102  -0.0000310   0.0000216  -0.0000029   0.0000420  -0.0000213
    3  -0.0000314  -0.0000168  -0.0000392   0.0000058   0.0000039   0.0000047
           13
    1   0.0000251
    2  -0.0000106
    3  -0.0000177
 Max gradient component =       1.777E-04
 RMS gradient           =       6.379E-05
 Gradient time:  CPU 7.50 s  wall 2.34 s
 Geometry Optimization Parameters
   NAtoms,    NIC,     NZ,  NCons,   NDum,   NFix, NCnnct, MaxDiis
       13     104       0       0       0       0       0       0

 Cartesian Hessian Update
 Hessian Updated using BFGS Update


** GEOMETRY OPTIMIZATION IN DELOCALIZED INTERNAL COORDINATES **
   Searching for a Minimum

   Optimization Cycle:   3

                       Coordinates (Angstroms)
     ATOM                X               Y               Z
      1  C         1.4911941874    0.4714336195   -0.2289717559
      2  C         0.7034291338   -0.8341089461    0.0007362804
      3  C        -0.3017785272   -0.6079099588   -1.1330174024
      4  C        -1.0747827748    0.4502358855    0.7468664244
      5  C        -0.6406011864    0.8079023838   -0.6838000855
      6  N         0.7451032510    1.4316818215   -0.6157796221
      7  H         2.5604990025    0.5914968476   -0.0631039254
      8  H         1.2706832759   -1.7635461480    0.0529996396
      9  H        -1.0552441733   -1.3470421114   -1.4003503834
     10  H        -1.8679135414    0.9426776124    1.2986717610
     11  H        -1.3268377145    1.4173575114   -1.2699622629
     12  C        -0.2636855739   -0.5354077592    1.1640899444
     13  H        -0.2400653590   -1.0247707584    2.1316213879
   Point Group: c1    Number of degrees of freedom:    33


   Energy is   -286.851650757

 Hessian Updated using BFGS Update

 33 Hessian modes will be used to form the next step
  Hessian Eigenvalues:
     0.010060    0.010525    0.012875    0.016690    0.021776    0.030681
     0.045696    0.050466    0.055401    0.061932    0.066016    0.081804
     0.107976    0.129547    0.141119    0.153945    0.159886    0.160110
     0.188703    0.246520    0.253177    0.258576    0.268708    0.281593
     0.291963    0.348100    0.349369    0.349560    0.349586    0.354413
     0.354581    0.505378    0.662063

 Minimum Search - Taking Simple RFO Step
 Searching for Lamda that Minimizes Along All modes
 Value Taken    Lamda =   0.00000000
 Step Taken.  Stepsize is  0.004315

                             Maximum     Tolerance    Cnvgd?
         Gradient           0.000118      0.000300     YES
         Displacement       0.002460      0.001200      NO
         Energy change     -0.000001      0.000001     YES


                       Distance Matrix (Angstroms)
             C (  1)   C (  2)   C (  3)   C (  4)   C (  5)   N (  6)
   C (  2)  1.542005
   C (  3)  2.279700  1.531994
   C (  4)  2.745350  2.316957  2.291543
   C (  5)  2.205591  2.229621  1.523523  1.537285
   N (  6)  1.276068  2.348539  2.350198  2.476293  1.521152
   H (  7)  1.088733  2.342037  3.282670  3.727101  3.267895  2.075337
   H (  8)  2.263464  1.090120  2.283587  3.299014  3.287587  3.306506
   H (  9)  3.341157  2.306312  1.088804  2.800202  2.308497  3.402662
   H ( 10)  3.720130  3.384289  3.281800  1.084456  2.335520  3.275989
   H ( 11)  3.149561  3.287212  2.274029  2.250878  1.089010  2.172809
   C ( 12)  2.456411  1.542052  2.298567  1.342925  2.315436  2.838139
   H ( 13)  3.287596  2.338206  3.291724  2.188594  3.383152  3.814830
             H (  7)   H (  8)   H (  9)   H ( 10)   H ( 11)   C ( 12)
   H (  8)  2.687626
   H (  9)  4.315062  2.774102
   H ( 10)  4.646353  4.327371  3.631524
   H ( 11)  4.153305  4.314567  2.780768  2.667577
   C ( 12)  3.279015  2.257683  2.803867  2.185497  3.296695
   H ( 13)  3.907979  2.673728  3.639121  2.685991  4.326180  1.084505

 
 Final energy is   -286.851650757078     


 ******************************
 **  OPTIMIZATION CONVERGED  **
 ******************************

                       Coordinates (Angstroms)
     ATOM                X               Y               Z
      1  C         1.4911941874    0.4714336195   -0.2289717559
      2  C         0.7034291338   -0.8341089461    0.0007362804
      3  C        -0.3017785272   -0.6079099588   -1.1330174024
      4  C        -1.0747827748    0.4502358855    0.7468664244
      5  C        -0.6406011864    0.8079023838   -0.6838000855
      6  N         0.7451032510    1.4316818215   -0.6157796221
      7  H         2.5604990025    0.5914968476   -0.0631039254
      8  H         1.2706832759   -1.7635461480    0.0529996396
      9  H        -1.0552441733   -1.3470421114   -1.4003503834
     10  H        -1.8679135414    0.9426776124    1.2986717610
     11  H        -1.3268377145    1.4173575114   -1.2699622629
     12  C        -0.2636855739   -0.5354077592    1.1640899444
     13  H        -0.2400653590   -1.0247707584    2.1316213879

Z-matrix Print:
$molecule
0 2
N 
C  1 1.276068
H  2 1.088733 1 122.509694
C  1 1.521152 2 103.744494 3 -179.062843 0
H  4 1.089010 1 111.630129 2 -163.358938 0
C  4 1.523523 1 101.050395 2 -34.519960 0
H  6 1.088804 4 123.322451 1 -173.272587 0
C  6 1.531994 4 93.722643 1 53.489362 0
H  8 1.090120 6 120.185209 4 -176.837395 0
C  4 1.537285 1 108.124182 2 66.645867 0
H  10 1.084456 4 125.061396 1 110.983809 0
C  10 1.342925 4 106.816867 1 -67.160463 0
H  12 1.084505 10 128.426487 4 177.678511 0
$end

 
 --------------------------------------------------------------
 
                    Orbital Energies (a.u.)
 --------------------------------------------------------------
 
 Alpha MOs
 -- Occupied --
-14.322 -10.224 -10.220 -10.210 -10.204 -10.201 -10.198  -0.952
 -0.821  -0.726  -0.705  -0.579  -0.573  -0.531  -0.512  -0.472
 -0.418  -0.410  -0.381  -0.373  -0.348  -0.294  -0.271  -0.258
 -0.196
 -- Virtual --
 -0.021   0.029   0.103   0.140   0.150   0.154   0.159   0.163
  0.172   0.210   0.215   0.255   0.288   0.321   0.346   0.366
  0.495   0.510   0.532   0.540   0.570   0.599   0.606   0.622
  0.635   0.641   0.655   0.689   0.700   0.728   0.778   0.791
  0.799   0.817   0.825   0.846   0.858   0.876   0.891   0.940
  0.965   1.005   1.059   1.093   1.201   1.264   1.334   1.339
  1.395   1.406   1.487   1.511   1.563   1.611   1.659   1.725
  1.784   1.796   1.827   1.892   1.954   1.986   2.000   2.048
  2.097   2.138   2.172   2.208   2.234   2.276   2.314   2.335
  2.425   2.476   2.515   2.532   2.548   2.618   2.629   2.645
  2.722   2.835   2.856   2.904   2.939   3.922   4.188   4.267
  4.279   4.396   4.543   4.678
 
 Beta MOs
 -- Occupied --
-14.321 -10.224 -10.221 -10.210 -10.200 -10.196 -10.190  -0.949
 -0.815  -0.725  -0.690  -0.577  -0.561  -0.527  -0.509  -0.463
 -0.414  -0.406  -0.380  -0.369  -0.342  -0.287  -0.261  -0.255
 -- Virtual --
 -0.045  -0.016   0.031   0.105   0.143   0.153   0.158   0.160
  0.166   0.176   0.216   0.223   0.267   0.290   0.324   0.349
  0.369   0.497   0.529   0.540   0.544   0.577   0.604   0.611
  0.624   0.641   0.658   0.662   0.693   0.708   0.742   0.782
  0.793   0.810   0.819   0.827   0.848   0.860   0.879   0.894
  0.942   0.973   1.013   1.060   1.099   1.204   1.265   1.338
  1.345   1.400   1.411   1.489   1.513   1.578   1.619   1.665
  1.728   1.792   1.799   1.837   1.910   1.966   1.999   2.003
  2.054   2.119   2.144   2.179   2.224   2.249   2.281   2.317
  2.339   2.428   2.493   2.517   2.542   2.553   2.630   2.636
  2.648   2.729   2.837   2.859   2.906   2.942   3.923   4.190
  4.269   4.307   4.399   4.549   4.679
 --------------------------------------------------------------
 
          Ground-State Mulliken Net Atomic Charges

     Atom                 Charge (a.u.)    Spin (a.u.)
  --------------------------------------------------------
      1 C                     0.092214      -0.008808
      2 C                    -0.246085      -0.043814
      3 C                    -0.096147       0.975538
      4 C                    -0.087963       0.040380
      5 C                    -0.094790      -0.045020
      6 N                    -0.325105       0.021748
      7 H                     0.149696      -0.000177
      8 H                     0.133886       0.002878
      9 H                     0.138807      -0.026498
     10 H                     0.146022       0.000902
     11 H                     0.139868       0.003034
     12 C                    -0.096088       0.079529
     13 H                     0.145684       0.000307
  --------------------------------------------------------
  Sum of atomic charges =    -0.000000
  Sum of spin   charges =     1.000000

 -----------------------------------------------------------------
                    Cartesian Multipole Moments
 -----------------------------------------------------------------
    Charge (ESU x 10^10)
                -0.0000
    Dipole Moment (Debye)
         X      -0.5665      Y      -1.9424      Z       1.2459
       Tot       2.3761
    Quadrupole Moments (Debye-Ang)
        XX     -36.9449     XY      -3.3718     YY     -43.6399
        XZ       1.3233     YZ       0.7096     ZZ     -40.9003
    Octopole Moments (Debye-Ang^2)
       XXX      -3.3314    XXY      -3.7429    XYY      -8.5566
       YYY     -28.1058    XXZ       4.3450    XYZ       0.5195
       YYZ       6.7612    XZZ      -7.2799    YZZ      -7.7849
       ZZZ      17.4751
    Hexadecapole Moments (Debye-Ang^3)
      XXXX    -232.7413   XXXY      -4.9991   XXYY     -78.4542
      XYYY     -16.9525   YYYY    -241.3568   XXXZ      17.0486
      XXYZ      10.7709   XYYZ      11.4267   YYYZ      26.7233
      XXZZ     -76.0790   XYZZ      -4.0768   YYZZ     -72.0663
      XZZZ      18.4799   YZZZ      14.7045   ZZZZ    -210.9336
 -----------------------------------------------------------------
Archival summary:
1\1\c8-66\OPT\ProcedureUnspecified\6-31G*\166(2)\hpark21\WedMar203:33:222022WedMar203:33:222022\0\\#,OPT,ProcedureUnspecified,6-31G*,\\0,2\N\C,1,1.27607\H,2,1.08873,1,122.51\C,1,1.52115,2,103.744,3,-179.063,0\H,4,1.08901,1,111.63,2,-163.359,0\C,4,1.52352,1,101.05,2,-34.52,0\H,6,1.0888,4,123.322,1,-173.273,0\C,6,1.53199,4,93.7226,1,53.4894,0\H,8,1.09012,6,120.185,4,-176.837,0\C,4,1.53729,1,108.124,2,66.6459,0\H,10,1.08446,4,125.061,1,110.984,0\C,10,1.34292,4,106.817,1,-67.1605,0\H,12,1.08451,10,128.426,4,177.679,0\\\@

 Total job time:  158.02s(wall), 166.48s(cpu) 
 Wed Mar  2 03:33:23 2022

        *************************************************************
        *                                                           *
        *  Thank you very much for using Q-Chem.  Have a nice day.  *
        *                                                           *
        *************************************************************


