
Running Job 1 of 1 qcts2.in
qchem qcts2.in_53956.0 ./qcts2.d/ 1
/home/leeping/opt/qchem/5.0.2-openmp/exe/qcprog.exe_s qcts2.in_53956.0 ./qcts2.d/
Check license passed

                  Welcome to Q-Chem
     A Quantum Leap Into The Future Of Chemistry


 Q-Chem 5.0, Q-Chem, Inc., Pleasanton, CA (2017)

 Yihan Shao,  Zhengting Gan,  E. Epifanovsky,  A. T. B. Gilbert,  M. Wormit,  
 J. Kussmann,  A. W. Lange,  A. Behn,  Jia Deng,  Xintian Feng,  D. Ghosh,  
 M. Goldey,  P. R. Horn,  L. D. Jacobson,  I. Kaliman,  T. Kus,  A. Landau,  
 Jie Liu,  E. I. Proynov,  R. M. Richard,  R. P. Steele,  E. J. Sundstrom,  
 H. L. Woodcock III,  P. M. Zimmerman,  D. Zuev,  B. Albrecht,  E. Alguire,  
 S. A. Baeppler,  D. Barton,  Z. Benda,  Y. A. Bernard,  E. J. Berquist,  
 K. B. Bravaya,  H. Burton,  D. Casanova,  Chun-Min Chang,  Yunqing Chen,  
 A. Chien,  K. D. Closser,  M. P. Coons,  S. Dasgupta,  A. L. Dempwolff,  
 M. Diedenhofen,  Hainam Do,  R. G. Edgar,  Po-Tung Fang,  S. Fatehi,  
 Qingguo Feng,  J. Fosso-Tande,  Qinghui Ge,  A. Ghysels,  G. Gidofalvi,  
 J. Gomes,  J. Gonthier,  A. Gunina,  M. W. D. Hanson-Heine,  
 P. H. P. Harbach,  A. W. Hauser,  J. E. Herr,  E. G. Hohenstein,  
 Z. C. Holden,  Kerwin Hui,  T.-C. Jagau,  Hyunjun Ji,  B. Kaduk,  
 K. Khistyaev,  Jaehoon Kim,  P. Klunzinger,  K. Koh,  D. Kosenkov,  
 L. Koulias,  T. Kowalczyk,  C. M. Krauter,  A. Kunitsa,  Ka Un Lao,  
 A. Laurent,  K. V. Lawler,  Joonho Lee,  D. Lefrancois,  S. Lehtola,  
 D. S. Levine,  Yi-Pei Li,  You-Sheng Lin,  Fenglai Liu,  E. Livshits,  
 A. Luenser,  P. Manohar,  E. Mansoor,  S. F. Manzer,  Shan-Ping Mao,  
 Yuezhi Mao,  N. Mardirossian,  A. V. Marenich,  T. Markovich,  
 L. A. Martinez-Martinez,  S. A. Maurer,  N. J. Mayhall,  S. C. McKenzie,  
 J.-M. Mewes,  A. F. Morrison,  J. W. Mullinax,  K. Nanda,  
 T. S. Nguyen-Beck,  R. Olivares-Amaya,  J. A. Parkhill,  T. M. Perrine,  
 F. Plasser,  S. Prager,  A. Prociuk,  E. Ramos,  D. R. Rehn,  F. Rob,  
 M. Schneider,  N. Sergueev,  S. M. Sharada,  S. Sharma,  D. W. Small,  
 T. Stauch,  T. Stein,  Yu-Chuan Su,  A. J. W. Thom,  A. Tkatchenko,  
 T. Tsuchimochi,  L. Vogt,  O. Vydrov,  M. A. Watson,  J. Wenzel,  
 M. de Wergifosse,  T. A. Wesolowski,  A. White,  J. Witte,  A. Yamada,  
 Jun Yang,  K. Yao,  S. Yeganeh,  S. R. Yost,  Zhi-Qiang You,  A. Zech,  
 Igor Ying Zhang,  Xing Zhang,  Yan Zhao,  Ying Zhu,  B. R. Brooks,  
 G. K. L. Chan,  C. J. Cramer,  M. S. Gordon,  W. J. Hehre,  A. Klamt,  
 M. W. Schmidt,  C. D. Sherrill,  D. G. Truhlar,  A. Aspuru-Guzik,  R. Baer,  
 A. T. Bell,  N. A. Besley,  Jeng-Da Chai,  R. A. DiStasio Jr.,  A. Dreuw,  
 B. D. Dunietz,  T. R. Furlani,  Chao-Ping Hsu,  Yousung Jung,  Jing Kong,  
 D. S. Lambrecht,  WanZhen Liang,  C. Ochsenfeld,  V. A. Rassolov,  
 L. V. Slipchenko,  J. E. Subotnik,  T. Van Voorhis,  J. M. Herbert,  
 A. I. Krylov,  P. M. W. Gill,  M. Head-Gordon

 Contributors to earlier versions of Q-Chem not listed above: 
 R. D. Adamson,  B. Austin,  J. Baker,  G. J. O. Beran,  K. Brandhorst,  
 S. T. Brown,  E. F. C. Byrd,  A. K. Chakraborty,  C.-L. Cheng,  
 Siu Hung Chien,  D. M. Chipman,  D. L. Crittenden,  H. Dachsel,  
 R. J. Doerksen,  A. D. Dutoi,  L. Fusti-Molnar,  W. A. Goddard III,  
 A. Golubeva-Zadorozhnaya,  S. R. Gwaltney,  G. Hawkins,  A. Heyden,  
 S. Hirata,  G. Kedziora,  F. J. Keil,  C. Kelley,  Jihan Kim,  R. A. King,  
 R. Z. Khaliullin,  P. P. Korambath,  W. Kurlancheek,  A. M. Lee,  M. S. Lee,  
 S. V. Levchenko,  Ching Yeh Lin,  D. Liotard,  R. C. Lochan,  I. Lotan,  
 P. E. Maslen,  N. Nair,  D. P. O'Neill,  D. Neuhauser,  E. Neuscamman,  
 C. M. Oana,  R. Olson,  B. Peters,  R. Peverati,  P. A. Pieniazek,  
 Y. M. Rhee,  J. Ritchie,  M. A. Rohrdanz,  E. Rosta,  N. J. Russ,  
 H. F. Schaefer III,  N. E. Schultz,  N. Shenvi,  A. C. Simmonett,  A. Sodt,  
 D. Stuck,  K. S. Thanthiriwatte,  V. Vanovschi,  Tao Wang,  A. Warshel,  
 C. F. Williams,  Q. Wu,  X. Xu,  W. Zhang

 Please cite Q-Chem as follows:
 Y. Shao et al., Mol. Phys. 113, 184-215 (2015)
 DOI: 10.1080/00268976.2014.952696

 Q-Chem 5.0.2 for Intel X86 EM64T Linux

 Parts of Q-Chem use Armadillo 5.200.1 (Boston Tea Smuggler).
 http://arma.sourceforge.net/

 Q-Chem begins on Wed Mar  2 05:39:46 2022  

Host: 
0

     Scratch files written to ./qcts2.d//
 Dec517 15110_ 26548  26544 5633   
Processing $rem in /home/leeping/opt/qchem/5.0.2-openmp/config/preferences.
 MEM_STATIC 2000
 MEM_TOTAL  8000
 SYMMETRY   OFF
 SYM_IGNORE TRUE 

Checking the input file for inconsistencies... 	...done.

--------------------------------------------------------------
User input:
--------------------------------------------------------------
$molecule
0 2
C        1.5166477864    0.4255975744   -0.2648491194
C        0.7017095658   -0.8371498404    0.0257005579
C       -0.5084704804   -0.5662721640   -0.8958874576
C       -1.0896273560    0.3318537656    0.6409572590
C       -0.5758996295    0.9040783389   -0.6799339047
N        0.7973788350    1.4246771414   -0.6267455690
H        2.5833301183    0.5262412780   -0.0707013128
H        1.2181423484   -1.7972604457    0.0069039526
H       -1.1229399370   -1.2412126151   -1.4749500565
H       -2.0610669785    0.6228294423    1.0337533074
H       -1.2815114807    1.5135992720   -1.2389360903
C       -0.1362249567   -0.4920330669    1.2555527619
H       -0.0590431185   -0.8314855379    2.2797001879
$end

$rem
method                b3lyp
basis                 6-31+g(d,p)
unrestricted          true
symmetry              off
sym_ignore            true
incdft                false
incfock               0
scf_convergence       8
thresh                14
jobtype               ts
scf_guess             read
scf_algorithm         diis
max_scf_cycles        100
geom_opt_max_cycles   500
geom_opt_dmax         100
geom_opt_tol_gradient 10
geom_opt_hessian      read
$end

--------------------------------------------------------------
 ----------------------------------------------------------------
             Standard Nuclear Orientation (Angstroms)
    I     Atom           X                Y                Z
 ----------------------------------------------------------------
    1      C       1.5166477864     0.4255975744    -0.2648491194
    2      C       0.7017095658    -0.8371498404     0.0257005579
    3      C      -0.5084704804    -0.5662721640    -0.8958874576
    4      C      -1.0896273560     0.3318537656     0.6409572590
    5      C      -0.5758996295     0.9040783389    -0.6799339047
    6      N       0.7973788350     1.4246771414    -0.6267455690
    7      H       2.5833301183     0.5262412780    -0.0707013128
    8      H       1.2181423484    -1.7972604457     0.0069039526
    9      H      -1.1229399370    -1.2412126151    -1.4749500565
   10      H      -2.0610669785     0.6228294423     1.0337533074
   11      H      -1.2815114807     1.5135992720    -1.2389360903
   12      C      -0.1362249567    -0.4920330669     1.2555527619
   13      H      -0.0590431185    -0.8314855379     2.2797001879
 ----------------------------------------------------------------
 Nuclear Repulsion Energy =   281.0843423335 hartrees
 There are       25 alpha and       24 beta electrons
 Requested basis set is 6-31+G(d,p)
 There are 53 shells and 163 basis functions

 Total QAlloc Memory Limit   8000 MB
 Mega-Array Size      1956 MB
 MEM_STATIC part      2000 MB
 A cutoff of  1.0D-14 yielded   1405 shell pairs
 There are     13515 function pairs
 
 -------------------------------------------------------
 OpenMP Integral Computing Module                       
 Release: version 1.0, May 2013, Q-Chem Inc. Pittsburgh 
 -------------------------------------------------------
 Integral Job Info:
 Integral job number is                      11
 Integral operator is                         1
 short-range coefficients                     0
 long-range coefficients              100000000
 Omega coefficients                           0
 if combine SR and LR in K                    0
 Integral screening is                        0
 Integral computing path is                   2
 max size of driver memory is            800000
 size of driver memory is                593474
 size of scratch memory is              2361544
 max col of scratch BK array               1296
 max len of scratch array in speh3          155
 max len of scratch index in speh4           18
 max int batch size is                      520
 min int batch size is                       52
 fixed nKL is                                52
 max L of basis functions is                  2
 order of int derivative is                   0
 number of shells is                         53
 number of basis is                         163
 number of cartesian basis is               163
 number of contracted shell pairs          1405
 number of primitive shell pairs           4832
 maxK2 (contraction) of shell pair           36
 max number of K2 of shell pair               1
 max number of CS2 of shell pair            126
 max number of PS2 of shell pair            702
 mem total for path MDJ                  535308
 -------------------------------------------------------
 Smallest overlap matrix eigenvalue = 2.74E-05

 Scale SEOQF with 1.000000e-01/1.000000e-01/1.000000e-01

 Standard Electronic Orientation quadrupole field applied
 Nucleus-field energy     =     0.0000000008 hartrees
 Guess MOs from SCF MO coefficient file
 Reading MOs from coefficient file
 Reading MOs from coefficient file
 An unrestricted hybrid HF-DFT SCF calculation will be
 performed using Pulay DIIS extrapolation
 Exchange:     0.2000 Hartree-Fock + 0.0800 Slater + 0.7200 B88
 Correlation:  0.1900 VWN1RPA + 0.8100 LYP
 Using SG-1 standard quadrature grid
 SCF converges when DIIS error is below 1.0E-08
Using Q-Chem read-in guess as SCF_GUESS READ specified.

 using 4 threads for integral computing
 -------------------------------------------------------
 OpenMP Integral computing Module                
 Release: version 1.0, May 2013, Q-Chem Inc. Pittsburgh 
 -------------------------------------------------------
 -------------------------------------------------------
 OpenMP BLAS3 based DFT computing Module                
 Release: version 1.0, May 2013, Q-Chem Inc. Pittsburgh 
 -------------------------------------------------------
 ---------------------------------------
  Cycle       Energy         DIIS Error
 ---------------------------------------
    1    -286.8475145495      6.47E-10
    2    -286.8475145495      9.32E-10 Convergence criterion met
 ---------------------------------------
 <S^2> = 0.7779
 SCF time:  CPU 10.60 s  wall 5.47 s
 SCF   energy in the final basis set = -286.84751455
 Total energy in the final basis set = -286.84751455
 
 --------------------------------------------------------------
 
                    Orbital Energies (a.u.)
 --------------------------------------------------------------
 
 Alpha MOs
 -- Occupied --
-14.330 -10.235 -10.230 -10.228 -10.225 -10.221 -10.207  -0.973
 -0.850  -0.750  -0.696  -0.601  -0.585  -0.547  -0.522  -0.473
 -0.444  -0.425  -0.408  -0.378  -0.356  -0.296  -0.284  -0.278
 -0.158
 -- Virtual --
 -0.018  -0.010   0.001   0.018   0.028   0.033   0.046   0.048
  0.063   0.071   0.074   0.095   0.100   0.107   0.109   0.118
  0.124   0.129   0.141   0.153   0.165   0.178   0.180   0.185
  0.192   0.196   0.207   0.218   0.225   0.234   0.241   0.251
  0.259   0.267   0.281   0.287   0.309   0.314   0.332   0.368
  0.372   0.383   0.407   0.455   0.629   0.668   0.676   0.695
  0.700   0.716   0.725   0.735   0.745   0.753   0.776   0.793
  0.807   0.814   0.858   0.898   0.917   0.935   0.954   1.001
  1.017   1.034   1.048   1.068   1.083   1.086   1.103   1.141
  1.201   1.216   1.336   1.340   1.385   1.423   1.435   1.485
  1.554   1.615   1.625   1.692   1.723   1.762   1.818   1.869
  1.882   1.908   1.952   1.976   2.044   2.091   2.103   2.128
  2.152   2.212   2.219   2.278   2.306   2.327   2.363   2.400
  2.408   2.438   2.447   2.484   2.506   2.516   2.537   2.554
  2.568   2.602   2.618   2.654   2.686   2.704   2.743   2.780
  2.848   2.858   2.980   3.072   3.082   3.293   3.317   3.326
  3.506   3.599   3.682   4.171   4.412   4.486   4.571   4.618
  4.694   4.830
 
 Beta MOs
 -- Occupied --
-14.329 -10.235 -10.231 -10.230 -10.222 -10.217 -10.197  -0.969
 -0.842  -0.747  -0.684  -0.597  -0.577  -0.541  -0.519  -0.464
 -0.441  -0.419  -0.406  -0.373  -0.351  -0.287  -0.275  -0.265
 -- Virtual --
 -0.055  -0.009  -0.002   0.003   0.019   0.031   0.038   0.047
  0.049   0.063   0.072   0.077   0.096   0.101   0.108   0.109
  0.119   0.128   0.131   0.142   0.153   0.164   0.179   0.181
  0.188   0.195   0.197   0.208   0.223   0.228   0.237   0.242
  0.254   0.260   0.272   0.282   0.288   0.312   0.316   0.334
  0.372   0.376   0.386   0.411   0.457   0.633   0.674   0.679
  0.699   0.712   0.728   0.734   0.746   0.749   0.759   0.783
  0.796   0.809   0.818   0.859   0.903   0.919   0.938   0.956
  1.004   1.021   1.037   1.050   1.070   1.087   1.093   1.109
  1.149   1.207   1.220   1.339   1.346   1.387   1.429   1.441
  1.489   1.562   1.621   1.634   1.698   1.731   1.765   1.828
  1.874   1.889   1.914   1.956   1.980   2.050   2.100   2.108
  2.132   2.161   2.220   2.228   2.284   2.312   2.330   2.367
  2.405   2.412   2.445   2.454   2.487   2.509   2.522   2.543
  2.557   2.572   2.610   2.620   2.662   2.693   2.707   2.746
  2.784   2.853   2.861   2.982   3.075   3.084   3.294   3.319
  3.328   3.507   3.602   3.686   4.173   4.422   4.486   4.584
  4.625   4.696   4.834
 --------------------------------------------------------------
 
          Ground-State Mulliken Net Atomic Charges

     Atom                 Charge (a.u.)    Spin (a.u.)
  --------------------------------------------------------
      1 C                    -0.070959      -0.001862
      2 C                     0.006533      -0.101902
      3 C                    -0.200455       0.601425
      4 C                    -0.100347      -0.237139
      5 C                    -0.135696      -0.018962
      6 N                    -0.178795       0.062451
      7 H                     0.132180       0.001595
      8 H                     0.129431       0.011057
      9 H                     0.146911      -0.025691
     10 H                     0.138960       0.010807
     11 H                     0.138640       0.004587
     12 C                    -0.144985       0.720157
     13 H                     0.138582      -0.026525
  --------------------------------------------------------
  Sum of atomic charges =     0.000000
  Sum of spin   charges =     1.000000

 -----------------------------------------------------------------
                    Cartesian Multipole Moments
 -----------------------------------------------------------------
    Charge (ESU x 10^10)
                -0.0000
    Dipole Moment (Debye)
         X      -1.0961      Y      -2.2687      Z       0.5427
       Tot       2.5774
    Quadrupole Moments (Debye-Ang)
        XX     -37.7311     XY      -4.3816     YY     -45.7126
        XZ       1.8456     YZ       1.3119     ZZ     -41.9467
    Octopole Moments (Debye-Ang^2)
       XXX      -6.5336    XXY      -4.9488    XYY      -9.4116
       YYY     -30.6782    XXZ       3.0464    XYZ       0.8702
       YYZ       3.3502    XZZ      -8.6089    YZZ      -9.6074
       ZZZ      12.3608
    Hexadecapole Moments (Debye-Ang^3)
      XXXX    -251.3140   XXXY     -11.5574   XXYY     -86.4580
      XYYY     -25.9794   YYYY    -253.5445   XXXZ      12.8932
      XXYZ      13.5983   XYYZ      13.4342   YYYZ      36.8085
      XXZZ     -81.7740   XYZZ      -6.1695   YYZZ     -75.3021
      XZZZ      16.3727   YZZZ      24.0151   ZZZZ    -212.7426
 -----------------------------------------------------------------
 Calculating analytic gradient of the SCF energy
 Gradient of SCF Energy
            1           2           3           4           5           6
    1  -0.0035746  -0.0009379  -0.0000266   0.0013458   0.0017316   0.0020558
    2   0.0012923   0.0002467   0.0000069  -0.0018780  -0.0005361   0.0000710
    3  -0.0012684   0.0002623   0.0002581  -0.0008949   0.0013433   0.0004430
            7           8           9          10          11          12
    1   0.0004346   0.0000486  -0.0001357  -0.0005397  -0.0003315  -0.0002657
    2   0.0001633  -0.0005890  -0.0000971   0.0000578   0.0003317   0.0005220
    3   0.0001654  -0.0000253   0.0001015   0.0000922  -0.0004706  -0.0002996
           13
    1   0.0001953
    2   0.0004084
    3   0.0002930
 Max gradient component =       3.575E-03
 RMS gradient           =       9.458E-04
 Gradient time:  CPU 17.55 s  wall 5.89 s
 Geometry Optimization Parameters
   NAtoms,    NIC,     NZ,  NCons,   NDum,   NFix, NCnnct, MaxDiis
       13     128       0       0       0       0       0       0

 Cartesian Hessian read from HESS file


** GEOMETRY OPTIMIZATION IN DELOCALIZED INTERNAL COORDINATES **
   Searching for a Transition State

   Optimization Cycle:   1

                       Coordinates (Angstroms)
     ATOM                X               Y               Z
      1  C         1.5166477864    0.4255975744   -0.2648491194
      2  C         0.7017095658   -0.8371498404    0.0257005579
      3  C        -0.5084704804   -0.5662721640   -0.8958874576
      4  C        -1.0896273560    0.3318537656    0.6409572590
      5  C        -0.5758996295    0.9040783389   -0.6799339047
      6  N         0.7973788350    1.4246771414   -0.6267455690
      7  H         2.5833301183    0.5262412780   -0.0707013128
      8  H         1.2181423484   -1.7972604457    0.0069039526
      9  H        -1.1229399370   -1.2412126151   -1.4749500565
     10  H        -2.0610669785    0.6228294423    1.0337533074
     11  H        -1.2815114807    1.5135992720   -1.2389360903
     12  C        -0.1362249567   -0.4920330669    1.2555527619
     13  H        -0.0590431185   -0.8314855379    2.2797001879
   Point Group: c1    Number of degrees of freedom:    33


   Energy is   -286.847514549


 Attempting to Generate Delocalized Internal Coordinates

 Transforming Cartesian Hessian to Internal Coordinates
 Hessian Transformation does not Include Derivative of B-matrix

 33 Hessian modes will be used to form the next step
  Hessian Eigenvalues:
    -0.047909    0.001639    0.002547    0.010196    0.015688    0.021186
     0.024449    0.030620    0.033799    0.036795    0.037191    0.040626
     0.041790    0.065324    0.084744    0.093020    0.109970    0.127601
     0.137481    0.147251    0.148692    0.175486    0.194811    0.260189
     0.275599    0.327833    0.348292    0.355248    0.356486    0.357676
     0.371745    0.374216    0.567965

 Transition State Search - Taking P-RFO Step
 Searching for Lamda that Maximizes Along the Lowest mode
 Value Taken    Lamda =   0.00000961
 Searching for Lamda that Minimizes Along All other modes
 Value Taken    Lamda =  -0.00008378
 Calculated Step too Large.  Step scaled by  0.745595
 Step Taken.  Stepsize is  0.100000

                             Maximum     Tolerance    Cnvgd?
         Gradient           0.001913      0.000010      NO
         Displacement       0.073465      0.001200      NO
         Energy change     *********      0.000001      NO


 New Cartesian Coordinates Obtained by Inverse Iteration

 Displacement from previous Coordinates is:  0.043734
 ----------------------------------------------------------------
             Standard Nuclear Orientation (Angstroms)
    I     Atom           X                Y                Z
 ----------------------------------------------------------------
    1      C       1.5190111887     0.4256531244    -0.2663749039
    2      C       0.7032821872    -0.8352395649     0.0282239960
    3      C      -0.5122786312    -0.5667287494    -0.8894011743
    4      C      -1.0889489777     0.3354402154     0.6426117639
    5      C      -0.5769227999     0.9042765995    -0.6811956667
    6      N       0.7965183397     1.4227820609    -0.6315934841
    7      H       2.5854645584     0.5272333915    -0.0754917910
    8      H       1.2192943451    -1.7949131426     0.0111224347
    9      H      -1.1190949649    -1.2402382275    -1.4782620473
   10      H      -2.0603099009     0.6248302550     1.0348226240
   11      H      -1.2830724875     1.5124907200    -1.2394195721
   12      C      -0.1327348232    -0.4868963004     1.2587346893
   13      H      -0.0677833170    -0.8452272393     2.2767876479
 ----------------------------------------------------------------
 Nuclear Repulsion Energy =   281.0377762191 hartrees
 There are       25 alpha and       24 beta electrons
 Applying Cartesian multipole field
    Component          Value
    ---------          -----
     (2,0,0)        1.00000E-11
     (0,2,0)        2.00000E-11
     (0,0,2)       -3.00000E-11
 Nucleus-field energy     =     0.0000000008 hartrees
 Requested basis set is 6-31+G(d,p)
 There are 53 shells and 163 basis functions
 A cutoff of  1.0D-14 yielded   1405 shell pairs
 There are     13515 function pairs
 Smallest overlap matrix eigenvalue = 2.76E-05
 Guess MOs from SCF MO coefficient file
 Reading MOs from coefficient file
 Reading MOs from coefficient file
 An unrestricted hybrid HF-DFT SCF calculation will be
 performed using Pulay DIIS extrapolation
 Exchange:     0.2000 Hartree-Fock + 0.0800 Slater + 0.7200 B88
 Correlation:  0.1900 VWN1RPA + 0.8100 LYP
 Using SG-1 standard quadrature grid
 SCF converges when DIIS error is below 1.0E-08
 Geometry optimization detected.  Setting ReadMinima to 0
 Setting SaveMinima to 0
Using Q-Chem read-in guess as SCF_GUESS READ specified.

 using 4 threads for integral computing
 -------------------------------------------------------
 OpenMP Integral computing Module                
 Release: version 1.0, May 2013, Q-Chem Inc. Pittsburgh 
 -------------------------------------------------------
 -------------------------------------------------------
 OpenMP BLAS3 based DFT computing Module                
 Release: version 1.0, May 2013, Q-Chem Inc. Pittsburgh 
 -------------------------------------------------------
 ---------------------------------------
  Cycle       Energy         DIIS Error
 ---------------------------------------
    1    -286.8473261980      1.90E-04
    2    -286.8475398602      4.20E-05
    3    -286.8475374518      5.87E-05
    4    -286.8475493814      9.97E-06
    5    -286.8475498283      4.60E-06
    6    -286.8475499792      2.33E-06
    7    -286.8475500472      1.11E-06
    8    -286.8475500673      4.11E-07
    9    -286.8475500741      3.27E-07
   10    -286.8475500764      9.43E-08
   11    -286.8475500768      2.73E-08
   12    -286.8475500768      1.56E-08
   13    -286.8475500768      3.32E-09 Convergence criterion met
 ---------------------------------------
 <S^2> = 0.7775
 SCF time:  CPU 67.13 s  wall 35.48 s
 SCF   energy in the final basis set = -286.84755008
 Total energy in the final basis set = -286.84755008
 
 --------------------------------------------------------------
 
                    Orbital Energies (a.u.)
 --------------------------------------------------------------
 
 Alpha MOs
 -- Occupied --
-14.330 -10.235 -10.230 -10.229 -10.226 -10.221 -10.206  -0.973
 -0.849  -0.751  -0.696  -0.601  -0.585  -0.547  -0.522  -0.472
 -0.444  -0.424  -0.409  -0.378  -0.356  -0.296  -0.284  -0.277
 -0.157
 -- Virtual --
 -0.017  -0.010   0.001   0.018   0.029   0.033   0.046   0.048
  0.063   0.071   0.074   0.095   0.100   0.107   0.109   0.118
  0.124   0.129   0.141   0.153   0.165   0.178   0.180   0.185
  0.192   0.196   0.207   0.218   0.225   0.234   0.240   0.251
  0.259   0.268   0.281   0.287   0.309   0.313   0.331   0.368
  0.372   0.382   0.407   0.455   0.629   0.668   0.676   0.695
  0.699   0.714   0.725   0.734   0.744   0.753   0.777   0.793
  0.807   0.814   0.858   0.900   0.917   0.935   0.955   1.002
  1.016   1.033   1.047   1.069   1.083   1.091   1.104   1.140
  1.202   1.217   1.331   1.339   1.384   1.421   1.437   1.487
  1.557   1.619   1.626   1.691   1.723   1.765   1.817   1.866
  1.880   1.908   1.952   1.978   2.043   2.092   2.103   2.127
  2.155   2.212   2.219   2.278   2.305   2.327   2.363   2.398
  2.405   2.437   2.447   2.485   2.505   2.519   2.535   2.553
  2.569   2.604   2.618   2.654   2.686   2.703   2.744   2.778
  2.850   2.857   2.981   3.072   3.083   3.292   3.316   3.326
  3.508   3.599   3.685   4.171   4.412   4.486   4.570   4.619
  4.694   4.830
 
 Beta MOs
 -- Occupied --
-14.329 -10.235 -10.231 -10.230 -10.222 -10.217 -10.197  -0.968
 -0.842  -0.747  -0.684  -0.597  -0.577  -0.541  -0.519  -0.464
 -0.441  -0.419  -0.406  -0.373  -0.351  -0.287  -0.275  -0.265
 -- Virtual --
 -0.055  -0.009  -0.002   0.003   0.019   0.031   0.038   0.047
  0.049   0.063   0.072   0.077   0.096   0.101   0.108   0.109
  0.119   0.128   0.132   0.142   0.153   0.164   0.179   0.181
  0.188   0.195   0.197   0.208   0.223   0.228   0.237   0.242
  0.254   0.260   0.273   0.282   0.288   0.312   0.316   0.333
  0.372   0.376   0.385   0.411   0.457   0.633   0.674   0.679
  0.699   0.711   0.727   0.734   0.745   0.749   0.759   0.784
  0.796   0.808   0.817   0.859   0.904   0.919   0.938   0.957
  1.005   1.020   1.036   1.050   1.071   1.087   1.098   1.109
  1.148   1.207   1.220   1.335   1.345   1.387   1.426   1.442
  1.490   1.565   1.625   1.635   1.698   1.731   1.768   1.828
  1.871   1.886   1.913   1.956   1.983   2.049   2.102   2.108
  2.130   2.164   2.220   2.228   2.284   2.311   2.330   2.367
  2.404   2.408   2.444   2.454   2.488   2.508   2.524   2.542
  2.556   2.572   2.613   2.620   2.663   2.693   2.706   2.747
  2.783   2.855   2.861   2.983   3.074   3.084   3.293   3.319
  3.328   3.509   3.602   3.689   4.173   4.423   4.486   4.582
  4.626   4.696   4.834
 --------------------------------------------------------------
 
          Ground-State Mulliken Net Atomic Charges

     Atom                 Charge (a.u.)    Spin (a.u.)
  --------------------------------------------------------
      1 C                    -0.070277      -0.002040
      2 C                     0.003150      -0.101940
      3 C                    -0.199883       0.596771
      4 C                    -0.102043      -0.235141
      5 C                    -0.134420      -0.020026
      6 N                    -0.179266       0.062476
      7 H                     0.132556       0.001566
      8 H                     0.129227       0.010789
      9 H                     0.146265      -0.024876
     10 H                     0.139127       0.010506
     11 H                     0.138820       0.004434
     12 C                    -0.142121       0.725369
     13 H                     0.138865      -0.027887
  --------------------------------------------------------
  Sum of atomic charges =    -0.000000
  Sum of spin   charges =     1.000000

 -----------------------------------------------------------------
                    Cartesian Multipole Moments
 -----------------------------------------------------------------
    Charge (ESU x 10^10)
                -0.0000
    Dipole Moment (Debye)
         X      -1.1041      Y      -2.2827      Z       0.5284
       Tot       2.5902
    Quadrupole Moments (Debye-Ang)
        XX     -37.7072     XY      -4.3919     YY     -45.6914
        XZ       1.8066     YZ       1.2863     ZZ     -41.9663
    Octopole Moments (Debye-Ang^2)
       XXX      -6.4871    XXY      -4.9422    XYY      -9.4389
       YYY     -30.8403    XXZ       3.0148    XYZ       0.9181
       YYZ       3.4336    XZZ      -8.7450    YZZ      -9.7951
       ZZZ      12.0665
    Hexadecapole Moments (Debye-Ang^3)
      XXXX    -251.3559   XXXY     -11.5060   XXYY     -86.4541
      XYYY     -25.8967   YYYY    -253.2266   XXXZ      12.8211
      XXYZ      13.6126   XYYZ      13.4363   YYYZ      36.8838
      XXZZ     -81.8969   XYZZ      -6.1523   YYZZ     -75.1783
      XZZZ      16.2467   YZZZ      24.0468   ZZZZ    -213.2407
 -----------------------------------------------------------------
 Calculating analytic gradient of the SCF energy
 Gradient of SCF Energy
            1           2           3           4           5           6
    1  -0.0009244  -0.0002521  -0.0000004   0.0003697   0.0004534   0.0005195
    2   0.0003450   0.0000651  -0.0000015  -0.0004798  -0.0001374   0.0000051
    3  -0.0003376   0.0000717   0.0000456  -0.0002129   0.0003414   0.0001090
            7           8           9          10          11          12
    1   0.0001072   0.0000126  -0.0000286  -0.0001359  -0.0000838  -0.0001087
    2   0.0000428  -0.0001486  -0.0000362   0.0000176   0.0000757   0.0001019
    3   0.0000375   0.0000012   0.0000465   0.0000201  -0.0001289  -0.0000668
           13
    1   0.0000716
    2   0.0001503
    3   0.0000732
 Max gradient component =       9.244E-04
 RMS gradient           =       2.453E-04
 Gradient time:  CPU 17.35 s  wall 5.06 s
 Geometry Optimization Parameters
   NAtoms,    NIC,     NZ,  NCons,   NDum,   NFix, NCnnct, MaxDiis
       13     128       0       0       0       0       0       0

 Cartesian Hessian Update
 Hessian Updated using Powell/Murtagh-Sargent Update
  Mixing factors:     0.982749 Powell
                      0.017251 Murtagh-Sargent


** GEOMETRY OPTIMIZATION IN DELOCALIZED INTERNAL COORDINATES **
   Searching for a Transition State

   Optimization Cycle:   2

                       Coordinates (Angstroms)
     ATOM                X               Y               Z
      1  C         1.5190111887    0.4256531244   -0.2663749039
      2  C         0.7032821872   -0.8352395649    0.0282239960
      3  C        -0.5122786312   -0.5667287494   -0.8894011743
      4  C        -1.0889489777    0.3354402154    0.6426117639
      5  C        -0.5769227999    0.9042765995   -0.6811956667
      6  N         0.7965183397    1.4227820609   -0.6315934841
      7  H         2.5854645584    0.5272333915   -0.0754917910
      8  H         1.2192943451   -1.7949131426    0.0111224347
      9  H        -1.1190949649   -1.2402382275   -1.4782620473
     10  H        -2.0603099009    0.6248302550    1.0348226240
     11  H        -1.2830724875    1.5124907200   -1.2394195721
     12  C        -0.1327348232   -0.4868963004    1.2587346893
     13  H        -0.0677833170   -0.8452272393    2.2767876479
   Point Group: c1    Number of degrees of freedom:    33


   Energy is   -286.847550077

 Hessian Updated using Powell/Murtagh-Sargent Update
  Mixing factors:     0.922622 Powell
                      0.077378 Murtagh-Sargent

 33 Hessian modes will be used to form the next step
  Hessian Eigenvalues:
    -0.047925    0.001588    0.002509    0.010196    0.015689    0.021188
     0.024449    0.030621    0.033799    0.036793    0.037190    0.040622
     0.041790    0.065324    0.084744    0.093020    0.109969    0.127598
     0.137476    0.147251    0.148692    0.175487    0.194795    0.260166
     0.275591    0.327819    0.348292    0.355248    0.356487    0.357676
     0.371724    0.374211    0.567913

 Transition State Search - Taking P-RFO Step
 Searching for Lamda that Maximizes Along the Lowest mode
 Value Taken    Lamda =   0.00000057
 Searching for Lamda that Minimizes Along All other modes
 Value Taken    Lamda =  -0.00000759
 Step Taken.  Stepsize is  0.049668

                             Maximum     Tolerance    Cnvgd?
         Gradient           0.000485      0.000010      NO
         Displacement       0.033808      0.001200      NO
         Energy change     -0.000036      0.000001      NO


 New Cartesian Coordinates Obtained by Inverse Iteration

 Displacement from previous Coordinates is:  0.022151
 ----------------------------------------------------------------
             Standard Nuclear Orientation (Angstroms)
    I     Atom           X                Y                Z
 ----------------------------------------------------------------
    1      C       1.5199541591     0.4258172165    -0.2673265619
    2      C       0.7040052588    -0.8342626069     0.0294662457
    3      C      -0.5137728077    -0.5670152554    -0.8865808700
    4      C      -1.0884705592     0.3371453022     0.6434659472
    5      C      -0.5772909614     0.9043188183    -0.6816097086
    6      N       0.7962787413     1.4221341749    -0.6338983060
    7      H       2.5864118644     0.5277597519    -0.0780392023
    8      H       1.2198369898    -1.7938081780     0.0133750132
    9      H      -1.1173904023    -1.2399452588    -1.4794857904
   10      H      -2.0598576884     0.6258007389     1.0354691365
   11      H      -1.2837687102     1.5118635811    -1.2396327394
   12      C      -0.1308653366    -0.4840338842     1.2603217316
   13      H      -0.0726458311    -0.8523112580     2.2750396208
 ----------------------------------------------------------------
 Nuclear Repulsion Energy =   281.0193805092 hartrees
 There are       25 alpha and       24 beta electrons
 Applying Cartesian multipole field
    Component          Value
    ---------          -----
     (2,0,0)        1.00000E-11
     (0,2,0)        2.00000E-11
     (0,0,2)       -3.00000E-11
 Nucleus-field energy     =     0.0000000008 hartrees
 Requested basis set is 6-31+G(d,p)
 There are 53 shells and 163 basis functions
 A cutoff of  1.0D-14 yielded   1405 shell pairs
 There are     13515 function pairs
 Smallest overlap matrix eigenvalue = 2.76E-05
 Guess MOs from SCF MO coefficient file
 Reading MOs from coefficient file
 Reading MOs from coefficient file
 An unrestricted hybrid HF-DFT SCF calculation will be
 performed using Pulay DIIS extrapolation
 Exchange:     0.2000 Hartree-Fock + 0.0800 Slater + 0.7200 B88
 Correlation:  0.1900 VWN1RPA + 0.8100 LYP
 Using SG-1 standard quadrature grid
 SCF converges when DIIS error is below 1.0E-08
 Geometry optimization detected.  Setting ReadMinima to 0
 Setting SaveMinima to 0
Using Q-Chem read-in guess as SCF_GUESS READ specified.

 using 4 threads for integral computing
 -------------------------------------------------------
 OpenMP Integral computing Module                
 Release: version 1.0, May 2013, Q-Chem Inc. Pittsburgh 
 -------------------------------------------------------
 -------------------------------------------------------
 OpenMP BLAS3 based DFT computing Module                
 Release: version 1.0, May 2013, Q-Chem Inc. Pittsburgh 
 -------------------------------------------------------
 ---------------------------------------
  Cycle       Energy         DIIS Error
 ---------------------------------------
    1    -286.8474727269      8.37E-05
    2    -286.8475519478      1.70E-05
    3    -286.8475518094      2.33E-05
    4    -286.8475537245      3.85E-06
    5    -286.8475538022      1.74E-06
    6    -286.8475538242      1.07E-06
    7    -286.8475538344      3.88E-07
    8    -286.8475538368      1.70E-07
    9    -286.8475538377      1.20E-07
   10    -286.8475538380      4.06E-08
   11    -286.8475538381      1.25E-08
   12    -286.8475538381      6.65E-09 Convergence criterion met
 ---------------------------------------
 <S^2> = 0.7774
 SCF time:  CPU 61.61 s  wall 30.38 s
 SCF   energy in the final basis set = -286.84755384
 Total energy in the final basis set = -286.84755384
 
 --------------------------------------------------------------
 
                    Orbital Energies (a.u.)
 --------------------------------------------------------------
 
 Alpha MOs
 -- Occupied --
-14.330 -10.235 -10.230 -10.229 -10.226 -10.221 -10.206  -0.972
 -0.849  -0.751  -0.696  -0.601  -0.585  -0.548  -0.522  -0.472
 -0.444  -0.424  -0.409  -0.378  -0.356  -0.296  -0.284  -0.277
 -0.157
 -- Virtual --
 -0.017  -0.010   0.001   0.018   0.029   0.033   0.046   0.048
  0.063   0.071   0.074   0.095   0.100   0.107   0.109   0.118
  0.124   0.129   0.141   0.153   0.165   0.178   0.180   0.185
  0.192   0.197   0.207   0.218   0.225   0.234   0.240   0.251
  0.259   0.268   0.281   0.287   0.309   0.313   0.331   0.368
  0.372   0.382   0.407   0.455   0.629   0.668   0.676   0.695
  0.699   0.714   0.725   0.734   0.744   0.753   0.778   0.793
  0.806   0.814   0.858   0.901   0.917   0.936   0.955   1.002
  1.015   1.033   1.047   1.069   1.082   1.094   1.104   1.139
  1.202   1.217   1.327   1.340   1.384   1.420   1.437   1.487
  1.558   1.621   1.626   1.691   1.724   1.767   1.817   1.865
  1.879   1.908   1.952   1.980   2.042   2.093   2.104   2.126
  2.156   2.212   2.220   2.277   2.304   2.327   2.363   2.397
  2.404   2.437   2.447   2.485   2.504   2.520   2.534   2.553
  2.569   2.606   2.618   2.655   2.686   2.703   2.745   2.778
  2.852   2.857   2.981   3.071   3.083   3.291   3.316   3.326
  3.508   3.599   3.687   4.171   4.413   4.487   4.569   4.620
  4.694   4.830
 
 Beta MOs
 -- Occupied --
-14.329 -10.235 -10.231 -10.230 -10.222 -10.217 -10.197  -0.968
 -0.841  -0.747  -0.684  -0.597  -0.577  -0.541  -0.519  -0.463
 -0.441  -0.419  -0.406  -0.373  -0.351  -0.287  -0.275  -0.265
 -- Virtual --
 -0.054  -0.009  -0.002   0.003   0.019   0.031   0.038   0.047
  0.049   0.063   0.072   0.077   0.096   0.101   0.108   0.109
  0.119   0.128   0.132   0.142   0.153   0.164   0.179   0.181
  0.188   0.195   0.197   0.208   0.223   0.228   0.237   0.242
  0.254   0.260   0.273   0.282   0.288   0.312   0.315   0.333
  0.372   0.376   0.385   0.411   0.457   0.634   0.674   0.678
  0.699   0.711   0.727   0.734   0.744   0.749   0.759   0.784
  0.796   0.808   0.817   0.859   0.905   0.919   0.939   0.957
  1.005   1.019   1.036   1.049   1.071   1.087   1.101   1.109
  1.148   1.207   1.221   1.331   1.345   1.387   1.425   1.442
  1.491   1.566   1.626   1.635   1.698   1.731   1.770   1.828
  1.870   1.885   1.913   1.956   1.984   2.048   2.102   2.109
  2.130   2.165   2.220   2.229   2.283   2.310   2.330   2.367
  2.403   2.406   2.443   2.454   2.489   2.508   2.525   2.542
  2.556   2.572   2.614   2.620   2.664   2.692   2.706   2.747
  2.782   2.856   2.861   2.983   3.074   3.085   3.293   3.318
  3.327   3.510   3.602   3.691   4.173   4.423   4.486   4.582
  4.626   4.696   4.835
 --------------------------------------------------------------
 
          Ground-State Mulliken Net Atomic Charges

     Atom                 Charge (a.u.)    Spin (a.u.)
  --------------------------------------------------------
      1 C                    -0.069889      -0.002266
      2 C                     0.001493      -0.101933
      3 C                    -0.199821       0.595740
      4 C                    -0.102838      -0.234219
      5 C                    -0.133687      -0.020793
      6 N                    -0.179452       0.062420
      7 H                     0.132694       0.001552
      8 H                     0.129152       0.010635
      9 H                     0.145986      -0.024533
     10 H                     0.139202       0.010369
     11 H                     0.138896       0.004357
     12 C                    -0.140749       0.727222
     13 H                     0.139012      -0.028552
  --------------------------------------------------------
  Sum of atomic charges =     0.000000
  Sum of spin   charges =     1.000000

 -----------------------------------------------------------------
                    Cartesian Multipole Moments
 -----------------------------------------------------------------
    Charge (ESU x 10^10)
                 0.0000
    Dipole Moment (Debye)
         X      -1.1086      Y      -2.2906      Z       0.5226
       Tot       2.5979
    Quadrupole Moments (Debye-Ang)
        XX     -37.6975     XY      -4.3939     YY     -45.6782
        XZ       1.7849     YZ       1.2706     ZZ     -41.9806
    Octopole Moments (Debye-Ang^2)
       XXX      -6.4830    XXY      -4.9468    XYY      -9.4560
       YYY     -30.9342    XXZ       3.0001    XYZ       0.9417
       YYZ       3.4805    XZZ      -8.8144    YZZ      -9.8902
       ZZZ      11.9311
    Hexadecapole Moments (Debye-Ang^3)
      XXXX    -251.3633   XXXY     -11.4864   XXYY     -86.4488
      XYYY     -25.8606   YYYY    -253.0784   XXXZ      12.7945
      XXYZ      13.6148   XYYZ      13.4365   YYYZ      36.9021
      XXZZ     -81.9509   XYZZ      -6.1400   YYZZ     -75.1208
      XZZZ      16.1854   YZZZ      24.0368   ZZZZ    -213.5359
 -----------------------------------------------------------------
 Calculating analytic gradient of the SCF energy
 Gradient of SCF Energy
            1           2           3           4           5           6
    1  -0.0000110  -0.0000091   0.0000048   0.0000165   0.0000074  -0.0000041
    2   0.0000057  -0.0000001  -0.0000052   0.0000026  -0.0000054  -0.0000048
    3  -0.0000116   0.0000076  -0.0000156   0.0000213  -0.0000064  -0.0000121
            7           8           9          10          11          12
    1  -0.0000019   0.0000016   0.0000052   0.0000016  -0.0000030  -0.0000168
    2   0.0000027   0.0000015  -0.0000174   0.0000051  -0.0000122  -0.0000098
    3  -0.0000086   0.0000136   0.0000179  -0.0000020  -0.0000112   0.0000017
           13
    1   0.0000088
    2   0.0000375
    3   0.0000054
 Max gradient component =       3.745E-05
 RMS gradient           =       1.120E-05
 Gradient time:  CPU 17.67 s  wall 5.39 s
 Geometry Optimization Parameters
   NAtoms,    NIC,     NZ,  NCons,   NDum,   NFix, NCnnct, MaxDiis
       13     128       0       0       0       0       0       0

 Cartesian Hessian Update
 Hessian Updated using Powell/Murtagh-Sargent Update
  Mixing factors:     0.986345 Powell
                      0.013655 Murtagh-Sargent


** GEOMETRY OPTIMIZATION IN DELOCALIZED INTERNAL COORDINATES **
   Searching for a Transition State

   Optimization Cycle:   3

                       Coordinates (Angstroms)
     ATOM                X               Y               Z
      1  C         1.5199541591    0.4258172165   -0.2673265619
      2  C         0.7040052588   -0.8342626069    0.0294662457
      3  C        -0.5137728077   -0.5670152554   -0.8865808700
      4  C        -1.0884705592    0.3371453022    0.6434659472
      5  C        -0.5772909614    0.9043188183   -0.6816097086
      6  N         0.7962787413    1.4221341749   -0.6338983060
      7  H         2.5864118644    0.5277597519   -0.0780392023
      8  H         1.2198369898   -1.7938081780    0.0133750132
      9  H        -1.1173904023   -1.2399452588   -1.4794857904
     10  H        -2.0598576884    0.6258007389    1.0354691365
     11  H        -1.2837687102    1.5118635811   -1.2396327394
     12  C        -0.1308653366   -0.4840338842    1.2603217316
     13  H        -0.0726458311   -0.8523112580    2.2750396208
   Point Group: c1    Number of degrees of freedom:    33


   Energy is   -286.847553838

 Hessian Updated using Powell/Murtagh-Sargent Update
  Mixing factors:     0.879727 Powell
                      0.120273 Murtagh-Sargent

 33 Hessian modes will be used to form the next step
  Hessian Eigenvalues:
    -0.047987    0.001467    0.002474    0.010197    0.015690    0.021191
     0.024449    0.030622    0.033799    0.036791    0.037190    0.040611
     0.041785    0.065322    0.084738    0.093012    0.109969    0.127596
     0.137475    0.147251    0.148689    0.175486    0.194773    0.260120
     0.275582    0.327785    0.348292    0.355248    0.356487    0.357675
     0.371707    0.374207    0.567876

 Transition State Search - Taking P-RFO Step
 Searching for Lamda that Maximizes Along the Lowest mode
 Value Taken    Lamda =   0.00000000
 Searching for Lamda that Minimizes Along All other modes
 Value Taken    Lamda =   0.00000000
 Step Taken.  Stepsize is  0.006730

                             Maximum     Tolerance    Cnvgd?
         Gradient           0.000017      0.000010      NO
         Displacement       0.003545      0.001200      NO
         Energy change     -0.000004      0.000001      NO


 New Cartesian Coordinates Obtained by Inverse Iteration

 Displacement from previous Coordinates is:  0.003120
 ----------------------------------------------------------------
             Standard Nuclear Orientation (Angstroms)
    I     Atom           X                Y                Z
 ----------------------------------------------------------------
    1      C       1.5200175892     0.4258871807    -0.2674924398
    2      C       0.7040930143    -0.8341237823     0.0296178461
    3      C      -0.5138236743    -0.5670896138    -0.8863604372
    4      C      -1.0883740671     0.3373673747     0.6435784656
    5      C      -0.5773086353     0.9042937100    -0.6816083330
    6      N       0.7962936072     1.4221318695    -0.6341577794
    7      H       2.5865037431     0.5278563325    -0.0783760758
    8      H       1.2199154053    -1.7936748067     0.0137148123
    9      H      -1.1173050561    -1.2399639544    -1.4794878908
   10      H      -2.0597768039     0.6259645248     1.0355800294
   11      H      -1.2838303159     1.5117441765    -1.2396797539
   12      C      -0.1305996837    -0.4835585560     1.2605151976
   13      H      -0.0733804064    -0.8533713129     2.2747208754
 ----------------------------------------------------------------
 Nuclear Repulsion Energy =   281.0182594949 hartrees
 There are       25 alpha and       24 beta electrons
 Applying Cartesian multipole field
    Component          Value
    ---------          -----
     (2,0,0)        1.00000E-11
     (0,2,0)        2.00000E-11
     (0,0,2)       -3.00000E-11
 Nucleus-field energy     =     0.0000000008 hartrees
 Requested basis set is 6-31+G(d,p)
 There are 53 shells and 163 basis functions
 A cutoff of  1.0D-14 yielded   1405 shell pairs
 There are     13515 function pairs
 Smallest overlap matrix eigenvalue = 2.76E-05
 Guess MOs from SCF MO coefficient file
 Reading MOs from coefficient file
 Reading MOs from coefficient file
 An unrestricted hybrid HF-DFT SCF calculation will be
 performed using Pulay DIIS extrapolation
 Exchange:     0.2000 Hartree-Fock + 0.0800 Slater + 0.7200 B88
 Correlation:  0.1900 VWN1RPA + 0.8100 LYP
 Using SG-1 standard quadrature grid
 SCF converges when DIIS error is below 1.0E-08
 Geometry optimization detected.  Setting ReadMinima to 0
 Setting SaveMinima to 0
Using Q-Chem read-in guess as SCF_GUESS READ specified.

 using 4 threads for integral computing
 -------------------------------------------------------
 OpenMP Integral computing Module                
 Release: version 1.0, May 2013, Q-Chem Inc. Pittsburgh 
 -------------------------------------------------------
 -------------------------------------------------------
 OpenMP BLAS3 based DFT computing Module                
 Release: version 1.0, May 2013, Q-Chem Inc. Pittsburgh 
 -------------------------------------------------------
 ---------------------------------------
  Cycle       Energy         DIIS Error
 ---------------------------------------
    1    -286.8475498756      9.64E-06
    2    -286.8475538524      1.59E-06
    3    -286.8475538595      1.99E-06
    4    -286.8475538737      4.25E-07
    5    -286.8475538747      2.26E-07
    6    -286.8475538749      1.08E-07
    7    -286.8475538750      3.10E-08
    8    -286.8475538750      1.42E-08
    9    -286.8475538750      5.72E-09 Convergence criterion met
 ---------------------------------------
 <S^2> = 0.7774
 SCF time:  CPU 46.28 s  wall 24.50 s
 SCF   energy in the final basis set = -286.84755387
 Total energy in the final basis set = -286.84755387
 
 --------------------------------------------------------------
 
                    Orbital Energies (a.u.)
 --------------------------------------------------------------
 
 Alpha MOs
 -- Occupied --
-14.330 -10.235 -10.230 -10.229 -10.226 -10.221 -10.206  -0.972
 -0.849  -0.751  -0.696  -0.601  -0.585  -0.548  -0.522  -0.472
 -0.444  -0.424  -0.409  -0.378  -0.356  -0.296  -0.284  -0.277
 -0.157
 -- Virtual --
 -0.017  -0.010   0.001   0.018   0.029   0.033   0.046   0.048
  0.063   0.071   0.074   0.095   0.100   0.107   0.109   0.118
  0.124   0.129   0.141   0.153   0.165   0.178   0.180   0.185
  0.192   0.197   0.207   0.218   0.225   0.234   0.240   0.251
  0.259   0.268   0.281   0.287   0.309   0.313   0.331   0.368
  0.372   0.382   0.407   0.455   0.629   0.668   0.675   0.695
  0.699   0.714   0.725   0.734   0.744   0.753   0.778   0.793
  0.806   0.814   0.858   0.901   0.917   0.936   0.955   1.002
  1.015   1.033   1.047   1.070   1.082   1.094   1.104   1.139
  1.202   1.217   1.327   1.340   1.384   1.419   1.437   1.487
  1.558   1.621   1.626   1.691   1.724   1.767   1.817   1.865
  1.879   1.908   1.952   1.980   2.042   2.093   2.104   2.126
  2.156   2.212   2.220   2.277   2.304   2.327   2.363   2.397
  2.404   2.437   2.447   2.485   2.504   2.520   2.534   2.553
  2.569   2.606   2.618   2.655   2.686   2.703   2.745   2.777
  2.852   2.857   2.981   3.071   3.083   3.291   3.316   3.326
  3.508   3.599   3.687   4.171   4.413   4.487   4.569   4.620
  4.694   4.830
 
 Beta MOs
 -- Occupied --
-14.329 -10.235 -10.231 -10.230 -10.222 -10.217 -10.197  -0.968
 -0.841  -0.747  -0.684  -0.597  -0.577  -0.541  -0.519  -0.463
 -0.441  -0.419  -0.406  -0.373  -0.351  -0.287  -0.275  -0.265
 -- Virtual --
 -0.054  -0.009  -0.002   0.003   0.019   0.031   0.038   0.047
  0.049   0.063   0.072   0.077   0.096   0.101   0.108   0.109
  0.119   0.128   0.132   0.142   0.153   0.164   0.179   0.181
  0.188   0.195   0.197   0.208   0.223   0.228   0.237   0.242
  0.254   0.260   0.273   0.282   0.288   0.312   0.315   0.333
  0.372   0.376   0.385   0.411   0.457   0.634   0.674   0.678
  0.700   0.711   0.727   0.734   0.744   0.749   0.759   0.784
  0.796   0.808   0.817   0.859   0.905   0.919   0.939   0.958
  1.005   1.019   1.036   1.049   1.071   1.087   1.101   1.109
  1.147   1.207   1.221   1.331   1.346   1.387   1.425   1.442
  1.491   1.566   1.626   1.635   1.698   1.732   1.770   1.828
  1.870   1.885   1.913   1.956   1.984   2.048   2.102   2.109
  2.129   2.165   2.220   2.229   2.283   2.310   2.330   2.367
  2.403   2.406   2.443   2.454   2.489   2.508   2.525   2.542
  2.556   2.573   2.614   2.620   2.664   2.692   2.706   2.747
  2.782   2.856   2.861   2.983   3.074   3.085   3.293   3.318
  3.327   3.509   3.602   3.691   4.173   4.423   4.487   4.581
  4.626   4.696   4.835
 --------------------------------------------------------------
 
          Ground-State Mulliken Net Atomic Charges

     Atom                 Charge (a.u.)    Spin (a.u.)
  --------------------------------------------------------
      1 C                    -0.069824      -0.002334
      2 C                     0.001284      -0.101934
      3 C                    -0.199883       0.596098
      4 C                    -0.102934      -0.234133
      5 C                    -0.133545      -0.020980
      6 N                    -0.179468       0.062400
      7 H                     0.132699       0.001550
      8 H                     0.129148       0.010609
      9 H                     0.145967      -0.024522
     10 H                     0.139210       0.010355
     11 H                     0.138901       0.004347
     12 C                    -0.140592       0.727180
     13 H                     0.139037      -0.028636
  --------------------------------------------------------
  Sum of atomic charges =     0.000000
  Sum of spin   charges =     1.000000

 -----------------------------------------------------------------
                    Cartesian Multipole Moments
 -----------------------------------------------------------------
    Charge (ESU x 10^10)
                 0.0000
    Dipole Moment (Debye)
         X      -1.1094      Y      -2.2919      Z       0.5224
       Tot       2.5993
    Quadrupole Moments (Debye-Ang)
        XX     -37.6965     XY      -4.3932     YY     -45.6757
        XZ       1.7818     YZ       1.2673     ZZ     -41.9839
    Octopole Moments (Debye-Ang^2)
       XXX      -6.4883    XXY      -4.9498    XYY      -9.4593
       YYY     -30.9507    XXZ       2.9986    XYZ       0.9444
       YYZ       3.4888    XZZ      -8.8236    YZZ      -9.9034
       ZZZ      11.9187
    Hexadecapole Moments (Debye-Ang^3)
      XXXX    -251.3599   XXXY     -11.4843   XXYY     -86.4466
      XYYY     -25.8567   YYYY    -253.0626   XXXZ      12.7943
      XXYZ      13.6139   XYYZ      13.4362   YYYZ      36.8971
      XXZZ     -81.9557   XYZZ      -6.1373   YYZZ     -75.1139
      XZZZ      16.1784   YZZZ      24.0238   ZZZZ    -213.5886
 -----------------------------------------------------------------
 Calculating analytic gradient of the SCF energy
 Gradient of SCF Energy
            1           2           3           4           5           6
    1  -0.0000015   0.0000003   0.0000027   0.0000007  -0.0000023  -0.0000032
    2  -0.0000004   0.0000005  -0.0000094   0.0000046  -0.0000069  -0.0000035
    3  -0.0000064   0.0000063   0.0000019   0.0000017  -0.0000065  -0.0000137
            7           8           9          10          11          12
    1  -0.0000007   0.0000023  -0.0000017   0.0000010  -0.0000040   0.0000016
    2   0.0000026   0.0000015  -0.0000142   0.0000066  -0.0000121   0.0000111
    3  -0.0000088   0.0000135   0.0000129  -0.0000016  -0.0000110   0.0000053
           13
    1   0.0000047
    2   0.0000197
    3   0.0000064
 Max gradient component =       1.967E-05
 RMS gradient           =       7.322E-06
 Gradient time:  CPU 17.60 s  wall 5.24 s
 Geometry Optimization Parameters
   NAtoms,    NIC,     NZ,  NCons,   NDum,   NFix, NCnnct, MaxDiis
       13     128       0       0       0       0       0       0

 Cartesian Hessian Update
 Hessian Updated using Powell/Murtagh-Sargent Update
**WARNING** Small Scalar Product
 Hessian Update Skipped this cycle


** GEOMETRY OPTIMIZATION IN DELOCALIZED INTERNAL COORDINATES **
   Searching for a Transition State

   Optimization Cycle:   4

                       Coordinates (Angstroms)
     ATOM                X               Y               Z
      1  C         1.5200175892    0.4258871807   -0.2674924398
      2  C         0.7040930143   -0.8341237823    0.0296178461
      3  C        -0.5138236743   -0.5670896138   -0.8863604372
      4  C        -1.0883740671    0.3373673747    0.6435784656
      5  C        -0.5773086353    0.9042937100   -0.6816083330
      6  N         0.7962936072    1.4221318695   -0.6341577794
      7  H         2.5865037431    0.5278563325   -0.0783760758
      8  H         1.2199154053   -1.7936748067    0.0137148123
      9  H        -1.1173050561   -1.2399639544   -1.4794878908
     10  H        -2.0597768039    0.6259645248    1.0355800294
     11  H        -1.2838303159    1.5117441765   -1.2396797539
     12  C        -0.1305996837   -0.4835585560    1.2605151976
     13  H        -0.0733804064   -0.8533713129    2.2747208754
   Point Group: c1    Number of degrees of freedom:    33


   Energy is   -286.847553875

 Hessian Updated using Powell/Murtagh-Sargent Update
**WARNING** Small Scalar Product
 Hessian Update Skipped this cycle

 33 Hessian modes will be used to form the next step
  Hessian Eigenvalues:
    -0.047987    0.001467    0.002474    0.010197    0.015690    0.021191
     0.024449    0.030622    0.033799    0.036791    0.037190    0.040611
     0.041785    0.065322    0.084738    0.093012    0.109969    0.127596
     0.137475    0.147251    0.148689    0.175486    0.194773    0.260120
     0.275582    0.327785    0.348292    0.355248    0.356487    0.357675
     0.371707    0.374207    0.567876

 Transition State Search - Taking P-RFO Step
 Searching for Lamda that Maximizes Along the Lowest mode
 Value Taken    Lamda =   0.00000000
 Searching for Lamda that Minimizes Along All other modes
 Value Taken    Lamda =   0.00000000
 Step Taken.  Stepsize is  0.000181

                             Maximum     Tolerance    Cnvgd?
         Gradient           0.000001      0.000010     YES
         Displacement       0.000111      0.001200     YES
         Energy change     -0.000000      0.000001     YES


                       Distance Matrix (Angstroms)
             C (  1)   C (  2)   C (  3)   C (  4)   C (  5)   N (  6)
   C (  2)  1.530240
   C (  3)  2.346382  1.547141
   C (  4)  2.764343  2.227617  1.867850
   C (  5)  2.190694  2.273748  1.486917  1.529285
   N (  6)  1.284805  2.353676  2.395207  2.522161  1.468738
   H (  7)  1.087913  2.325967  3.385820  3.749964  3.242731  2.076891
   H (  8)  2.257342  1.089525  2.306620  3.204102  3.315497  3.307659
   H (  9)  3.346560  2.399916  1.081087  2.645037  2.350755  3.385734
   H ( 10)  3.814834  3.283717  2.739928  1.086544  2.285589  3.402800
   H ( 11)  3.160031  3.326568  2.244837  2.228009  1.086100  2.168318
   C ( 12)  2.426198  1.527978  2.182410  1.404230  2.428482  2.842635
   H ( 13)  3.261636  2.375989  3.204432  2.260243  3.476092  3.794183
             H (  7)   H (  8)   H (  9)   H ( 10)   H ( 11)   C ( 12)
   H (  8)  2.695469
   H (  9)  4.336646  2.828224
   H ( 10)  4.778959  4.201814  3.270399
   H ( 11)  4.158864  4.331921  2.767153  2.561934
   C ( 12)  3.193468  2.257168  3.008879  2.236820  3.400316
   H ( 13)  3.810491  2.769284  3.915778  2.769418  4.405675  1.081041

 
 Final energy is   -286.847553874987     


 ******************************
 **  OPTIMIZATION CONVERGED  **
 ******************************

                       Coordinates (Angstroms)
     ATOM                X               Y               Z
      1  C         1.5200175892    0.4258871807   -0.2674924398
      2  C         0.7040930143   -0.8341237823    0.0296178461
      3  C        -0.5138236743   -0.5670896138   -0.8863604372
      4  C        -1.0883740671    0.3373673747    0.6435784656
      5  C        -0.5773086353    0.9042937100   -0.6816083330
      6  N         0.7962936072    1.4221318695   -0.6341577794
      7  H         2.5865037431    0.5278563325   -0.0783760758
      8  H         1.2199154053   -1.7936748067    0.0137148123
      9  H        -1.1173050561   -1.2399639544   -1.4794878908
     10  H        -2.0597768039    0.6259645248    1.0355800294
     11  H        -1.2838303159    1.5117441765   -1.2396797539
     12  C        -0.1305996837   -0.4835585560    1.2605151976
     13  H        -0.0733804064   -0.8533713129    2.2747208754

Z-matrix Print:
$molecule
0 2
N 
C  1 1.284805
H  2 1.087913 1 121.946837
C  1 1.468738 2 105.226808 3 -175.748340 0
H  4 1.086100 1 115.327020 2 -163.080505 0
C  4 1.486917 1 108.264784 2 -24.410780 0
H  6 1.081087 4 131.883520 1 -141.071206 0
C  4 1.529285 1 114.534917 2 58.734523 0
H  8 1.086544 4 120.859591 1 131.536275 0
C  8 1.404230 4 111.684383 1 -44.841454 0
H  10 1.081041 8 130.411279 4 164.734479 0
C  10 1.527978 8 98.789143 4 -21.904928 0
H  12 1.089525 10 118.193180 8 -150.646395 0
$end

 
 --------------------------------------------------------------
 
                    Orbital Energies (a.u.)
 --------------------------------------------------------------
 
 Alpha MOs
 -- Occupied --
-14.330 -10.235 -10.230 -10.229 -10.226 -10.221 -10.206  -0.972
 -0.849  -0.751  -0.696  -0.601  -0.585  -0.548  -0.522  -0.472
 -0.444  -0.424  -0.409  -0.378  -0.356  -0.296  -0.284  -0.277
 -0.157
 -- Virtual --
 -0.017  -0.010   0.001   0.018   0.029   0.033   0.046   0.048
  0.063   0.071   0.074   0.095   0.100   0.107   0.109   0.118
  0.124   0.129   0.141   0.153   0.165   0.178   0.180   0.185
  0.192   0.197   0.207   0.218   0.225   0.234   0.240   0.251
  0.259   0.268   0.281   0.287   0.309   0.313   0.331   0.368
  0.372   0.382   0.407   0.455   0.629   0.668   0.675   0.695
  0.699   0.714   0.725   0.734   0.744   0.753   0.778   0.793
  0.806   0.814   0.858   0.901   0.917   0.936   0.955   1.002
  1.015   1.033   1.047   1.070   1.082   1.094   1.104   1.139
  1.202   1.217   1.327   1.340   1.384   1.419   1.437   1.487
  1.558   1.621   1.626   1.691   1.724   1.767   1.817   1.865
  1.879   1.908   1.952   1.980   2.042   2.093   2.104   2.126
  2.156   2.212   2.220   2.277   2.304   2.327   2.363   2.397
  2.404   2.437   2.447   2.485   2.504   2.520   2.534   2.553
  2.569   2.606   2.618   2.655   2.686   2.703   2.745   2.777
  2.852   2.857   2.981   3.071   3.083   3.291   3.316   3.326
  3.508   3.599   3.687   4.171   4.413   4.487   4.569   4.620
  4.694   4.830
 
 Beta MOs
 -- Occupied --
-14.329 -10.235 -10.231 -10.230 -10.222 -10.217 -10.197  -0.968
 -0.841  -0.747  -0.684  -0.597  -0.577  -0.541  -0.519  -0.463
 -0.441  -0.419  -0.406  -0.373  -0.351  -0.287  -0.275  -0.265
 -- Virtual --
 -0.054  -0.009  -0.002   0.003   0.019   0.031   0.038   0.047
  0.049   0.063   0.072   0.077   0.096   0.101   0.108   0.109
  0.119   0.128   0.132   0.142   0.153   0.164   0.179   0.181
  0.188   0.195   0.197   0.208   0.223   0.228   0.237   0.242
  0.254   0.260   0.273   0.282   0.288   0.312   0.315   0.333
  0.372   0.376   0.385   0.411   0.457   0.634   0.674   0.678
  0.700   0.711   0.727   0.734   0.744   0.749   0.759   0.784
  0.796   0.808   0.817   0.859   0.905   0.919   0.939   0.958
  1.005   1.019   1.036   1.049   1.071   1.087   1.101   1.109
  1.147   1.207   1.221   1.331   1.346   1.387   1.425   1.442
  1.491   1.566   1.626   1.635   1.698   1.732   1.770   1.828
  1.870   1.885   1.913   1.956   1.984   2.048   2.102   2.109
  2.129   2.165   2.220   2.229   2.283   2.310   2.330   2.367
  2.403   2.406   2.443   2.454   2.489   2.508   2.525   2.542
  2.556   2.573   2.614   2.620   2.664   2.692   2.706   2.747
  2.782   2.856   2.861   2.983   3.074   3.085   3.293   3.318
  3.327   3.509   3.602   3.691   4.173   4.423   4.487   4.581
  4.626   4.696   4.835
 --------------------------------------------------------------
 
          Ground-State Mulliken Net Atomic Charges

     Atom                 Charge (a.u.)    Spin (a.u.)
  --------------------------------------------------------
      1 C                    -0.069824      -0.002334
      2 C                     0.001284      -0.101934
      3 C                    -0.199883       0.596098
      4 C                    -0.102934      -0.234133
      5 C                    -0.133545      -0.020980
      6 N                    -0.179468       0.062400
      7 H                     0.132699       0.001550
      8 H                     0.129148       0.010609
      9 H                     0.145967      -0.024522
     10 H                     0.139210       0.010355
     11 H                     0.138901       0.004347
     12 C                    -0.140592       0.727180
     13 H                     0.139037      -0.028636
  --------------------------------------------------------
  Sum of atomic charges =     0.000000
  Sum of spin   charges =     1.000000

 -----------------------------------------------------------------
                    Cartesian Multipole Moments
 -----------------------------------------------------------------
    Charge (ESU x 10^10)
                 0.0000
    Dipole Moment (Debye)
         X      -1.1094      Y      -2.2919      Z       0.5224
       Tot       2.5993
    Quadrupole Moments (Debye-Ang)
        XX     -37.6965     XY      -4.3932     YY     -45.6757
        XZ       1.7818     YZ       1.2673     ZZ     -41.9839
    Octopole Moments (Debye-Ang^2)
       XXX      -6.4883    XXY      -4.9498    XYY      -9.4593
       YYY     -30.9507    XXZ       2.9986    XYZ       0.9444
       YYZ       3.4888    XZZ      -8.8236    YZZ      -9.9034
       ZZZ      11.9187
    Hexadecapole Moments (Debye-Ang^3)
      XXXX    -251.3599   XXXY     -11.4843   XXYY     -86.4466
      XYYY     -25.8567   YYYY    -253.0626   XXXZ      12.7943
      XXYZ      13.6139   XYYZ      13.4362   YYYZ      36.8971
      XXZZ     -81.9557   XYZZ      -6.1373   YYZZ     -75.1139
      XZZZ      16.1784   YZZZ      24.0238   ZZZZ    -213.5886
 -----------------------------------------------------------------
Archival summary:
1\1\c8-66\TS\ProcedureUnspecified\6-31+G**\166(2)\hpark21\WedMar205:42:172022WedMar205:42:172022\0\\#,TS,ProcedureUnspecified,6-31+G**,\\0,2\N\C,1,1.2848\H,2,1.08791,1,121.947\C,1,1.46874,2,105.227,3,-175.748,0\H,4,1.0861,1,115.327,2,-163.081,0\C,4,1.48692,1,108.265,2,-24.4108,0\H,6,1.08109,4,131.884,1,-141.071,0\C,4,1.52929,1,114.535,2,58.7345,0\H,8,1.08654,4,120.86,1,131.536,0\C,8,1.40423,4,111.684,1,-44.8415,0\H,10,1.08104,8,130.411,4,164.734,0\C,10,1.52798,8,98.7891,4,-21.9049,0\H,12,1.08952,10,118.193,8,-150.646,0\\\@

 Total job time:  151.95s(wall), 261.32s(cpu) 
 Wed Mar  2 05:42:18 2022

        *************************************************************
        *                                                           *
        *  Thank you very much for using Q-Chem.  Have a nice day.  *
        *                                                           *
        *************************************************************


