
Running Job 1 of 1 qcts2.in
qchem qcts2.in_52974.0 ./qcts2.d/ 1
/home/leeping/opt/qchem/5.0.2-openmp/exe/qcprog.exe_s qcts2.in_52974.0 ./qcts2.d/
Check license passed

                  Welcome to Q-Chem
     A Quantum Leap Into The Future Of Chemistry


 Q-Chem 5.0, Q-Chem, Inc., Pleasanton, CA (2017)

 Yihan Shao,  Zhengting Gan,  E. Epifanovsky,  A. T. B. Gilbert,  M. Wormit,  
 J. Kussmann,  A. W. Lange,  A. Behn,  Jia Deng,  Xintian Feng,  D. Ghosh,  
 M. Goldey,  P. R. Horn,  L. D. Jacobson,  I. Kaliman,  T. Kus,  A. Landau,  
 Jie Liu,  E. I. Proynov,  R. M. Richard,  R. P. Steele,  E. J. Sundstrom,  
 H. L. Woodcock III,  P. M. Zimmerman,  D. Zuev,  B. Albrecht,  E. Alguire,  
 S. A. Baeppler,  D. Barton,  Z. Benda,  Y. A. Bernard,  E. J. Berquist,  
 K. B. Bravaya,  H. Burton,  D. Casanova,  Chun-Min Chang,  Yunqing Chen,  
 A. Chien,  K. D. Closser,  M. P. Coons,  S. Dasgupta,  A. L. Dempwolff,  
 M. Diedenhofen,  Hainam Do,  R. G. Edgar,  Po-Tung Fang,  S. Fatehi,  
 Qingguo Feng,  J. Fosso-Tande,  Qinghui Ge,  A. Ghysels,  G. Gidofalvi,  
 J. Gomes,  J. Gonthier,  A. Gunina,  M. W. D. Hanson-Heine,  
 P. H. P. Harbach,  A. W. Hauser,  J. E. Herr,  E. G. Hohenstein,  
 Z. C. Holden,  Kerwin Hui,  T.-C. Jagau,  Hyunjun Ji,  B. Kaduk,  
 K. Khistyaev,  Jaehoon Kim,  P. Klunzinger,  K. Koh,  D. Kosenkov,  
 L. Koulias,  T. Kowalczyk,  C. M. Krauter,  A. Kunitsa,  Ka Un Lao,  
 A. Laurent,  K. V. Lawler,  Joonho Lee,  D. Lefrancois,  S. Lehtola,  
 D. S. Levine,  Yi-Pei Li,  You-Sheng Lin,  Fenglai Liu,  E. Livshits,  
 A. Luenser,  P. Manohar,  E. Mansoor,  S. F. Manzer,  Shan-Ping Mao,  
 Yuezhi Mao,  N. Mardirossian,  A. V. Marenich,  T. Markovich,  
 L. A. Martinez-Martinez,  S. A. Maurer,  N. J. Mayhall,  S. C. McKenzie,  
 J.-M. Mewes,  A. F. Morrison,  J. W. Mullinax,  K. Nanda,  
 T. S. Nguyen-Beck,  R. Olivares-Amaya,  J. A. Parkhill,  T. M. Perrine,  
 F. Plasser,  S. Prager,  A. Prociuk,  E. Ramos,  D. R. Rehn,  F. Rob,  
 M. Schneider,  N. Sergueev,  S. M. Sharada,  S. Sharma,  D. W. Small,  
 T. Stauch,  T. Stein,  Yu-Chuan Su,  A. J. W. Thom,  A. Tkatchenko,  
 T. Tsuchimochi,  L. Vogt,  O. Vydrov,  M. A. Watson,  J. Wenzel,  
 M. de Wergifosse,  T. A. Wesolowski,  A. White,  J. Witte,  A. Yamada,  
 Jun Yang,  K. Yao,  S. Yeganeh,  S. R. Yost,  Zhi-Qiang You,  A. Zech,  
 Igor Ying Zhang,  Xing Zhang,  Yan Zhao,  Ying Zhu,  B. R. Brooks,  
 G. K. L. Chan,  C. J. Cramer,  M. S. Gordon,  W. J. Hehre,  A. Klamt,  
 M. W. Schmidt,  C. D. Sherrill,  D. G. Truhlar,  A. Aspuru-Guzik,  R. Baer,  
 A. T. Bell,  N. A. Besley,  Jeng-Da Chai,  R. A. DiStasio Jr.,  A. Dreuw,  
 B. D. Dunietz,  T. R. Furlani,  Chao-Ping Hsu,  Yousung Jung,  Jing Kong,  
 D. S. Lambrecht,  WanZhen Liang,  C. Ochsenfeld,  V. A. Rassolov,  
 L. V. Slipchenko,  J. E. Subotnik,  T. Van Voorhis,  J. M. Herbert,  
 A. I. Krylov,  P. M. W. Gill,  M. Head-Gordon

 Contributors to earlier versions of Q-Chem not listed above: 
 R. D. Adamson,  B. Austin,  J. Baker,  G. J. O. Beran,  K. Brandhorst,  
 S. T. Brown,  E. F. C. Byrd,  A. K. Chakraborty,  C.-L. Cheng,  
 Siu Hung Chien,  D. M. Chipman,  D. L. Crittenden,  H. Dachsel,  
 R. J. Doerksen,  A. D. Dutoi,  L. Fusti-Molnar,  W. A. Goddard III,  
 A. Golubeva-Zadorozhnaya,  S. R. Gwaltney,  G. Hawkins,  A. Heyden,  
 S. Hirata,  G. Kedziora,  F. J. Keil,  C. Kelley,  Jihan Kim,  R. A. King,  
 R. Z. Khaliullin,  P. P. Korambath,  W. Kurlancheek,  A. M. Lee,  M. S. Lee,  
 S. V. Levchenko,  Ching Yeh Lin,  D. Liotard,  R. C. Lochan,  I. Lotan,  
 P. E. Maslen,  N. Nair,  D. P. O'Neill,  D. Neuhauser,  E. Neuscamman,  
 C. M. Oana,  R. Olson,  B. Peters,  R. Peverati,  P. A. Pieniazek,  
 Y. M. Rhee,  J. Ritchie,  M. A. Rohrdanz,  E. Rosta,  N. J. Russ,  
 H. F. Schaefer III,  N. E. Schultz,  N. Shenvi,  A. C. Simmonett,  A. Sodt,  
 D. Stuck,  K. S. Thanthiriwatte,  V. Vanovschi,  Tao Wang,  A. Warshel,  
 C. F. Williams,  Q. Wu,  X. Xu,  W. Zhang

 Please cite Q-Chem as follows:
 Y. Shao et al., Mol. Phys. 113, 184-215 (2015)
 DOI: 10.1080/00268976.2014.952696

 Q-Chem 5.0.2 for Intel X86 EM64T Linux

 Parts of Q-Chem use Armadillo 5.200.1 (Boston Tea Smuggler).
 http://arma.sourceforge.net/

 Q-Chem begins on Wed Mar  2 05:20:14 2022  

Host: 
0

     Scratch files written to ./qcts2.d//
 Dec517 15110_ 26548  26544 5633   
Processing $rem in /home/leeping/opt/qchem/5.0.2-openmp/config/preferences.
 MEM_STATIC 2000
 MEM_TOTAL  8000
 SYMMETRY   OFF
 SYM_IGNORE TRUE 

Checking the input file for inconsistencies... 	...done.

--------------------------------------------------------------
User input:
--------------------------------------------------------------
$molecule
0 2
C        1.5166477864    0.4255975744   -0.2648491194
C        0.7017095658   -0.8371498404    0.0257005579
C       -0.5084704804   -0.5662721640   -0.8958874576
C       -1.0896273560    0.3318537656    0.6409572590
C       -0.5758996295    0.9040783389   -0.6799339047
N        0.7973788350    1.4246771414   -0.6267455690
H        2.5833301183    0.5262412780   -0.0707013128
H        1.2181423484   -1.7972604457    0.0069039526
H       -1.1229399370   -1.2412126151   -1.4749500565
H       -2.0610669785    0.6228294423    1.0337533074
H       -1.2815114807    1.5135992720   -1.2389360903
C       -0.1362249567   -0.4920330669    1.2555527619
H       -0.0590431185   -0.8314855379    2.2797001879
$end

$rem
method                b3lyp
basis                 6-31+g(d,p)
unrestricted          true
symmetry              off
sym_ignore            true
incdft                false
incfock               0
scf_convergence       8
thresh                14
jobtype               sp
scf_guess             core
scf_guess_mix         5
scf_algorithm         diis
max_scf_cycles        100
$end

--------------------------------------------------------------
 ----------------------------------------------------------------
             Standard Nuclear Orientation (Angstroms)
    I     Atom           X                Y                Z
 ----------------------------------------------------------------
    1      C       1.5166477864     0.4255975744    -0.2648491194
    2      C       0.7017095658    -0.8371498404     0.0257005579
    3      C      -0.5084704804    -0.5662721640    -0.8958874576
    4      C      -1.0896273560     0.3318537656     0.6409572590
    5      C      -0.5758996295     0.9040783389    -0.6799339047
    6      N       0.7973788350     1.4246771414    -0.6267455690
    7      H       2.5833301183     0.5262412780    -0.0707013128
    8      H       1.2181423484    -1.7972604457     0.0069039526
    9      H      -1.1229399370    -1.2412126151    -1.4749500565
   10      H      -2.0610669785     0.6228294423     1.0337533074
   11      H      -1.2815114807     1.5135992720    -1.2389360903
   12      C      -0.1362249567    -0.4920330669     1.2555527619
   13      H      -0.0590431185    -0.8314855379     2.2797001879
 ----------------------------------------------------------------
 Nuclear Repulsion Energy =   281.0843423335 hartrees
 There are       25 alpha and       24 beta electrons
 Requested basis set is 6-31+G(d,p)
 There are 53 shells and 163 basis functions

 Total QAlloc Memory Limit   8000 MB
 Mega-Array Size      1956 MB
 MEM_STATIC part      2000 MB

                       Distance Matrix (Angstroms)
             C (  1)   C (  2)   C (  3)   C (  4)   C (  5)   N (  6)
   C (  2)  1.530710
   C (  3)  2.341606  1.545068
   C (  4)  2.760787  2.225758  1.872502
   C (  5)  2.186320  2.272021  1.487654  1.528434
   N (  6)  1.283151  2.355992  2.396155  2.522325  1.469607
   H (  7)  1.088868  2.325645  3.381383  3.746313  3.239546  2.075089
   H (  8)  2.259215  1.090352  2.304681  3.203272  3.314749  3.310504
   H (  9)  3.348137  2.396782  1.080940  2.636799  2.352356  3.393235
   H ( 10)  3.811209  3.283389  2.747368  1.087497  2.285070  3.401607
   H ( 11)  3.156309  3.325431  2.245248  2.228753  1.087146  2.168979
   C ( 12)  2.426037  1.527670  2.184668  1.401961  2.426633  2.844018
   H ( 13)  3.246196  2.378926  3.218180  2.258526  3.469691  3.777718
             H (  7)   H (  8)   H (  9)   H ( 10)   H ( 11)   C ( 12)
   H (  8)  2.696001
   H (  9)  4.339614  2.825906
   H ( 10)  4.774890  4.202912  3.263178
   H ( 11)  4.156519  4.331533  2.769447  2.562478
   C ( 12)  3.192462  2.257665  2.998420  2.235426  3.399517
   H ( 13)  3.788132  2.780203  3.923920  2.770472  4.401665  1.081694

 
 A cutoff of  1.0D-14 yielded   1405 shell pairs
 There are     13515 function pairs
 
 -------------------------------------------------------
 OpenMP Integral Computing Module                       
 Release: version 1.0, May 2013, Q-Chem Inc. Pittsburgh 
 -------------------------------------------------------
 Integral Job Info:
 Integral job number is                      11
 Integral operator is                         1
 short-range coefficients                     0
 long-range coefficients              100000000
 Omega coefficients                           0
 if combine SR and LR in K                    0
 Integral screening is                        0
 Integral computing path is                   2
 max size of driver memory is            800000
 size of driver memory is                593474
 size of scratch memory is              2361544
 max col of scratch BK array               1296
 max len of scratch array in speh3          155
 max len of scratch index in speh4           18
 max int batch size is                      520
 min int batch size is                       52
 fixed nKL is                                52
 max L of basis functions is                  2
 order of int derivative is                   0
 number of shells is                         53
 number of basis is                         163
 number of cartesian basis is               163
 number of contracted shell pairs          1405
 number of primitive shell pairs           4832
 maxK2 (contraction) of shell pair           36
 max number of K2 of shell pair               1
 max number of CS2 of shell pair            126
 max number of PS2 of shell pair            702
 mem total for path MDJ                  535308
 -------------------------------------------------------
 Smallest overlap matrix eigenvalue = 2.74E-05

 Scale SEOQF with 1.000000e-01/1.000000e-01/1.000000e-01

 Standard Electronic Orientation quadrupole field applied
 Nucleus-field energy     =     0.0000000008 hartrees
 Guess MOs from core Hamiltonian diagonalization
 Mixing HOMO and LUMO in initial guess
 Adding  50% of the LUMO to the HOMO
 An unrestricted hybrid HF-DFT SCF calculation will be
 performed using Pulay DIIS extrapolation
 Exchange:     0.2000 Hartree-Fock + 0.0800 Slater + 0.7200 B88
 Correlation:  0.1900 VWN1RPA + 0.8100 LYP
 Using SG-1 standard quadrature grid
 SCF converges when DIIS error is below 1.0E-08
 using 4 threads for integral computing
 -------------------------------------------------------
 OpenMP Integral computing Module                
 Release: version 1.0, May 2013, Q-Chem Inc. Pittsburgh 
 -------------------------------------------------------
 -------------------------------------------------------
 OpenMP BLAS3 based DFT computing Module                
 Release: version 1.0, May 2013, Q-Chem Inc. Pittsburgh 
 -------------------------------------------------------
 ---------------------------------------
  Cycle       Energy         DIIS Error
 ---------------------------------------
    1    -235.5671303508      9.87E-02
    2    -211.6651499872      7.26E-02
    3    -254.5324054325      7.68E-02
    4    -280.1646459755      3.76E-02
    5    -282.3158767979      3.18E-02
    6    -285.6734088569      1.67E-02
    7    -286.6379282775      7.09E-03
    8    -286.7681764712      4.69E-03
    9    -286.8444146200      5.84E-04
   10    -286.8464281323      3.61E-04
   11    -286.8471289813      1.46E-04
   12    -286.8473447216      5.68E-05
   13    -286.8474469748      5.20E-05
   14    -286.8475027226      1.65E-05
   15    -286.8475125857      8.90E-06
   16    -286.8475139174      3.99E-06
   17    -286.8475144979      8.14E-07
   18    -286.8475145350      1.68E-07
   19    -286.8475145441      8.35E-08
   20    -286.8475145486      3.78E-08
   21    -286.8475145493      1.54E-08
   22    -286.8475145494      6.14E-09 Convergence criterion met
 ---------------------------------------
 <S^2> = 0.7779
 SCF time:  CPU 113.08 s  wall 75.54 s
 SCF   energy in the final basis set = -286.84751455
 Total energy in the final basis set = -286.84751455
 
 --------------------------------------------------------------
 
                    Orbital Energies (a.u.)
 --------------------------------------------------------------
 
 Alpha MOs
 -- Occupied --
-14.330 -10.235 -10.230 -10.228 -10.225 -10.221 -10.207  -0.973
 -0.850  -0.750  -0.696  -0.601  -0.585  -0.547  -0.522  -0.473
 -0.444  -0.425  -0.408  -0.378  -0.356  -0.296  -0.284  -0.278
 -0.158
 -- Virtual --
 -0.018  -0.010   0.001   0.018   0.028   0.033   0.046   0.048
  0.063   0.071   0.074   0.095   0.100   0.107   0.109   0.118
  0.124   0.129   0.141   0.153   0.165   0.178   0.180   0.185
  0.192   0.196   0.207   0.218   0.225   0.234   0.241   0.251
  0.259   0.267   0.281   0.287   0.309   0.314   0.332   0.368
  0.372   0.383   0.407   0.455   0.629   0.668   0.676   0.695
  0.700   0.716   0.725   0.735   0.745   0.753   0.776   0.793
  0.807   0.814   0.858   0.898   0.917   0.935   0.954   1.001
  1.017   1.034   1.048   1.068   1.083   1.086   1.103   1.141
  1.201   1.216   1.336   1.340   1.385   1.423   1.435   1.485
  1.554   1.615   1.625   1.692   1.723   1.762   1.818   1.869
  1.882   1.908   1.952   1.976   2.044   2.091   2.103   2.128
  2.152   2.212   2.219   2.278   2.306   2.327   2.363   2.400
  2.408   2.438   2.447   2.484   2.506   2.516   2.537   2.554
  2.568   2.602   2.618   2.654   2.686   2.704   2.743   2.780
  2.848   2.858   2.980   3.072   3.082   3.293   3.317   3.326
  3.506   3.599   3.682   4.171   4.412   4.486   4.571   4.618
  4.694   4.830
 
 Beta MOs
 -- Occupied --
-14.329 -10.235 -10.231 -10.230 -10.222 -10.217 -10.197  -0.969
 -0.842  -0.747  -0.684  -0.597  -0.577  -0.541  -0.519  -0.464
 -0.441  -0.419  -0.406  -0.373  -0.351  -0.287  -0.275  -0.265
 -- Virtual --
 -0.055  -0.009  -0.002   0.003   0.019   0.031   0.038   0.047
  0.049   0.063   0.072   0.077   0.096   0.101   0.108   0.109
  0.119   0.128   0.131   0.142   0.153   0.164   0.179   0.181
  0.188   0.195   0.197   0.208   0.223   0.228   0.237   0.242
  0.254   0.260   0.272   0.282   0.288   0.312   0.316   0.334
  0.372   0.376   0.386   0.411   0.457   0.633   0.674   0.679
  0.699   0.712   0.728   0.734   0.746   0.749   0.759   0.783
  0.796   0.809   0.818   0.859   0.903   0.919   0.938   0.956
  1.004   1.021   1.037   1.050   1.070   1.087   1.093   1.109
  1.149   1.207   1.220   1.339   1.346   1.387   1.429   1.441
  1.489   1.562   1.621   1.634   1.698   1.731   1.765   1.828
  1.874   1.889   1.914   1.956   1.980   2.050   2.100   2.108
  2.132   2.161   2.220   2.228   2.284   2.312   2.330   2.367
  2.405   2.412   2.445   2.454   2.487   2.509   2.522   2.543
  2.557   2.572   2.610   2.620   2.662   2.693   2.707   2.746
  2.784   2.853   2.861   2.982   3.075   3.084   3.294   3.319
  3.328   3.507   3.602   3.686   4.173   4.422   4.486   4.584
  4.625   4.696   4.834
 --------------------------------------------------------------
 
          Ground-State Mulliken Net Atomic Charges

     Atom                 Charge (a.u.)    Spin (a.u.)
  --------------------------------------------------------
      1 C                    -0.070959      -0.001872
      2 C                     0.006533      -0.101900
      3 C                    -0.200455       0.601426
      4 C                    -0.100347      -0.237137
      5 C                    -0.135696      -0.018964
      6 N                    -0.178795       0.062460
      7 H                     0.132180       0.001596
      8 H                     0.129431       0.011057
      9 H                     0.146911      -0.025691
     10 H                     0.138960       0.010807
     11 H                     0.138640       0.004587
     12 C                    -0.144985       0.720154
     13 H                     0.138582      -0.026524
  --------------------------------------------------------
  Sum of atomic charges =    -0.000000
  Sum of spin   charges =     1.000000

 -----------------------------------------------------------------
                    Cartesian Multipole Moments
 -----------------------------------------------------------------
    Charge (ESU x 10^10)
                -0.0000
    Dipole Moment (Debye)
         X      -1.0961      Y      -2.2687      Z       0.5427
       Tot       2.5774
    Quadrupole Moments (Debye-Ang)
        XX     -37.7311     XY      -4.3816     YY     -45.7126
        XZ       1.8456     YZ       1.3119     ZZ     -41.9467
    Octopole Moments (Debye-Ang^2)
       XXX      -6.5337    XXY      -4.9488    XYY      -9.4116
       YYY     -30.6782    XXZ       3.0464    XYZ       0.8702
       YYZ       3.3502    XZZ      -8.6089    YZZ      -9.6074
       ZZZ      12.3608
    Hexadecapole Moments (Debye-Ang^3)
      XXXX    -251.3140   XXXY     -11.5574   XXYY     -86.4580
      XYYY     -25.9794   YYYY    -253.5445   XXXZ      12.8932
      XXYZ      13.5983   XYYZ      13.4342   YYYZ      36.8085
      XXZZ     -81.7740   XYZZ      -6.1695   YYZZ     -75.3022
      XZZZ      16.3728   YZZZ      24.0151   ZZZZ    -212.7426
 -----------------------------------------------------------------
Archival summary:
1\1\c8-66\SP\ProcedureUnspecified\6-31+G**\166(2)\hpark21\WedMar205:21:422022WedMar205:21:422022\0\\#,ProcedureUnspecified,6-31+G**,\\0,2\N\C,1,1.28315\H,2,1.08887,1,121.833\C,1,1.46961,2,104.963,3,-175.658,0\H,4,1.08715,1,115.246,2,-162.917,0\C,4,1.48765,1,108.241,2,-24.5126,0\H,6,1.08094,4,132.001,1,-142.818,0\C,4,1.52843,1,114.546,2,58.8867,0\H,8,1.0875,4,120.812,1,131.15,0\C,8,1.40196,4,111.734,1,-45.0465,0\H,10,1.08169,8,130.391,4,161.719,0\C,10,1.52767,8,98.7921,4,-21.8389,0\H,12,1.09035,10,118.203,8,-150.736,0\\\@

 Total job time:  87.93s(wall), 114.81s(cpu) 
 Wed Mar  2 05:21:42 2022

        *************************************************************
        *                                                           *
        *  Thank you very much for using Q-Chem.  Have a nice day.  *
        *                                                           *
        *************************************************************


