13
image # 1 Energy = -286.83838
C 1.52318   0.38522   -0.22969  
C 0.68190   -0.85963  0.02569   
C -0.63415  -0.51723  -0.76136  
C -1.15828  0.13573   0.53185   
C -0.53119  0.96295   -0.68150  
N 0.83407   1.41173   -0.57368  
H 2.58817   0.45690   -0.01442  
H 1.17117   -1.83195  -0.06427  
H -1.15833  -1.12476  -1.49298  
H -2.17242  0.37344   0.83743   
H -1.23306  1.61247   -1.19453  
C -0.11381  -0.53939  1.28985   
H 0.20275   -0.46546  2.32760   
13
image # 2 Energy = -286.83291
C 1.51906   0.39496   -0.23233  
C 0.68663   -0.85901  0.02549   
C -0.63654  -0.53292  -0.77447  
C -1.16471  0.15129   0.53934   
C -0.53351  0.97062   -0.68885  
N 0.83389   1.41059   -0.57538  
H 2.58751   0.46622   -0.01635  
H 1.17880   -1.82829  -0.05928  
H -1.14959  -1.13500  -1.48673  
H -2.14947  0.40489   0.85894   
H -1.23698  1.59955   -1.20090  
C -0.11579  -0.54167  1.28006   
H 0.17990   -0.50250  2.32851   
13
image # 3 Energy = -286.83738
C 1.52472   0.38905   -0.23075  
C 0.68625   -0.85659  0.02388   
C -0.62528  -0.52433  -0.77168  
C -1.15158  0.15916   0.53861   
C -0.53365  0.95817   -0.68853  
N 0.82345   1.42198   -0.58409  
H 2.58572   0.47408   -0.01770  
H 1.18560   -1.82586  -0.05584  
H -1.15068  -1.15016  -1.48861  
H -2.14237  0.43272   0.87884   
H -1.24389  1.59478   -1.21005  
C -0.12142  -0.54042  1.27041   
H 0.16181   -0.53510  2.33243   
13
image # 4 Energy = -286.83669
C 1.51768   0.39926   -0.23466  
C 0.68950   -0.85461  0.02446   
C -0.62295  -0.52735  -0.77621  
C -1.14616  0.17251   0.53896   
C -0.53594  0.95432   -0.69246  
N 0.82354   1.41963   -0.58702  
H 2.58499   0.48389   -0.01922  
H 1.19315   -1.82161  -0.05090  
H -1.14576  -1.16344  -1.48437  
H -2.12516  0.46614   0.90181   
H -1.24915  1.58381   -1.21822  
C -0.12243  -0.54058  1.26008   
H 0.13650   -0.57606  2.33311   
13
image # 5 Energy = -286.83595
C 1.51653   0.40626   -0.23694  
C 0.69432   -0.85336  0.02139   
C -0.62441  -0.52869  -0.77515  
C -1.13935  0.18955   0.52993   
C -0.53882  0.95265   -0.69757  
N 0.81839   1.42158   -0.59163  
H 2.58273   0.49471   -0.02096  
H 1.20133   -1.81622  -0.04468  
H -1.14061  -1.17941  -1.48057  
H -2.10553  0.50325   0.92775   
H -1.25405  1.56976   -1.22630  
C -0.11934  -0.54462  1.26554   
H 0.10553   -0.62134  2.32306   
13
image # 6 Energy = -286.83486
C 1.52053   0.41237   -0.24034  
C 0.69073   -0.84812  0.02024   
C -0.62093  -0.53274  -0.77739  
C -1.12798  0.19543   0.54307   
C -0.53844  0.94604   -0.70054  
N 0.81732   1.42413   -0.60048  
H 2.57677   0.50517   -0.02211  
H 1.21103   -1.81430  -0.04204  
H -1.13834  -1.18959  -1.47376  
H -2.08765  0.53289   0.94234   
H -1.26200  1.56302   -1.23886  
C -0.12127  -0.53464  1.26663   
H 0.07566   -0.66731  2.31545   
13
image # 7 Energy = -286.83380
C 1.51550   0.41367   -0.24385  
C 0.69698   -0.85010  0.02168   
C -0.61113  -0.53378  -0.78210  
C -1.12670  0.21058   0.55066   
C -0.54400  0.94404   -0.70638  
N 0.81369   1.42765   -0.60923  
H 2.57792   0.51466   -0.02211  
H 1.21549   -1.80699  -0.03827  
H -1.13904  -1.20140  -1.46811  
H -2.07200  0.55980   0.95812   
H -1.26451  1.55227   -1.24508  
C -0.11695  -0.52950  1.26137   
H 0.04863   -0.71026  2.31395   
13
image # 8 Energy = -286.83211
C 1.51389   0.41928   -0.24779  
C 0.70027   -0.84403  0.02338   
C -0.59856  -0.54157  -0.79966  
C -1.12027  0.23085   0.55658   
C -0.54635  0.93940   -0.70608  
N 0.80891   1.42505   -0.61605  
H 2.57684   0.52218   -0.02275  
H 1.22049   -1.80426  -0.03423  
H -1.14065  -1.21088  -1.45853  
H -2.06419  0.58444   0.97647   
H -1.26840  1.54319   -1.25104  
C -0.11329  -0.52460  1.25719   
H 0.02320   -0.75045  2.31168   
13
image # 9 Energy = -286.83016
C 1.51664   0.42496   -0.25094  
C 0.70330   -0.84194  0.02146   
C -0.58067  -0.54570  -0.81595  
C -1.11337  0.25063   0.56892   
C -0.55089  0.93267   -0.70584  
N 0.80592   1.42473   -0.62304  
H 2.57426   0.52867   -0.02433  
H 1.22454   -1.80080  -0.02929  
H -1.14520  -1.22158  -1.44848  
H -2.05621  0.60404   0.99150   
H -1.27193  1.53503   -1.25599  
C -0.11489  -0.51690  1.25811   
H -0.00182  -0.78706  2.30223   
13
image # 10 Energy = -286.82817
C 1.51486   0.42563   -0.25411  
C 0.70579   -0.83912  0.02130   
C -0.56306  -0.55048  -0.83234  
C -1.10383  0.27079   0.58208   
C -0.55772  0.92666   -0.70523  
N 0.80426   1.42846   -0.62879  
H 2.57637   0.53470   -0.02582  
H 1.22745   -1.79826  -0.02421  
H -1.15103  -1.23128  -1.43761  
H -2.05161  0.61789   1.00359   
H -1.27323  1.52656   -1.25818  
C -0.11594  -0.50823  1.25767   
H -0.02489  -0.81804  2.28976   
13
image # 11 Energy = -286.82488
C 1.51510   0.42588   -0.24869  
C 0.70337   -0.84263  0.01718   
C -0.52324  -0.55968  -0.88784  
C -1.10430  0.29723   0.60695   
C -0.56720  0.91289   -0.69244  
N 0.79903   1.42704   -0.61432  
H 2.57775   0.52884   -0.02963  
H 1.22499   -1.79959  -0.01802  
H -1.15480  -1.24282  -1.44125  
H -2.05789  0.62140   1.02316   
H -1.27396  1.52565   -1.25014  
C -0.13662  -0.51645  1.24352   
H -0.01707  -0.79363  2.27989   
13
image # 12 Energy = -286.82487
C 1.51094   0.42101   -0.25105  
C 0.69392   -0.83224  0.00814   
C -0.48633  -0.56366  -0.92326  
C -1.10234  0.33136   0.64177   
C -0.57428  0.89793   -0.68409  
N 0.79375   1.42676   -0.61025  
H 2.57879   0.52880   -0.03417  
H 1.22705   -1.80634  -0.01257  
H -1.15545  -1.25180  -1.44174  
H -2.05331  0.62171   1.02931   
H -1.27524  1.52066   -1.24481  
C -0.14767  -0.51650  1.23854   
H -0.02647  -0.79413  2.27369   
13
image # 13 Energy = -286.82434
C 1.51319   0.42913   -0.26394  
C 0.70565   -0.84119  0.01724   
C -0.49825  -0.56734  -0.91087  
C -1.07972  0.34267   0.64791   
C -0.57371  0.89738   -0.68644  
N 0.79580   1.42779   -0.63355  
H 2.57682   0.54040   -0.03614  
H 1.22498   -1.79164  -0.01179  
H -1.15471  -1.24813  -1.41978  
H -2.04870  0.63216   1.02530   
H -1.27856  1.51089   -1.25472  
C -0.13160  -0.48734  1.25089   
H -0.06876  -0.86134  2.26646   
13
image # 14 Energy = -286.82864
C 1.52405   0.42979   -0.24936  
C 0.68656   -0.83039  0.00719   
C -0.43469  -0.56996  -0.98272  
C -1.08887  0.35439   0.67449   
C -0.59832  0.88253   -0.67802  
N 0.79443   1.41788   -0.60455  
H 2.57138   0.52540   -0.03693  
H 1.22801   -1.80804  -0.00851  
H -1.16814  -1.26166  -1.43220  
H -2.06367  0.63086   1.04922   
H -1.27177  1.51555   -1.23947  
C -0.16825  -0.50510  1.22465   
H -0.02891  -0.79767  2.26799   
13
image # 15 Energy = -286.83165
C 1.51112   0.42782   -0.25116  
C 0.69587   -0.82614  0.00942   
C -0.42851  -0.58365  -1.01209  
C -1.07921  0.36716   0.68615   
C -0.59887  0.87560   -0.67959  
N 0.79065   1.42438   -0.61523  
H 2.58142   0.53635   -0.03539  
H 1.23284   -1.80182  -0.00620  
H -1.16575  -1.26206  -1.41266  
H -2.05795  0.65579   1.06448   
H -1.27492  1.50842   -1.24521  
C -0.16920  -0.50070  1.23144   
H -0.05593  -0.83698  2.25962   
13
image # 16 Energy = -286.83591
C 1.50759   0.42836   -0.24498  
C 0.70142   -0.84193  0.00353   
C -0.40129  -0.58742  -1.04736  
C -1.09509  0.37058   0.70474   
C -0.60463  0.86488   -0.67732  
N 0.78649   1.42292   -0.60333  
H 2.58138   0.53141   -0.03568  
H 1.22584   -1.79298  -0.00215  
H -1.15911  -1.26331  -1.40870  
H -2.04942  0.66665   1.08407   
H -1.27528  1.50652   -1.24281  
C -0.18855  -0.49985  1.21225   
H -0.04701  -0.82064  2.25304   
13
image # 17 Energy = -286.83955
C 1.51372   0.43819   -0.23815  
C 0.69556   -0.83537  -0.00151  
C -0.38153  -0.58517  -1.07245  
C -1.09128  0.37661   0.69809   
C -0.60874  0.84912   -0.67539  
N 0.78247   1.41857   -0.59635  
H 2.57642   0.53193   -0.04020  
H 1.23207   -1.79757  0.00629   
H -1.14836  -1.27225  -1.40400  
H -2.04740  0.69933   1.12119   
H -1.28248  1.50014   -1.24490  
C -0.19938  -0.50896  1.20943   
H -0.05738  -0.82812  2.23479   
13
image # 18 Energy = -286.83969
C 1.51264   0.44317   -0.23418  
C 0.70002   -0.84452  -0.00068  
C -0.36955  -0.59238  -1.09482  
C -1.10078  0.38710   0.71441   
C -0.61497  0.84380   -0.67916  
N 0.77716   1.41786   -0.59289  
H 2.57237   0.53570   -0.04266  
H 1.23333   -1.79117  0.00949   
H -1.13435  -1.27818  -1.40646  
H -2.02558  0.72752   1.14403   
H -1.28502  1.48978   -1.24473  
C -0.21034  -0.51050  1.19719   
H -0.06943  -0.84034  2.22854   
13
image # 19 Energy = -286.84523
C 1.51573   0.43894   -0.22989  
C 0.69617   -0.84309  -0.00418  
C -0.34468  -0.59709  -1.11920  
C -1.09323  0.40263   0.72513   
C -0.62762  0.83070   -0.67568  
N 0.76754   1.42346   -0.59376  
H 2.57145   0.54014   -0.04527  
H 1.23668   -1.78853  0.01426   
H -1.12525  -1.28522  -1.40458  
H -2.01652  0.75403   1.16857   
H -1.28636  1.48080   -1.24527  
C -0.22109  -0.51115  1.19158   
H -0.08515  -0.85615  2.21729   
13
image # 20 Energy = -286.84667
C 1.49241   0.45168   -0.23368  
C 0.69941   -0.84024  -0.00380  
C -0.33579  -0.59294  -1.11970  
C -1.09683  0.41043   0.72729   
C -0.62159  0.82168   -0.67715  
N 0.77051   1.41584   -0.59312  
H 2.57636   0.54899   -0.04759  
H 1.24283   -1.78600  0.02063   
H -1.11410  -1.29781  -1.40573  
H -1.99216  0.78812   1.19310   
H -1.29561  1.47243   -1.25077  
C -0.22710  -0.51795  1.18418   
H -0.10872  -0.88321  2.20602   
13
image # 21 Energy = -286.84886
C 1.50023   0.45352   -0.23120  
C 0.69854   -0.84114  -0.00354  
C -0.32337  -0.59931  -1.13035  
C -1.08774  0.41890   0.73444   
C -0.63561  0.81973   -0.67922  
N 0.76362   1.42041   -0.59747  
H 2.57094   0.55690   -0.05090  
H 1.24836   -1.78032  0.02479   
H -1.10373  -1.30650  -1.40609  
H -1.97260  0.81962   1.21376   
H -1.29767  1.46157   -1.25352  
C -0.23711  -0.52103  1.18534   
H -0.13226  -0.90969  2.19408   
13
image # 22 Energy = -286.84948
C 1.49877   0.45320   -0.22855  
C 0.69859   -0.83654  -0.00139  
C -0.32405  -0.59825  -1.12448  
C -1.09072  0.42727   0.73162   
C -0.62435  0.81106   -0.67770  
N 0.75426   1.42822   -0.60437  
H 2.56856   0.56599   -0.05427  
H 1.25535   -1.77783  0.03204   
H -1.08932  -1.31691  -1.40539  
H -1.94635  0.85359   1.23731   
H -1.31008  1.45397   -1.26122  
C -0.23779  -0.52744  1.17223   
H -0.15955  -0.94213  2.18451   
13
image # 23 Energy = -286.85026
C 1.49675   0.46251   -0.23045  
C 0.69986   -0.83520  -0.00115  
C -0.31522  -0.60372  -1.13095  
C -1.08235  0.42914   0.74666   
C -0.63145  0.80779   -0.67644  
N 0.75640   1.42827   -0.60748  
H 2.56446   0.57466   -0.05713  
H 1.26213   -1.77497  0.03770   
H -1.07855  -1.32673  -1.40377  
H -1.91744  0.88192   1.25426   
H -1.31732  1.44434   -1.26722  
C -0.25664  -0.52160  1.16779   
H -0.18542  -0.97027  2.16859   
13
image # 24 Energy = -286.84926
C 1.49457   0.46335   -0.22863  
C 0.70234   -0.83588  -0.00331  
C -0.30300  -0.60490  -1.13646  
C -1.09776  0.46738   0.73503   
C -0.64228  0.81176   -0.68645  
N 0.74646   1.42971   -0.61086  
H 2.56438   0.58229   -0.05961  
H 1.26372   -1.76669  0.04599   
H -1.06918  -1.33664  -1.40159  
H -1.89599  0.90992   1.27691   
H -1.31624  1.42695   -1.26267  
C -0.23740  -0.55936  1.19109   
H -0.21207  -0.99007  2.14071   
13
image # 25 Energy = -286.85165
C 1.49121   0.47140   -0.22890  
C 0.70341   -0.83412  0.00076   
C -0.30174  -0.60790  -1.13303  
C -1.07481  0.45025   0.74682   
C -0.64055  0.80792   -0.68382  
N 0.74516   1.43167   -0.61574  
H 2.56051   0.59144   -0.06299  
H 1.27064   -1.76357  0.05304   
H -1.05521  -1.34701  -1.40040  
H -1.86795  0.94271   1.29860   
H -1.32675  1.41739   -1.27001  
C -0.26375  -0.53541  1.16408   
H -0.24018  -1.02478  2.13160   
