13   
From optimize.out: Frame 1 / 2, Energy=    -286.8516486485
C        1.4905838781    0.4711775155   -0.2292302004
C        0.7027017720   -0.8341092217    0.0002850662
C       -0.3007350927   -0.6077747574   -1.1338531143
C       -1.0746136457    0.4509684029    0.7482589630
C       -0.6415991178    0.8072959350   -0.6825858995
N        0.7443936819    1.4315185571   -0.6151779547
H        2.5600656925    0.5909836336   -0.0641922198
H        1.2696991906   -1.7635565714    0.0537405531
H       -1.0517684345   -1.3480311925   -1.4047025931
H       -1.8666043165    0.9453307314    1.3000824204
H       -1.3276382186    1.4161472669   -1.2694561774
C       -0.2641273627   -0.5357495884    1.1643775688
H       -0.2403580266   -1.0242007111    2.1324535877
