13   
From optimize.out: Frame 1 / 3, Energy=    -286.8549634740
C       -0.0091650000   -0.0145150000   -0.0000000000
C       -0.0839390000    0.0406450000   -0.0000000000
C       -0.1756340000   -0.0164870000   -0.0000000000
C       -0.1946920000   -0.0166870000    0.0000000000
C        0.0888090000    0.0193040000   -0.0000000000
N       -0.3915050000    0.0024930000   -0.0000000000
H        0.1367750000    0.0007680000   -0.0000000000
H        0.1395680000    0.0036340000   -0.0000000000
H        0.1551480000    0.0170130000   -0.0000000000
H        0.1553240000    0.0225030000   -0.0000000000
H        0.1429000000    0.0058740000   -0.0000000000
C       -0.1213620000    0.9584890000    0.0000000000
H        0.1577730000   -0.0230340000    0.0000000000
13   
From optimize.out: Frame 2 / 3, Energy=    -286.8549693703
C       -0.0092520000   -0.0146080000   -0.0000000000
C       -0.0839710000    0.0408450000   -0.0000000000
C       -0.1756450000   -0.0164980000   -0.0000000000
C       -0.1945590000   -0.0167810000    0.0000000000
C        0.0888350000    0.0192520000   -0.0000000000
N       -0.3915160000    0.0024830000   -0.0000000000
H        0.1368320000    0.0007730000   -0.0000000000
H        0.1395920000    0.0036200000   -0.0000000000
H        0.1551180000    0.0169690000   -0.0000000000
H        0.1553740000    0.0224760000   -0.0000000000
H        0.1428460000    0.0058820000   -0.0000000000
C       -0.1214120000    0.9586280000    0.0000000000
H        0.1577580000   -0.0230410000    0.0000000000
