13   
Frame   0 IRC: Energy =  -286.7511897150 ; +0.0000 kcal/mol
C       -0.0253160000   -0.0028420000   -0.0000000000
C       -0.3069340000    1.1746760000    0.0000000000
C       -0.3364580000   -0.2359020000    0.0000000000
C       -0.1593250000    0.0662450000    0.0000000000
C        0.1058950000   -0.1064640000   -0.0000000000
N       -0.0787070000    0.0163350000   -0.0000000000
H        0.1612800000   -0.0007840000   -0.0000000000
H        0.1392830000    0.0080620000    0.0000000000
H        0.1306000000    0.0782150000    0.0000000000
H        0.1179480000   -0.0023830000    0.0000000000
H        0.1133940000    0.0073110000   -0.0000000000
C       -0.0230810000   -0.0015650000   -0.0000000000
H        0.1614210000   -0.0009030000   -0.0000000000
13   
Frame   1 IRC: Energy =  -286.7511891741 ; +0.0003 kcal/mol
C       -0.0251160000   -0.0028320000   -0.0000000000
C       -0.3067960000    1.1744760000    0.0000000000
C       -0.3363840000   -0.2359160000    0.0000000000
C       -0.1599610000    0.0663170000    0.0000000000
C        0.1062110000   -0.1063850000   -0.0000000000
N       -0.0786780000    0.0163690000   -0.0000000000
H        0.1612680000   -0.0007880000   -0.0000000000
H        0.1392710000    0.0081050000    0.0000000000
H        0.1306170000    0.0781930000    0.0000000000
H        0.1179410000   -0.0023790000    0.0000000000
H        0.1133580000    0.0073130000   -0.0000000000
C       -0.0231200000   -0.0015700000   -0.0000000000
H        0.1613890000   -0.0009030000   -0.0000000000
13   
Frame   2 IRC: Energy =  -286.7511878318 ; +0.0012 kcal/mol
C       -0.0249720000   -0.0027830000   -0.0000000000
C       -0.3065730000    1.1740610000    0.0000000000
C       -0.3359450000   -0.2358820000    0.0000000000
C       -0.1604180000    0.0664760000    0.0000000000
C        0.1056500000   -0.1062560000   -0.0000000000
N       -0.0785850000    0.0164440000   -0.0000000000
H        0.1612850000   -0.0007960000   -0.0000000000
H        0.1392350000    0.0081420000    0.0000000000
H        0.1306260000    0.0781450000    0.0000000000
H        0.1179360000   -0.0023740000    0.0000000000
H        0.1133530000    0.0073210000   -0.0000000000
C       -0.0229340000   -0.0015920000   -0.0000000000
H        0.1613410000   -0.0009060000   -0.0000000000
13   
Frame   3 IRC: Energy =  -286.7511864652 ; +0.0020 kcal/mol
C       -0.0249000000   -0.0027740000   -0.0000000000
C       -0.3065090000    1.1738470000    0.0000000000
C       -0.3355600000   -0.2358130000    0.0000000000
C       -0.1600320000    0.0665360000    0.0000000000
C        0.1045730000   -0.1062000000   -0.0000000000
N       -0.0785000000    0.0164930000   -0.0000000000
H        0.1613160000   -0.0007990000   -0.0000000000
H        0.1392100000    0.0081210000    0.0000000000
H        0.1306130000    0.0781190000    0.0000000000
H        0.1179390000   -0.0023720000    0.0000000000
H        0.1133940000    0.0073300000   -0.0000000000
C       -0.0228610000   -0.0015750000   -0.0000000000
H        0.1613160000   -0.0009110000   -0.0000000000
13   
Frame   4 IRC: Energy =  -286.7511832799 ; +0.0040 kcal/mol
C       -0.0253020000   -0.0028450000   -0.0000000000
C       -0.3068410000    1.1743750000    0.0000000000
C       -0.3356300000   -0.2358130000    0.0000000000
C       -0.1583550000    0.0664120000    0.0000000000
C        0.1029510000   -0.1064100000   -0.0000000000
N       -0.0784960000    0.0164300000   -0.0000000000
H        0.1613780000   -0.0007910000   -0.0000000000
H        0.1392500000    0.0079550000    0.0000000000
H        0.1305640000    0.0781670000    0.0000000000
H        0.1179810000   -0.0023810000    0.0000000000
H        0.1135120000    0.0073280000   -0.0000000000
C       -0.0223360000   -0.0015000000   -0.0000000000
H        0.1613240000   -0.0009260000   -0.0000000000
13   
Frame   5 IRC: Energy =  -286.7511757789 ; +0.0087 kcal/mol
C       -0.0253080000   -0.0031450000   -0.0000000000
C       -0.3076480000    1.1757350000    0.0000000000
C       -0.3366380000   -0.2361080000    0.0000000000
C       -0.1571340000    0.0662330000    0.0000000000
C        0.1032550000   -0.1069810000   -0.0000000000
N       -0.0788550000    0.0162260000   -0.0000000000
H        0.1614760000   -0.0007560000   -0.0000000000
H        0.1393660000    0.0077410000    0.0000000000
H        0.1304900000    0.0783330000    0.0000000000
H        0.1180710000   -0.0023970000    0.0000000000
H        0.1135840000    0.0072960000   -0.0000000000
C       -0.0220020000   -0.0012190000   -0.0000000000
H        0.1613440000   -0.0009590000   -0.0000000000
13   
Frame   6 IRC: Energy =  -286.7511060033 ; +0.0525 kcal/mol
C       -0.0240870000   -0.0038710000   -0.0000000000
C       -0.3152440000    1.1862550000    0.0000000000
C       -0.3489870000   -0.2397790000    0.0000000000
C       -0.1854120000    0.0640710000    0.0000000000
C        0.1440690000   -0.1093570000   -0.0000000000
N       -0.0808900000    0.0139130000   -0.0000000000
H        0.1612810000   -0.0006460000   -0.0000000000
H        0.1403700000    0.0076660000    0.0000000000
H        0.1307190000    0.0795490000    0.0000000000
H        0.1177930000   -0.0024910000    0.0000000000
H        0.1136510000    0.0069360000   -0.0000000000
C       -0.0143900000   -0.0012980000   -0.0000000000
H        0.1611280000   -0.0009480000   -0.0000000000
13   
Frame   7 IRC: Energy =  -286.7510055688 ; +0.1156 kcal/mol
C       -0.0313110000   -0.0050520000   -0.0000000000
C       -0.3176770000    1.1886120000    0.0000000000
C       -0.3434290000   -0.2426800000    0.0000000000
C       -0.1943810000    0.0663610000    0.0000000000
C        0.1579840000   -0.1110940000   -0.0000000000
N       -0.0891560000    0.0132670000   -0.0000000000
H        0.1616620000   -0.0003730000   -0.0000000000
H        0.1407150000    0.0077830000    0.0000000000
H        0.1309490000    0.0798280000    0.0000000000
H        0.1178600000   -0.0025000000    0.0000000000
H        0.1136990000    0.0067820000   -0.0000000000
C       -0.0083950000    0.0001430000   -0.0000000000
H        0.1614810000   -0.0010770000   -0.0000000000
13   
Frame   8 IRC: Energy =  -286.7508687189 ; +0.2014 kcal/mol
C       -0.0427030000   -0.0050640000   -0.0000000000
C       -0.3146120000    1.1821770000    0.0000000000
C       -0.3178570000   -0.2460970000    0.0000000000
C       -0.1794590000    0.0759500000    0.0000000000
C        0.1388060000   -0.1128390000   -0.0000000000
N       -0.1047650000    0.0137110000   -0.0000000000
H        0.1629480000   -0.0000010000   -0.0000000000
H        0.1404440000    0.0081410000    0.0000000000
H        0.1313540000    0.0791160000    0.0000000000
H        0.1182890000   -0.0024200000    0.0000000000
H        0.1140670000    0.0067160000   -0.0000000000
C       -0.0087030000    0.0018140000   -0.0000000000
H        0.1621900000   -0.0012040000   -0.0000000000
13   
Frame   9 IRC: Energy =  -286.7507571065 ; +0.2715 kcal/mol
C       -0.0501450000   -0.0038080000   -0.0000000000
C       -0.3111850000    1.1737370000    0.0000000000
C       -0.2973580000   -0.2472520000    0.0000000000
C       -0.1553690000    0.0837040000    0.0000000000
C        0.1068210000   -0.1126960000   -0.0000000000
N       -0.1122690000    0.0143890000   -0.0000000000
H        0.1638530000    0.0002090000   -0.0000000000
H        0.1399400000    0.0084370000    0.0000000000
H        0.1317110000    0.0781420000    0.0000000000
H        0.1186930000   -0.0023220000    0.0000000000
H        0.1145390000    0.0067080000   -0.0000000000
C       -0.0118570000    0.0019720000   -0.0000000000
H        0.1626260000   -0.0012190000   -0.0000000000
13   
Frame  10 IRC: Energy =  -286.7506546298 ; +0.3358 kcal/mol
C       -0.0517450000   -0.0023960000   -0.0000000000
C       -0.3092280000    1.1653320000    0.0000000000
C       -0.2812260000   -0.2465190000    0.0000000000
C       -0.1344170000    0.0888710000    0.0000000000
C        0.0762470000   -0.1118070000   -0.0000000000
N       -0.1142700000    0.0155280000   -0.0000000000
H        0.1644170000    0.0003070000   -0.0000000000
H        0.1392690000    0.0084530000    0.0000000000
H        0.1318260000    0.0771060000    0.0000000000
H        0.1190660000   -0.0022370000    0.0000000000
H        0.1150610000    0.0067880000   -0.0000000000
C       -0.0178150000    0.0017970000   -0.0000000000
H        0.1628160000   -0.0012230000   -0.0000000000
13   
Frame  11 IRC: Energy =  -286.7503130000 ; +0.5501 kcal/mol
C       -0.0584280000    0.0004680000   -0.0000000000
C       -0.3110060000    1.1460090000    0.0000000000
C       -0.2571260000   -0.2408390000    0.0000000000
C       -0.0961010000    0.0920970000    0.0000000000
C        0.0204390000   -0.1066350000   -0.0000000000
N       -0.1119080000    0.0197770000   -0.0000000000
H        0.1647830000    0.0004010000   -0.0000000000
H        0.1373160000    0.0077660000    0.0000000000
H        0.1308060000    0.0750520000    0.0000000000
H        0.1198010000   -0.0021420000    0.0000000000
H        0.1164700000    0.0073330000   -0.0000000000
C       -0.0181620000    0.0019390000   -0.0000000000
H        0.1631150000   -0.0012260000   -0.0000000000
13   
Frame  12 IRC: Energy =  -286.7503040000 ; +0.5558 kcal/mol
C       -0.0583710000    0.0004750000   -0.0000000000
C       -0.3117090000    1.1462710000    0.0000000000
C       -0.2566620000   -0.2410800000    0.0000000000
C       -0.0948290000    0.0919420000    0.0000000000
C        0.0193360000   -0.1066640000   -0.0000000000
N       -0.1118190000    0.0198190000   -0.0000000000
H        0.1648550000    0.0004040000   -0.0000000000
H        0.1372890000    0.0076180000    0.0000000000
H        0.1307500000    0.0752910000    0.0000000000
H        0.1198700000   -0.0021510000    0.0000000000
H        0.1164530000    0.0073480000   -0.0000000000
C       -0.0182750000    0.0019550000   -0.0000000000
H        0.1631120000   -0.0012260000   -0.0000000000
13   
Frame  13 IRC: Energy =  -286.7502970000 ; +0.5602 kcal/mol
C       -0.0583510000    0.0004260000   -0.0000000000
C       -0.3124580000    1.1469730000    0.0000000000
C       -0.2566830000   -0.2414430000    0.0000000000
C       -0.0939060000    0.0917400000    0.0000000000
C        0.0189480000   -0.1068720000   -0.0000000000
N       -0.1117650000    0.0197910000   -0.0000000000
H        0.1649850000    0.0004080000   -0.0000000000
H        0.1372970000    0.0074660000    0.0000000000
H        0.1307020000    0.0755810000    0.0000000000
H        0.1199390000   -0.0021680000    0.0000000000
H        0.1164030000    0.0073560000   -0.0000000000
C       -0.0182620000    0.0019710000   -0.0000000000
H        0.1631510000   -0.0012290000   -0.0000000000
13   
Frame  14 IRC: Energy =  -286.7502330000 ; +0.6003 kcal/mol
C       -0.0585720000    0.0009520000   -0.0000000000
C       -0.3110230000    1.1429620000    0.0000000000
C       -0.2539380000   -0.2398380000    0.0000000000
C       -0.0904020000    0.0924610000    0.0000000000
C        0.0121510000   -0.1058040000   -0.0000000000
N       -0.1113360000    0.0204610000   -0.0000000000
H        0.1648650000    0.0004120000   -0.0000000000
H        0.1370200000    0.0076970000    0.0000000000
H        0.1306870000    0.0747480000    0.0000000000
H        0.1198980000   -0.0021230000    0.0000000000
H        0.1165960000    0.0074100000   -0.0000000000
C       -0.0191590000    0.0018900000   -0.0000000000
H        0.1632110000   -0.0012290000   -0.0000000000
13   
Frame  15 IRC: Energy =  -286.7502240000 ; +0.6060 kcal/mol
C       -0.0587100000    0.0010820000   -0.0000000000
C       -0.3099300000    1.1416590000    0.0000000000
C       -0.2535650000   -0.2391920000    0.0000000000
C       -0.0911690000    0.0927790000    0.0000000000
C        0.0117600000   -0.1054080000   -0.0000000000
N       -0.1113460000    0.0205790000   -0.0000000000
H        0.1647770000    0.0004110000   -0.0000000000
H        0.1369590000    0.0078920000    0.0000000000
H        0.1307350000    0.0742740000    0.0000000000
H        0.1197980000   -0.0020950000    0.0000000000
H        0.1166620000    0.0074050000   -0.0000000000
C       -0.0192240000    0.0018410000   -0.0000000000
H        0.1632520000   -0.0012280000   -0.0000000000
13   
Frame  16 IRC: Energy =  -286.7501480000 ; +0.6537 kcal/mol
C       -0.0586100000    0.0014300000   -0.0000000000
C       -0.3111820000    1.1400500000    0.0000000000
C       -0.2508920000   -0.2388880000    0.0000000000
C       -0.0850020000    0.0927540000    0.0000000000
C        0.0043340000   -0.1050260000   -0.0000000000
N       -0.1107620000    0.0211370000   -0.0000000000
H        0.1649390000    0.0004230000   -0.0000000000
H        0.1367370000    0.0076240000    0.0000000000
H        0.1305660000    0.0745040000    0.0000000000
H        0.1200010000   -0.0021050000    0.0000000000
H        0.1167130000    0.0074860000   -0.0000000000
C       -0.0201330000    0.0018410000   -0.0000000000
H        0.1632910000   -0.0012310000   -0.0000000000
13   
Frame  17 IRC: Energy =  -286.7501430000 ; +0.6568 kcal/mol
C       -0.0585320000    0.0013970000   -0.0000000000
C       -0.3116540000    1.1405200000    0.0000000000
C       -0.2509700000   -0.2390930000    0.0000000000
C       -0.0840330000    0.0926660000    0.0000000000
C        0.0038760000   -0.1052560000   -0.0000000000
N       -0.1107250000    0.0211290000   -0.0000000000
H        0.1649360000    0.0004230000   -0.0000000000
H        0.1367540000    0.0075310000    0.0000000000
H        0.1305500000    0.0746800000    0.0000000000
H        0.1200600000   -0.0021220000    0.0000000000
H        0.1167200000    0.0074910000   -0.0000000000
C       -0.0202200000    0.0018650000   -0.0000000000
H        0.1632380000   -0.0012310000   -0.0000000000
13   
Frame  18 IRC: Energy =  -286.7501010000 ; +0.6832 kcal/mol
C       -0.0586400000    0.0017220000   -0.0000000000
C       -0.3108660000    1.1381070000    0.0000000000
C       -0.2492370000   -0.2381590000    0.0000000000
C       -0.0827370000    0.0930070000    0.0000000000
C        0.0004050000   -0.1044810000   -0.0000000000
N       -0.1104650000    0.0215280000   -0.0000000000
H        0.1649350000    0.0004280000   -0.0000000000
H        0.1365700000    0.0076560000    0.0000000000
H        0.1305220000    0.0741910000    0.0000000000
H        0.1200120000   -0.0020870000    0.0000000000
H        0.1167920000    0.0075230000   -0.0000000000
C       -0.0206300000    0.0017980000   -0.0000000000
H        0.1633390000   -0.0012310000   -0.0000000000
13   
Frame  19 IRC: Energy =  -286.7500900000 ; +0.6901 kcal/mol
C       -0.0585920000    0.0017310000   -0.0000000000
C       -0.3114870000    1.1382710000    0.0000000000
C       -0.2489770000   -0.2383590000    0.0000000000
C       -0.0813500000    0.0928760000    0.0000000000
C       -0.0006450000   -0.1045770000   -0.0000000000
N       -0.1104090000    0.0215660000   -0.0000000000
H        0.1649840000    0.0004300000   -0.0000000000
H        0.1365740000    0.0075700000    0.0000000000
H        0.1304790000    0.0744660000    0.0000000000
H        0.1200880000   -0.0020960000    0.0000000000
H        0.1167890000    0.0075330000   -0.0000000000
C       -0.0207820000    0.0018200000   -0.0000000000
H        0.1633280000   -0.0012320000   -0.0000000000
13   
Frame  20 IRC: Energy =  -286.7500630000 ; +0.7070 kcal/mol
C       -0.0586480000    0.0019250000   -0.0000000000
C       -0.3108240000    1.1369080000    0.0000000000
C       -0.2481230000   -0.2376850000    0.0000000000
C       -0.0806050000    0.0931570000    0.0000000000
C       -0.0027230000   -0.1042070000   -0.0000000000
N       -0.1102190000    0.0218240000   -0.0000000000
H        0.1649600000    0.0004320000   -0.0000000000
H        0.1364480000    0.0076260000    0.0000000000
H        0.1304850000    0.0740070000    0.0000000000
H        0.1200490000   -0.0020820000    0.0000000000
H        0.1168470000    0.0075540000   -0.0000000000
C       -0.0210240000    0.0017740000   -0.0000000000
H        0.1633750000   -0.0012330000   -0.0000000000
13   
Frame  21 IRC: Energy =  -286.7500510000 ; +0.7146 kcal/mol
C       -0.0585900000    0.0019540000   -0.0000000000
C       -0.3113990000    1.1367290000    0.0000000000
C       -0.2475210000   -0.2378530000    0.0000000000
C       -0.0795160000    0.0930310000    0.0000000000
C       -0.0038310000   -0.1041220000   -0.0000000000
N       -0.1101590000    0.0218760000   -0.0000000000
H        0.1649970000    0.0004350000   -0.0000000000
H        0.1364460000    0.0075910000    0.0000000000
H        0.1304280000    0.0743100000    0.0000000000
H        0.1201070000   -0.0020800000    0.0000000000
H        0.1168470000    0.0075640000   -0.0000000000
C       -0.0211800000    0.0018000000   -0.0000000000
H        0.1633700000   -0.0012330000   -0.0000000000
13   
Frame  22 IRC: Energy =  -286.7500240000 ; +0.7315 kcal/mol
C       -0.0586340000    0.0021070000   -0.0000000000
C       -0.3108420000    1.1356990000    0.0000000000
C       -0.2469990000   -0.2372340000    0.0000000000
C       -0.0785240000    0.0932740000    0.0000000000
C       -0.0057470000   -0.1039080000   -0.0000000000
N       -0.1099860000    0.0221120000   -0.0000000000
H        0.1649820000    0.0004380000   -0.0000000000
H        0.1363340000    0.0075980000    0.0000000000
H        0.1304410000    0.0738670000    0.0000000000
H        0.1200860000   -0.0020740000    0.0000000000
H        0.1168970000    0.0075840000   -0.0000000000
C       -0.0214140000    0.0017730000   -0.0000000000
H        0.1634070000   -0.0012350000   -0.0000000000
13   
Frame  23 IRC: Energy =  -286.7500120000 ; +0.7390 kcal/mol
C       -0.0585710000    0.0021260000   -0.0000000000
C       -0.3114020000    1.1354450000    0.0000000000
C       -0.2462780000   -0.2373880000    0.0000000000
C       -0.0775090000    0.0931560000    0.0000000000
C       -0.0068620000   -0.1037550000   -0.0000000000
N       -0.1099260000    0.0221580000   -0.0000000000
H        0.1650010000    0.0004410000   -0.0000000000
H        0.1363280000    0.0075550000    0.0000000000
H        0.1303730000    0.0741660000    0.0000000000
H        0.1201300000   -0.0020690000    0.0000000000
H        0.1168910000    0.0075930000   -0.0000000000
C       -0.0215700000    0.0018070000   -0.0000000000
H        0.1633950000   -0.0012360000   -0.0000000000
13   
Frame  24 IRC: Energy =  -286.7499760000 ; +0.7616 kcal/mol
C       -0.0586160000    0.0023340000   -0.0000000000
C       -0.3108260000    1.1341420000    0.0000000000
C       -0.2455430000   -0.2367120000    0.0000000000
C       -0.0761900000    0.0933910000    0.0000000000
C       -0.0094110000   -0.1034840000   -0.0000000000
N       -0.1096920000    0.0224680000   -0.0000000000
H        0.1650150000    0.0004440000   -0.0000000000
H        0.1361960000    0.0076020000    0.0000000000
H        0.1303910000    0.0737190000    0.0000000000
H        0.1201360000   -0.0020630000    0.0000000000
H        0.1169630000    0.0076200000   -0.0000000000
C       -0.0218810000    0.0017780000   -0.0000000000
H        0.1634560000   -0.0012380000   -0.0000000000
13   
Frame  25 IRC: Energy =  -286.7499700000 ; +0.7654 kcal/mol
C       -0.0586730000    0.0023580000   -0.0000000000
C       -0.3103970000    1.1342340000    0.0000000000
C       -0.2460250000   -0.2364530000    0.0000000000
C       -0.0761260000    0.0935120000    0.0000000000
C       -0.0094140000   -0.1036140000   -0.0000000000
N       -0.1096630000    0.0225210000   -0.0000000000
H        0.1650120000    0.0004440000   -0.0000000000
H        0.1361540000    0.0075610000    0.0000000000
H        0.1304430000    0.0733710000    0.0000000000
H        0.1201300000   -0.0020720000    0.0000000000
H        0.1169770000    0.0076250000   -0.0000000000
C       -0.0218850000    0.0017530000   -0.0000000000
H        0.1634660000   -0.0012390000   -0.0000000000
13   
Frame  26 IRC: Energy =  -286.7496790000 ; +0.9480 kcal/mol
C       -0.0581270000    0.0037940000   -0.0000000000
C       -0.3111140000    1.1251550000    0.0000000000
C       -0.2373010000   -0.2334840000    0.0000000000
C       -0.0643080000    0.0941600000    0.0000000000
C       -0.0288250000   -0.1012010000   -0.0000000000
N       -0.1079330000    0.0245400000   -0.0000000000
H        0.1651420000    0.0004730000   -0.0000000000
H        0.1354100000    0.0074850000    0.0000000000
H        0.1300590000    0.0728580000    0.0000000000
H        0.1203420000   -0.0019900000    0.0000000000
H        0.1172890000    0.0078170000   -0.0000000000
C       -0.0243180000    0.0016350000   -0.0000000000
H        0.1636850000   -0.0012420000   -0.0000000000
13   
Frame  27 IRC: Energy =  -286.7496670000 ; +0.9555 kcal/mol
C       -0.0581890000    0.0038770000   -0.0000000000
C       -0.3106850000    1.1249550000    0.0000000000
C       -0.2375980000   -0.2331240000    0.0000000000
C       -0.0640790000    0.0942680000    0.0000000000
C       -0.0290930000   -0.1012150000   -0.0000000000
N       -0.1079050000    0.0246430000   -0.0000000000
H        0.1651250000    0.0004720000   -0.0000000000
H        0.1353490000    0.0074490000    0.0000000000
H        0.1301020000    0.0724970000    0.0000000000
H        0.1203370000   -0.0019920000    0.0000000000
H        0.1173080000    0.0078240000   -0.0000000000
C       -0.0243740000    0.0015890000   -0.0000000000
H        0.1637000000   -0.0012420000   -0.0000000000
13   
Frame  28 IRC: Energy =  -286.7495730000 ; +1.0145 kcal/mol
C       -0.0579010000    0.0043470000   -0.0000000000
C       -0.3112250000    1.1222060000    0.0000000000
C       -0.2347060000   -0.2323810000    0.0000000000
C       -0.0607980000    0.0943990000    0.0000000000
C       -0.0348170000   -0.1004930000   -0.0000000000
N       -0.1073500000    0.0252380000   -0.0000000000
H        0.1651840000    0.0004790000   -0.0000000000
H        0.1351570000    0.0074480000    0.0000000000
H        0.1299540000    0.0725570000    0.0000000000
H        0.1204070000   -0.0019670000    0.0000000000
H        0.1173940000    0.0078800000   -0.0000000000
C       -0.0250620000    0.0015250000   -0.0000000000
H        0.1637620000   -0.0012390000   -0.0000000000
13   
Frame  29 IRC: Energy =  -286.7495580000 ; +1.0239 kcal/mol
C       -0.0579600000    0.0044390000   -0.0000000000
C       -0.3107880000    1.1219280000    0.0000000000
C       -0.2349630000   -0.2319920000    0.0000000000
C       -0.0604990000    0.0944970000    0.0000000000
C       -0.0351920000   -0.1004700000   -0.0000000000
N       -0.1073170000    0.0253610000   -0.0000000000
H        0.1651630000    0.0004790000   -0.0000000000
H        0.1350880000    0.0074100000    0.0000000000
H        0.1299970000    0.0721820000    0.0000000000
H        0.1204050000   -0.0019670000    0.0000000000
H        0.1174160000    0.0078870000   -0.0000000000
C       -0.0251320000    0.0014850000   -0.0000000000
H        0.1637820000   -0.0012390000   -0.0000000000
13   
Frame  30 IRC: Energy =  -286.7494860000 ; +1.0691 kcal/mol
C       -0.0577010000    0.0047350000   -0.0000000000
C       -0.3113190000    1.1198700000    0.0000000000
C       -0.2326840000   -0.2315000000    0.0000000000
C       -0.0581690000    0.0945800000    0.0000000000
C       -0.0394210000   -0.0999350000   -0.0000000000
N       -0.1068830000    0.0257930000   -0.0000000000
H        0.1652160000    0.0004870000   -0.0000000000
H        0.1349590000    0.0074170000    0.0000000000
H        0.1298720000    0.0723160000    0.0000000000
H        0.1204570000   -0.0019470000    0.0000000000
H        0.1174760000    0.0079280000   -0.0000000000
C       -0.0256270000    0.0014940000   -0.0000000000
H        0.1638230000   -0.0012390000   -0.0000000000
13   
Frame  31 IRC: Energy =  -286.7494680000 ; +1.0804 kcal/mol
C       -0.0577480000    0.0048380000   -0.0000000000
C       -0.3109000000    1.1195400000    0.0000000000
C       -0.2329020000   -0.2310870000    0.0000000000
C       -0.0577930000    0.0946710000    0.0000000000
C       -0.0399000000   -0.0998940000   -0.0000000000
N       -0.1068450000    0.0259330000   -0.0000000000
H        0.1651960000    0.0004870000   -0.0000000000
H        0.1348830000    0.0073720000    0.0000000000
H        0.1299130000    0.0719350000    0.0000000000
H        0.1204590000   -0.0019460000    0.0000000000
H        0.1174990000    0.0079370000   -0.0000000000
C       -0.0257070000    0.0014540000   -0.0000000000
H        0.1638450000   -0.0012390000   -0.0000000000
13   
Frame  32 IRC: Energy =  -286.7494070000 ; +1.1187 kcal/mol
C       -0.0575110000    0.0050850000   -0.0000000000
C       -0.3114030000    1.1178060000    0.0000000000
C       -0.2309280000   -0.2307130000    0.0000000000
C       -0.0559630000    0.0947370000    0.0000000000
C       -0.0433750000   -0.0994480000   -0.0000000000
N       -0.1064680000    0.0262870000   -0.0000000000
H        0.1652430000    0.0004940000   -0.0000000000
H        0.1347870000    0.0073900000    0.0000000000
H        0.1298010000    0.0721010000    0.0000000000
H        0.1205000000   -0.0019300000    0.0000000000
H        0.1175480000    0.0079690000   -0.0000000000
C       -0.0261070000    0.0014610000   -0.0000000000
H        0.1638760000   -0.0012390000   -0.0000000000
13   
Frame  33 IRC: Energy =  -286.7493870000 ; +1.1312 kcal/mol
C       -0.0575400000    0.0051960000   -0.0000000000
C       -0.3110130000    1.1174340000    0.0000000000
C       -0.2310980000   -0.2302850000    0.0000000000
C       -0.0555140000    0.0948210000    0.0000000000
C       -0.0439600000   -0.0993910000   -0.0000000000
N       -0.1064270000    0.0264400000   -0.0000000000
H        0.1652240000    0.0004940000   -0.0000000000
H        0.1347030000    0.0073350000    0.0000000000
H        0.1298390000    0.0717190000    0.0000000000
H        0.1205050000   -0.0019280000    0.0000000000
H        0.1175720000    0.0079800000   -0.0000000000
C       -0.0261920000    0.0014230000   -0.0000000000
H        0.1639010000   -0.0012390000   -0.0000000000
13   
Frame  34 IRC: Energy =  -286.7493330000 ; +1.1651 kcal/mol
C       -0.0573260000    0.0054160000   -0.0000000000
C       -0.3114800000    1.1158760000    0.0000000000
C       -0.2293180000   -0.2299700000    0.0000000000
C       -0.0539920000    0.0948810000    0.0000000000
C       -0.0469780000   -0.0989990000   -0.0000000000
N       -0.1060750000    0.0267510000   -0.0000000000
H        0.1652670000    0.0005000000   -0.0000000000
H        0.1346290000    0.0073640000    0.0000000000
H        0.1297360000    0.0718970000    0.0000000000
H        0.1205400000   -0.0019130000    0.0000000000
H        0.1176130000    0.0080070000   -0.0000000000
C       -0.0265420000    0.0014280000   -0.0000000000
H        0.1639250000   -0.0012390000   -0.0000000000
13   
Frame  35 IRC: Energy =  -286.7493090000 ; +1.1802 kcal/mol
C       -0.0573290000    0.0055310000   -0.0000000000
C       -0.3111250000    1.1154680000    0.0000000000
C       -0.2294310000   -0.2295260000    0.0000000000
C       -0.0534610000    0.0949560000    0.0000000000
C       -0.0476790000   -0.0989260000   -0.0000000000
N       -0.1060400000    0.0269150000   -0.0000000000
H        0.1652490000    0.0005000000   -0.0000000000
H        0.1345360000    0.0072970000    0.0000000000
H        0.1297690000    0.0715170000    0.0000000000
H        0.1205460000   -0.0019110000    0.0000000000
H        0.1176380000    0.0080190000   -0.0000000000
C       -0.0266240000    0.0013980000   -0.0000000000
H        0.1639510000   -0.0012390000   -0.0000000000
13   
Frame  36 IRC: Energy =  -286.7492590000 ; +1.2115 kcal/mol
C       -0.0571420000    0.0057370000   -0.0000000000
C       -0.3115520000    1.1140020000    0.0000000000
C       -0.2277810000   -0.2292440000    0.0000000000
C       -0.0521950000    0.0950180000    0.0000000000
C       -0.0503710000   -0.0985650000   -0.0000000000
N       -0.1056840000    0.0272020000   -0.0000000000
H        0.1652900000    0.0005060000   -0.0000000000
H        0.1344790000    0.0073390000    0.0000000000
H        0.1296740000    0.0716990000    0.0000000000
H        0.1205800000   -0.0018960000    0.0000000000
H        0.1176800000    0.0080430000   -0.0000000000
C       -0.0269480000    0.0013980000   -0.0000000000
H        0.1639710000   -0.0012380000   -0.0000000000
13   
Frame  37 IRC: Energy =  -286.7492320000 ; +1.2285 kcal/mol
C       -0.0571120000    0.0058380000   -0.0000000000
C       -0.3112510000    1.1135440000    0.0000000000
C       -0.2277860000   -0.2287870000    0.0000000000
C       -0.0517050000    0.0950780000    0.0000000000
C       -0.0511420000   -0.0984690000   -0.0000000000
N       -0.1056660000    0.0273690000   -0.0000000000
H        0.1652720000    0.0005080000   -0.0000000000
H        0.1343750000    0.0072680000    0.0000000000
H        0.1297060000    0.0713240000    0.0000000000
H        0.1205840000   -0.0018920000    0.0000000000
H        0.1177260000    0.0080550000   -0.0000000000
C       -0.0270010000    0.0014030000   -0.0000000000
H        0.1640000000   -0.0012380000   -0.0000000000
13   
Frame  38 IRC: Energy =  -286.7491930000 ; +1.2530 kcal/mol
C       -0.0570870000    0.0060790000   -0.0000000000
C       -0.3115170000    1.1127490000    0.0000000000
C       -0.2271130000   -0.2285720000    0.0000000000
C       -0.0494220000    0.0951720000    0.0000000000
C       -0.0535900000   -0.0983490000   -0.0000000000
N       -0.1053660000    0.0275930000   -0.0000000000
H        0.1653390000    0.0005060000   -0.0000000000
H        0.1343940000    0.0071740000    0.0000000000
H        0.1295780000    0.0714860000    0.0000000000
H        0.1205920000   -0.0018890000    0.0000000000
H        0.1175530000    0.0080690000   -0.0000000000
C       -0.0273800000    0.0012170000   -0.0000000000
H        0.1640200000   -0.0012350000   -0.0000000000
13   