
Running Job 1 of 1 irc_reactant.in
qchem irc_reactant.in_34619.0 ./irc_reactant.d/ 1
/home/leeping/opt/qchem/5.0.2-openmp/exe/qcprog.exe_s irc_reactant.in_34619.0 ./irc_reactant.d/
Check license passed

                  Welcome to Q-Chem
     A Quantum Leap Into The Future Of Chemistry


 Q-Chem 5.0, Q-Chem, Inc., Pleasanton, CA (2017)

 Yihan Shao,  Zhengting Gan,  E. Epifanovsky,  A. T. B. Gilbert,  M. Wormit,  
 J. Kussmann,  A. W. Lange,  A. Behn,  Jia Deng,  Xintian Feng,  D. Ghosh,  
 M. Goldey,  P. R. Horn,  L. D. Jacobson,  I. Kaliman,  T. Kus,  A. Landau,  
 Jie Liu,  E. I. Proynov,  R. M. Richard,  R. P. Steele,  E. J. Sundstrom,  
 H. L. Woodcock III,  P. M. Zimmerman,  D. Zuev,  B. Albrecht,  E. Alguire,  
 S. A. Baeppler,  D. Barton,  Z. Benda,  Y. A. Bernard,  E. J. Berquist,  
 K. B. Bravaya,  H. Burton,  D. Casanova,  Chun-Min Chang,  Yunqing Chen,  
 A. Chien,  K. D. Closser,  M. P. Coons,  S. Dasgupta,  A. L. Dempwolff,  
 M. Diedenhofen,  Hainam Do,  R. G. Edgar,  Po-Tung Fang,  S. Fatehi,  
 Qingguo Feng,  J. Fosso-Tande,  Qinghui Ge,  A. Ghysels,  G. Gidofalvi,  
 J. Gomes,  J. Gonthier,  A. Gunina,  M. W. D. Hanson-Heine,  
 P. H. P. Harbach,  A. W. Hauser,  J. E. Herr,  E. G. Hohenstein,  
 Z. C. Holden,  Kerwin Hui,  T.-C. Jagau,  Hyunjun Ji,  B. Kaduk,  
 K. Khistyaev,  Jaehoon Kim,  P. Klunzinger,  K. Koh,  D. Kosenkov,  
 L. Koulias,  T. Kowalczyk,  C. M. Krauter,  A. Kunitsa,  Ka Un Lao,  
 A. Laurent,  K. V. Lawler,  Joonho Lee,  D. Lefrancois,  S. Lehtola,  
 D. S. Levine,  Yi-Pei Li,  You-Sheng Lin,  Fenglai Liu,  E. Livshits,  
 A. Luenser,  P. Manohar,  E. Mansoor,  S. F. Manzer,  Shan-Ping Mao,  
 Yuezhi Mao,  N. Mardirossian,  A. V. Marenich,  T. Markovich,  
 L. A. Martinez-Martinez,  S. A. Maurer,  N. J. Mayhall,  S. C. McKenzie,  
 J.-M. Mewes,  A. F. Morrison,  J. W. Mullinax,  K. Nanda,  
 T. S. Nguyen-Beck,  R. Olivares-Amaya,  J. A. Parkhill,  T. M. Perrine,  
 F. Plasser,  S. Prager,  A. Prociuk,  E. Ramos,  D. R. Rehn,  F. Rob,  
 M. Schneider,  N. Sergueev,  S. M. Sharada,  S. Sharma,  D. W. Small,  
 T. Stauch,  T. Stein,  Yu-Chuan Su,  A. J. W. Thom,  A. Tkatchenko,  
 T. Tsuchimochi,  L. Vogt,  O. Vydrov,  M. A. Watson,  J. Wenzel,  
 M. de Wergifosse,  T. A. Wesolowski,  A. White,  J. Witte,  A. Yamada,  
 Jun Yang,  K. Yao,  S. Yeganeh,  S. R. Yost,  Zhi-Qiang You,  A. Zech,  
 Igor Ying Zhang,  Xing Zhang,  Yan Zhao,  Ying Zhu,  B. R. Brooks,  
 G. K. L. Chan,  C. J. Cramer,  M. S. Gordon,  W. J. Hehre,  A. Klamt,  
 M. W. Schmidt,  C. D. Sherrill,  D. G. Truhlar,  A. Aspuru-Guzik,  R. Baer,  
 A. T. Bell,  N. A. Besley,  Jeng-Da Chai,  R. A. DiStasio Jr.,  A. Dreuw,  
 B. D. Dunietz,  T. R. Furlani,  Chao-Ping Hsu,  Yousung Jung,  Jing Kong,  
 D. S. Lambrecht,  WanZhen Liang,  C. Ochsenfeld,  V. A. Rassolov,  
 L. V. Slipchenko,  J. E. Subotnik,  T. Van Voorhis,  J. M. Herbert,  
 A. I. Krylov,  P. M. W. Gill,  M. Head-Gordon

 Contributors to earlier versions of Q-Chem not listed above: 
 R. D. Adamson,  B. Austin,  J. Baker,  G. J. O. Beran,  K. Brandhorst,  
 S. T. Brown,  E. F. C. Byrd,  A. K. Chakraborty,  C.-L. Cheng,  
 Siu Hung Chien,  D. M. Chipman,  D. L. Crittenden,  H. Dachsel,  
 R. J. Doerksen,  A. D. Dutoi,  L. Fusti-Molnar,  W. A. Goddard III,  
 A. Golubeva-Zadorozhnaya,  S. R. Gwaltney,  G. Hawkins,  A. Heyden,  
 S. Hirata,  G. Kedziora,  F. J. Keil,  C. Kelley,  Jihan Kim,  R. A. King,  
 R. Z. Khaliullin,  P. P. Korambath,  W. Kurlancheek,  A. M. Lee,  M. S. Lee,  
 S. V. Levchenko,  Ching Yeh Lin,  D. Liotard,  R. C. Lochan,  I. Lotan,  
 P. E. Maslen,  N. Nair,  D. P. O'Neill,  D. Neuhauser,  E. Neuscamman,  
 C. M. Oana,  R. Olson,  B. Peters,  R. Peverati,  P. A. Pieniazek,  
 Y. M. Rhee,  J. Ritchie,  M. A. Rohrdanz,  E. Rosta,  N. J. Russ,  
 H. F. Schaefer III,  N. E. Schultz,  N. Shenvi,  A. C. Simmonett,  A. Sodt,  
 D. Stuck,  K. S. Thanthiriwatte,  V. Vanovschi,  Tao Wang,  A. Warshel,  
 C. F. Williams,  Q. Wu,  X. Xu,  W. Zhang

 Please cite Q-Chem as follows:
 Y. Shao et al., Mol. Phys. 113, 184-215 (2015)
 DOI: 10.1080/00268976.2014.952696

 Q-Chem 5.0.2 for Intel X86 EM64T Linux

 Parts of Q-Chem use Armadillo 5.200.1 (Boston Tea Smuggler).
 http://arma.sourceforge.net/

 Q-Chem begins on Thu Mar  3 15:25:56 2022  

Host: 
0

     Scratch files written to ./irc_reactant.d//
 Dec517 15110_ 26548  26544 5633   
Processing $rem in /home/leeping/opt/qchem/5.0.2-openmp/config/preferences.
 MEM_STATIC 2000
 MEM_TOTAL  8000
 SYMMETRY   OFF
 SYM_IGNORE TRUE 

Checking the input file for inconsistencies... 	...done.

--------------------------------------------------------------
User input:
--------------------------------------------------------------
$molecule
0 2
C        1.3752161196    0.4386103007   -1.9041452740
C        0.2748442867   -1.4882525680    1.7288941625
C       -0.9539552648   -1.0441857678    1.5041220839
C       -1.3826196781   -0.0963319347    0.4703555377
C       -0.6012169490    0.5078903446   -0.4450687737
N        0.8055330511    0.2779938395   -0.5068268692
H        1.4594598234   -0.1641715423   -2.7917705009
H        0.7178028860   -2.1719860884    2.4426277962
H       -1.7597170328   -1.4130133103    2.1519418867
H       -2.4434791337    0.1392201146    0.4454802217
H       -1.0321981955    1.2011777785   -1.1731124212
C        1.5717216917    1.4342570075   -1.1258932655
H        1.9686083956    2.3787918263   -0.7966045839
$end

$rem
method                b3lyp
basis                 6-31+g(d,p)
unrestricted          true
symmetry              off
sym_ignore            true
incdft                false
incfock               0
scf_convergence       6
thresh                14
jobtype               sp
scf_guess             read
scf_algorithm         diis
max_scf_cycles        100
stability_analysis    true
max_cis_cycles        100
cis_n_roots           4
$end

--------------------------------------------------------------
 ----------------------------------------------------------------
             Standard Nuclear Orientation (Angstroms)
    I     Atom           X                Y                Z
 ----------------------------------------------------------------
    1      C       1.3752161196     0.4386103007    -1.9041452740
    2      C       0.2748442867    -1.4882525680     1.7288941625
    3      C      -0.9539552648    -1.0441857678     1.5041220839
    4      C      -1.3826196781    -0.0963319347     0.4703555377
    5      C      -0.6012169490     0.5078903446    -0.4450687737
    6      N       0.8055330511     0.2779938395    -0.5068268692
    7      H       1.4594598234    -0.1641715423    -2.7917705009
    8      H       0.7178028860    -2.1719860884     2.4426277962
    9      H      -1.7597170328    -1.4130133103     2.1519418867
   10      H      -2.4434791337     0.1392201146     0.4454802217
   11      H      -1.0321981955     1.2011777785    -1.1731124212
   12      C       1.5717216917     1.4342570075    -1.1258932655
   13      H       1.9686083956     2.3787918263    -0.7966045839
 ----------------------------------------------------------------
 Nuclear Repulsion Energy =   246.7505275570 hartrees
 There are       25 alpha and       24 beta electrons
 Requested basis set is 6-31+G(d,p)
 There are 53 shells and 163 basis functions

 Total QAlloc Memory Limit   8000 MB
 Mega-Array Size      1956 MB
 MEM_STATIC part      2000 MB

                       Distance Matrix (Angstroms)
             C (  1)   C (  2)   C (  3)   C (  4)   C (  5)   N (  6)
   C (  2)  4.257064
   C (  3)  4.386344  1.325770
   C (  4)  3.678325  2.503707  1.466579
   C (  5)  2.457639  3.078666  2.516488  1.346728
   N (  6)  1.517510  2.898225  2.981254  2.425493  1.426749
   H (  7)  1.076253  4.857254  5.005366  4.327064  3.194537  2.417457
   H (  8)  5.112909  1.083106  2.224298  3.551052  4.154557  3.835281
   H (  9)  5.450519  2.079440  1.097705  2.168775  3.431684  4.063135
   H ( 10)  4.493641  3.418348  2.177120  1.086980  2.079165  3.388544
   H ( 11)  2.628985  4.166898  3.495048  2.123043  1.093819  2.161819
   C ( 12)  1.278907  4.286346  4.408934  3.690372  2.458320  1.518958
   H ( 13)  2.311507  4.919453  5.054849  4.354556  3.198101  2.418691
             H (  7)   H (  8)   H (  9)   H ( 10)   H ( 11)   C ( 12)
   H (  8)  5.655113
   H (  9)  6.030174  2.607421
   H ( 10)  5.079840  4.395905  2.406028
   H ( 11)  3.269953  5.245409  4.291767  2.395686
   C ( 12)  2.311433  5.144756  5.472626  4.502019  2.614757
   H ( 13)  3.272091  5.724222  6.080471  5.101468  3.245516  1.076149

 
 A cutoff of  1.0D-14 yielded   1317 shell pairs
 There are     13035 function pairs
 Smallest overlap matrix eigenvalue = 1.33E-05

 Scale SEOQF with 1.000000e-01/1.000000e-01/1.000000e-01

 Standard Electronic Orientation quadrupole field applied
 Nucleus-field energy     =    -0.0000000033 hartrees
 Guess MOs from SCF MO coefficient file
 Reading MOs from coefficient file
 Reading MOs from coefficient file
 An unrestricted hybrid HF-DFT SCF calculation will be
 performed using Pulay DIIS extrapolation
 Exchange:     0.2000 Hartree-Fock + 0.0800 Slater + 0.7200 B88
 Correlation:  0.1900 VWN1RPA + 0.8100 LYP
 Using SG-1 standard quadrature grid
 SCF converges when DIIS error is below 1.0E-06
Using Q-Chem read-in guess as SCF_GUESS READ specified.

 -------------------------------------------------------
 OpenMP BLAS3 based DFT computing Module                
 -------------------------------------------------------
 ---------------------------------------
  Cycle       Energy         DIIS Error
 ---------------------------------------
    1    -286.7511897150      1.63E-09
    2    -286.7511897150      1.61E-09 Convergence criterion met
 ---------------------------------------
 <S^2> = 0.7678
 SCF time:  CPU 6.03 s  wall 6.22 s
 SCF   energy in the final basis set = -286.75118972
 Total energy in the final basis set = -286.75118972
 
 Direct TDDFT/TDA calculation will be performed
 Exchange:     0.2000 Hartree-Fock + 0.0800 Slater + 0.7200 B88
 Correlation:  0.1900 VWN1RPA + 0.8100 LYP
 Using SG-1 standard quadrature grid
 CIS energy converged when residual is below 10e- 6
 ---------------------------------------------------
 Iter    Rts Conv    Rts Left    Ttl Dev     Max Dev
 ---------------------------------------------------
   1         0           4      0.003363    0.001452
   2         0           4      0.001585    0.000694
   3         0           4      0.000757    0.000327
   4         0           4      0.000740    0.000410
   5         0           4      0.000191    0.000100
   6         1           3      0.000065    0.000031
   7         1           3      0.000026    0.000013
   8         2           2      0.000008    0.000004
   9         4           0      0.000002    0.000001    Roots Converged
 ---------------------------------------------------
 
 ---------------------------------------------------
         TDDFT/TDA Excitation Energies              
 ---------------------------------------------------

 Excited state   1: excitation energy (eV) =    2.6256
 Total energy for state  1:                  -286.65470215 au
    <S**2>     :  0.8022
    Trans. Mom.: -0.0184 X  -0.0953 Y  -0.0820 Z
    Strength   :     0.0010390305
    S(  1) --> V(  1) amplitude =  0.3421 alpha
    D( 22) --> S(  1) amplitude = -0.1757 beta
    D( 24) --> S(  1) amplitude =  0.9010 beta

 Excited state   2: excitation energy (eV) =    2.8851
 Total energy for state  2:                  -286.64516562 au
    <S**2>     :  2.0896
    Trans. Mom.:  0.0001 X  -0.0048 Y   0.0044 Z
    Strength   :     0.0000030384
    D( 23) --> V(  1) amplitude = -0.2276 alpha
    D( 23) --> V(  2) amplitude = -0.1890 alpha
    S(  1) --> V(  1) amplitude =  0.7252 alpha
    S(  1) --> V(  2) amplitude =  0.1718 alpha
    D( 23) --> V(  1) amplitude =  0.4281 beta
    D( 23) --> V(  2) amplitude = -0.2203 beta
    D( 24) --> S(  1) amplitude = -0.2838 beta

 Excited state   3: excitation energy (eV) =    2.9235
 Total energy for state  3:                  -286.64375165 au
    <S**2>     :  2.7213
    Trans. Mom.: -0.0120 X  -0.0192 Y   0.0290 Z
    Strength   :     0.0000966826
    D( 24) --> V(  1) amplitude = -0.6461 alpha
    D( 24) --> V(  2) amplitude =  0.2414 alpha
    D( 24) --> V(  1) amplitude =  0.6103 beta
    D( 24) --> V(  2) amplitude =  0.3057 beta

 Excited state   4: excitation energy (eV) =    3.3242
 Total energy for state  4:                  -286.62902583 au
    <S**2>     :  1.3722
    Trans. Mom.: -0.0003 X   0.0070 Y  -0.0020 Z
    Strength   :     0.0000042622
    D( 23) --> V(  1) amplitude = -0.3408 alpha
    S(  1) --> V(  1) amplitude = -0.5204 alpha
    S(  1) --> V(  2) amplitude =  0.5019 alpha
    D( 23) --> V(  1) amplitude =  0.4715 beta
    D( 23) --> V(  2) amplitude = -0.1825 beta
    D( 24) --> S(  1) amplitude =  0.2465 beta
 
 ---------------------------------------------------

 Stability analysis will be performed
 ---------------------------------------------------
 Iter    Rts Conv    Rts Left    Ttl Dev     Max Dev
 ---------------------------------------------------
   1         0           8      0.004001    0.000609
   2         0           8      0.000950    0.000185
   3         0           8      0.000442    0.000096
   4         1           7      0.000467    0.000255
   5         2           6      0.000226    0.000148
   6         2           6      0.000244    0.000145
   7         4           4      0.000087    0.000043
   8         4           4      0.000019    0.000008
   9         7           1      0.000005    0.000001
  10         8           0      0.000003    0.000001    Roots Converged
 UKS-> UKS   stable,    smallest eigenvalue:      0.0645391
 UKS->CUKS   stable,    smallest eigenvalue:      0.1020638
 ---------------------------------------------------
  SETman timing summary (seconds)
  CPU time               170.20s
  System time              0.00s
  Wall time              173.29s
 
 --------------------------------------------------------------
 
                    Orbital Energies (a.u.)
 --------------------------------------------------------------
 
 Alpha MOs
 -- Occupied --
-14.364 -10.252 -10.250 -10.213 -10.203 -10.195 -10.194  -0.982
 -0.810  -0.747  -0.677  -0.605  -0.592  -0.543  -0.509  -0.483
 -0.438  -0.418  -0.381  -0.380  -0.343  -0.308  -0.244  -0.224
 -0.205
 -- Virtual --
 -0.047  -0.018   0.009   0.015   0.023   0.031   0.040   0.053
  0.057   0.058   0.072   0.086   0.091   0.093   0.101   0.104
  0.121   0.132   0.141   0.142   0.148   0.154   0.159   0.182
  0.188   0.195   0.201   0.213   0.217   0.219   0.228   0.238
  0.248   0.253   0.258   0.284   0.299   0.301   0.328   0.349
  0.381   0.449   0.474   0.478   0.620   0.638   0.674   0.678
  0.694   0.699   0.724   0.729   0.730   0.732   0.766   0.801
  0.816   0.819   0.858   0.864   0.927   0.937   0.960   0.980
  1.000   1.011   1.034   1.081   1.112   1.133   1.153   1.202
  1.224   1.243   1.271   1.293   1.337   1.363   1.380   1.381
  1.430   1.479   1.507   1.588   1.633   1.646   1.684   1.772
  1.813   1.849   1.864   1.918   1.939   1.963   2.007   2.009
  2.037   2.058   2.099   2.163   2.173   2.274   2.298   2.327
  2.379   2.383   2.414   2.420   2.454   2.486   2.494   2.550
  2.567   2.602   2.655   2.657   2.711   2.715   2.752   2.818
  2.865   2.924   3.052   3.082   3.223   3.275   3.336   3.365
  3.502   3.740   3.767   4.152   4.281   4.381   4.444   4.604
  4.695   4.993
 
 Beta MOs
 -- Occupied --
-14.362 -10.252 -10.250 -10.214 -10.197 -10.193 -10.187  -0.981
 -0.807  -0.738  -0.669  -0.605  -0.583  -0.538  -0.501  -0.477
 -0.434  -0.407  -0.380  -0.377  -0.340  -0.305  -0.225  -0.217
 -- Virtual --
 -0.061  -0.042  -0.015   0.009   0.016   0.024   0.033   0.041
  0.056   0.057   0.059   0.072   0.088   0.092   0.093   0.103
  0.105   0.124   0.132   0.142   0.144   0.149   0.156   0.161
  0.182   0.192   0.195   0.204   0.213   0.219   0.220   0.229
  0.240   0.248   0.255   0.262   0.284   0.300   0.307   0.331
  0.351   0.387   0.455   0.474   0.490   0.628   0.643   0.674
  0.679   0.697   0.702   0.725   0.733   0.738   0.747   0.767
  0.809   0.815   0.835   0.858   0.867   0.930   0.941   0.965
  0.982   1.000   1.014   1.050   1.085   1.118   1.133   1.160
  1.204   1.227   1.244   1.274   1.300   1.339   1.369   1.385
  1.386   1.431   1.480   1.509   1.591   1.659   1.682   1.689
  1.786   1.812   1.865   1.874   1.921   1.959   1.966   2.008
  2.013   2.044   2.063   2.105   2.170   2.174   2.276   2.306
  2.331   2.381   2.387   2.418   2.429   2.459   2.488   2.497
  2.553   2.568   2.605   2.656   2.667   2.723   2.724   2.761
  2.822   2.865   2.932   3.055   3.082   3.227   3.281   3.342
  3.365   3.512   3.748   3.767   4.154   4.286   4.400   4.452
  4.607   4.697   4.993
 --------------------------------------------------------------
 
          Ground-State Mulliken Net Atomic Charges

     Atom                 Charge (a.u.)    Spin (a.u.)
  --------------------------------------------------------
      1 C                    -0.025316      -0.002842
      2 C                    -0.306934       1.174670
      3 C                    -0.336458      -0.235897
      4 C                    -0.159325       0.066234
      5 C                     0.105895      -0.106453
      6 N                    -0.078707       0.016334
      7 H                     0.161280      -0.000784
      8 H                     0.139283       0.008062
      9 H                     0.130600       0.078215
     10 H                     0.117948      -0.002382
     11 H                     0.113394       0.007310
     12 C                    -0.023080      -0.001563
     13 H                     0.161421      -0.000903
  --------------------------------------------------------
  Sum of atomic charges =     0.000000
  Sum of spin   charges =     1.000000

 -----------------------------------------------------------------
                    Cartesian Multipole Moments
 -----------------------------------------------------------------
    Charge (ESU x 10^10)
                 0.0000
    Dipole Moment (Debye)
         X       0.0627      Y       1.1353      Z      -1.4597
       Tot       1.8503
    Quadrupole Moments (Debye-Ang)
        XX     -39.2560     XY       2.2614     YY     -39.2037
        XZ      -3.2268     YZ      -2.1704     ZZ     -37.3348
    Octopole Moments (Debye-Ang^2)
       XXX     -19.7366    XXY       5.4970    XYY       5.3130
       YYY       9.4427    XXZ       0.6245    XYZ       0.7354
       YYZ       4.6536    XZZ       1.6679    YZZ     -11.6003
       ZZZ      -6.6628
    Hexadecapole Moments (Debye-Ang^3)
      XXXX    -377.4595   XXXY     -52.1172   XXYY     -98.1212
      XYYY     -46.4821   YYYY    -285.0701   XXXZ     104.3751
      XXYZ      39.6020   XYYZ      38.7825   YYYZ     127.0113
      XXZZ    -133.7132   XYZZ     -28.4212   YYZZ    -121.2435
      XZZZ      95.0057   YZZZ     135.8525   ZZZZ    -453.4291
 -----------------------------------------------------------------
Archival summary:
1\1\c8-68\SP\ProcedureUnspecified\6-31+G**\166(2)\hpark21\ThuMar315:28:572022ThuMar315:28:572022\0\\#,ProcedureUnspecified,6-31+G**,\\0,2\N\C,1,1.42675\H,2,1.09382,1,117.504\C,2,1.34673,1,121.953,3,-179.893,0\H,4,1.08698,2,116.968,1,179.873,0\C,4,1.46658,2,126.835,1,-0.127881,0\H,6,1.09771,4,114.746,2,179.67,0\C,6,1.32577,4,127.365,2,-0.330047,0\H,8,1.08311,6,134.606,4,179.916,0\C,1,1.51751,2,113.138,3,-28.9781,0\H,10,1.07625,1,136.846,2,-82.3671,0\C,10,1.27891,1,65.1496,2,101.394,0\H,12,1.07615,10,157.846,1,171.954,0\\\@

 Total job time:  180.53s(wall), 176.44s(cpu) 
 Thu Mar  3 15:28:57 2022

        *************************************************************
        *                                                           *
        *  Thank you very much for using Q-Chem.  Have a nice day.  *
        *                                                           *
        *************************************************************


