
Running Job 1 of 1 qcfsm.in
qchem qcfsm.in_12931.0 ./qcfsm.d/ 1
/home/leeping/opt/qchem/5.0.2-openmp/exe/qcprog.exe_s qcfsm.in_12931.0 ./qcfsm.d/
Check license passed

                  Welcome to Q-Chem
     A Quantum Leap Into The Future Of Chemistry


 Q-Chem 5.0, Q-Chem, Inc., Pleasanton, CA (2017)

 Yihan Shao,  Zhengting Gan,  E. Epifanovsky,  A. T. B. Gilbert,  M. Wormit,  
 J. Kussmann,  A. W. Lange,  A. Behn,  Jia Deng,  Xintian Feng,  D. Ghosh,  
 M. Goldey,  P. R. Horn,  L. D. Jacobson,  I. Kaliman,  T. Kus,  A. Landau,  
 Jie Liu,  E. I. Proynov,  R. M. Richard,  R. P. Steele,  E. J. Sundstrom,  
 H. L. Woodcock III,  P. M. Zimmerman,  D. Zuev,  B. Albrecht,  E. Alguire,  
 S. A. Baeppler,  D. Barton,  Z. Benda,  Y. A. Bernard,  E. J. Berquist,  
 K. B. Bravaya,  H. Burton,  D. Casanova,  Chun-Min Chang,  Yunqing Chen,  
 A. Chien,  K. D. Closser,  M. P. Coons,  S. Dasgupta,  A. L. Dempwolff,  
 M. Diedenhofen,  Hainam Do,  R. G. Edgar,  Po-Tung Fang,  S. Fatehi,  
 Qingguo Feng,  J. Fosso-Tande,  Qinghui Ge,  A. Ghysels,  G. Gidofalvi,  
 J. Gomes,  J. Gonthier,  A. Gunina,  M. W. D. Hanson-Heine,  
 P. H. P. Harbach,  A. W. Hauser,  J. E. Herr,  E. G. Hohenstein,  
 Z. C. Holden,  Kerwin Hui,  T.-C. Jagau,  Hyunjun Ji,  B. Kaduk,  
 K. Khistyaev,  Jaehoon Kim,  P. Klunzinger,  K. Koh,  D. Kosenkov,  
 L. Koulias,  T. Kowalczyk,  C. M. Krauter,  A. Kunitsa,  Ka Un Lao,  
 A. Laurent,  K. V. Lawler,  Joonho Lee,  D. Lefrancois,  S. Lehtola,  
 D. S. Levine,  Yi-Pei Li,  You-Sheng Lin,  Fenglai Liu,  E. Livshits,  
 A. Luenser,  P. Manohar,  E. Mansoor,  S. F. Manzer,  Shan-Ping Mao,  
 Yuezhi Mao,  N. Mardirossian,  A. V. Marenich,  T. Markovich,  
 L. A. Martinez-Martinez,  S. A. Maurer,  N. J. Mayhall,  S. C. McKenzie,  
 J.-M. Mewes,  A. F. Morrison,  J. W. Mullinax,  K. Nanda,  
 T. S. Nguyen-Beck,  R. Olivares-Amaya,  J. A. Parkhill,  T. M. Perrine,  
 F. Plasser,  S. Prager,  A. Prociuk,  E. Ramos,  D. R. Rehn,  F. Rob,  
 M. Schneider,  N. Sergueev,  S. M. Sharada,  S. Sharma,  D. W. Small,  
 T. Stauch,  T. Stein,  Yu-Chuan Su,  A. J. W. Thom,  A. Tkatchenko,  
 T. Tsuchimochi,  L. Vogt,  O. Vydrov,  M. A. Watson,  J. Wenzel,  
 M. de Wergifosse,  T. A. Wesolowski,  A. White,  J. Witte,  A. Yamada,  
 Jun Yang,  K. Yao,  S. Yeganeh,  S. R. Yost,  Zhi-Qiang You,  A. Zech,  
 Igor Ying Zhang,  Xing Zhang,  Yan Zhao,  Ying Zhu,  B. R. Brooks,  
 G. K. L. Chan,  C. J. Cramer,  M. S. Gordon,  W. J. Hehre,  A. Klamt,  
 M. W. Schmidt,  C. D. Sherrill,  D. G. Truhlar,  A. Aspuru-Guzik,  R. Baer,  
 A. T. Bell,  N. A. Besley,  Jeng-Da Chai,  R. A. DiStasio Jr.,  A. Dreuw,  
 B. D. Dunietz,  T. R. Furlani,  Chao-Ping Hsu,  Yousung Jung,  Jing Kong,  
 D. S. Lambrecht,  WanZhen Liang,  C. Ochsenfeld,  V. A. Rassolov,  
 L. V. Slipchenko,  J. E. Subotnik,  T. Van Voorhis,  J. M. Herbert,  
 A. I. Krylov,  P. M. W. Gill,  M. Head-Gordon

 Contributors to earlier versions of Q-Chem not listed above: 
 R. D. Adamson,  B. Austin,  J. Baker,  G. J. O. Beran,  K. Brandhorst,  
 S. T. Brown,  E. F. C. Byrd,  A. K. Chakraborty,  C.-L. Cheng,  
 Siu Hung Chien,  D. M. Chipman,  D. L. Crittenden,  H. Dachsel,  
 R. J. Doerksen,  A. D. Dutoi,  L. Fusti-Molnar,  W. A. Goddard III,  
 A. Golubeva-Zadorozhnaya,  S. R. Gwaltney,  G. Hawkins,  A. Heyden,  
 S. Hirata,  G. Kedziora,  F. J. Keil,  C. Kelley,  Jihan Kim,  R. A. King,  
 R. Z. Khaliullin,  P. P. Korambath,  W. Kurlancheek,  A. M. Lee,  M. S. Lee,  
 S. V. Levchenko,  Ching Yeh Lin,  D. Liotard,  R. C. Lochan,  I. Lotan,  
 P. E. Maslen,  N. Nair,  D. P. O'Neill,  D. Neuhauser,  E. Neuscamman,  
 C. M. Oana,  R. Olson,  B. Peters,  R. Peverati,  P. A. Pieniazek,  
 Y. M. Rhee,  J. Ritchie,  M. A. Rohrdanz,  E. Rosta,  N. J. Russ,  
 H. F. Schaefer III,  N. E. Schultz,  N. Shenvi,  A. C. Simmonett,  A. Sodt,  
 D. Stuck,  K. S. Thanthiriwatte,  V. Vanovschi,  Tao Wang,  A. Warshel,  
 C. F. Williams,  Q. Wu,  X. Xu,  W. Zhang

 Please cite Q-Chem as follows:
 Y. Shao et al., Mol. Phys. 113, 184-215 (2015)
 DOI: 10.1080/00268976.2014.952696

 Q-Chem 5.0.2 for Intel X86 EM64T Linux

 Parts of Q-Chem use Armadillo 5.200.1 (Boston Tea Smuggler).
 http://arma.sourceforge.net/

 Q-Chem begins on Thu Mar  3 10:44:47 2022  

Host: 
0

     Scratch files written to ./qcfsm.d//
 Dec517 15110_ 26548  26544 5633   
Processing $rem in /home/leeping/opt/qchem/5.0.2-openmp/config/preferences.
 MEM_STATIC 2000
 MEM_TOTAL  8000
 SYMMETRY   OFF
 SYM_IGNORE TRUE 
 Now reading second FSM geometry

Checking the input file for inconsistencies... 	...done.

--------------------------------------------------------------
User input:
--------------------------------------------------------------
$molecule
0 2
C        1.4863198480    0.1406611283   -1.0286141872
C        0.3809598106   -1.5380158496    1.3020758943
C       -0.8738857295   -1.1862983077    1.0579204994
C       -1.3828425272    0.0383925413    0.4436233337
C       -0.6656426917    1.0358087735   -0.1151685255
N        0.7434507616    1.1226948511   -0.1452464393
H        1.8010587294   -0.8863420741   -0.9689244008
H        0.8579515543   -2.3839046898    1.7826767364
H       -1.6552250650   -1.8915307667    1.3739970822
H       -2.4628365451    0.1610954969    0.4621283459
H       -1.1814465117    1.9192420229   -0.4927520229
C        1.3841902028    1.3281028462   -1.4937155776
H        1.5679481640    2.1400940275   -2.1780007387
****
C        1.4390666818    0.3650342021   -0.8346071485
C        0.1644191350   -1.1216998252    0.6697838865
C       -1.0988664321   -1.1411594819    1.2047765089
C       -1.7824634220    0.0181251569    0.7219598726
C       -0.9135108469    0.7036570880   -0.0902239052
N        0.2821463619    0.0072480144   -0.1263094889
H        2.2540296003   -0.3520448358   -0.7043665071
H        0.9965376343   -1.8031861614    0.7770824777
H       -1.4940490989   -1.8990778887    1.8675329350
H       -2.7991473006    0.3107760630    0.9478370738
H       -1.0239617029    1.6205058237   -0.6498428285
C        1.5939340299    1.4338094391   -1.5904885745
H        2.3818653601    1.8580124057   -2.1931343018
$end

$rem
method                b3lyp
basis                 6-31g(d)
unrestricted          true
symmetry              off
sym_ignore            true
incdft                false
incfock               0
scf_convergence       8
thresh                14
jobtype               fsm
scf_guess             core
scf_guess_mix         5
scf_algorithm         diis
max_scf_cycles        100
fsm_nnode             21
fsm_ngrad             6
fsm_mode              2
fsm_opt_mode          2
$end

--------------------------------------------------------------
 ----------------------------------------------------------------
             Standard Nuclear Orientation (Angstroms)
    I     Atom           X                Y                Z
 ----------------------------------------------------------------
    1      C       1.4863198480     0.1406611283    -1.0286141872
    2      C       0.3809598106    -1.5380158496     1.3020758943
    3      C      -0.8738857295    -1.1862983077     1.0579204994
    4      C      -1.3828425272     0.0383925413     0.4436233337
    5      C      -0.6656426917     1.0358087735    -0.1151685255
    6      N       0.7434507616     1.1226948511    -0.1452464393
    7      H       1.8010587294    -0.8863420741    -0.9689244008
    8      H       0.8579515543    -2.3839046898     1.7826767364
    9      H      -1.6552250650    -1.8915307667     1.3739970822
   10      H      -2.4628365451     0.1610954969     0.4621283459
   11      H      -1.1814465117     1.9192420229    -0.4927520229
   12      C       1.3841902028     1.3281028462    -1.4937155776
   13      H       1.5679481640     2.1400940275    -2.1780007387
 ----------------------------------------------------------------
 Nuclear Repulsion Energy =   251.1455411169 hartrees
 There are       25 alpha and       24 beta electrons
 Requested basis set is 6-31G(d)
 There are 40 shells and 117 basis functions

 Total QAlloc Memory Limit   8000 MB
 Mega-Array Size      1956 MB
 MEM_STATIC part      2000 MB
 beginning FSman 

*******************************************
*******************************************
******** Starting FSM Calculation *********
*******************************************
*******************************************
-FSM parameters:
 Maximum displacement of each coordinate during optimization (Angstrom)      0.05
 Maximum optimization steps for each new node                                6
 The scaling factor for optimization (hartrees/Angstrom^2)                   1.75
 The number of LST interpolations used for reparameterization                100
-Aligning product structure to maximum coincidence with the reactant structure
 Total R --> P Distance 2.483272
 New node interpolation distace (Angstroms): 0.12
-Performing force calculation on reactant structure in state:0
 ----------------------------------------------------------------
             Standard Nuclear Orientation (Angstroms)
    I     Atom           X                Y                Z
 ----------------------------------------------------------------
    1      C       1.4863198480     0.1406611283    -1.0286141872
    2      C       0.3809598106    -1.5380158496     1.3020758943
    3      C      -0.8738857295    -1.1862983077     1.0579204994
    4      C      -1.3828425272     0.0383925413     0.4436233337
    5      C      -0.6656426917     1.0358087735    -0.1151685255
    6      N       0.7434507616     1.1226948511    -0.1452464393
    7      H       1.8010587294    -0.8863420741    -0.9689244008
    8      H       0.8579515543    -2.3839046898     1.7826767364
    9      H      -1.6552250650    -1.8915307667     1.3739970822
   10      H      -2.4628365451     0.1610954969     0.4621283459
   11      H      -1.1814465117     1.9192420229    -0.4927520229
   12      C       1.3841902028     1.3281028462    -1.4937155776
   13      H       1.5679481640     2.1400940275    -2.1780007387
 ----------------------------------------------------------------
 Nuclear Repulsion Energy =   251.1455411169 hartrees
 There are       25 alpha and       24 beta electrons

                       Distance Matrix (Angstroms)
             C (  1)   C (  2)   C (  3)   C (  4)   C (  5)   N (  6)
   C (  2)  3.077644
   C (  3)  3.418336  1.325879
   C (  4)  3.226459  2.516546  1.461597
   C (  5)  2.503321  3.119059  2.521361  1.349616
   N (  6)  1.515448  3.050496  3.065100  2.458374  1.412090
   H (  7)  1.075806  2.756592  3.369481  3.603839  3.241632  2.415204
   H (  8)  3.830357  1.083525  2.226835  3.561144  4.197332  4.003278
   H (  9)  4.446532  2.067896  1.098976  2.159720  3.430190  4.140930
   H ( 10)  4.221204  3.417553  2.166842  1.087100  2.080457  3.402037
   H ( 11)  3.250765  4.197041  3.484761  2.110676  1.090448  2.111984
   C ( 12)  1.279362  4.127658  4.234615  3.615675  2.487497  1.507020
   H ( 13)  2.307701  5.200804  5.243913  4.471826  3.234757  2.418054
             H (  7)   H (  8)   H (  9)   H ( 10)   H ( 11)   C ( 12)
   H (  8)  3.271613
   H (  9)  4.294832  2.593358
   H ( 10)  4.617991  4.387312  2.386842
   H ( 11)  4.122303  5.277669  4.269802  2.375886
   C ( 12)  2.313645  4.979023  5.275212  4.470665  2.816712
   H ( 13)  3.267342  6.054554  6.265743  5.209025  3.232338  1.077656

 
 Requested basis set is 6-31G(d)
 There are 40 shells and 117 basis functions
 A cutoff of  1.0D-14 yielded    782 shell pairs
 There are      7014 function pairs
 
 -------------------------------------------------------
 OpenMP Integral Computing Module                       
 Release: version 1.0, May 2013, Q-Chem Inc. Pittsburgh 
 -------------------------------------------------------
 Integral Job Info:
 Integral job number is                      11
 Integral operator is                         1
 short-range coefficients                     0
 long-range coefficients              100000000
 Omega coefficients                           0
 if combine SR and LR in K                    0
 Integral screening is                        0
 Integral computing path is                   2
 max size of driver memory is            800000
 size of driver memory is                593474
 size of scratch memory is              2361544
 max col of scratch BK array               1296
 max len of scratch array in speh3          155
 max len of scratch index in speh4           18
 max int batch size is                      520
 min int batch size is                       52
 fixed nKL is                                52
 max L of basis functions is                  2
 order of int derivative is                   0
 number of shells is                         40
 number of basis is                         117
 number of cartesian basis is               117
 number of contracted shell pairs           782
 number of primitive shell pairs           3277
 maxK2 (contraction) of shell pair           36
 max number of K2 of shell pair               1
 max number of CS2 of shell pair             87
 max number of PS2 of shell pair            414
 mem total for path MDJ                  531564
 -------------------------------------------------------
 Smallest overlap matrix eigenvalue = 1.54E-03

 Scale SEOQF with 1.000000e-01/1.000000e-01/1.000000e-01

 Standard Electronic Orientation quadrupole field applied
 Nucleus-field energy     =     0.0000000018 hartrees
 Guess MOs from core Hamiltonian diagonalization
 Mixing HOMO and LUMO in initial guess
 Adding  50% of the LUMO to the HOMO
 An unrestricted hybrid HF-DFT SCF calculation will be
 performed using Pulay DIIS extrapolation
 Exchange:     0.2000 Hartree-Fock + 0.0800 Slater + 0.7200 B88
 Correlation:  0.1900 VWN1RPA + 0.8100 LYP
 Using SG-1 standard quadrature grid
 SCF converges when DIIS error is below 1.0E-08
 using 4 threads for integral computing
 -------------------------------------------------------
 OpenMP Integral computing Module                
 Release: version 1.0, May 2013, Q-Chem Inc. Pittsburgh 
 -------------------------------------------------------
 -------------------------------------------------------
 OpenMP BLAS3 based DFT computing Module                
 Release: version 1.0, May 2013, Q-Chem Inc. Pittsburgh 
 -------------------------------------------------------
 ---------------------------------------
  Cycle       Energy         DIIS Error
 ---------------------------------------
    1    -229.9093760609      1.34E-01
    2    -197.3428395850      1.18E-01
    3    -243.9159513288      9.25E-02
    4    -235.8547799045      1.19E-01
    5    -284.5030060150      2.79E-02
    6    -285.6672714505      2.13E-02
    7    -286.4859284181      1.15E-02
    8    -286.7131760482      2.02E-03
    9    -286.7188029567      1.46E-03
   10    -286.7229107780      5.76E-04
   11    -286.7235489680      3.46E-04
   12    -286.7238169641      1.62E-04
   13    -286.7239201632      5.30E-05
   14    -286.7239466815      1.37E-05
   15    -286.7239567391      5.12E-06
   16    -286.7239619272      2.40E-06
   17    -286.7239662108      7.71E-07
   18    -286.7239702096      4.98E-07
   19    -286.7239728664      1.55E-07
   20    -286.7239730665      5.53E-08
   21    -286.7239730904      2.55E-08
   22    -286.7239731029      1.04E-08
   23    -286.7239731056      7.45E-09 Convergence criterion met
 ---------------------------------------
 <S^2> = 0.7679
 SCF time:  CPU 55.72 s  wall 20.50 s
 SCF   energy in the final basis set = -286.72397311
 Total energy in the final basis set = -286.72397311
 
 --------------------------------------------------------------
 
                    Orbital Energies (a.u.)
 --------------------------------------------------------------
 
 Alpha MOs
 -- Occupied --
-14.350 -10.239 -10.238 -10.204 -10.196 -10.191 -10.178  -0.969
 -0.799  -0.744  -0.670  -0.596  -0.586  -0.535  -0.494  -0.479
 -0.432  -0.409  -0.381  -0.373  -0.318  -0.302  -0.238  -0.222
 -0.192
 -- Virtual --
 -0.017  -0.002   0.088   0.097   0.111   0.116   0.135   0.163
  0.167   0.181   0.197   0.276   0.342   0.369   0.395   0.421
  0.472   0.485   0.513   0.527   0.543   0.547   0.582   0.602
  0.606   0.641   0.656   0.672   0.698   0.710   0.758   0.781
  0.791   0.812   0.845   0.863   0.895   0.899   0.939   0.953
  0.997   1.028   1.038   1.090   1.092   1.185   1.205   1.274
  1.318   1.404   1.427   1.447   1.489   1.535   1.563   1.672
  1.709   1.726   1.742   1.788   1.829   1.878   1.930   1.934
  1.981   2.018   2.062   2.142   2.172   2.217   2.284   2.344
  2.362   2.396   2.419   2.524   2.540   2.588   2.685   2.721
  2.770   2.797   2.921   2.991   3.184   3.921   4.079   4.149
  4.225   4.273   4.301   4.524
 
 Beta MOs
 -- Occupied --
-14.350 -10.239 -10.238 -10.205 -10.192 -10.181 -10.177  -0.969
 -0.795  -0.736  -0.661  -0.596  -0.577  -0.530  -0.487  -0.473
 -0.429  -0.398  -0.381  -0.371  -0.315  -0.300  -0.233  -0.187
 -- Virtual --
 -0.059  -0.008  -0.001   0.090   0.100   0.111   0.119   0.141
  0.166   0.171   0.185   0.198   0.278   0.349   0.372   0.401
  0.433   0.475   0.487   0.525   0.528   0.550   0.557   0.586
  0.606   0.612   0.650   0.660   0.681   0.701   0.712   0.758
  0.783   0.793   0.818   0.847   0.868   0.899   0.911   0.945
  0.954   1.002   1.032   1.042   1.095   1.099   1.187   1.211
  1.285   1.323   1.408   1.431   1.448   1.492   1.540   1.564
  1.674   1.720   1.746   1.772   1.796   1.840   1.891   1.939
  1.950   1.994   2.025   2.071   2.144   2.175   2.221   2.295
  2.351   2.363   2.397   2.423   2.529   2.544   2.593   2.691
  2.726   2.776   2.798   2.926   2.992   3.189   3.922   4.086
  4.172   4.226   4.276   4.301   4.526
 --------------------------------------------------------------
 
          Ground-State Mulliken Net Atomic Charges

     Atom                 Charge (a.u.)    Spin (a.u.)
  --------------------------------------------------------
      1 C                     0.009966       0.002940
      2 C                    -0.225608       1.057126
      3 C                    -0.133397      -0.163915
      4 C                    -0.116936       0.069435
      5 C                     0.008677      -0.059212
      6 N                    -0.388280      -0.001610
      7 H                     0.179966       0.002090
      8 H                     0.153358       0.005600
      9 H                     0.139324       0.083353
     10 H                     0.122776      -0.002515
     11 H                     0.128635       0.004662
     12 C                    -0.052219       0.000258
     13 H                     0.173738       0.001788
  --------------------------------------------------------
  Sum of atomic charges =     0.000000
  Sum of spin   charges =     1.000000

 -----------------------------------------------------------------
                    Cartesian Multipole Moments
 -----------------------------------------------------------------
    Charge (ESU x 10^10)
                 0.0000
    Dipole Moment (Debye)
         X       0.0326      Y      -0.4534      Z      -1.9132
       Tot       1.9664
    Quadrupole Moments (Debye-Ang)
        XX     -37.7635     XY      -1.2315     YY     -36.2421
        XZ      -3.3383     YZ      -5.6315     ZZ     -39.7656
    Octopole Moments (Debye-Ang^2)
       XXX     -18.4285    XXY      -6.9752    XYY      -1.3086
       YYY     -10.7660    XXZ      -2.8464    XYZ      -3.6858
       YYZ      -5.4522    XZZ       0.8787    YZZ      -1.0957
       ZZZ      -8.2759
    Hexadecapole Moments (Debye-Ang^3)
      XXXX    -347.6732   XXXY     -42.8157   XXYY    -107.2369
      XYYY     -39.1600   YYYY    -337.3405   XXXZ      75.9920
      XXYZ      26.9999   XYYZ      17.5100   YYYZ      78.1535
      XXZZ    -100.3093   XYZZ      -4.8850   YYZZ     -81.9010
      XZZZ      78.4946   YZZZ      93.5917   ZZZZ    -284.3362
 -----------------------------------------------------------------
 Calculating analytic gradient of the SCF energy
 Gradient of SCF Energy
            1           2           3           4           5           6
    1   0.0000397   0.0000558  -0.0000763   0.0000129  -0.0000212   0.0000338
    2   0.0000648   0.0000207  -0.0000178  -0.0000479   0.0000692  -0.0001050
    3  -0.0001607   0.0000362  -0.0001000   0.0000506   0.0000260  -0.0000467
            7           8           9          10          11          12
    1  -0.0000239  -0.0000173   0.0000273  -0.0000023   0.0000032  -0.0000202
    2   0.0000054  -0.0000228   0.0000098   0.0000036   0.0000029   0.0000188
    3   0.0000896   0.0000144   0.0000359  -0.0000001   0.0000003   0.0000605
           13
    1  -0.0000116
    2  -0.0000016
    3  -0.0000061
 Max gradient component =       1.607E-04
 RMS gradient           =       4.917E-05
 Gradient time:  CPU 7.14 s  wall 2.41 s
-Performing force calculation on product structure in state0
 ----------------------------------------------------------------
             Standard Nuclear Orientation (Angstroms)
    I     Atom           X                Y                Z
 ----------------------------------------------------------------
    1      C       1.4390108238     0.3650647429    -0.8346900972
    2      C       0.1644493413    -1.1217475944     0.6696964633
    3      C      -1.0987966355    -1.1412208192     1.2047820678
    4      C      -1.7824092127     0.0181082168     0.7220941218
    5      C      -0.9135051677     0.7036792380    -0.0901085813
    6      N       0.2821370617     0.0072515018    -0.1263300614
    7      H       2.2539708134    -0.3520373883    -0.7045583237
    8      H       0.9965638271    -1.8032557895     0.7768872908
    9      H      -1.4939432028    -1.8991766584     1.8675172094
   10      H      -2.7990710681     0.3107619155     0.9480668106
   11      H      -1.0239816208     1.6205674112    -0.6496578340
   12      C       1.5938406053     1.4338878878    -1.5905114760
   13      H       2.3817344356     1.8581173355    -2.1931875901
 ----------------------------------------------------------------
 Nuclear Repulsion Energy =   262.3963865550 hartrees
 There are       25 alpha and       24 beta electrons

                       Distance Matrix (Angstroms)
             C (  1)   C (  2)   C (  3)   C (  4)   C (  5)   N (  6)
   C (  2)  2.469473
   C (  3)  3.587312  1.372037
   C (  4)  3.594649  2.256607  1.429810
   C (  5)  2.490661  2.251993  2.261577  1.372835
   N (  6)  1.402912  1.386415  2.235582  2.232105  1.384155
   H (  7)  1.093311  2.616702  3.938203  4.297058  3.394848  2.086040
   H (  8)  2.737618  1.080906  2.238732  3.323110  3.268756  2.145727
   H (  9)  4.585949  2.188478  1.081599  2.251930  3.308182  3.280908
   H ( 10)  4.598098  3.303336  2.250575  1.081809  2.188047  3.277238
   H ( 11)  2.770714  3.267010  3.327464  2.241605  1.079808  2.140702
   C ( 12)  1.318189  3.699050  4.657805  4.330316  3.011843  2.428927
   H ( 13)  2.227880  4.689569  5.714571  5.405978  4.076061  3.479355
             H (  7)   H (  8)   H (  9)   H ( 10)   H ( 11)   C ( 12)
   H (  8)  2.425240
   H (  9)  4.801674  2.720533
   H ( 10)  5.357584  4.348013  2.726275
   H ( 11)  3.826115  4.223766  4.352658  2.723831
   C ( 12)  2.100051  4.054678  5.709789  5.196486  2.788019
   H ( 13)  2.667794  4.913827  6.754810  6.253202  3.746707  1.078872

 
 Applying Cartesian multipole field
    Component          Value
    ---------          -----
     (2,0,0)        1.00000E-11
     (0,2,0)        2.00000E-11
     (0,0,2)       -3.00000E-11
 Nucleus-field energy     =     0.0000000013 hartrees
 Requested basis set is 6-31G(d)
 There are 40 shells and 117 basis functions
 A cutoff of  1.0D-14 yielded    781 shell pairs
 There are      6992 function pairs
 Smallest overlap matrix eigenvalue = 1.00E-03
 Guess MOs from core Hamiltonian diagonalization
 Mixing HOMO and LUMO in initial guess
 Adding  50% of the LUMO to the HOMO
 An unrestricted hybrid HF-DFT SCF calculation will be
 performed using Pulay DIIS extrapolation
 Exchange:     0.2000 Hartree-Fock + 0.0800 Slater + 0.7200 B88
 Correlation:  0.1900 VWN1RPA + 0.8100 LYP
 Using SG-1 standard quadrature grid
 SCF converges when DIIS error is below 1.0E-08
 using 4 threads for integral computing
 -------------------------------------------------------
 OpenMP Integral computing Module                
 Release: version 1.0, May 2013, Q-Chem Inc. Pittsburgh 
 -------------------------------------------------------
 -------------------------------------------------------
 OpenMP BLAS3 based DFT computing Module                
 Release: version 1.0, May 2013, Q-Chem Inc. Pittsburgh 
 -------------------------------------------------------
 ---------------------------------------
  Cycle       Energy         DIIS Error
 ---------------------------------------
    1    -222.3020994717      1.50E-01
    2    -185.0279523893      1.43E-01
    3    -237.9925645527      1.14E-01
    4    -242.8235406351      1.17E-01
    5    -278.0541976036      4.43E-02
    6    -278.3907524295      5.32E-02
    7    -286.4883829428      1.06E-02
    8    -286.6800524872      9.61E-03
    9    -286.8544950863      2.68E-03
   10    -286.8624924856      1.85E-03
   11    -286.8665309592      1.40E-03
   12    -286.8701816252      8.61E-04
   13    -286.8722147110      2.18E-04
   14    -286.8723604041      5.99E-05
   15    -286.8723714433      2.16E-05
   16    -286.8723739626      4.03E-06
   17    -286.8723748714      1.45E-06
   18    -286.8723755382      6.49E-07
   19    -286.8723758850      4.54E-07
   20    -286.8723762081      3.37E-07
   21    -286.8723762415      3.23E-08
   22    -286.8723762416      5.08E-09 Convergence criterion met
 ---------------------------------------
 <S^2> = 0.7625
 SCF time:  CPU 53.60 s  wall 20.24 s
 SCF   energy in the final basis set = -286.87237624
 Total energy in the final basis set = -286.87237624
 
 --------------------------------------------------------------
 
                    Orbital Energies (a.u.)
 --------------------------------------------------------------
 
 Alpha MOs
 -- Occupied --
-14.392 -10.242 -10.214 -10.205 -10.201 -10.171 -10.170  -0.988
 -0.817  -0.737  -0.720  -0.618  -0.574  -0.544  -0.513  -0.476
 -0.428  -0.423  -0.417  -0.386  -0.374  -0.303  -0.255  -0.224
 -0.210
 -- Virtual --
 -0.008   0.076   0.091   0.101   0.127   0.136   0.165   0.176
  0.179   0.224   0.237   0.282   0.339   0.362   0.391   0.456
  0.488   0.507   0.536   0.556   0.561   0.589   0.590   0.596
  0.606   0.619   0.622   0.650   0.673   0.704   0.800   0.810
  0.829   0.847   0.856   0.857   0.888   0.921   0.928   0.956
  0.982   1.034   1.083   1.128   1.201   1.217   1.274   1.346
  1.385   1.387   1.429   1.458   1.494   1.496   1.551   1.558
  1.676   1.742   1.818   1.878   1.929   1.982   2.003   2.005
  2.071   2.080   2.153   2.178   2.211   2.251   2.269   2.302
  2.337   2.339   2.533   2.549   2.592   2.648   2.682   2.719
  2.776   2.858   3.044   3.100   3.178   3.977   4.069   4.121
  4.171   4.273   4.472   4.474
 
 Beta MOs
 -- Occupied --
-14.391 -10.243 -10.205 -10.201 -10.198 -10.171 -10.170  -0.987
 -0.812  -0.725  -0.717  -0.605  -0.573  -0.543  -0.500  -0.466
 -0.424  -0.424  -0.414  -0.385  -0.374  -0.301  -0.216  -0.211
 -- Virtual --
 -0.087   0.001   0.078   0.091   0.109   0.128   0.143   0.165
  0.176   0.181   0.228   0.239   0.286   0.342   0.372   0.403
  0.461   0.498   0.507   0.539   0.560   0.567   0.589   0.594
  0.601   0.619   0.628   0.633   0.666   0.672   0.705   0.806
  0.811   0.831   0.849   0.857   0.859   0.901   0.927   0.934
  0.958   0.988   1.040   1.092   1.129   1.204   1.220   1.278
  1.346   1.387   1.388   1.441   1.461   1.495   1.497   1.551
  1.559   1.736   1.762   1.840   1.886   1.948   1.985   2.006
  2.013   2.076   2.086   2.165   2.180   2.211   2.250   2.273
  2.306   2.337   2.340   2.534   2.563   2.595   2.655   2.685
  2.719   2.787   2.861   3.044   3.102   3.185   3.977   4.102
  4.121   4.171   4.277   4.474   4.474
 --------------------------------------------------------------
 
          Ground-State Mulliken Net Atomic Charges

     Atom                 Charge (a.u.)    Spin (a.u.)
  --------------------------------------------------------
      1 C                     0.068158      -0.140540
      2 C                     0.027382      -0.002616
      3 C                    -0.193244      -0.005390
      4 C                    -0.186813      -0.008650
      5 C                     0.037412       0.008960
      6 N                    -0.401214       0.019507
      7 H                     0.163149       0.068838
      8 H                     0.144959       0.000098
      9 H                     0.128556       0.001020
     10 H                     0.128885       0.000825
     11 H                     0.154927       0.000533
     12 C                    -0.244443       1.062429
     13 H                     0.172285      -0.005014
  --------------------------------------------------------
  Sum of atomic charges =     0.000000
  Sum of spin   charges =     1.000000

 -----------------------------------------------------------------
                    Cartesian Multipole Moments
 -----------------------------------------------------------------
    Charge (ESU x 10^10)
                -0.0000
    Dipole Moment (Debye)
         X       1.3558      Y      -0.1715      Z      -0.4515
       Tot       1.4392
    Quadrupole Moments (Debye-Ang)
        XX     -35.5776     XY      -1.3837     YY     -39.3083
        XZ      -2.9287     YZ      -3.0996     ZZ     -41.6262
    Octopole Moments (Debye-Ang^2)
       XXX       8.9036    XXY       0.9888    XYY       3.2829
       YYY      -5.4923    XXZ      -2.7905    XYZ      -1.9517
       YYZ       0.2268    XZZ       4.3877    YZZ      -0.7540
       ZZZ      -0.8000
    Hexadecapole Moments (Debye-Ang^3)
      XXXX    -405.6759   XXXY     -53.7436   XXYY    -107.3993
      XYYY     -56.3279   YYYY    -259.0487   XXXZ      90.5054
      XXYZ      16.1080   XYYZ      30.5823   YYYZ      82.2923
      XXZZ    -101.5184   XYZZ      -3.7359   YYZZ     -76.2529
      XZZZ     109.9453   YZZZ      85.2375   ZZZZ    -272.0599
 -----------------------------------------------------------------
 Calculating analytic gradient of the SCF energy
 Gradient of SCF Energy
            1           2           3           4           5           6
    1   0.0000229   0.0000512   0.0000124   0.0000017   0.0000624  -0.0001311
    2   0.0000099   0.0000969  -0.0000333   0.0000448   0.0000404  -0.0001573
    3  -0.0000595   0.0001655  -0.0000262  -0.0000086   0.0000527  -0.0001792
            7           8           9          10          11          12
    1  -0.0000089   0.0000157  -0.0000082   0.0000009  -0.0000193   0.0000401
    2   0.0000027   0.0000042  -0.0000312  -0.0000159   0.0000129   0.0000239
    3   0.0000144   0.0000044  -0.0000418   0.0000022   0.0000217   0.0000844
           13
    1  -0.0000397
    2   0.0000021
    3  -0.0000300
 Max gradient component =       1.792E-04
 RMS gradient           =       6.125E-05
 Gradient time:  CPU 6.93 s  wall 1.86 s

STARTING FREEZING STRING ITERATION # 1
 The distance between the innermost nodes (Angstroms): 2.483
-Adding two new nodes
 The distance between the previous and current R_nodes (Angstroms): 0.1172
 The distance between the previous and current P_nodes (Angstroms): 0.1242
-Optimizing new reactant side node
 Using BFGS, step: 2 E_tol 0.1484
 max_steps 6, node_spacing 0.1183, sigma 0.7000
 ----------------------------------------------------------------
             Standard Nuclear Orientation (Angstroms)
    I     Atom           X                Y                Z
 ----------------------------------------------------------------
    1      C       1.4852662373     0.1461199066    -1.0252404871
    2      C       0.3780692624    -1.5170163885     1.2714928568
    3      C      -0.8900737358    -1.1840913861     1.0644183696
    4      C      -1.4070060072     0.0370639157     0.4573730929
    5      C      -0.6810918534     1.0194326744    -0.1168953406
    6      N       0.7268271421     1.0835366944    -0.1210338227
    7      H       1.8306232016    -0.8707002654    -0.9595252064
    8      H       0.8742042588    -2.3607774051     1.7357796664
    9      H      -1.6563547242    -1.8952676579     1.3997677607
   10      H      -2.4853395888     0.1682666011     0.4871734216
   11      H      -1.1768056899     1.9093933193    -0.5038439208
   12      C       1.3939955922     1.3307282809    -1.5011556206
   13      H       1.6101404146     2.1345089099    -2.1846998294
 ----------------------------------------------------------------
 Nuclear Repulsion Energy =   251.1610370178 hartrees
 There are       25 alpha and       24 beta electrons

                       Distance Matrix (Angstroms)
             C (  1)   C (  2)   C (  3)   C (  4)   C (  5)   N (  6)
   C (  2)  3.044157
   C (  3)  3.431964  1.327368
   C (  4)  3.251965  2.502888  1.458404
   C (  5)  2.506167  3.079451  2.508923  1.349735
   N (  6)  1.507173  2.970461  3.026847  2.445997  1.409384
   H (  7)  1.075878  2.739540  3.405401  3.648819  3.254434  2.395929
   H (  8)  3.779043  1.083349  2.224408  3.547941  4.156582  3.915709
   H (  9)  4.462926  2.073261  1.097915  2.164298  3.427373  4.106783
   H ( 10)  4.248952  3.413861  2.169552  1.086695  2.084393  3.394945
   H ( 11)  3.235369  4.160498  3.480131  2.117203  1.089721  2.110071
   C ( 12)  1.279892  4.102357  4.257166  3.654451  2.513776  1.552725
   H ( 13)  2.305131  5.176573  5.274557  4.525815  3.281609  2.478609
             H (  7)   H (  8)   H (  9)   H ( 10)   H ( 11)   C ( 12)
   H (  8)  3.224862
   H (  9)  4.333015  2.594866
   H ( 10)  4.669039  4.386527  2.403792
   H ( 11)  4.120824  5.239935  4.281256  2.392885
   C ( 12)  2.308743  4.937119  5.303494  4.511542  2.817535
   H ( 13)  3.252837  6.009938  6.305355  5.270481  3.262365  1.077040

 
 Applying Cartesian multipole field
    Component          Value
    ---------          -----
     (2,0,0)        1.00000E-11
     (0,2,0)        2.00000E-11
     (0,0,2)       -3.00000E-11
 Nucleus-field energy     =     0.0000000018 hartrees
 Requested basis set is 6-31G(d)
 There are 40 shells and 117 basis functions
 A cutoff of  1.0D-14 yielded    784 shell pairs
 There are      7021 function pairs
 Smallest overlap matrix eigenvalue = 1.52E-03
 Guess MOs from core Hamiltonian diagonalization
 Mixing HOMO and LUMO in initial guess
 Adding  50% of the LUMO to the HOMO
 An unrestricted hybrid HF-DFT SCF calculation will be
 performed using Pulay DIIS extrapolation
 Exchange:     0.2000 Hartree-Fock + 0.0800 Slater + 0.7200 B88
 Correlation:  0.1900 VWN1RPA + 0.8100 LYP
 Using SG-1 standard quadrature grid
 SCF converges when DIIS error is below 1.0E-08
 using 4 threads for integral computing
 -------------------------------------------------------
 OpenMP Integral computing Module                
 Release: version 1.0, May 2013, Q-Chem Inc. Pittsburgh 
 -------------------------------------------------------
 -------------------------------------------------------
 OpenMP BLAS3 based DFT computing Module                
 Release: version 1.0, May 2013, Q-Chem Inc. Pittsburgh 
 -------------------------------------------------------
 ---------------------------------------
  Cycle       Energy         DIIS Error
 ---------------------------------------
    1    -229.8420291344      1.34E-01
    2    -198.8669540222      1.16E-01
    3    -243.9551328664      9.34E-02
    4    -238.0819947337      1.21E-01
    5    -284.7680349853      2.61E-02
    6    -285.5780607161      2.23E-02
    7    -286.5143584125      1.10E-02
    8    -286.7121415525      2.07E-03
    9    -286.7169275895      1.61E-03
   10    -286.7220815098      6.13E-04
   11    -286.7227312454      3.14E-04
   12    -286.7229604147      1.33E-04
   13    -286.7230400845      4.63E-05
   14    -286.7230581763      1.29E-05
   15    -286.7230666133      3.83E-06
   16    -286.7230714263      2.42E-06
   17    -286.7230740254      6.84E-07
   18    -286.7230770030      3.71E-07
   19    -286.7230786350      1.41E-07
   20    -286.7230788712      6.83E-08
   21    -286.7230789399      3.34E-08
   22    -286.7230789613      9.42E-09 Convergence criterion met
 ---------------------------------------
 <S^2> = 0.7682
 SCF time:  CPU 51.44 s  wall 16.13 s
 SCF   energy in the final basis set = -286.72307896
 Total energy in the final basis set = -286.72307896
 
 --------------------------------------------------------------
 
                    Orbital Energies (a.u.)
 --------------------------------------------------------------
 
 Alpha MOs
 -- Occupied --
-14.352 -10.240 -10.237 -10.203 -10.196 -10.190 -10.177  -0.962
 -0.800  -0.744  -0.670  -0.596  -0.585  -0.533  -0.495  -0.478
 -0.430  -0.409  -0.380  -0.374  -0.314  -0.302  -0.239  -0.222
 -0.193
 -- Virtual --
 -0.017  -0.002   0.078   0.096   0.114   0.116   0.135   0.159
  0.168   0.182   0.197   0.277   0.341   0.367   0.398   0.421
  0.476   0.485   0.512   0.528   0.545   0.548   0.583   0.604
  0.606   0.641   0.654   0.669   0.697   0.708   0.756   0.783
  0.790   0.813   0.844   0.863   0.895   0.901   0.938   0.955
  0.992   1.027   1.045   1.088   1.101   1.184   1.206   1.284
  1.309   1.404   1.421   1.462   1.490   1.538   1.568   1.662
  1.713   1.725   1.747   1.784   1.824   1.883   1.920   1.934
  1.975   2.018   2.057   2.140   2.180   2.218   2.284   2.341
  2.350   2.395   2.427   2.527   2.547   2.585   2.686   2.714
  2.761   2.796   2.918   2.983   3.179   3.912   4.081   4.151
  4.228   4.272   4.295   4.519
 
 Beta MOs
 -- Occupied --
-14.352 -10.240 -10.237 -10.204 -10.192 -10.180 -10.176  -0.962
 -0.796  -0.736  -0.662  -0.595  -0.576  -0.528  -0.488  -0.472
 -0.427  -0.398  -0.380  -0.371  -0.310  -0.299  -0.235  -0.188
 -- Virtual --
 -0.059  -0.008  -0.001   0.079   0.099   0.115   0.119   0.139
  0.162   0.173   0.186   0.198   0.279   0.349   0.370   0.403
  0.432   0.478   0.487   0.523   0.529   0.551   0.561   0.586
  0.607   0.613   0.649   0.658   0.677   0.701   0.710   0.756
  0.784   0.793   0.819   0.845   0.868   0.902   0.911   0.945
  0.956   0.996   1.031   1.047   1.094   1.108   1.186   1.211
  1.296   1.313   1.410   1.424   1.464   1.492   1.544   1.570
  1.664   1.721   1.752   1.773   1.791   1.838   1.893   1.937
  1.940   1.992   2.026   2.066   2.142   2.183   2.223   2.294
  2.344   2.355   2.397   2.430   2.532   2.551   2.590   2.692
  2.720   2.770   2.797   2.923   2.983   3.185   3.914   4.088
  4.174   4.229   4.276   4.295   4.520
 --------------------------------------------------------------
 
          Ground-State Mulliken Net Atomic Charges

     Atom                 Charge (a.u.)    Spin (a.u.)
  --------------------------------------------------------
      1 C                     0.021965       0.002661
      2 C                    -0.223747       1.055703
      3 C                    -0.134657      -0.163613
      4 C                    -0.115036       0.069554
      5 C                     0.009901      -0.060372
      6 N                    -0.390469      -0.001685
      7 H                     0.177051       0.002320
      8 H                     0.151974       0.006776
      9 H                     0.140010       0.081768
     10 H                     0.122674      -0.002381
     11 H                     0.130263       0.004608
     12 C                    -0.067778       0.002724
     13 H                     0.177848       0.001937
  --------------------------------------------------------
  Sum of atomic charges =     0.000000
  Sum of spin   charges =     1.000000

 -----------------------------------------------------------------
                    Cartesian Multipole Moments
 -----------------------------------------------------------------
    Charge (ESU x 10^10)
                 0.0000
    Dipole Moment (Debye)
         X       0.1067      Y      -0.4438      Z      -1.9133
       Tot       1.9670
    Quadrupole Moments (Debye-Ang)
        XX     -37.5127     XY      -1.1515     YY     -36.3167
        XZ      -3.5043     YZ      -5.6374     ZZ     -39.7543
    Octopole Moments (Debye-Ang^2)
       XXX     -17.0451    XXY      -6.6600    XYY      -0.8753
       YYY     -10.3417    XXZ      -3.0534    XYZ      -3.8240
       YYZ      -5.5562    XZZ       1.2871    YZZ      -0.7357
       ZZZ      -8.6203
    Hexadecapole Moments (Debye-Ang^3)
      XXXX    -351.0650   XXXY     -42.7391   XXYY    -106.3407
      XYYY     -38.7070   YYYY    -331.6662   XXXZ      76.3411
      XXYZ      25.7047   XYYZ      17.3850   YYYZ      77.2760
      XXZZ     -99.8441   XYZZ      -3.9101   YYZZ     -80.9281
      XZZZ      78.8510   YZZZ      92.1569   ZZZZ    -282.5195
 -----------------------------------------------------------------
 Calculating analytic gradient of the SCF energy
 Gradient of SCF Energy
            1           2           3           4           5           6
    1   0.0015917   0.0019883  -0.0028272   0.0015719   0.0009832  -0.0082485
    2  -0.0010286   0.0016008  -0.0000374  -0.0009735   0.0016803  -0.0057465
    3  -0.0026291  -0.0008478  -0.0004903   0.0016140  -0.0015921   0.0131552
            7           8           9          10          11          12
    1   0.0004626  -0.0005446   0.0002573   0.0003239   0.0005791   0.0027969
    2   0.0010561   0.0000889   0.0000508   0.0001479   0.0002290   0.0042250
    3   0.0011623  -0.0001827  -0.0001336   0.0003638  -0.0002584  -0.0087259
           13
    1   0.0010656
    2  -0.0012926
    3  -0.0014354
 Max gradient component =       1.316E-02
 RMS gradient           =       3.293E-03
 Gradient time:  CPU 7.56 s  wall 2.21 s
 ----------------------------------------------------------------
             Standard Nuclear Orientation (Angstroms)
    I     Atom           X                Y                Z
 ----------------------------------------------------------------
    1      C       1.4814156085     0.1489977590    -1.0190982043
    2      C       0.3732472590    -1.5174331759     1.2690438607
    3      C      -0.8862387964    -1.1836930431     1.0664157919
    4      C      -1.4140232097     0.0390779839     0.4557442524
    5      C      -0.6853511010     1.0133837502    -0.1138497574
    6      N       0.7425710967     1.0904005737    -0.1460338227
    7      H       1.8338758641    -0.8707776512    -0.9609246151
    8      H       0.8778235091    -2.3575267862     1.7293822863
    9      H      -1.6571914295    -1.8957438011     1.4037624188
   10      H      -2.4893996511     0.1690533170     0.4899588017
   11      H      -1.1773640492     1.9073748801    -0.5050580710
   12      C       1.3892129378     1.3218190282    -1.4831586531
   13      H       1.6138765117     2.1362644417    -2.1825734007
 ----------------------------------------------------------------
 Nuclear Repulsion Energy =   251.8276503640 hartrees
 There are       25 alpha and       24 beta electrons

                       Distance Matrix (Angstroms)
             C (  1)   C (  2)   C (  3)   C (  4)   C (  5)   N (  6)
   C (  2)  3.039839
   C (  3)  3.425087  1.318615
   C (  4)  3.251278  2.505697  1.465143
   C (  5)  2.502302  3.072143  2.502105  1.343381
   N (  6)  1.481341  2.989923  3.048698  2.473523  1.430360
   H (  7)  1.080534  2.743056  3.406912  3.658365  3.257929  2.387721
   H (  8)  3.768439  1.082712  2.220209  3.552243  4.147777  3.927300
   H (  9)  4.461174  2.069770  1.102355  2.168272  3.422082  4.132528
   H ( 10)  4.247944  3.412617  2.175397  1.083743  2.081362  3.420380
   H ( 11)  3.228814  4.157059  3.479797  2.114162  1.092859  2.117191
   C ( 12)  1.264659  4.082666  4.237405  3.641827  2.504786  1.503198
   H ( 13)  2.306610  5.177097  5.275284  4.530683  3.290429  2.449591
             H (  7)   H (  8)   H (  9)   H ( 10)   H ( 11)   C ( 12)
   H (  8)  3.219039
   H (  9)  4.339338  2.597224
   H ( 10)  4.677288  4.388390  2.406449
   H ( 11)  4.122319  5.235065  4.282236  2.394422
   C ( 12)  2.297375  4.911163  5.288441  4.501744  2.808358
   H ( 13)  3.253172  6.003277  6.310212  5.277236  3.264578  1.096803

 
 Applying Cartesian multipole field
    Component          Value
    ---------          -----
     (2,0,0)        1.00000E-11
     (0,2,0)        2.00000E-11
     (0,0,2)       -3.00000E-11
 Nucleus-field energy     =     0.0000000018 hartrees
 Requested basis set is 6-31G(d)
 There are 40 shells and 117 basis functions
 A cutoff of  1.0D-14 yielded    784 shell pairs
 There are      7021 function pairs
 Smallest overlap matrix eigenvalue = 1.46E-03
 Guess MOs from core Hamiltonian diagonalization
 Mixing HOMO and LUMO in initial guess
 Adding  50% of the LUMO to the HOMO
 An unrestricted hybrid HF-DFT SCF calculation will be
 performed using Pulay DIIS extrapolation
 Exchange:     0.2000 Hartree-Fock + 0.0800 Slater + 0.7200 B88
 Correlation:  0.1900 VWN1RPA + 0.8100 LYP
 Using SG-1 standard quadrature grid
 SCF converges when DIIS error is below 1.0E-08
 using 4 threads for integral computing
 -------------------------------------------------------
 OpenMP Integral computing Module                
 Release: version 1.0, May 2013, Q-Chem Inc. Pittsburgh 
 -------------------------------------------------------
 -------------------------------------------------------
 OpenMP BLAS3 based DFT computing Module                
 Release: version 1.0, May 2013, Q-Chem Inc. Pittsburgh 
 -------------------------------------------------------
 ---------------------------------------
  Cycle       Energy         DIIS Error
 ---------------------------------------
    1    -230.1020217175      1.34E-01
    2    -196.5477419799      1.13E-01
    3    -241.3561082001      9.73E-02
    4    -252.0447625526      1.13E-01
    5    -284.2741490177      2.71E-02
    6    -285.0551684789      2.69E-02
    7    -286.1124516201      1.37E-02
    8    -286.6784198005      4.33E-03
    9    -286.7075936999      2.73E-03
   10    -286.7214419153      5.50E-04
   11    -286.7219867769      3.67E-04
   12    -286.7223022321      8.32E-05
   13    -286.7223885908      2.70E-05
   14    -286.7224202185      1.70E-05
   15    -286.7224357471      7.98E-06
   16    -286.7224472294      3.00E-06
   17    -286.7224505022      2.15E-06
   18    -286.7224524834      5.54E-07
   19    -286.7224532782      3.42E-07
   20    -286.7224538580      1.90E-07
   21    -286.7224539318      7.56E-08
   22    -286.7224539406      2.38E-08
   23    -286.7224539415      6.09E-09 Convergence criterion met
 ---------------------------------------
 <S^2> = 0.7667
 SCF time:  CPU 55.41 s  wall 19.63 s
 SCF   energy in the final basis set = -286.72245394
 Total energy in the final basis set = -286.72245394
 
 --------------------------------------------------------------
 
                    Orbital Energies (a.u.)
 --------------------------------------------------------------
 
 Alpha MOs
 -- Occupied --
-14.350 -10.236 -10.235 -10.204 -10.195 -10.190 -10.178  -0.976
 -0.801  -0.743  -0.669  -0.592  -0.585  -0.533  -0.493  -0.480
 -0.432  -0.409  -0.383  -0.373  -0.321  -0.303  -0.237  -0.221
 -0.191
 -- Virtual --
 -0.015   0.002   0.085   0.099   0.113   0.117   0.137   0.165
  0.170   0.183   0.196   0.273   0.344   0.369   0.396   0.423
  0.472   0.485   0.520   0.524   0.544   0.551   0.581   0.605
  0.606   0.642   0.656   0.670   0.698   0.706   0.757   0.784
  0.793   0.814   0.845   0.860   0.896   0.899   0.941   0.949
  0.993   1.030   1.050   1.089   1.101   1.185   1.205   1.285
  1.312   1.403   1.422   1.466   1.488   1.532   1.565   1.681
  1.712   1.730   1.758   1.785   1.836   1.878   1.932   1.946
  1.985   2.022   2.064   2.136   2.181   2.226   2.289   2.350
  2.365   2.412   2.443   2.528   2.544   2.584   2.696   2.725
  2.768   2.808   2.922   2.996   3.180   3.927   4.083   4.152
  4.229   4.274   4.290   4.518
 
 Beta MOs
 -- Occupied --
-14.350 -10.236 -10.234 -10.204 -10.192 -10.179 -10.177  -0.976
 -0.797  -0.734  -0.661  -0.591  -0.576  -0.528  -0.486  -0.474
 -0.429  -0.398  -0.382  -0.371  -0.318  -0.301  -0.232  -0.187
 -- Virtual --
 -0.059  -0.006   0.002   0.087   0.102   0.114   0.119   0.143
  0.167   0.175   0.186   0.197   0.276   0.351   0.373   0.402
  0.434   0.476   0.487   0.525   0.531   0.552   0.560   0.584
  0.609   0.614   0.650   0.659   0.679   0.701   0.708   0.757
  0.785   0.795   0.819   0.846   0.865   0.900   0.912   0.947
  0.950   0.998   1.033   1.054   1.095   1.108   1.187   1.211
  1.297   1.317   1.409   1.426   1.468   1.490   1.537   1.567
  1.686   1.722   1.764   1.774   1.790   1.848   1.891   1.950
  1.955   1.996   2.027   2.073   2.139   2.184   2.230   2.300
  2.355   2.367   2.414   2.446   2.533   2.549   2.588   2.702
  2.731   2.775   2.809   2.927   2.997   3.186   3.929   4.089
  4.175   4.231   4.277   4.290   4.520
 --------------------------------------------------------------
 
          Ground-State Mulliken Net Atomic Charges

     Atom                 Charge (a.u.)    Spin (a.u.)
  --------------------------------------------------------
      1 C                     0.020267       0.004399
      2 C                    -0.223885       1.048591
      3 C                    -0.133033      -0.163155
      4 C                    -0.114571       0.068244
      5 C                     0.004189      -0.056123
      6 N                    -0.387498      -0.001149
      7 H                     0.175502       0.001920
      8 H                     0.152526       0.005957
      9 H                     0.138531       0.085584
     10 H                     0.125068      -0.002061
     11 H                     0.128252       0.004381
     12 C                    -0.061507       0.001481
     13 H                     0.176161       0.001932
  --------------------------------------------------------
  Sum of atomic charges =    -0.000000
  Sum of spin   charges =     1.000000

 -----------------------------------------------------------------
                    Cartesian Multipole Moments
 -----------------------------------------------------------------
    Charge (ESU x 10^10)
                -0.0000
    Dipole Moment (Debye)
         X       0.0830      Y      -0.4555      Z      -1.8570
       Tot       1.9139
    Quadrupole Moments (Debye-Ang)
        XX     -37.4282     XY      -1.1702     YY     -36.3452
        XZ      -3.4166     YZ      -5.5647     ZZ     -39.8091
    Octopole Moments (Debye-Ang^2)
       XXX     -17.0476    XXY      -6.6333    XYY      -0.7081
       YYY     -10.4205    XXZ      -2.8655    XYZ      -3.7911
       YYZ      -5.4288    XZZ       1.1801    YZZ      -0.8882
       ZZZ      -8.3443
    Hexadecapole Moments (Debye-Ang^3)
      XXXX    -350.6336   XXXY     -42.8424   XXYY    -106.4167
      XYYY     -39.0434   YYYY    -331.4966   XXXZ      76.1719
      XXYZ      25.8281   XYYZ      17.6537   YYYZ      77.5981
      XXZZ     -99.7880   XYZZ      -4.3162   YYZZ     -81.0311
      XZZZ      79.1089   YZZZ      92.5285   ZZZZ    -280.9648
 -----------------------------------------------------------------
 Calculating analytic gradient of the SCF energy
 Gradient of SCF Energy
            1           2           3           4           5           6
    1  -0.0086806  -0.0063837   0.0096078  -0.0033526  -0.0100985   0.0164690
    2   0.0307048   0.0029619  -0.0013598   0.0054375  -0.0086754  -0.0065463
    3  -0.0025191  -0.0020292   0.0010815  -0.0023981   0.0053250  -0.0108846
            7           8           9          10          11          12
    1   0.0018078  -0.0003999  -0.0014175   0.0019505  -0.0000644  -0.0033181
    2  -0.0024437   0.0002920  -0.0013144  -0.0001697   0.0017274  -0.0291670
    3   0.0003240  -0.0003096   0.0003928   0.0002245  -0.0011791   0.0219206
           13
    1   0.0038801
    2   0.0085527
    3  -0.0099486
 Max gradient component =       3.070E-02
 RMS gradient           =       9.350E-03
 Gradient time:  CPU 6.79 s  wall 1.83 s
WARNING!!!!! energy has increased from optimization step!
 ----------------------------------------------------------------
             Standard Nuclear Orientation (Angstroms)
    I     Atom           X                Y                Z
 ----------------------------------------------------------------
    1      C       1.4921660002     0.1109094910    -1.0159422716
    2      C       0.3811445284    -1.5208798568     1.2712405506
    3      C      -0.8983434032    -1.1819807825     1.0651452538
    4      C      -1.4101281899     0.0323146974     0.4588686905
    5      C      -0.6729688361     1.0239787563    -0.1204943454
    6      N       0.7219456588     1.0981061295    -0.1322403951
    7      H       1.8319496833    -0.8675733653    -0.9612460404
    8      H       0.8785103810    -2.3576284656     1.7292542570
    9      H      -1.6554457775    -1.8941399202     1.4035584431
   10      H      -2.4920736539     0.1693450063     0.4899556775
   11      H      -1.1772345947     1.9051133610    -0.5037250787
   12      C       1.3934276838     1.3580699136    -1.5104666838
   13      H       1.6095050808     2.1255623220    -2.1702971810
 ----------------------------------------------------------------
 Nuclear Repulsion Energy =   250.1227116401 hartrees
 There are       25 alpha and       24 beta electrons

                       Distance Matrix (Angstroms)
             C (  1)   C (  2)   C (  3)   C (  4)   C (  5)   N (  6)
   C (  2)  3.021309
   C (  3)  3.423014  1.339559
   C (  4)  3.256464  2.506196  1.450520
   C (  5)  2.514623  3.086160  2.514516  1.364721
   N (  6)  1.532555  2.990818  3.042674  2.455822  1.396932
   H (  7)  1.037243  2.741467  3.414618  3.652067  3.249531  2.404840
   H (  8)  3.742507  1.075778  2.231680  3.544513  4.154988  3.928330
   H (  9)  4.447659  2.074736  1.093114  2.159594  3.435610  4.118763
   H ( 10)  4.259731  3.423835  2.167233  1.091031  2.100521  3.402888
   H ( 11)  3.256875  4.161307  3.474088  2.118537  1.085149  2.096699
   C ( 12)  1.345256  4.129281  4.282271  3.673668  2.512695  1.554985
   H ( 13)  2.324893  5.162324  5.262816  4.518007  3.259581  2.448898
             H (  7)   H (  8)   H (  9)   H ( 10)   H ( 11)   C ( 12)
   H (  8)  3.219954
   H (  9)  4.336827  2.596504
   H ( 10)  4.677431  4.391161  2.406779
   H ( 11)  4.117318  5.232901  4.277937  2.393553
   C ( 12)  2.333974  4.956546  5.325790  4.529004  2.814443
   H ( 13)  3.235761  5.986640  6.292087  5.265613  3.254532  1.034945

 
 Applying Cartesian multipole field
    Component          Value
    ---------          -----
     (2,0,0)        1.00000E-11
     (0,2,0)        2.00000E-11
     (0,0,2)       -3.00000E-11
 Nucleus-field energy     =     0.0000000018 hartrees
 Requested basis set is 6-31G(d)
 There are 40 shells and 117 basis functions
 A cutoff of  1.0D-14 yielded    784 shell pairs
 There are      7021 function pairs
 Smallest overlap matrix eigenvalue = 1.87E-03
 Guess MOs from core Hamiltonian diagonalization
 Mixing HOMO and LUMO in initial guess
 Adding  50% of the LUMO to the HOMO
 An unrestricted hybrid HF-DFT SCF calculation will be
 performed using Pulay DIIS extrapolation
 Exchange:     0.2000 Hartree-Fock + 0.0800 Slater + 0.7200 B88
 Correlation:  0.1900 VWN1RPA + 0.8100 LYP
 Using SG-1 standard quadrature grid
 SCF converges when DIIS error is below 1.0E-08
 using 4 threads for integral computing
 -------------------------------------------------------
 OpenMP Integral computing Module                
 Release: version 1.0, May 2013, Q-Chem Inc. Pittsburgh 
 -------------------------------------------------------
 -------------------------------------------------------
 OpenMP BLAS3 based DFT computing Module                
 Release: version 1.0, May 2013, Q-Chem Inc. Pittsburgh 
 -------------------------------------------------------
 ---------------------------------------
  Cycle       Energy         DIIS Error
 ---------------------------------------
    1    -230.3121933509      1.34E-01
    2    -201.4789987758      1.12E-01
    3    -248.8860218284      9.77E-02
    4    -255.0365175129      1.07E-01
    5    -278.8635418933      5.40E-02
    6    -284.7217668451      2.76E-02
    7    -284.6002936547      2.86E-02
    8    -286.6603447896      5.04E-03
    9    -286.6673276924      5.07E-03
   10    -286.7105745332      1.24E-03
   11    -286.7133192184      6.51E-04
   12    -286.7140967058      2.43E-04
   13    -286.7143484818      7.33E-05
   14    -286.7144112500      3.13E-05
   15    -286.7144303601      1.14E-05
   16    -286.7144421046      2.84E-06
   17    -286.7144494649      1.80E-06
   18    -286.7144542687      1.42E-06
   19    -286.7144588951      4.57E-07
   20    -286.7144597952      1.39E-07
   21    -286.7144598387      6.46E-08
   22    -286.7144598491      3.57E-08
   23    -286.7144598521      9.68E-09 Convergence criterion met
 ---------------------------------------
 <S^2> = 0.7708
 SCF time:  CPU 52.25 s  wall 14.15 s
 SCF   energy in the final basis set = -286.71445985
 Total energy in the final basis set = -286.71445985
 
 --------------------------------------------------------------
 
                    Orbital Energies (a.u.)
 --------------------------------------------------------------
 
 Alpha MOs
 -- Occupied --
-14.357 -10.246 -10.244 -10.205 -10.196 -10.190 -10.178  -0.954
 -0.796  -0.742  -0.669  -0.610  -0.589  -0.539  -0.497  -0.477
 -0.425  -0.409  -0.377  -0.370  -0.321  -0.299  -0.236  -0.222
 -0.191
 -- Virtual --
 -0.021  -0.017   0.077   0.091   0.113   0.118   0.135   0.160
  0.172   0.181   0.196   0.280   0.329   0.355   0.393   0.420
  0.473   0.485   0.514   0.530   0.545   0.548   0.586   0.598
  0.607   0.640   0.649   0.666   0.696   0.709   0.756   0.783
  0.798   0.813   0.846   0.867   0.899   0.902   0.943   0.950
  0.988   1.014   1.028   1.085   1.097   1.183   1.201   1.279
  1.310   1.405   1.406   1.457   1.488   1.542   1.564   1.645
  1.705   1.719   1.734   1.781   1.822   1.882   1.917   1.921
  1.976   2.021   2.051   2.137   2.179   2.209   2.261   2.300
  2.321   2.344   2.386   2.518   2.549   2.577   2.673   2.714
  2.760   2.790   2.911   2.933   3.173   3.906   4.079   4.150
  4.204   4.271   4.330   4.518
 
 Beta MOs
 -- Occupied --
-14.357 -10.246 -10.244 -10.206 -10.192 -10.180 -10.177  -0.953
 -0.793  -0.734  -0.660  -0.610  -0.580  -0.533  -0.490  -0.471
 -0.422  -0.399  -0.375  -0.369  -0.317  -0.296  -0.232  -0.185
 -- Virtual --
 -0.058  -0.019  -0.010   0.078   0.094   0.113   0.122   0.138
  0.166   0.175   0.185   0.197   0.282   0.334   0.360   0.399
  0.431   0.476   0.487   0.527   0.532   0.549   0.560   0.589
  0.602   0.611   0.648   0.654   0.674   0.699   0.712   0.756
  0.784   0.801   0.818   0.848   0.871   0.903   0.914   0.949
  0.954   0.993   1.015   1.033   1.090   1.104   1.184   1.207
  1.291   1.315   1.409   1.411   1.460   1.491   1.548   1.566
  1.646   1.708   1.735   1.776   1.791   1.836   1.891   1.923
  1.938   1.992   2.030   2.060   2.139   2.182   2.213   2.269
  2.302   2.324   2.349   2.392   2.523   2.552   2.582   2.679
  2.719   2.768   2.791   2.916   2.934   3.179   3.907   4.086
  4.171   4.205   4.275   4.330   4.520
 --------------------------------------------------------------
 
          Ground-State Mulliken Net Atomic Charges

     Atom                 Charge (a.u.)    Spin (a.u.)
  --------------------------------------------------------
      1 C                     0.015812       0.000701
      2 C                    -0.227825       1.070252
      3 C                    -0.135824      -0.166477
      4 C                    -0.120470       0.073025
      5 C                     0.016268      -0.067209
      6 N                    -0.386818      -0.002120
      7 H                     0.177286       0.002286
      8 H                     0.152432       0.004784
      9 H                     0.140480       0.078200
     10 H                     0.122698      -0.002740
     11 H                     0.131020       0.004885
     12 C                    -0.059417       0.002410
     13 H                     0.174359       0.002003
  --------------------------------------------------------
  Sum of atomic charges =    -0.000000
  Sum of spin   charges =     1.000000

 -----------------------------------------------------------------
                    Cartesian Multipole Moments
 -----------------------------------------------------------------
    Charge (ESU x 10^10)
                -0.0000
    Dipole Moment (Debye)
         X       0.1418      Y      -0.3841      Z      -1.9028
       Tot       1.9464
    Quadrupole Moments (Debye-Ang)
        XX     -37.6109     XY      -1.1837     YY     -36.2480
        XZ      -3.4602     YZ      -5.6065     ZZ     -39.9548
    Octopole Moments (Debye-Ang^2)
       XXX     -17.3537    XXY      -6.8487    XYY      -0.7461
       YYY     -10.1324    XXZ      -2.8558    XYZ      -3.6975
       YYZ      -5.6346    XZZ       1.1849    YZZ      -0.7653
       ZZZ      -8.2777
    Hexadecapole Moments (Debye-Ang^3)
      XXXX    -353.1091   XXXY     -43.4697   XXYY    -106.7562
      XYYY     -38.6168   YYYY    -333.8970   XXXZ      76.9228
      XXYZ      25.9732   XYYZ      17.3390   YYYZ      77.6848
      XXZZ    -100.2538   XYZZ      -3.9752   YYZZ     -81.4714
      XZZZ      79.4775   YZZZ      92.8549   ZZZZ    -283.7800
 -----------------------------------------------------------------
 Calculating analytic gradient of the SCF energy
 Gradient of SCF Energy
            1           2           3           4           5           6
    1   0.0198268   0.0151082  -0.0175244  -0.0029190   0.0143952  -0.0175785
    2  -0.1106288  -0.0062192   0.0042833  -0.0124292   0.0117701   0.0010985
    3   0.0262850   0.0036529  -0.0027034   0.0073592  -0.0083340   0.0185002
            7           8           9          10          11          12
    1  -0.0094905  -0.0025497   0.0025409  -0.0028763   0.0017464   0.0053016
    2   0.0309082   0.0043699   0.0016118   0.0000806  -0.0025742   0.1055090
    3  -0.0019184  -0.0026705  -0.0008260   0.0009640   0.0009912  -0.0622278
           13
    1  -0.0059806
    2  -0.0277800
    3   0.0209275
 Max gradient component =       1.106E-01
 RMS gradient           =       2.892E-02
 Gradient time:  CPU 6.76 s  wall 1.83 s
WARNING!!!!! energy has increased from optimization step!
 ----------------------------------------------------------------
             Standard Nuclear Orientation (Angstroms)
    I     Atom           X                Y                Z
 ----------------------------------------------------------------
    1      C       1.4913531851     0.1515758264    -1.0371390503
    2      C       0.3821593701    -1.5180436362     1.2716584607
    3      C      -0.9010272716    -1.1837760008     1.0641873973
    4      C      -1.3990416234     0.0331033481     0.4587459601
    5      C      -0.6690026478     1.0300173734    -0.1235106257
    6      N       0.7002889365     1.0946184082    -0.1066784803
    7      H       1.8348095485    -0.8848371964    -0.9584090343
    8      H       0.8778413409    -2.3628327270     1.7352684836
    9      H      -1.6549816479    -1.8935641341     1.4010609706
   10      H      -2.4892261505     0.1690834290     0.4876235067
   11      H      -1.1774898401     1.9065978022    -0.5026609257
   12      C       1.3986053326     1.3258538161    -1.5095689378
   13      H       1.6081660051     2.1334009300    -2.1769668164
 ----------------------------------------------------------------
 Nuclear Repulsion Energy =   250.8365377229 hartrees
 There are       25 alpha and       24 beta electrons

                       Distance Matrix (Angstroms)
             C (  1)   C (  2)   C (  3)   C (  4)   C (  5)   N (  6)
   C (  2)  3.057529
   C (  3)  3.452857  1.342143
   C (  4)  3.256699  2.497911  1.447540
   C (  5)  2.504698  3.089345  2.522963  1.365949
   N (  6)  1.543006  2.971030  3.020964  2.419444  1.370918
   H (  7)  1.094675  2.735753  3.415416  3.648114  3.260797  2.435329
   H (  8)  3.792742  1.083653  2.237163  3.543193  4.166439  3.921513
   H (  9)  4.475136  2.075501  1.088912  2.159979  3.441483  4.092654
   H ( 10)  4.262654  3.421398  2.164493  1.099012  2.104259  3.373843
   H ( 11)  3.238594  4.160395  3.475896  2.117397  1.081992  2.083786
   C ( 12)  1.269142  4.105623  4.267408  3.656815  2.506727  1.584051
   H ( 13)  2.289210  5.170025  5.273025  4.516805  3.258778  2.487851
             H (  7)   H (  8)   H (  9)   H ( 10)   H ( 11)   C ( 12)
   H (  8)  3.218098
   H (  9)  4.331659  2.597518
   H ( 10)  4.679641  4.393673  2.405171
   H ( 11)  4.132041  5.240301  4.277077  2.391709
   C ( 12)  2.319743  4.940301  5.306676  4.521297  2.826198
   H ( 13)  3.262823  6.004588  6.298163  5.267562  3.258008  1.068395

 
 Applying Cartesian multipole field
    Component          Value
    ---------          -----
     (2,0,0)        1.00000E-11
     (0,2,0)        2.00000E-11
     (0,0,2)       -3.00000E-11
 Nucleus-field energy     =     0.0000000018 hartrees
 Requested basis set is 6-31G(d)
 There are 40 shells and 117 basis functions
 A cutoff of  1.0D-14 yielded    784 shell pairs
 There are      7021 function pairs
 Smallest overlap matrix eigenvalue = 1.48E-03
 Guess MOs from core Hamiltonian diagonalization
 Mixing HOMO and LUMO in initial guess
 Adding  50% of the LUMO to the HOMO
 An unrestricted hybrid HF-DFT SCF calculation will be
 performed using Pulay DIIS extrapolation
 Exchange:     0.2000 Hartree-Fock + 0.0800 Slater + 0.7200 B88
 Correlation:  0.1900 VWN1RPA + 0.8100 LYP
 Using SG-1 standard quadrature grid
 SCF converges when DIIS error is below 1.0E-08
 using 4 threads for integral computing
 -------------------------------------------------------
 OpenMP Integral computing Module                
 Release: version 1.0, May 2013, Q-Chem Inc. Pittsburgh 
 -------------------------------------------------------
 -------------------------------------------------------
 OpenMP BLAS3 based DFT computing Module                
 Release: version 1.0, May 2013, Q-Chem Inc. Pittsburgh 
 -------------------------------------------------------
 ---------------------------------------
  Cycle       Energy         DIIS Error
 ---------------------------------------
    1    -229.7111146541      1.34E-01
    2    -198.6983638947      1.16E-01
    3    -244.1294880633      9.28E-02
    4    -237.4661095664      1.20E-01
    5    -284.7082618866      2.69E-02
    6    -285.5044880039      2.32E-02
    7    -286.5023568661      1.12E-02
    8    -286.7061535530      2.34E-03
    9    -286.7103512721      1.99E-03
   10    -286.7183637929      5.95E-04
   11    -286.7190080375      3.07E-04
   12    -286.7192205751      1.29E-04
   13    -286.7192936044      4.62E-05
   14    -286.7193093012      1.09E-05
   15    -286.7193168454      3.68E-06
   16    -286.7193210817      2.65E-06
   17    -286.7193232708      8.46E-07
   18    -286.7193257943      3.77E-07
   19    -286.7193265283      1.51E-07
   20    -286.7193266775      8.26E-08
   21    -286.7193267469      3.55E-08
   22    -286.7193267571      8.00E-09 Convergence criterion met
 ---------------------------------------
 <S^2> = 0.7716
 SCF time:  CPU 50.80 s  wall 15.08 s
 SCF   energy in the final basis set = -286.71932676
 Total energy in the final basis set = -286.71932676
 
 --------------------------------------------------------------
 
                    Orbital Energies (a.u.)
 --------------------------------------------------------------
 
 Alpha MOs
 -- Occupied --
-14.352 -10.244 -10.239 -10.202 -10.197 -10.189 -10.177  -0.956
 -0.799  -0.748  -0.671  -0.596  -0.584  -0.532  -0.498  -0.476
 -0.432  -0.410  -0.382  -0.373  -0.304  -0.300  -0.243  -0.222
 -0.193
 -- Virtual --
 -0.020  -0.001   0.072   0.089   0.108   0.116   0.134   0.155
  0.165   0.183   0.197   0.285   0.337   0.369   0.402   0.420
  0.477   0.489   0.504   0.533   0.545   0.546   0.586   0.605
  0.607   0.640   0.650   0.668   0.698   0.708   0.750   0.779
  0.785   0.814   0.841   0.869   0.894   0.903   0.935   0.965
  0.993   1.021   1.048   1.086   1.101   1.183   1.206   1.284
  1.307   1.407   1.421   1.460   1.491   1.542   1.566   1.650
  1.713   1.722   1.742   1.794   1.805   1.886   1.910   1.920
  1.969   2.017   2.058   2.157   2.179   2.205   2.282   2.337
  2.358   2.395   2.424   2.523   2.555   2.591   2.674   2.714
  2.756   2.792   2.914   2.993   3.179   3.907   4.078   4.150
  4.230   4.271   4.287   4.520
 
 Beta MOs
 -- Occupied --
-14.352 -10.243 -10.239 -10.203 -10.191 -10.181 -10.176  -0.956
 -0.796  -0.741  -0.661  -0.595  -0.574  -0.528  -0.491  -0.470
 -0.428  -0.400  -0.383  -0.369  -0.300  -0.297  -0.241  -0.187
 -- Virtual --
 -0.058  -0.011  -0.000   0.074   0.092   0.109   0.120   0.137
  0.158   0.171   0.187   0.198   0.287   0.346   0.371   0.407
  0.432   0.478   0.490   0.516   0.534   0.550   0.563   0.590
  0.609   0.613   0.648   0.654   0.676   0.701   0.710   0.751
  0.780   0.787   0.820   0.842   0.874   0.903   0.909   0.943
  0.966   0.997   1.026   1.050   1.092   1.108   1.184   1.212
  1.295   1.312   1.412   1.425   1.461   1.493   1.549   1.568
  1.650   1.716   1.747   1.773   1.804   1.823   1.891   1.922
  1.929   1.990   2.028   2.066   2.159   2.183   2.209   2.291
  2.343   2.360   2.395   2.427   2.528   2.557   2.597   2.681
  2.718   2.765   2.793   2.919   2.993   3.185   3.909   4.086
  4.172   4.230   4.275   4.287   4.521
 --------------------------------------------------------------
 
          Ground-State Mulliken Net Atomic Charges

     Atom                 Charge (a.u.)    Spin (a.u.)
  --------------------------------------------------------
      1 C                     0.019723       0.000788
      2 C                    -0.225228       1.071393
      3 C                    -0.136848      -0.165820
      4 C                    -0.119005       0.074147
      5 C                     0.017496      -0.069251
      6 N                    -0.390724      -0.002421
      7 H                     0.183166       0.002645
      8 H                     0.151008       0.006812
      9 H                     0.141778       0.075614
     10 H                     0.118801      -0.002932
     11 H                     0.130056       0.005055
     12 C                    -0.068122       0.001905
     13 H                     0.177898       0.002065
  --------------------------------------------------------
  Sum of atomic charges =    -0.000000
  Sum of spin   charges =     1.000000

 -----------------------------------------------------------------
                    Cartesian Multipole Moments
 -----------------------------------------------------------------
    Charge (ESU x 10^10)
                -0.0000
    Dipole Moment (Debye)
         X       0.2348      Y      -0.4083      Z      -2.0195
       Tot       2.0737
    Quadrupole Moments (Debye-Ang)
        XX     -37.5029     XY      -1.0641     YY     -36.3239
        XZ      -3.6474     YZ      -5.6714     ZZ     -39.6733
    Octopole Moments (Debye-Ang^2)
       XXX     -16.3004    XXY      -6.6796    XYY      -0.7862
       YYY     -10.4172    XXZ      -3.3020    XYZ      -3.7934
       YYZ      -5.6502    XZZ       1.4996    YZZ      -0.6196
       ZZZ      -8.9414
    Hexadecapole Moments (Debye-Ang^3)
      XXXX    -351.0793   XXXY     -42.2175   XXYY    -106.1684
      XYYY     -38.1278   YYYY    -332.8099   XXXZ      76.3250
      XXYZ      25.5181   XYYZ      17.1674   YYYZ      77.1175
      XXZZ     -99.7099   XYZZ      -3.5560   YYZZ     -81.2282
      XZZZ      78.8622   YZZZ      92.0682   ZZZZ    -283.7524
 -----------------------------------------------------------------
 Calculating analytic gradient of the SCF energy
 Gradient of SCF Energy
            1           2           3           4           5           6
    1   0.0026722   0.0143295  -0.0239128   0.0089657   0.0288911  -0.0438672
    2   0.0200028  -0.0013950   0.0022610  -0.0139216   0.0186936  -0.0014499
    3  -0.0175474   0.0014971  -0.0023625   0.0083465  -0.0114595   0.0292115
            7           8           9          10          11          12
    1   0.0043860  -0.0003116   0.0043996  -0.0073922   0.0034334   0.0088152
    2  -0.0115291   0.0001411   0.0028247   0.0005117  -0.0043088  -0.0063545
    3   0.0026596  -0.0003765  -0.0013345   0.0011497   0.0019733  -0.0151545
           13
    1  -0.0004088
    2  -0.0054760
    3   0.0033975
 Max gradient component =       4.387E-02
 RMS gradient           =       1.302E-02
 Gradient time:  CPU 6.94 s  wall 1.88 s
 FSM gradient convergence criteria satisfied
done with opt_step_by_gradient, Reactant, iter1
-Optimizing new product side node
 Using BFGS, step: 2 E_tol 0.1484031
 max_steps 6, node_spacing 0.1182510, sigma 0.7000000
 ----------------------------------------------------------------
             Standard Nuclear Orientation (Angstroms)
    I     Atom           X                Y                Z
 ----------------------------------------------------------------
    1      C       1.4529342611     0.3519092781    -0.8529755121
    2      C       0.1790155804    -1.1479263888     0.7020600344
    3      C      -1.0960496230    -1.1446807742     1.1993712453
    4      C      -1.7693870832     0.0190470399     0.7107762101
    5      C      -0.9104250955     0.7236625204    -0.0919042491
    6      N       0.2988511031     0.0604061747    -0.1182467239
    7      H       2.2501321333    -0.3825284768    -0.7239907176
    8      H       1.0006019666    -1.8385419731     0.8285721514
    9      H      -1.5112671397    -1.9032222628     1.8499799756
   10      H      -2.7898987780     0.3048748800     0.9275896279
   11      H      -1.0333958056     1.6424723746    -0.6454926487
   12      C       1.5790606861     1.4334412850    -1.5880523737
   13      H       2.3481007234     1.8792847673    -2.1988315165
 ----------------------------------------------------------------
 Nuclear Repulsion Energy =   261.1624713059 hartrees
 There are       25 alpha and       24 beta electrons

                       Distance Matrix (Angstroms)
             C (  1)   C (  2)   C (  3)   C (  4)   C (  5)   N (  6)
   C (  2)  2.508089
   C (  3)  3.598504  1.368620
   C (  4)  3.597148  2.271162  1.430514
   C (  5)  2.510557  2.306535  2.278718  1.370618
   N (  6)  1.398824  1.465378  2.265855  2.228587  1.379475
   H (  7)  1.091586  2.628494  3.934098  4.286765  3.407685  2.090601
   H (  8)  2.798264  1.080722  2.239393  3.337267  3.326288  2.234933
   H (  9)  4.601964  2.178359  1.082166  2.249340  3.321513  3.317572
   H ( 10)  4.601549  3.312997  2.245930  1.081735  2.178801  3.270155
   H ( 11)  2.808993  3.327486  3.343003  2.239790  1.079719  2.134433
   C ( 12)  1.313757  3.724003  4.644638  4.300840  2.989947  2.384217
   H ( 13)  2.223854  4.720605  5.705639  5.374012  4.048777  3.440433
             H (  7)   H (  8)   H (  9)   H ( 10)   H ( 11)   C ( 12)
   H (  8)  2.468148
   H (  9)  4.804785  2.712369
   H ( 10)  5.348098  4.355679  2.713189
   H ( 11)  3.858542  4.292723  4.362075  2.710915
   C ( 12)  2.120067  4.108596  5.701186  5.166229  2.785147
   H ( 13)  2.701953  4.980277  6.752404  6.217099  3.728734  1.078541

 
 Applying Cartesian multipole field
    Component          Value
    ---------          -----
     (2,0,0)        1.00000E-11
     (0,2,0)        2.00000E-11
     (0,0,2)       -3.00000E-11
 Nucleus-field energy     =     0.0000000014 hartrees
 Requested basis set is 6-31G(d)
 There are 40 shells and 117 basis functions
 A cutoff of  1.0D-14 yielded    784 shell pairs
 There are      7004 function pairs
 Smallest overlap matrix eigenvalue = 1.04E-03
 Guess MOs from core Hamiltonian diagonalization
 Mixing HOMO and LUMO in initial guess
 Adding  50% of the LUMO to the HOMO
 An unrestricted hybrid HF-DFT SCF calculation will be
 performed using Pulay DIIS extrapolation
 Exchange:     0.2000 Hartree-Fock + 0.0800 Slater + 0.7200 B88
 Correlation:  0.1900 VWN1RPA + 0.8100 LYP
 Using SG-1 standard quadrature grid
 SCF converges when DIIS error is below 1.0E-08
 using 4 threads for integral computing
 -------------------------------------------------------
 OpenMP Integral computing Module                
 Release: version 1.0, May 2013, Q-Chem Inc. Pittsburgh 
 -------------------------------------------------------
 -------------------------------------------------------
 OpenMP BLAS3 based DFT computing Module                
 Release: version 1.0, May 2013, Q-Chem Inc. Pittsburgh 
 -------------------------------------------------------
 ---------------------------------------
  Cycle       Energy         DIIS Error
 ---------------------------------------
    1    -223.8285418209      1.48E-01
    2    -182.1656244564      1.46E-01
    3    -232.0238820034      1.17E-01
    4    -240.8138659277      1.19E-01
    5    -279.8440574905      4.15E-02
    6    -278.4274443951      5.39E-02
    7    -286.4031111619      1.22E-02
    8    -286.6454924310      1.06E-02
    9    -286.8554138332      2.26E-03
   10    -286.8622544289      1.38E-03
   11    -286.8651665314      8.33E-04
   12    -286.8665068827      5.26E-04
   13    -286.8671666403      2.56E-04
   14    -286.8673922970      3.85E-05
   15    -286.8674031457      1.08E-05
   16    -286.8674054501      6.00E-06
   17    -286.8674061643      9.76E-07
   18    -286.8674069320      4.45E-07
   19    -286.8674073574      3.59E-07
   20    -286.8674075647      1.82E-07
   21    -286.8674075772      2.73E-08
   22    -286.8674075773      3.83E-09 Convergence criterion met
 ---------------------------------------
 <S^2> = 0.7626
 SCF time:  CPU 53.48 s  wall 17.99 s
 SCF   energy in the final basis set = -286.86740758
 Total energy in the final basis set = -286.86740758
 
 --------------------------------------------------------------
 
                    Orbital Energies (a.u.)
 --------------------------------------------------------------
 
 Alpha MOs
 -- Occupied --
-14.389 -10.238 -10.209 -10.209 -10.205 -10.174 -10.171  -0.974
 -0.815  -0.731  -0.719  -0.614  -0.570  -0.546  -0.510  -0.476
 -0.431  -0.415  -0.408  -0.385  -0.377  -0.303  -0.254  -0.222
 -0.211
 -- Virtual --
 -0.008   0.069   0.094   0.103   0.123   0.136   0.158   0.175
  0.176   0.220   0.228   0.282   0.332   0.371   0.396   0.441
  0.484   0.508   0.535   0.548   0.562   0.589   0.592   0.595
  0.606   0.622   0.623   0.647   0.673   0.704   0.791   0.814
  0.827   0.848   0.851   0.857   0.888   0.922   0.926   0.952
  0.990   1.032   1.081   1.125   1.195   1.215   1.274   1.342
  1.372   1.386   1.429   1.464   1.491   1.509   1.542   1.553
  1.679   1.755   1.793   1.870   1.915   1.977   1.999   2.006
  2.047   2.082   2.132   2.169   2.212   2.246   2.259   2.305
  2.331   2.360   2.500   2.534   2.594   2.630   2.678   2.707
  2.786   2.866   3.038   3.058   3.172   3.951   4.072   4.119
  4.165   4.272   4.457   4.472
 
 Beta MOs
 -- Occupied --
-14.389 -10.240 -10.210 -10.205 -10.194 -10.174 -10.171  -0.973
 -0.811  -0.721  -0.715  -0.603  -0.568  -0.544  -0.498  -0.467
 -0.427  -0.416  -0.406  -0.383  -0.376  -0.301  -0.217  -0.208
 -- Virtual --
 -0.086   0.001   0.071   0.094   0.110   0.124   0.141   0.160
  0.175   0.179   0.224   0.231   0.286   0.334   0.384   0.402
  0.449   0.495   0.509   0.538   0.551   0.567   0.589   0.594
  0.603   0.618   0.629   0.631   0.667   0.671   0.705   0.796
  0.815   0.829   0.850   0.852   0.860   0.901   0.927   0.931
[...]
      1 C                     0.061068      -0.074183
      2 C                    -0.193721       0.836993
      3 C                    -0.127510      -0.131987
      4 C                    -0.119057       0.053688
      5 C                     0.028386      -0.034888
      6 N                    -0.392138      -0.201891
      7 H                     0.154488       0.018153
      8 H                     0.148845       0.001615
      9 H                     0.139496       0.061787
     10 H                     0.129725       0.000397
     11 H                     0.144815      -0.008396
     12 C                    -0.157564       0.476675
     13 H                     0.183169       0.002036
  --------------------------------------------------------
  Sum of atomic charges =    -0.000000
  Sum of spin   charges =     1.000000

 -----------------------------------------------------------------
                    Cartesian Multipole Moments
 -----------------------------------------------------------------
    Charge (ESU x 10^10)
                -0.0000
    Dipole Moment (Debye)
         X       0.3531      Y      -0.3975      Z      -1.3791
       Tot       1.4781
    Quadrupole Moments (Debye-Ang)
        XX     -36.2185     XY      -1.1397     YY     -36.6791
        XZ      -3.6632     YZ      -4.7942     ZZ     -40.6053
    Octopole Moments (Debye-Ang^2)
       XXX      -9.4075    XXY      -4.5064    XYY       2.2211
       YYY      -5.5278    XXZ      -2.9259    XYZ      -3.0718
       YYZ      -5.0875    XZZ       2.0829    YZZ      -0.3049
       ZZZ      -8.2265
    Hexadecapole Moments (Debye-Ang^3)
      XXXX    -389.9190   XXXY     -46.7089   XXYY    -101.3109
      XYYY     -38.4939   YYYY    -275.0303   XXXZ      84.4459
      XXYZ      18.5138   XYYZ      20.5050   YYYZ      70.6288
      XXZZ    -101.6282   XYZZ      -2.2267   YYZZ     -74.0609
      XZZZ      90.1942   YZZZ      82.6020   ZZZZ    -269.6823
 -----------------------------------------------------------------
 Calculating analytic gradient of the SCF energy
 Gradient of SCF Energy
            1           2           3           4           5           6
    1   0.0051003  -0.0095268   0.0033588  -0.0049100  -0.0036315   0.0053679
    2  -0.0061260   0.0002191  -0.0011541   0.0045929  -0.0013995   0.0105647
    3  -0.0002561  -0.0032883  -0.0012782  -0.0006608   0.0028366  -0.0066370
            7           8           9          10          11          12
    1   0.0027622   0.0017301   0.0022507   0.0039186   0.0001761  -0.0075309
    2   0.0076979  -0.0031619  -0.0000550  -0.0011516  -0.0005244  -0.0051542
    3   0.0013242  -0.0009647  -0.0001124   0.0020112  -0.0002836   0.0095379
           13
    1   0.0009345
    2  -0.0043479
    3  -0.0022289
 Max gradient component =       1.056E-02
 RMS gradient           =       4.358E-03
 Gradient time:  CPU 6.97 s  wall 1.88 s
 ----------------------------------------------------------------
             Standard Nuclear Orientation (Angstroms)
    I     Atom           X                Y                Z
 ----------------------------------------------------------------
    1      C       1.5159608135     0.1427784430    -0.9788650138
    2      C       0.2837099210    -1.2932559396     1.0383170949
    3      C      -1.0265132054    -1.1562689140     1.1260062410
    4      C      -1.6214036172     0.0344986439     0.5354227118
    5      C      -0.7712958326     0.8688162905    -0.0966192848
    6      N       0.6340793268     0.6969009087     0.0168022454
    7      H       2.0481768439    -0.7930313729    -0.9843925443
    8      H       1.0362645687    -2.0319711312     1.2955877739
    9      H      -1.6465100778    -1.9036142972     1.6256619117
   10      H      -2.6778204975     0.2395372186     0.6244368243
   11      H      -1.0995505303     1.7892954783    -0.5648908787
   12      C       1.4896655693     1.3148224278    -1.4876838078
   13      H       1.8514693977     2.1106343141    -2.1139960915
 ----------------------------------------------------------------
 Nuclear Repulsion Energy =   254.2251295485 hartrees
 There are       25 alpha and       24 beta electrons

                       Distance Matrix (Angstroms)
             C (  1)   C (  2)   C (  3)   C (  4)   C (  5)   N (  6)
   C (  2)  2.765802
   C (  3)  3.547137  1.320280
   C (  4)  3.485376  2.375982  1.456232
   C (  5)  2.556762  2.660014  2.379269  1.348424
   N (  6)  1.440875  2.264283  2.724360  2.407270  1.420387
   H (  7)  1.076580  2.730370  3.746925  4.057150  3.391063  2.285161
   H (  8)  3.183203  1.085462  2.247368  3.451282  3.690540  3.040360
   H (  9)  4.579575  2.107904  1.092052  2.223856  3.379145  3.814734
   H ( 10)  4.490851  3.360270  2.219609  1.079806  2.133249  3.398100
   H ( 11)  3.118219  3.739760  3.397178  2.135962  1.083656  2.130062
   C ( 12)  1.277997  3.825844  4.389627  3.925677  2.691826  1.837752
   H ( 13)  2.296420  4.897083  5.427067  4.836384  3.534235  2.832134
             H (  7)   H (  8)   H (  9)   H ( 10)   H ( 11)   C ( 12)
   H (  8)  2.785184
   H (  9)  4.657949  2.706050
   H ( 10)  5.097998  4.405068  2.580533
   H ( 11)  4.092992  4.756592  4.328426  2.511411
   C ( 12)  2.237920  4.376437  5.466887  4.794292  2.789393
   H ( 13)  3.121854  5.426878  6.506542  5.613776  3.348358  1.075400

 
 Applying Cartesian multipole field
    Component          Value
    ---------          -----
     (2,0,0)        1.00000E-11
     (0,2,0)        2.00000E-11
     (0,0,2)       -3.00000E-11
 Nucleus-field energy     =     0.0000000016 hartrees
 Requested basis set is 6-31G(d)
 There are 40 shells and 117 basis functions
 A cutoff of  1.0D-14 yielded    782 shell pairs
 There are      7002 function pairs
 Smallest overlap matrix eigenvalue = 1.30E-03
 Guess MOs from core Hamiltonian diagonalization
 Mixing HOMO and LUMO in initial guess
 Adding  50% of the LUMO to the HOMO
 An unrestricted hybrid HF-DFT SCF calculation will be
 performed using Pulay DIIS extrapolation
 Exchange:     0.2000 Hartree-Fock + 0.0800 Slater + 0.7200 B88
 Correlation:  0.1900 VWN1RPA + 0.8100 LYP
 Using SG-1 standard quadrature grid
 SCF converges when DIIS error is below 1.0E-08
 using 4 threads for integral computing
 -------------------------------------------------------
 OpenMP Integral computing Module                
 Release: version 1.0, May 2013, Q-Chem Inc. Pittsburgh 
 -------------------------------------------------------
 -------------------------------------------------------
 OpenMP BLAS3 based DFT computing Module                
 Release: version 1.0, May 2013, Q-Chem Inc. Pittsburgh 
 -------------------------------------------------------
 ---------------------------------------
  Cycle       Energy         DIIS Error
 ---------------------------------------
    1    -233.3113877616      1.33E-01
    2    -228.7422358766      1.03E-01
    3    -252.4928430986      9.77E-02
    4    -267.8132670874      8.10E-02
    5    -271.5390968060      7.27E-02
    6    -284.3896704935      3.01E-02
    7    -282.5957293155      3.59E-02
    8    -286.2839596986      1.16E-02
    9    -286.4828215911      9.93E-03
   10    -286.6787732181      2.37E-03
   11    -286.6887207699      1.56E-03
   12    -286.6941192465      4.05E-04
   13    -286.6951617883      2.13E-04
   14    -286.6956348035      7.87E-05
   15    -286.6957112849      2.09E-05
   16    -286.6957312744      1.12E-05
   17    -286.6957414740      6.13E-06
   18    -286.6957495860      2.36E-06
   19    -286.6957537582      8.55E-07
   20    -286.6957548385      4.16E-07
   21    -286.6957551975      1.44E-07
   22    -286.6957552329      6.28E-08
   23    -286.6957552413      3.32E-08
   24    -286.6957552439      1.51E-08
   25    -286.6957552443      4.03E-09 Convergence criterion met
 ---------------------------------------
 <S^2> = 0.8077
 SCF time:  CPU 58.69 s  wall 17.66 s
 SCF   energy in the final basis set = -286.69575524
 Total energy in the final basis set = -286.69575524
 
 --------------------------------------------------------------
 
                    Orbital Energies (a.u.)
 --------------------------------------------------------------
 
 Alpha MOs
 -- Occupied --
-14.368 -10.237 -10.220 -10.208 -10.196 -10.186 -10.177  -0.934
 -0.810  -0.737  -0.678  -0.598  -0.573  -0.520  -0.511  -0.485
 -0.438  -0.403  -0.386  -0.377  -0.307  -0.290  -0.241  -0.203
 -0.190
 -- Virtual --
 -0.018  -0.011   0.012   0.097   0.113   0.125   0.138   0.156
  0.177   0.182   0.208   0.278   0.332   0.368   0.400   0.441
  0.483   0.499   0.507   0.537   0.551   0.584   0.588   0.599
  0.618   0.635   0.644   0.650   0.699   0.726   0.768   0.806
  0.825   0.831   0.847   0.865   0.892   0.920   0.948   0.950
  0.993   1.032   1.052   1.071   1.119   1.147   1.188   1.211
  1.363   1.381   1.449   1.477   1.495   1.547   1.598   1.659
  1.696   1.746   1.780   1.832   1.837   1.879   1.922   1.976
  1.998   2.059   2.066   2.156   2.213   2.243   2.259   2.281
  2.348   2.404   2.439   2.517   2.614   2.634   2.659   2.693
  2.747   2.807   2.926   2.954   3.126   3.977   4.104   4.147
  4.175   4.274   4.291   4.490
 
 Beta MOs
 -- Occupied --
-14.370 -10.237 -10.214 -10.209 -10.187 -10.183 -10.176  -0.935
 -0.805  -0.731  -0.670  -0.588  -0.565  -0.516  -0.505  -0.481
 -0.434  -0.399  -0.385  -0.374  -0.305  -0.275  -0.237  -0.195
 -- Virtual --
 -0.068  -0.004   0.002   0.025   0.100   0.118   0.126   0.142
  0.157   0.180   0.187   0.209   0.281   0.336   0.375   0.407
  0.453   0.489   0.501   0.513   0.541   0.556   0.587   0.591
  0.603   0.629   0.641   0.644   0.658   0.701   0.738   0.770
  0.810   0.827   0.836   0.853   0.872   0.900   0.926   0.951
  0.955   0.996   1.034   1.058   1.076   1.126   1.149   1.191
  1.221   1.366   1.386   1.453   1.480   1.499   1.552   1.603
  1.675   1.715   1.773   1.794   1.838   1.853   1.888   1.929
  1.985   2.010   2.069   2.075   2.160   2.217   2.244   2.262
  2.290   2.353   2.409   2.441   2.522   2.616   2.639   2.666
  2.697   2.749   2.813   2.930   2.960   3.131   3.974   4.107
  4.161   4.187   4.280   4.295   4.492
 --------------------------------------------------------------
 
          Ground-State Mulliken Net Atomic Charges

     Atom                 Charge (a.u.)    Spin (a.u.)
  --------------------------------------------------------
      1 C                     0.062933      -0.067780
      2 C                    -0.194996       0.857790
      3 C                    -0.128718      -0.135360
      4 C                    -0.118206       0.055491
      5 C                     0.026781      -0.037073
      6 N                    -0.391608      -0.187478
      7 H                     0.154703       0.016521
      8 H                     0.148073       0.001379
      9 H                     0.139127       0.063302
     10 H                     0.129857       0.000443
     11 H                     0.144085      -0.007660
     12 C                    -0.156079       0.437493
     13 H                     0.184048       0.002931
  --------------------------------------------------------
  Sum of atomic charges =    -0.000000
  Sum of spin   charges =     1.000000

 -----------------------------------------------------------------
                    Cartesian Multipole Moments
 -----------------------------------------------------------------
    Charge (ESU x 10^10)
                -0.0000
    Dipole Moment (Debye)
         X       0.3798      Y      -0.3758      Z      -1.4169
       Tot       1.5142
    Quadrupole Moments (Debye-Ang)
        XX     -36.1722     XY      -1.1096     YY     -36.7136
        XZ      -3.7115     YZ      -4.7963     ZZ     -40.5723
    Octopole Moments (Debye-Ang^2)
       XXX      -9.2604    XXY      -4.4699    XYY       2.2890
       YYY      -5.4739    XXZ      -3.0171    XYZ      -3.1309
       YYZ      -5.2025    XZZ       2.1749    YZZ      -0.2151
       ZZZ      -8.3406
    Hexadecapole Moments (Debye-Ang^3)
      XXXX    -389.2929   XXXY     -46.5522   XXYY    -101.3464
      XYYY     -38.3586   YYYY    -275.8682   XXXZ      84.0970
      XXYZ      18.4618   XYYZ      20.3509   YYYZ      70.6626
      XXZZ    -101.3943   XYZZ      -2.1181   YYZZ     -74.0811
      XZZZ      89.9141   YZZZ      82.5201   ZZZZ    -269.1564
 -----------------------------------------------------------------
 Calculating analytic gradient of the SCF energy
 Gradient of SCF Energy
            1           2           3           4           5           6
    1   0.0047347  -0.0092219   0.0031537  -0.0054010  -0.0034396   0.0041707
    2  -0.0047396   0.0018556  -0.0011865   0.0047588  -0.0018929   0.0061965
    3  -0.0000292  -0.0039269  -0.0011680  -0.0005852   0.0033022  -0.0036748
            7           8           9          10          11          12
    1   0.0026728   0.0014487   0.0024037   0.0036000   0.0006460  -0.0062727
    2   0.0081515  -0.0023080  -0.0000802  -0.0011477  -0.0007625  -0.0047319
    3   0.0012310  -0.0013155  -0.0002317   0.0020777  -0.0002717   0.0076903
           13
    1   0.0015049
    2  -0.0041131
    3  -0.0030983
 Max gradient component =       9.222E-03
 RMS gradient           =       3.819E-03
 Gradient time:  CPU 6.90 s  wall 1.87 s
 E1 = -286.6960588, E2 = -286.6957552, Emax = -286.6958884
 Iteration 5, Curvature = -0.9980941
 Curvature, final (in Hartree/Bohr^2) = -0.2794948
 ----------------------------------------------------------------
             Standard Nuclear Orientation (Angstroms)
    I     Atom           X                Y                Z
 ----------------------------------------------------------------
    1      C       1.5156134073     0.1438238331    -0.9784578312
    2      C       0.2837861407    -1.2918817778     1.0379414711
    3      C      -1.0265766729    -1.1560484507     1.1259932652
    4      C      -1.6217485509     0.0344444076     0.5355744063
    5      C      -0.7713196527     0.8685537471    -0.0963611702
    6      N       0.6330318170     0.6926621249     0.0192901689
    7      H       2.0478626510    -0.7923620916    -0.9843304946
    8      H       1.0362206234    -2.0315652273     1.2953658102
    9      H      -1.6463895963    -1.9035816019     1.6256317198
   10      H      -2.6779469526     0.2395630737     0.6245228407
   11      H      -1.0994765814     1.7891613789    -0.5649212039
   12      C       1.4910410389     1.3150780818    -1.4896822198
   13      H       1.8521181393     2.1112944492    -2.1148168833
 ----------------------------------------------------------------
 Nuclear Repulsion Energy =   254.2380332258 hartrees
 There are       25 alpha and       24 beta electrons
 Requested basis set is 6-31G(d)
 There are 40 shells and 117 basis functions
 Geometry Optimization Parameters
   NAtoms,    NIC,     NZ,  NCons,   NDum,   NFix, NCnnct, MaxDiis
       13      81       0       0       0       0       0       0


** GEOMETRY OPTIMIZATION IN DELOCALIZED INTERNAL COORDINATES **
   Searching for a Minimum

   Optimization Cycle:   1

                       Coordinates (Angstroms)
     ATOM                X               Y               Z
      1  C         1.5156134073    0.1438238331   -0.9784578312
      2  C         0.2837861407   -1.2918817778    1.0379414711
      3  C        -1.0265766729   -1.1560484507    1.1259932652
      4  C        -1.6217485509    0.0344444076    0.5355744063
      5  C        -0.7713196527    0.8685537471   -0.0963611702
      6  N         0.6330318170    0.6926621249    0.0192901689
      7  H         2.0478626510   -0.7923620916   -0.9843304946
      8  H         1.0362206234   -2.0315652273    1.2953658102
      9  H        -1.6463895963   -1.9035816019    1.6256317198
     10  H        -2.6779469526    0.2395630737    0.6245228407
     11  H        -1.0994765814    1.7891613789   -0.5649212039
     12  C         1.4910410389    1.3150780818   -1.4896822198
     13  H         1.8521181393    2.1112944492   -2.1148168833
   Point Group: c1    Number of degrees of freedom:    33


   Energy is   -286.695755244


 Attempting to Generate Delocalized Internal Coordinates

 33 Hessian modes will be used to form the next step
  Hessian Eigenvalues:
     0.012994    0.014992    0.017102    0.021035    0.022207    0.022281
     0.022624    0.029226    0.032946    0.033583    0.104712    0.142493
     0.149221    0.158501    0.159967    0.159999    0.160000    0.179644
     0.220000    0.220006    0.220373    0.344826    0.345747    0.352703
     0.355319    0.360425    0.363684    0.366337    0.374625    0.424542
     0.553530    0.587890    0.618508

 Minimum Search - Taking Simple RFO Step
 Searching for Lamda that Minimizes Along All modes
 Value Taken    Lamda =  -0.01969412
 Calculated Step too Large.  Step scaled by  0.449693
 Step Taken.  Stepsize is  0.300000

                             Maximum     Tolerance    Cnvgd?
         Gradient           0.027705      0.000300      NO
         Displacement       0.261754      0.001200      NO
         Energy change     *********      0.000001      NO


 New Cartesian Coordinates Obtained by Inverse Iteration

 Displacement from previous Coordinates is:  1.075877
 ----------------------------------------------------------------
             Standard Nuclear Orientation (Angstroms)
    I     Atom           X                Y                Z
 ----------------------------------------------------------------
    1      C       1.4628101094     0.1445654151    -1.1340797347
    2      C       0.2894502819    -1.2705779331     1.1991555815
    3      C      -1.0291855556    -1.1735757365     1.1517007316
    4      C      -1.6067740671    -0.0059832272     0.4981993664
    5      C      -0.7458529239     0.8333333120    -0.1132353455
    6      N       0.6503805322     0.6073237525    -0.0381949649
    7      H       1.9024752958    -0.8290432509    -1.2961894725
    8      H       1.0315114217    -1.9725004577     1.5639368432
    9      H      -1.6748641773    -1.9088817170     1.6385797579
   10      H      -2.6663680847     0.2040368511     0.5575494085
   11      H      -1.0626825773     1.7727618956    -0.5523774691
   12      C       1.5307872932     1.3796587277    -1.4665114339
   13      H       1.9345282626     2.2380243154    -1.9727833894
 ----------------------------------------------------------------
 Nuclear Repulsion Energy =   252.8482493413 hartrees
 There are       25 alpha and       24 beta electrons

































 Eigenvalues after right structure
 -0.3026088 -0.0000000 -0.0000000 0.0000000 0.0000000 0.0000000 0.0000094 0.0015120 0.0028534 0.0049216 0.0163117 0.0217982 0.0248743 0.0389337 0.0481708 0.0688362 0.0738515 0.0808299 0.0902252 0.1169821 0.1288073 0.1480368 0.1866151 0.2024689 0.2891559 0.3462620 0.3790047 0.4035111 0.4841871 0.6074101 0.7226875 0.8441389 0.8744496 1.0284930 1.1533232 1.3170970 1.5603030 1.6424698 1.9786530
Archival summary:
1\1\c8-68\JobtypUnspecified\ProcedureUnspecified\6-31G*\166(2)\hpark21\ThuMar311:07:412022ThuMar311:07:412022\0\\#,JobtypUnspecified,ProcedureUnspecified,6-31G*,\\0,2\N\C,1,1.4164\H,2,1.08432,1,116.598\C,2,1.34888,1,120.388,3,-171.406,0\H,4,1.08184,2,121.951,1,172.622,0\C,1,1.44054,2,124.535,3,-80.7176,0\H,6,1.08051,1,129.278,2,-106.213,0\C,6,1.28085,1,85.2741,2,85.2073,0\H,8,1.07523,6,155.773,1,161.866,0\C,4,1.45738,2,116.668,1,-3.62724,0\H,10,1.09299,4,120.305,2,-178.108,0\C,10,1.32305,4,118.023,2,5.5938,0\H,12,1.08463,10,137.85,4,-178.219,0\\\@

 Total job time:  1374.08s(wall), 4030.18s(cpu) 
 Thu Mar  3 11:07:41 2022

        *************************************************************
        *                                                           *
        *  Thank you very much for using Q-Chem.  Have a nice day.  *
        *                                                           *
        *************************************************************


