
Running Job 1 of 1 qcts2.in
qchem qcts2.in_16731.0 ./qcts2.d/ 1
/home/leeping/opt/qchem/5.0.2-openmp/exe/qcprog.exe_s qcts2.in_16731.0 ./qcts2.d/
Check license passed

                  Welcome to Q-Chem
     A Quantum Leap Into The Future Of Chemistry


 Q-Chem 5.0, Q-Chem, Inc., Pleasanton, CA (2017)

 Yihan Shao,  Zhengting Gan,  E. Epifanovsky,  A. T. B. Gilbert,  M. Wormit,  
 J. Kussmann,  A. W. Lange,  A. Behn,  Jia Deng,  Xintian Feng,  D. Ghosh,  
 M. Goldey,  P. R. Horn,  L. D. Jacobson,  I. Kaliman,  T. Kus,  A. Landau,  
 Jie Liu,  E. I. Proynov,  R. M. Richard,  R. P. Steele,  E. J. Sundstrom,  
 H. L. Woodcock III,  P. M. Zimmerman,  D. Zuev,  B. Albrecht,  E. Alguire,  
 S. A. Baeppler,  D. Barton,  Z. Benda,  Y. A. Bernard,  E. J. Berquist,  
 K. B. Bravaya,  H. Burton,  D. Casanova,  Chun-Min Chang,  Yunqing Chen,  
 A. Chien,  K. D. Closser,  M. P. Coons,  S. Dasgupta,  A. L. Dempwolff,  
 M. Diedenhofen,  Hainam Do,  R. G. Edgar,  Po-Tung Fang,  S. Fatehi,  
 Qingguo Feng,  J. Fosso-Tande,  Qinghui Ge,  A. Ghysels,  G. Gidofalvi,  
 J. Gomes,  J. Gonthier,  A. Gunina,  M. W. D. Hanson-Heine,  
 P. H. P. Harbach,  A. W. Hauser,  J. E. Herr,  E. G. Hohenstein,  
 Z. C. Holden,  Kerwin Hui,  T.-C. Jagau,  Hyunjun Ji,  B. Kaduk,  
 K. Khistyaev,  Jaehoon Kim,  P. Klunzinger,  K. Koh,  D. Kosenkov,  
 L. Koulias,  T. Kowalczyk,  C. M. Krauter,  A. Kunitsa,  Ka Un Lao,  
 A. Laurent,  K. V. Lawler,  Joonho Lee,  D. Lefrancois,  S. Lehtola,  
 D. S. Levine,  Yi-Pei Li,  You-Sheng Lin,  Fenglai Liu,  E. Livshits,  
 A. Luenser,  P. Manohar,  E. Mansoor,  S. F. Manzer,  Shan-Ping Mao,  
 Yuezhi Mao,  N. Mardirossian,  A. V. Marenich,  T. Markovich,  
 L. A. Martinez-Martinez,  S. A. Maurer,  N. J. Mayhall,  S. C. McKenzie,  
 J.-M. Mewes,  A. F. Morrison,  J. W. Mullinax,  K. Nanda,  
 T. S. Nguyen-Beck,  R. Olivares-Amaya,  J. A. Parkhill,  T. M. Perrine,  
 F. Plasser,  S. Prager,  A. Prociuk,  E. Ramos,  D. R. Rehn,  F. Rob,  
 M. Schneider,  N. Sergueev,  S. M. Sharada,  S. Sharma,  D. W. Small,  
 T. Stauch,  T. Stein,  Yu-Chuan Su,  A. J. W. Thom,  A. Tkatchenko,  
 T. Tsuchimochi,  L. Vogt,  O. Vydrov,  M. A. Watson,  J. Wenzel,  
 M. de Wergifosse,  T. A. Wesolowski,  A. White,  J. Witte,  A. Yamada,  
 Jun Yang,  K. Yao,  S. Yeganeh,  S. R. Yost,  Zhi-Qiang You,  A. Zech,  
 Igor Ying Zhang,  Xing Zhang,  Yan Zhao,  Ying Zhu,  B. R. Brooks,  
 G. K. L. Chan,  C. J. Cramer,  M. S. Gordon,  W. J. Hehre,  A. Klamt,  
 M. W. Schmidt,  C. D. Sherrill,  D. G. Truhlar,  A. Aspuru-Guzik,  R. Baer,  
 A. T. Bell,  N. A. Besley,  Jeng-Da Chai,  R. A. DiStasio Jr.,  A. Dreuw,  
 B. D. Dunietz,  T. R. Furlani,  Chao-Ping Hsu,  Yousung Jung,  Jing Kong,  
 D. S. Lambrecht,  WanZhen Liang,  C. Ochsenfeld,  V. A. Rassolov,  
 L. V. Slipchenko,  J. E. Subotnik,  T. Van Voorhis,  J. M. Herbert,  
 A. I. Krylov,  P. M. W. Gill,  M. Head-Gordon

 Contributors to earlier versions of Q-Chem not listed above: 
 R. D. Adamson,  B. Austin,  J. Baker,  G. J. O. Beran,  K. Brandhorst,  
 S. T. Brown,  E. F. C. Byrd,  A. K. Chakraborty,  C.-L. Cheng,  
 Siu Hung Chien,  D. M. Chipman,  D. L. Crittenden,  H. Dachsel,  
 R. J. Doerksen,  A. D. Dutoi,  L. Fusti-Molnar,  W. A. Goddard III,  
 A. Golubeva-Zadorozhnaya,  S. R. Gwaltney,  G. Hawkins,  A. Heyden,  
 S. Hirata,  G. Kedziora,  F. J. Keil,  C. Kelley,  Jihan Kim,  R. A. King,  
 R. Z. Khaliullin,  P. P. Korambath,  W. Kurlancheek,  A. M. Lee,  M. S. Lee,  
 S. V. Levchenko,  Ching Yeh Lin,  D. Liotard,  R. C. Lochan,  I. Lotan,  
 P. E. Maslen,  N. Nair,  D. P. O'Neill,  D. Neuhauser,  E. Neuscamman,  
 C. M. Oana,  R. Olson,  B. Peters,  R. Peverati,  P. A. Pieniazek,  
 Y. M. Rhee,  J. Ritchie,  M. A. Rohrdanz,  E. Rosta,  N. J. Russ,  
 H. F. Schaefer III,  N. E. Schultz,  N. Shenvi,  A. C. Simmonett,  A. Sodt,  
 D. Stuck,  K. S. Thanthiriwatte,  V. Vanovschi,  Tao Wang,  A. Warshel,  
 C. F. Williams,  Q. Wu,  X. Xu,  W. Zhang

 Please cite Q-Chem as follows:
 Y. Shao et al., Mol. Phys. 113, 184-215 (2015)
 DOI: 10.1080/00268976.2014.952696

 Q-Chem 5.0.2 for Intel X86 EM64T Linux

 Parts of Q-Chem use Armadillo 5.200.1 (Boston Tea Smuggler).
 http://arma.sourceforge.net/

 Q-Chem begins on Thu Mar  3 11:43:47 2022  

Host: 
0

     Scratch files written to ./qcts2.d//
 Dec517 15110_ 26548  26544 5633   
Processing $rem in /home/leeping/opt/qchem/5.0.2-openmp/config/preferences.
 MEM_STATIC 2000
 MEM_TOTAL  8000
 SYMMETRY   OFF
 SYM_IGNORE TRUE 

Checking the input file for inconsistencies... 	...done.

--------------------------------------------------------------
User input:
--------------------------------------------------------------
$molecule
0 2
C        1.4062806294    0.1833987214   -1.4265338516
C        0.2977407986   -1.3390045594    1.1655080232
C       -0.9871515544   -1.0392284599    1.3637000837
C       -1.5903977586   -0.0613291125    0.4655901108
C       -0.7485300629    0.5991679739   -0.3586620396
N        0.6382571440    0.3122993752   -0.2238271790
H        1.5107161168   -0.6298491147   -2.1358860266
H        1.0438120471   -1.8796449871    1.7367496605
H       -1.5767312762   -1.4490794233    2.1878202514
H       -2.6539191304    0.1536280817    0.4792451170
H       -1.0488338878    1.3667136627   -1.0675914364
C        1.6728320659    1.4021005956   -1.1182617280
H        2.0521406796    2.3999691935   -1.0321011062
$end

$rem
method                b3lyp
basis                 6-31+g(d,p)
unrestricted          true
symmetry              off
sym_ignore            true
incdft                false
incfock               0
scf_convergence       8
thresh                14
jobtype               freq
scf_guess             read
scf_algorithm         diis
max_scf_cycles        100
$end

--------------------------------------------------------------
 ----------------------------------------------------------------
             Standard Nuclear Orientation (Angstroms)
    I     Atom           X                Y                Z
 ----------------------------------------------------------------
    1      C       1.4062806294     0.1833987214    -1.4265338516
    2      C       0.2977407986    -1.3390045594     1.1655080232
    3      C      -0.9871515544    -1.0392284599     1.3637000837
    4      C      -1.5903977586    -0.0613291125     0.4655901108
    5      C      -0.7485300629     0.5991679739    -0.3586620396
    6      N       0.6382571440     0.3122993752    -0.2238271790
    7      H       1.5107161168    -0.6298491147    -2.1358860266
    8      H       1.0438120471    -1.8796449871     1.7367496605
    9      H      -1.5767312762    -1.4490794233     2.1878202514
   10      H      -2.6539191304     0.1536280817     0.4792451170
   11      H      -1.0488338878     1.3667136627    -1.0675914364
   12      C       1.6728320659     1.4021005956    -1.1182617280
   13      H       2.0521406796     2.3999691935    -1.0321011062
 ----------------------------------------------------------------
 Nuclear Repulsion Energy =   253.9718358852 hartrees
 There are       25 alpha and       24 beta electrons
 Requested basis set is 6-31+G(d,p)
 There are 53 shells and 163 basis functions

 Total QAlloc Memory Limit   8000 MB
 Mega-Array Size      1956 MB
 MEM_STATIC part      2000 MB

                       Distance Matrix (Angstroms)
             C (  1)   C (  2)   C (  3)   C (  4)   C (  5)   N (  6)
   C (  2)  3.203943
   C (  3)  3.874112  1.334202
   C (  4)  3.552479  2.384828  1.458353
   C (  5)  2.440578  2.678486  2.389103  1.350700
   N (  6)  1.432822  2.184722  2.643638  2.362583  1.422552
   H (  7)  1.084186  3.587954  4.319032  4.087518  3.126212  2.303215
   H (  8)  3.793929  1.084081  2.229412  3.444006  3.707796  2.968662
   H (  9)  4.962550  2.137963  1.093049  2.211812  3.371321  3.718154
   H ( 10)  4.485321  3.378048  2.232326  1.085113  2.128638  3.370150
   H ( 11)  2.748938  3.757780  3.421044  2.164080  1.087147  2.161019
   C ( 12)  1.285035  3.823629  4.381294  3.911379  2.661708  1.748721
   H ( 13)  2.342199  4.678390  5.177378  4.644260  3.397081  2.647780
             H (  7)   H (  8)   H (  9)   H ( 10)   H ( 11)   C ( 12)
   H (  8)  4.096010
   H (  9)  5.375677  2.693715
   H ( 10)  4.979652  4.403264  2.578417
   H ( 11)  3.417428  4.773085  4.336481  2.537830
   C ( 12)  2.278302  4.395067  5.442340  4.778231  2.722368
   H ( 13)  3.269752  5.195994  6.192881  5.429292  3.268780  1.071000

 
 A cutoff of  1.0D-14 yielded   1340 shell pairs
 There are     13183 function pairs
 Smallest overlap matrix eigenvalue = 1.84E-05
 Guess MOs from SCF MO coefficient file
 Reading MOs from coefficient file
 Reading MOs from coefficient file
 An unrestricted hybrid HF-DFT SCF calculation will be
 performed using Pulay DIIS extrapolation
 Exchange:     0.2000 Hartree-Fock + 0.0800 Slater + 0.7200 B88
 Correlation:  0.1900 VWN1RPA + 0.8100 LYP
 Using SG-1 standard quadrature grid
 SCF converges when DIIS error is below 1.0E-08
Using Q-Chem read-in guess as SCF_GUESS READ specified.

 -------------------------------------------------------
 OpenMP BLAS3 based DFT computing Module                
 -------------------------------------------------------
 ---------------------------------------
  Cycle       Energy         DIIS Error
 ---------------------------------------
    1    -286.7391920298      9.65E-10
    2    -286.7391920298      1.59E-09 Convergence criterion met
 ---------------------------------------
 <S^2> = 0.7757
 SCF time:  CPU 6.40 s  wall 7.03 s
 SCF   energy in the final basis set = -286.73919203
 Total energy in the final basis set = -286.73919203
 
 --------------------------------------------------------------
 
                    Orbital Energies (a.u.)
 --------------------------------------------------------------
 
 Alpha MOs
 -- Occupied --
-14.388 -10.259 -10.245 -10.216 -10.197 -10.190 -10.187  -0.969
 -0.822  -0.739  -0.684  -0.608  -0.579  -0.538  -0.523  -0.490
 -0.445  -0.412  -0.392  -0.381  -0.341  -0.300  -0.268  -0.220
 -0.166
 -- Virtual --
 -0.033  -0.023  -0.006   0.011   0.022   0.029   0.033   0.049
  0.054   0.061   0.070   0.075   0.081   0.094   0.101   0.103
  0.107   0.131   0.136   0.141   0.146   0.159   0.173   0.176
  0.185   0.191   0.202   0.210   0.213   0.222   0.233   0.242
  0.252   0.256   0.266   0.283   0.298   0.306   0.344   0.353
  0.378   0.434   0.475   0.494   0.624   0.648   0.655   0.681
  0.699   0.715   0.732   0.741   0.750   0.765   0.777   0.794
  0.803   0.835   0.886   0.906   0.918   0.934   0.949   0.976
  0.993   1.007   1.050   1.086   1.115   1.121   1.132   1.175
  1.187   1.238   1.248   1.292   1.330   1.350   1.385   1.409
  1.423   1.433   1.527   1.541   1.680   1.708   1.785   1.797
  1.840   1.859   1.863   1.926   1.981   1.987   2.004   2.026
  2.056   2.071   2.104   2.145   2.183   2.261   2.303   2.334
  2.369   2.388   2.402   2.445   2.497   2.504   2.511   2.528
  2.580   2.607   2.630   2.645   2.704   2.707   2.741   2.775
  2.858   2.926   3.002   3.006   3.206   3.260   3.312   3.408
  3.529   3.743   3.779   4.146   4.343   4.349   4.503   4.559
  4.702   4.960
 
 Beta MOs
 -- Occupied --
-14.386 -10.259 -10.240 -10.216 -10.189 -10.188 -10.185  -0.967
 -0.818  -0.732  -0.676  -0.602  -0.572  -0.533  -0.515  -0.486
 -0.440  -0.405  -0.387  -0.375  -0.335  -0.293  -0.250  -0.210
 -- Virtual --
 -0.060  -0.027  -0.014   0.005   0.014   0.023   0.031   0.034
  0.050   0.055   0.064   0.072   0.077   0.083   0.096   0.102
  0.104   0.109   0.131   0.137   0.141   0.151   0.160   0.174
  0.177   0.186   0.193   0.204   0.212   0.215   0.221   0.234
  0.244   0.253   0.259   0.268   0.284   0.301   0.308   0.349
  0.355   0.383   0.438   0.478   0.504   0.630   0.654   0.659
  0.684   0.702   0.717   0.737   0.743   0.752   0.771   0.780
  0.798   0.809   0.842   0.887   0.909   0.922   0.942   0.958
  0.981   0.996   1.010   1.053   1.095   1.121   1.125   1.135
  1.181   1.190   1.242   1.251   1.296   1.337   1.351   1.392
  1.411   1.426   1.439   1.534   1.551   1.688   1.731   1.795
  1.814   1.847   1.864   1.872   1.934   1.985   1.993   2.008
  2.029   2.067   2.082   2.108   2.149   2.185   2.264   2.310
  2.341   2.372   2.391   2.404   2.451   2.498   2.508   2.513
  2.531   2.583   2.611   2.636   2.655   2.709   2.718   2.748
  2.780   2.860   2.931   3.003   3.013   3.209   3.265   3.317
  3.410   3.536   3.748   3.785   4.149   4.347   4.356   4.514
  4.564   4.708   4.965
 --------------------------------------------------------------
 
          Ground-State Mulliken Net Atomic Charges

     Atom                 Charge (a.u.)    Spin (a.u.)
  --------------------------------------------------------
      1 C                    -0.027992      -0.084307
      2 C                    -0.341223       0.854837
      3 C                    -0.140494      -0.141807
      4 C                    -0.088550       0.096060
      5 C                    -0.167317      -0.071865
      6 N                    -0.035937      -0.034708
      7 H                     0.148396       0.007988
      8 H                     0.128623       0.008172
      9 H                     0.129771       0.049259
     10 H                     0.123307       0.001232
     11 H                     0.132429      -0.000129
     12 C                    -0.042116       0.327684
     13 H                     0.181102      -0.012415
  --------------------------------------------------------
  Sum of atomic charges =    -0.000000
  Sum of spin   charges =     1.000000

 -----------------------------------------------------------------
                    Cartesian Multipole Moments
 -----------------------------------------------------------------
    Charge (ESU x 10^10)
                -0.0000
    Dipole Moment (Debye)
         X       0.5461      Y       1.0498      Z      -1.4486
       Tot       1.8705
    Quadrupole Moments (Debye-Ang)
        XX     -38.6191     XY       0.6966     YY     -39.6167
        XZ      -2.7806     YZ      -2.1212     ZZ     -40.4019
    Octopole Moments (Debye-Ang^2)
       XXX     -13.8552    XXY       4.1899    XYY       7.8868
       YYY      13.9907    XXZ       0.2198    XYZ       0.6754
       YYZ      -1.8927    XZZ      -0.5470    YZZ      -7.6223
       ZZZ      -0.5590
    Hexadecapole Moments (Debye-Ang^3)
      XXXX    -414.6806   XXXY     -47.5882   XXYY     -99.2073
      XYYY     -35.4626   YYYY    -269.8921   XXXZ      93.8060
      XXYZ      25.2673   XYYZ      29.9732   YYYZ      91.7281
      XXZZ    -119.7818   XYZZ     -22.8292   YYZZ     -97.2897
      XZZZ      95.9957   YZZZ     107.7828   ZZZZ    -341.9152
 -----------------------------------------------------------------
 Calculating MO derivatives via CPSCF
   1         3          39      0.348446    0.074778
   2         3          39      0.043499    0.009434
   3         3          39      0.006547    0.001467
   4         3          39      0.001191    0.000297
   5        21          21      0.000123    0.000032
   6        38           4      0.000008    0.000003
   7        42           0      0.000000    0.000000    Roots Converged
 Time for AOints: 18.7 s (CPU) 19.2 s (wall)
 ------------------------------------------------------------------------------
                     AOints        : Timing summary (seconds)
 ------------------------------------------------------------------------------
     job step          cpu (% of tot)      sys (% of tot)     wall (% of tot)
 ------------------------------------------------------------------------------
  cpscf_lag         0.1077E+03 (27.3)   0.4300E-04 (37.4)   0.1079E+03 (27.1)
  iterzp            0.2681E+03 (67.9)   0.7000E-04 (60.9)   0.2704E+03 (68.0)
  make_fx           0.0000E+00 ( 0.0)   0.0000E+00 ( 0.0)   0.0000E+00 ( 0.0)
  AOints            0.1873E+02 ( 4.7)   0.1000E-05 ( 0.9)   0.1918E+02 ( 4.8)
 ------------------------------------------------------------------------------
   Grand Totals     0.3949E+03          0.1150E-03          0.3978E+03
 ------------------------------------------------------------------------------
 Calculating analytic Hessian of the SCF energy
 Polarizability Matrix (a.u.)
            1           2           3
    1 -94.5685602 -12.4901075  22.1420590
    2 -12.4901075 -91.0424251  28.5907263
    3  22.1420590  28.5907263 -88.2314224
 
 Direct stationary perturbation theory relativistic correction:
 
 rels  =       0.069344047783
 relv  =      -0.333270334851
 rel2e =       0.150838911943
 E_rel =      -0.113087375124
 
 Hessian of the SCF Energy
            1           2           3           4           5           6
    1   0.2147807   0.1027256  -0.0763938  -0.0000857  -0.0033871  -0.0027995
    2   0.1027256   0.9092354   0.3501461   0.0009660   0.0022177  -0.0017136
    3  -0.0763938   0.3501461   0.3983290  -0.0004519  -0.0107290   0.0089053
    4  -0.0000857   0.0009660  -0.0004519   0.7340681  -0.2482239   0.0671566
    5  -0.0033871   0.0022177  -0.0107290  -0.2482239   0.1729150  -0.0800291
    6  -0.0027995  -0.0017136   0.0089053   0.0671566  -0.0800291   0.1578324
    7   0.0004464  -0.0034725   0.0034530  -0.4826725   0.1092662   0.0409049
    8   0.0005131  -0.0032254  -0.0019939   0.0908134  -0.0723982   0.0094507
    9   0.0025032   0.0036093   0.0004477   0.0829111  -0.0081308  -0.0714715
   10  -0.0010755   0.0033430   0.0026032  -0.0300524   0.0238071  -0.0178831
   11   0.0027899   0.0001178   0.0014533   0.0354220  -0.0142531   0.0020881
   12  -0.0031075  -0.0008194  -0.0023310  -0.0291610   0.0054814   0.0131743
   13  -0.0296231  -0.0140211  -0.0021866  -0.0070468   0.0141854  -0.0082372
   14   0.0024484  -0.0091677   0.0171772  -0.0032946  -0.0006900   0.0046046
   15   0.0385479  -0.0009872  -0.0113335   0.0074373   0.0005326  -0.0012549
   16  -0.1001276   0.0426313   0.1351914  -0.0063584   0.0254636  -0.0194705
   17   0.0016015  -0.0098005   0.0076160  -0.0030393   0.0318232  -0.0440922
   18   0.0670718  -0.0516646  -0.1843844   0.0043764  -0.0272671   0.0132592
   19  -0.0443021   0.0117038   0.0235447   0.0004887   0.0020627  -0.0018540
   20   0.0162196  -0.2199835  -0.1479476  -0.0003734  -0.0002344   0.0004613
   21   0.0216420  -0.1516174  -0.1675679  -0.0006059   0.0002361  -0.0002850
   22  -0.0002494  -0.0006304  -0.0011258  -0.1888145   0.1064113  -0.1040229
   23   0.0001817  -0.0003571  -0.0010794   0.1172445  -0.1068733   0.0890116
   24   0.0009015   0.0017588   0.0007099  -0.1359474   0.0944913  -0.1119752
   25   0.0002798  -0.0007808  -0.0007294  -0.0171167  -0.0058098   0.0245457
   26   0.0006373   0.0006107  -0.0002615   0.0069813   0.0107985  -0.0020587
   27   0.0002871  -0.0000575   0.0006030   0.0083245   0.0057627   0.0006814
   28  -0.0008871  -0.0001908  -0.0004137  -0.0012605   0.0012722  -0.0012388
   29  -0.0018364   0.0007945   0.0000772   0.0015360  -0.0020813   0.0042943
   30  -0.0007228   0.0009468  -0.0003443  -0.0005479   0.0023070  -0.0010659
   31   0.0030687   0.0025821  -0.0056219  -0.0024075  -0.0026788   0.0028085
   32  -0.0009295   0.0013052  -0.0005912  -0.0003089   0.0018962  -0.0023811
   33  -0.0002758  -0.0005568   0.0019656  -0.0001879  -0.0015054   0.0003197
   34  -0.0420214  -0.1479891  -0.0850840   0.0007505  -0.0222691   0.0183350
   35  -0.1169177  -0.6777988  -0.2211983   0.0025922  -0.0226321   0.0197482
   36  -0.0519387  -0.1481586  -0.0372964  -0.0028435   0.0148928  -0.0047751
   37  -0.0002038   0.0031328   0.0072148   0.0005078  -0.0000998   0.0017553
   38  -0.0040465   0.0060516   0.0073311  -0.0003152  -0.0004881   0.0006160
   39   0.0042845  -0.0008860  -0.0077029  -0.0004604   0.0039576  -0.0033448
            7           8           9          10          11          12
    1   0.0004464   0.0005131   0.0025032  -0.0010755   0.0027899  -0.0031075
    2  -0.0034725  -0.0032254   0.0036093   0.0033430   0.0001178  -0.0008194
    3   0.0034530  -0.0019939   0.0004477   0.0026032   0.0014533  -0.0023310
    4  -0.4826725   0.0908134   0.0829111  -0.0300524   0.0354220  -0.0291610
    5   0.1092662  -0.0723982  -0.0081308   0.0238071  -0.0142531   0.0054814
    6   0.0409049   0.0094507  -0.0714715  -0.0178831   0.0020881   0.0131743
    7   0.7222314  -0.0974265  -0.1441492  -0.1177088   0.0310111  -0.0122409
    8  -0.0974265   0.3098896  -0.1977397   0.0576716  -0.1356104   0.0711044
    9  -0.1441492  -0.1977397   0.4230660  -0.0449794   0.0845122  -0.1365305
   10  -0.1177088   0.0576716  -0.0449794   0.7611673  -0.0095400  -0.1243490
   11   0.0310111  -0.1356104   0.0845122  -0.0095400   0.3680213  -0.2552778
   12  -0.0122409   0.0711044  -0.1365305  -0.1243490  -0.2552778   0.4016550
   13   0.0236732  -0.0152126   0.0106075  -0.2436127  -0.0983616   0.1335257
   14  -0.0000669  -0.0204492   0.0287841  -0.1171645  -0.1702078   0.1392427
   15  -0.0058027   0.0365362  -0.0240027   0.1498476   0.1327763  -0.2199543
   16  -0.0141984   0.0110634  -0.0095452  -0.0593229  -0.0151510   0.0316079
   17  -0.0111096   0.0027364  -0.0024671  -0.0239651   0.0061062   0.0103550
   18   0.0102823  -0.0028575  -0.0021315   0.0290049  -0.0032200   0.0004776
   19  -0.0006778   0.0005428  -0.0002572  -0.0011037  -0.0009974   0.0009454
   20   0.0002568   0.0002709  -0.0001206  -0.0002367  -0.0003372   0.0000002
   21  -0.0001874  -0.0005486   0.0003789   0.0009074  -0.0001927   0.0000097
   22  -0.0033353   0.0127243  -0.0175185  -0.0024564   0.0018487   0.0023508
   23  -0.0002818  -0.0010544   0.0052930   0.0050425   0.0073496   0.0011651
   24   0.0149344  -0.0080400   0.0039588  -0.0002149   0.0028769   0.0009015
   25  -0.1231599  -0.0544403   0.1110762   0.0106244   0.0072586  -0.0110109
   26  -0.0476893  -0.0788050   0.0813646  -0.0118739  -0.0033012   0.0156887
   27   0.1050951   0.0857096  -0.1962257   0.0118980   0.0061532  -0.0099319
   28  -0.0043714  -0.0016195   0.0033238  -0.3313022   0.0569064   0.0062942
   29   0.0192503  -0.0012741  -0.0030546   0.0598365  -0.0547432   0.0114260
   30  -0.0175846   0.0007148   0.0050132   0.0067391   0.0128527  -0.0469709
   31  -0.0016053  -0.0009503   0.0026561   0.0108721  -0.0133694   0.0125262
   32  -0.0014971   0.0033097   0.0047217   0.0069967  -0.0038309   0.0073441
   33   0.0030416   0.0041959   0.0035280  -0.0068929   0.0130534  -0.0055051
   34   0.0017789  -0.0036521   0.0037716   0.0046052   0.0022853  -0.0078012
   35   0.0015059  -0.0033111   0.0030439   0.0055680   0.0003699  -0.0052756
   36   0.0028870   0.0027866  -0.0054268  -0.0063802   0.0037195   0.0039929
   37  -0.0004005  -0.0000273  -0.0004000  -0.0006343  -0.0001027   0.0004202
   38   0.0002532  -0.0000787   0.0001839   0.0005148   0.0003191  -0.0004348
   39  -0.0006337   0.0006815  -0.0006039  -0.0003007  -0.0007949   0.0010128
           13          14          15          16          17          18
    1  -0.0296231   0.0024484   0.0385479  -0.1001276   0.0016015   0.0670718
    2  -0.0140211  -0.0091677  -0.0009872   0.0426313  -0.0098005  -0.0516646
    3  -0.0021866   0.0171772  -0.0113335   0.1351914   0.0076160  -0.1843844
    4  -0.0070468  -0.0032946   0.0074373  -0.0063584  -0.0030393   0.0043764
    5   0.0141854  -0.0006900   0.0005326   0.0254636   0.0318232  -0.0272671
    6  -0.0082372   0.0046046  -0.0012549  -0.0194705  -0.0440922   0.0132592
    7   0.0236732  -0.0000669  -0.0058027  -0.0141984  -0.0111096   0.0102823
    8  -0.0152126  -0.0204492   0.0365362   0.0110634   0.0027364  -0.0028575
    9   0.0106075   0.0287841  -0.0240027  -0.0095452  -0.0024671  -0.0021315
   10  -0.2436127  -0.1171645   0.1498476  -0.0593229  -0.0239651   0.0290049
   11  -0.0983616  -0.1702078   0.1327763  -0.0151510   0.0061062  -0.0032200
   12   0.1335257   0.1392427  -0.2199543   0.0316079   0.0103550   0.0004776
   13   0.5642881   0.0171814  -0.1087376  -0.1993317   0.0580191  -0.0135957
   14   0.0171814   0.4589492  -0.3384183   0.0520661  -0.0957939   0.0181751
   15  -0.1087376  -0.3384183   0.4921263  -0.0365159   0.0348236  -0.0771144
   16  -0.1993317   0.0520661  -0.0365159   0.3802774  -0.1230290  -0.0862811
   17   0.0580191  -0.0957939   0.0348236  -0.1230290   0.0334937   0.0412105
   18  -0.0135957   0.0181751  -0.0771144  -0.0862811   0.0412105   0.2427072
   19   0.0043606   0.0006100  -0.0001624   0.0025198   0.0050386   0.0115511
   20   0.0011095   0.0012262   0.0005960  -0.0015399   0.0063613  -0.0008216
   21  -0.0013827  -0.0004533  -0.0000078   0.0048643  -0.0140694  -0.0093349
   22  -0.0029431  -0.0003353   0.0010016   0.0055469   0.0048824  -0.0031936
   23  -0.0032422   0.0006034   0.0002727   0.0053957   0.0073806  -0.0059282
   24   0.0014505  -0.0008059   0.0002117  -0.0027922  -0.0047681   0.0023350
   25  -0.0026232   0.0029164  -0.0011867  -0.0002542   0.0014976   0.0009910
   26   0.0033811  -0.0007137   0.0023065  -0.0018218  -0.0003202   0.0048069
   27  -0.0019222   0.0030882  -0.0010295  -0.0024534  -0.0018525   0.0035139
   28  -0.0134987   0.0063652  -0.0038161   0.0006824   0.0001542   0.0036401
   29  -0.0153026   0.0050730  -0.0016583  -0.0008131   0.0043724   0.0059051
   30   0.0195509  -0.0062233   0.0041468   0.0016957   0.0086758   0.0007534
   31  -0.0709008   0.0525359  -0.0466622  -0.0185237   0.0271945  -0.0168771
   32   0.0564587  -0.1852580   0.1442775  -0.0017872  -0.0061591   0.0083350
   33  -0.0453889   0.1429616  -0.1627629   0.0004493   0.0008696  -0.0001998
   34  -0.0242340  -0.0105735   0.0084110   0.0059385   0.0656398  -0.0046239
   35  -0.0025122   0.0149697  -0.0119843   0.0057627   0.0212179   0.0159004
   36   0.0160628  -0.0068401   0.0009921  -0.0111892  -0.0374569  -0.0008672
   37   0.0014920  -0.0026888  -0.0023619   0.0031519  -0.0028849  -0.0023463
   38  -0.0016830   0.0014587   0.0009268   0.0017591  -0.0014179  -0.0025741
   39   0.0002536  -0.0012925  -0.0000168  -0.0055612   0.0011557   0.0109858
           19          20          21          22          23          24
    1  -0.0443021   0.0162196   0.0216420  -0.0002494   0.0001817   0.0009015
    2   0.0117038  -0.2199835  -0.1516174  -0.0006304  -0.0003571   0.0017588
    3   0.0235447  -0.1479476  -0.1675679  -0.0011258  -0.0010794   0.0007099
    4   0.0004887  -0.0003734  -0.0006059  -0.1888145   0.1172445  -0.1359474
    5   0.0020627  -0.0002344   0.0002361   0.1064113  -0.1068733   0.0944913
    6  -0.0018540   0.0004613  -0.0002850  -0.1040229   0.0890116  -0.1119752
    7  -0.0006778   0.0002568  -0.0001874  -0.0033353  -0.0002818   0.0149344
    8   0.0005428   0.0002709  -0.0005486   0.0127243  -0.0010544  -0.0080400
    9  -0.0002572  -0.0001206   0.0003789  -0.0175185   0.0052930   0.0039588
   10  -0.0011037  -0.0002367   0.0009074  -0.0024564   0.0050425  -0.0002149
   11  -0.0009974  -0.0003372  -0.0001927   0.0018487   0.0073496   0.0028769
   12   0.0009454   0.0000002   0.0000097   0.0023508   0.0011651   0.0009015
   13   0.0043606   0.0011095  -0.0013827  -0.0029431  -0.0032422   0.0014505
   14   0.0006100   0.0012262  -0.0004533  -0.0003353   0.0006034  -0.0008059
   15  -0.0001624   0.0005960  -0.0000078   0.0010016   0.0002727   0.0002117
   16   0.0025198  -0.0015399   0.0048643   0.0055469   0.0053957  -0.0027922
   17   0.0050386   0.0063613  -0.0140694   0.0048824   0.0073806  -0.0047681
   18   0.0115511  -0.0008216  -0.0093349  -0.0031936  -0.0059282   0.0023350
   19   0.0287689  -0.0165776  -0.0300223   0.0001675   0.0003255  -0.0000621
   20  -0.0165776   0.2199634   0.1619868   0.0001230   0.0000162  -0.0002634
   21  -0.0300223   0.1619868   0.1706323   0.0000735   0.0000867  -0.0001221
   22   0.0001675   0.0001230   0.0000735   0.1938471  -0.1206825   0.1217951
   23   0.0003255   0.0000162   0.0000867  -0.1206825   0.1003981  -0.0883444
   24  -0.0000621  -0.0002634  -0.0001221   0.1217951  -0.0883444   0.1067023
   25  -0.0000629   0.0002079  -0.0000455   0.0008804  -0.0003574  -0.0025529
   26  -0.0000289   0.0000307   0.0001921  -0.0015831  -0.0029563  -0.0010037
   27  -0.0001176   0.0000701   0.0000084  -0.0009085  -0.0029540   0.0002261
   28   0.0000025   0.0000097  -0.0000044  -0.0000991   0.0002475  -0.0000402
   29  -0.0000870  -0.0002060   0.0001320   0.0009521  -0.0004987   0.0001838
   30  -0.0000060  -0.0001956   0.0001145  -0.0011599  -0.0002215   0.0008556
   31   0.0000050   0.0000078   0.0003659   0.0003572   0.0000098  -0.0000658
   32   0.0003609  -0.0003305   0.0001268  -0.0001280   0.0003223   0.0005331
   33  -0.0002465   0.0001914  -0.0002132  -0.0002772   0.0001071   0.0005859
   34   0.0093071  -0.0005628   0.0055499  -0.0027744  -0.0036470   0.0025483
   35  -0.0028777  -0.0066383   0.0038143  -0.0035276  -0.0042091   0.0034011
   36  -0.0018571  -0.0123278   0.0047552   0.0023021   0.0017561  -0.0036198
   37   0.0005263   0.0013562  -0.0011549  -0.0001268  -0.0002364   0.0000457
   38  -0.0000757  -0.0001389   0.0003067  -0.0000549  -0.0001214  -0.0000194
   39  -0.0014559  -0.0016293   0.0016319   0.0006833   0.0008352  -0.0007696
           25          26          27          28          29          30
    1   0.0002798   0.0006373   0.0002871  -0.0008871  -0.0018364  -0.0007228
    2  -0.0007808   0.0006107  -0.0000575  -0.0001908   0.0007945   0.0009468
    3  -0.0007294  -0.0002615   0.0006030  -0.0004137   0.0000772  -0.0003443
    4  -0.0171167   0.0069813   0.0083245  -0.0012605   0.0015360  -0.0005479
    5  -0.0058098   0.0107985   0.0057627   0.0012722  -0.0020813   0.0023070
    6   0.0245457  -0.0020587   0.0006814  -0.0012388   0.0042943  -0.0010659
    7  -0.1231599  -0.0476893   0.1050951  -0.0043714   0.0192503  -0.0175846
    8  -0.0544403  -0.0788050   0.0857096  -0.0016195  -0.0012741   0.0007148
    9   0.1110762   0.0813646  -0.1962257   0.0033238  -0.0030546   0.0050132
   10   0.0106244  -0.0118739   0.0118980  -0.3313022   0.0598365   0.0067391
   11   0.0072586  -0.0033012   0.0061532   0.0569064  -0.0547432   0.0128527
   12  -0.0110109   0.0156887  -0.0099319   0.0062942   0.0114260  -0.0469709
   13  -0.0026232   0.0033811  -0.0019222  -0.0134987  -0.0153026   0.0195509
   14   0.0029164  -0.0007137   0.0030882   0.0063652   0.0050730  -0.0062233
   15  -0.0011867   0.0023065  -0.0010295  -0.0038161  -0.0016583   0.0041468
   16  -0.0002542  -0.0018218  -0.0024534   0.0006824  -0.0008131   0.0016957
   17   0.0014976  -0.0003202  -0.0018525   0.0001542   0.0043724   0.0086758
   18   0.0009910   0.0048069   0.0035139   0.0036401   0.0059051   0.0007534
   19  -0.0000629  -0.0000289  -0.0001176   0.0000025  -0.0000870  -0.0000060
   20   0.0002079   0.0000307   0.0000701   0.0000097  -0.0002060  -0.0001956
   21  -0.0000455   0.0001921   0.0000084  -0.0000044   0.0001320   0.0001145
   22   0.0008804  -0.0015831  -0.0009085  -0.0000991   0.0009521  -0.0011599
   23  -0.0003574  -0.0029563  -0.0029540   0.0002475  -0.0004987  -0.0002215
   24  -0.0025529  -0.0010037   0.0002261  -0.0000402   0.0001838   0.0008556
   25   0.1311764   0.0515150  -0.1220049   0.0002198  -0.0009398   0.0004252
   26   0.0515150   0.0739582  -0.0972922   0.0001613  -0.0000069  -0.0009182
   27  -0.1220049  -0.0972922   0.2040042  -0.0002547  -0.0007284   0.0002860
   28   0.0002198   0.0001613  -0.0002547   0.3501383  -0.0622528  -0.0074064
   29  -0.0009398  -0.0000069  -0.0007284  -0.0622528   0.0507631  -0.0141991
   30   0.0004252  -0.0009182   0.0002860  -0.0074064  -0.0141991   0.0385772
   31   0.0006889  -0.0009391   0.0006626   0.0003994  -0.0002580  -0.0009769
   32   0.0002254  -0.0007803   0.0004809  -0.0010261  -0.0020829  -0.0024583
   33  -0.0004481  -0.0000870  -0.0003291  -0.0004002  -0.0029323  -0.0023149
   34  -0.0005066   0.0013095   0.0014768  -0.0001105  -0.0003616  -0.0003465
   35  -0.0013019   0.0014971   0.0016175  -0.0000208   0.0000056  -0.0010502
   36   0.0005919  -0.0026088  -0.0016225   0.0003190   0.0006668   0.0008854
   37  -0.0001463  -0.0000493  -0.0000828   0.0000872   0.0002764   0.0003401
   38   0.0000092  -0.0000115   0.0000024  -0.0000066  -0.0001155  -0.0002309
   39   0.0003482  -0.0001288  -0.0001843  -0.0000027  -0.0001125   0.0000639
           31          32          33          34          35          36
    1   0.0030687  -0.0009295  -0.0002758  -0.0420214  -0.1169177  -0.0519387
    2   0.0025821   0.0013052  -0.0005568  -0.1479891  -0.6777988  -0.1481586
    3  -0.0056219  -0.0005912   0.0019656  -0.0850840  -0.2211983  -0.0372964
    4  -0.0024075  -0.0003089  -0.0001879   0.0007505   0.0025922  -0.0028435
    5  -0.0026788   0.0018962  -0.0015054  -0.0222691  -0.0226321   0.0148928
    6   0.0028085  -0.0023811   0.0003197   0.0183350   0.0197482  -0.0047751
    7  -0.0016053  -0.0014971   0.0030416   0.0017789   0.0015059   0.0028870
    8  -0.0009503   0.0033097   0.0041959  -0.0036521  -0.0033111   0.0027866
    9   0.0026561   0.0047217   0.0035280   0.0037716   0.0030439  -0.0054268
   10   0.0108721   0.0069967  -0.0068929   0.0046052   0.0055680  -0.0063802
   11  -0.0133694  -0.0038309   0.0130534   0.0022853   0.0003699   0.0037195
   12   0.0125262   0.0073441  -0.0055051  -0.0078012  -0.0052756   0.0039929
   13  -0.0709008   0.0564587  -0.0453889  -0.0242340  -0.0025122   0.0160628
   14   0.0525359  -0.1852580   0.1429616  -0.0105735   0.0149697  -0.0068401
   15  -0.0466622   0.1442775  -0.1627629   0.0084110  -0.0119843   0.0009921
   16  -0.0185237  -0.0017872   0.0004493   0.0059385   0.0057627  -0.0111892
   17   0.0271945  -0.0061591   0.0008696   0.0656398   0.0212179  -0.0374569
   18  -0.0168771   0.0083350  -0.0001998  -0.0046239   0.0159004  -0.0008672
   19   0.0000050   0.0003609  -0.0002465   0.0093071  -0.0028777  -0.0018571
   20   0.0000078  -0.0003305   0.0001914  -0.0005628  -0.0066383  -0.0123278
   21   0.0003659   0.0001268  -0.0002132   0.0055499   0.0038143   0.0047552
   22   0.0003572  -0.0001280  -0.0002772  -0.0027744  -0.0035276   0.0023021
   23   0.0000098   0.0003223   0.0001071  -0.0036470  -0.0042091   0.0017561
   24  -0.0000658   0.0005331   0.0005859   0.0025483   0.0034011  -0.0036198
   25   0.0006889   0.0002254  -0.0004481  -0.0005066  -0.0013019   0.0005919
   26  -0.0009391  -0.0007803  -0.0000870   0.0013095   0.0014971  -0.0026088
   27   0.0006626   0.0004809  -0.0003291   0.0014768   0.0016175  -0.0016225
   28   0.0003994  -0.0010261  -0.0004002  -0.0001105  -0.0000208   0.0003190
   29  -0.0002580  -0.0020829  -0.0029323  -0.0003616   0.0000056   0.0006668
   30  -0.0009769  -0.0024583  -0.0023149  -0.0003465  -0.0010502   0.0008854
   31   0.0776392  -0.0599971   0.0507785   0.0009115  -0.0042573   0.0004057
   32  -0.0599971   0.1882788  -0.1565956   0.0014600   0.0033830  -0.0031542
   33   0.0507785  -0.1565956   0.1655899   0.0001643   0.0003134  -0.0012944
   34   0.0009115   0.0014600   0.0001643   0.1095673   0.2405661   0.0647252
   35  -0.0042573   0.0033830   0.0003134   0.2405661   1.0284297   0.2286424
   36   0.0004057  -0.0031542  -0.0012944   0.0647252   0.2286424   0.0561213
   37  -0.0005046   0.0001721  -0.0003163  -0.0632120  -0.1245798  -0.0130852
   38   0.0001199  -0.0000535  -0.0000152  -0.1222056  -0.3552835  -0.0419178
   39   0.0000006  -0.0006387   0.0006305  -0.0071268  -0.0369728  -0.0118447
           37          38          39
    1  -0.0002038  -0.0040465   0.0042845
    2   0.0031328   0.0060516  -0.0008860
    3   0.0072148   0.0073311  -0.0077029
    4   0.0005078  -0.0003152  -0.0004604
    5  -0.0000998  -0.0004881   0.0039576
    6   0.0017553   0.0006160  -0.0033448
    7  -0.0004005   0.0002532  -0.0006337
    8  -0.0000273  -0.0000787   0.0006815
    9  -0.0004000   0.0001839  -0.0006039
   10  -0.0006343   0.0005148  -0.0003007
   11  -0.0001027   0.0003191  -0.0007949
   12   0.0004202  -0.0004348   0.0010128
   13   0.0014920  -0.0016830   0.0002536
   14  -0.0026888   0.0014587  -0.0012925
   15  -0.0023619   0.0009268  -0.0000168
   16   0.0031519   0.0017591  -0.0055612
   17  -0.0028849  -0.0014179   0.0011557
   18  -0.0023463  -0.0025741   0.0109858
   19   0.0005263  -0.0000757  -0.0014559
   20   0.0013562  -0.0001389  -0.0016293
   21  -0.0011549   0.0003067   0.0016319
   22  -0.0001268  -0.0000549   0.0006833
   23  -0.0002364  -0.0001214   0.0008352
   24   0.0000457  -0.0000194  -0.0007696
   25  -0.0001463   0.0000092   0.0003482
   26  -0.0000493  -0.0000115  -0.0001288
   27  -0.0000828   0.0000024  -0.0001843
   28   0.0000872  -0.0000066  -0.0000027
   29   0.0002764  -0.0001155  -0.0001125
   30   0.0003401  -0.0002309   0.0000639
   31  -0.0005046   0.0001199   0.0000006
   32   0.0001721  -0.0000535  -0.0006387
   33  -0.0003163  -0.0000152   0.0006305
   34  -0.0632120  -0.1222056  -0.0071268
   35  -0.1245798  -0.3552835  -0.0369728
   36  -0.0130852  -0.0419178  -0.0118447
   37   0.0594630   0.1257314   0.0099712
   38   0.1257314   0.3498795   0.0358254
   39   0.0099712   0.0358254   0.0101424
 Gradient time:  CPU 514.11 s  wall 518.68 s
 **********************************************************************
 **                                                                  **
 **                       VIBRATIONAL ANALYSIS                       **
 **                       --------------------                       **
 **                                                                  **
 **        VIBRATIONAL FREQUENCIES (CM**-1) AND NORMAL MODES         **
 **     FORCE CONSTANTS (mDYN/ANGSTROM) AND REDUCED MASSES (AMU)     **
 **                  INFRARED INTENSITIES (KM/MOL)                   **
 **                                                                  **
 **********************************************************************
 

 Mode:                 1                      2                      3
 Frequency:      -631.63                 104.21                 136.33
 Force Cnst:      1.4760                 0.0209                 0.0624
 Red. Mass:       6.2794                 3.2619                 5.6951
 IR Active:          YES                    YES                    YES
 IR Intens:       73.246                  5.562                  6.687
 Raman Active:       YES                    YES                    YES
               X      Y      Z        X      Y      Z        X      Y      Z
 C          0.028 -0.089 -0.177   -0.039 -0.134  0.132   -0.028 -0.139  0.011
 C         -0.010 -0.214  0.203    0.049  0.061 -0.032    0.161  0.232 -0.252
 C          0.017 -0.017  0.020   -0.008 -0.124 -0.135    0.140  0.073 -0.042
 C          0.086 -0.005 -0.050   -0.008 -0.033 -0.040   -0.046 -0.025 -0.016
 C         -0.002  0.091 -0.050    0.003  0.128  0.105   -0.126  0.041 -0.050
 N          0.136  0.366 -0.157    0.021  0.187  0.144   -0.104  0.023 -0.026
 H          0.118 -0.137 -0.078   -0.088 -0.323  0.342   -0.094 -0.101 -0.032
 H         -0.241 -0.413  0.318    0.039  0.010 -0.068    0.292  0.450 -0.209
 H         -0.086  0.109  0.019   -0.064 -0.335 -0.279    0.318  0.120  0.105
 H          0.066 -0.073 -0.105   -0.023 -0.102 -0.080   -0.057 -0.081  0.088
 H         -0.153  0.125  0.031    0.003  0.200  0.186   -0.123  0.105  0.022
 C         -0.243 -0.146  0.201   -0.014 -0.065 -0.163   -0.014 -0.231  0.381
 H         -0.132 -0.174  0.236    0.037 -0.050 -0.529    0.072 -0.219  0.012
 TransDip   0.128  0.141 -0.197   -0.025 -0.062 -0.034    0.040  0.057 -0.045

 Mode:                 4                      5                      6
 Frequency:       227.97                 316.69                 355.75
 Force Cnst:      0.0831                 0.1790                 0.1567
 Red. Mass:       2.7123                 3.0295                 2.1018
 IR Active:          YES                    YES                    YES
 IR Intens:        2.916                 11.088                 13.817
 Raman Active:       YES                    YES                    YES
               X      Y      Z        X      Y      Z        X      Y      Z
 C          0.186 -0.072  0.127    0.026  0.006  0.100    0.079 -0.041 -0.005
 C         -0.046 -0.094 -0.176    0.017 -0.111 -0.004    0.066  0.123  0.099
 C          0.022  0.062  0.038    0.059  0.004  0.060   -0.015 -0.091 -0.097
 C          0.006  0.089  0.081   -0.029 -0.046  0.053    0.003  0.069  0.063
 C         -0.010 -0.035 -0.036   -0.165  0.016 -0.059   -0.023  0.055  0.024
 N         -0.006  0.003 -0.008   -0.144  0.138 -0.101   -0.051 -0.088 -0.103
 H          0.549 -0.215  0.345    0.158 -0.102  0.236    0.326 -0.058  0.050
 H         -0.007 -0.167 -0.296    0.000 -0.164 -0.029   -0.021 -0.004  0.094
 H          0.105  0.136  0.132    0.100  0.058  0.118   -0.110 -0.350 -0.293
 H          0.022  0.160  0.154   -0.053 -0.158  0.104    0.029  0.187  0.215
 H         -0.005 -0.056 -0.060   -0.317 -0.042 -0.063    0.005  0.197  0.165
 C         -0.177  0.048 -0.035    0.219  0.018 -0.096   -0.072 -0.000 -0.036
 H         -0.349  0.124 -0.147    0.593 -0.174  0.391    0.024 -0.104  0.635
 TransDip   0.054 -0.000  0.010    0.076 -0.032  0.068    0.107  0.010  0.051

 Mode:                 7                      8                      9
 Frequency:       398.43                 500.59                 527.94
 Force Cnst:      0.1605                 0.4098                 0.3405
 Red. Mass:       1.7155                 2.7754                 2.0735
 IR Active:          YES                    YES                    YES
 IR Intens:       23.910                 27.384                 31.960
 Raman Active:       YES                    YES                    YES
               X      Y      Z        X      Y      Z        X      Y      Z
 C         -0.094 -0.033  0.062    0.110 -0.002 -0.106    0.015  0.004  0.023
 C          0.019 -0.028 -0.059   -0.121  0.104 -0.088    0.034 -0.124  0.047
 C          0.048  0.075 -0.008   -0.123 -0.060  0.124    0.058  0.054 -0.045
 C          0.013 -0.012 -0.083   -0.054 -0.151 -0.015   -0.022 -0.069 -0.116
 C          0.056  0.010  0.001    0.028 -0.000  0.154   -0.008  0.147  0.075
 N          0.036 -0.009  0.086    0.094  0.049 -0.060   -0.080 -0.106 -0.043
 H         -0.153 -0.037  0.056    0.279 -0.047 -0.028    0.185 -0.029  0.083
 H          0.011  0.048  0.028    0.206  0.430 -0.221    0.022  0.233  0.406
 H          0.088  0.197  0.081    0.015  0.175  0.337    0.135  0.421  0.194
 H         -0.000 -0.079 -0.166   -0.040 -0.061 -0.095   -0.008 -0.018  0.028
 H          0.136 -0.045 -0.092   -0.032  0.161  0.353    0.072  0.438  0.360
 C         -0.105  0.007 -0.078   -0.014  0.008 -0.045   -0.006  0.015 -0.006
 H          0.163 -0.190  0.853    0.343 -0.145  0.189   -0.151  0.091 -0.227
 TransDip   0.093  0.027  0.123    0.156  0.026  0.055    0.003  0.164  0.076

 Mode:                10                     11                     12
 Frequency:       644.08                 647.25                 728.04
 Force Cnst:      0.3358                 0.3177                 0.5106
 Red. Mass:       1.3738                 1.2869                 1.6349
 IR Active:          YES                    YES                    YES
 IR Intens:       26.612                 49.489                 27.482
 Raman Active:       YES                    YES                    YES
               X      Y      Z        X      Y      Z        X      Y      Z
 C         -0.001  0.015 -0.013   -0.004  0.038 -0.040    0.039 -0.002 -0.074
 C         -0.001 -0.059 -0.035    0.020  0.008  0.028    0.024  0.003 -0.056
 C         -0.024 -0.060 -0.084    0.030  0.047  0.006    0.031  0.065 -0.028
 C         -0.006  0.065  0.073   -0.009  0.004 -0.024   -0.110  0.011  0.047
 C          0.000 -0.057 -0.023    0.004  0.016  0.018   -0.028  0.037  0.138
 N          0.022  0.026  0.024   -0.017 -0.060  0.025    0.034 -0.008  0.006
 H          0.021 -0.019  0.033    0.243 -0.067  0.121    0.236 -0.021 -0.023
 H          0.022  0.599  0.573   -0.082 -0.291 -0.124   -0.350 -0.084  0.381
 H          0.085  0.096  0.072   -0.028 -0.094 -0.107    0.117 -0.177 -0.090
 H          0.017  0.171  0.158   -0.035 -0.122 -0.127   -0.191 -0.372 -0.302
 H         -0.008 -0.159 -0.130    0.050 -0.048 -0.064   -0.074 -0.362 -0.276
 C         -0.036  0.017  0.005   -0.095  0.030  0.036    0.048 -0.026 -0.016
 H          0.364 -0.118 -0.113    0.747 -0.245 -0.333   -0.251  0.074  0.100
 TransDip   0.056  0.120  0.099    0.056 -0.211 -0.058   -0.075  0.019 -0.149

 Mode:                13                     14                     15
 Frequency:       744.15                 812.82                 855.93
 Force Cnst:      0.5948                 0.6251                 0.8338
 Red. Mass:       1.8229                 1.6058                 1.9318
 IR Active:          YES                    YES                    YES
 IR Intens:       12.583                 17.483                  6.407
 Raman Active:       YES                    YES                    YES
               X      Y      Z        X      Y      Z        X      Y      Z
 C         -0.056  0.005  0.012   -0.169  0.062 -0.082    0.055 -0.002 -0.070
 C         -0.035 -0.030  0.005    0.003  0.019  0.004    0.043 -0.056  0.117
 C         -0.035 -0.075  0.061   -0.004 -0.002 -0.022    0.015 -0.054 -0.080
 C          0.142  0.037  0.010   -0.002 -0.003 -0.013   -0.143  0.075 -0.014
 C          0.060  0.140  0.015    0.023 -0.067 -0.019   -0.075  0.045  0.003
 N         -0.081 -0.033 -0.052    0.025  0.015  0.034    0.042 -0.007  0.096
 H          0.176 -0.104  0.169    0.658 -0.348  0.516    0.112  0.070 -0.146
 H          0.358  0.371 -0.145   -0.008 -0.049 -0.051    0.563  0.035 -0.522
 H         -0.169 -0.058 -0.024    0.032  0.074  0.042    0.068  0.348  0.174
 H          0.072 -0.285 -0.371    0.039  0.189  0.122   -0.164 -0.009  0.102
 H         -0.055 -0.325 -0.441    0.049  0.051  0.102    0.015 -0.154 -0.255
 C         -0.005 -0.008  0.026    0.072 -0.025  0.024    0.010 -0.023 -0.018
 H         -0.101  0.030 -0.007   -0.186  0.064  0.086   -0.043 -0.012  0.066
 TransDip   0.022 -0.110 -0.015    0.110  0.032  0.070    0.055 -0.059 -0.012

 Mode:                16                     17                     18
 Frequency:       870.03                 922.27                 958.70
 Force Cnst:      0.6706                 0.6677                 1.7829
 Red. Mass:       1.5037                 1.3323                 3.2924
 IR Active:          YES                    YES                    YES
 IR Intens:        2.197                  0.314                  3.313
 Raman Active:       YES                    YES                    YES
               X      Y      Z        X      Y      Z        X      Y      Z
 C         -0.020 -0.002  0.050    0.007 -0.003  0.002    0.053  0.009 -0.108
 C          0.014  0.094  0.014   -0.007  0.011 -0.008   -0.032  0.063 -0.059
 C         -0.039 -0.107 -0.093    0.004  0.021  0.017   -0.027 -0.101  0.072
 C          0.037  0.008  0.028    0.000 -0.107 -0.084    0.158 -0.040  0.015
 C          0.042 -0.003  0.044    0.012  0.072  0.067   -0.146  0.154 -0.172
 N         -0.019 -0.002 -0.061   -0.007  0.006 -0.006    0.004 -0.048  0.227
 H         -0.108 -0.015  0.051   -0.009  0.009 -0.015    0.353  0.194 -0.276
 H         -0.309 -0.397 -0.018   -0.074 -0.059  0.015   -0.424 -0.159  0.275
 H          0.277  0.568  0.469   -0.044 -0.060 -0.059    0.030  0.129  0.222
 H          0.033 -0.012 -0.115    0.135  0.520  0.574    0.115 -0.245  0.235
 H         -0.013 -0.184 -0.126   -0.070 -0.402 -0.410   -0.145  0.224 -0.093
 C         -0.006  0.016  0.010   -0.004 -0.001  0.004   -0.001 -0.038 -0.050
 H          0.037  0.006 -0.056    0.010 -0.004 -0.010   -0.047 -0.035  0.071
 TransDip   0.022  0.035 -0.023    0.011  0.003  0.014    0.002  0.058 -0.008

 Mode:                19                     20                     21
 Frequency:      1020.46                1094.17                1157.65
 Force Cnst:      1.2648                 1.0630                 1.1913
 Red. Mass:       2.0615                 1.5070                 1.5087
 IR Active:          YES                    YES                    YES
 IR Intens:        1.408                 30.663                  6.468
 Raman Active:       YES                    YES                    YES
               X      Y      Z        X      Y      Z        X      Y      Z
 C         -0.014  0.005  0.017    0.010  0.023 -0.007   -0.107 -0.030  0.119
 C          0.059 -0.008 -0.020   -0.019  0.010 -0.002   -0.010  0.011 -0.008
 C          0.014 -0.141  0.172   -0.006 -0.008  0.006   -0.003 -0.010  0.012
 C         -0.133  0.082 -0.089   -0.023 -0.017  0.024   -0.039 -0.008  0.018
 C          0.012  0.061 -0.066   -0.066  0.068 -0.049    0.003  0.020 -0.021
 N          0.019 -0.010 -0.023    0.130 -0.063 -0.051    0.082  0.014 -0.079
 H         -0.058 -0.050  0.074   -0.472 -0.457  0.477    0.422  0.407 -0.306
 H         -0.090 -0.061  0.159   -0.025  0.017  0.011   -0.013  0.021  0.004
 H          0.419 -0.432  0.322   -0.066  0.025 -0.019   -0.078  0.017 -0.026
 H         -0.082  0.416 -0.299   -0.094 -0.368  0.341   -0.108 -0.350  0.344
 H          0.295  0.121 -0.134    0.096  0.069 -0.123    0.464  0.081 -0.155
 C         -0.000  0.012  0.005   -0.001  0.053  0.028   -0.000 -0.010 -0.006
 H          0.005  0.014 -0.031    0.001  0.060  0.019    0.043 -0.023 -0.107
 TransDip   0.018  0.032  0.009   -0.103 -0.102  0.102   -0.036 -0.030  0.067

 Mode:                22                     23                     24
 Frequency:      1211.94                1234.37                1389.84
 Force Cnst:      1.6059                 1.1983                 1.9314
 Red. Mass:       1.8557                 1.3348                 1.6970
 IR Active:          YES                    YES                    YES
 IR Intens:       25.166                 38.672                  9.691
 Raman Active:       YES                    YES                    YES
               X      Y      Z        X      Y      Z        X      Y      Z
 C          0.079  0.014 -0.099   -0.009 -0.002  0.009    0.001 -0.005 -0.002
 C         -0.015  0.002  0.000   -0.115 -0.002  0.060   -0.035 -0.005  0.023
 C         -0.003 -0.004  0.002   -0.003  0.060 -0.075    0.002  0.053 -0.062
 C         -0.020 -0.019  0.023    0.035 -0.016  0.002    0.066 -0.108  0.101
 C          0.114 -0.030 -0.002    0.033  0.016 -0.021   -0.161  0.013  0.016
 N         -0.177  0.071  0.043    0.004 -0.006  0.001    0.034 -0.001 -0.008
 H         -0.145 -0.159  0.063    0.026  0.031 -0.024   -0.013 -0.021  0.010
 H         -0.043 -0.021  0.013    0.060  0.084 -0.131    0.049  0.037 -0.071
 H          0.040 -0.007  0.032    0.774 -0.466  0.209    0.117 -0.030 -0.035
 H         -0.068 -0.289  0.312    0.013 -0.165  0.156    0.175  0.429 -0.483
 H          0.806  0.094 -0.154   -0.163 -0.008  0.033    0.637  0.104 -0.217
 C          0.005 -0.014 -0.002   -0.004 -0.005  0.003    0.007  0.009  0.001
 H         -0.041 -0.001  0.071    0.002 -0.009  0.002   -0.006  0.016 -0.001
 TransDip   0.147  0.018 -0.061    0.008 -0.155  0.125   -0.037 -0.076  0.052

 Mode:                25                     26                     27
 Frequency:      1561.97                1645.62                1751.37
 Force Cnst:     11.1412                 8.3344                 8.9630
 Red. Mass:       7.7506                 5.2235                 4.9596
 IR Active:          YES                    YES                    YES
 IR Intens:        9.173                  5.474                 49.816
 Raman Active:       YES                    YES                    YES
               X      Y      Z        X      Y      Z        X      Y      Z
 C          0.013 -0.014 -0.010   -0.008  0.033  0.017    0.091  0.411  0.116
 C         -0.383  0.089  0.043   -0.196  0.046  0.030    0.006  0.005 -0.007
 C          0.470 -0.190  0.033    0.271 -0.060 -0.036   -0.012  0.002  0.002
 C          0.097  0.215 -0.228   -0.213 -0.188  0.240    0.016  0.014 -0.017
 C         -0.190 -0.145  0.180    0.245  0.148 -0.200   -0.034 -0.016  0.024
 N         -0.006  0.010 -0.012   -0.003 -0.011  0.011    0.024 -0.011 -0.038
 H         -0.036 -0.035 -0.004    0.017  0.047  0.025   -0.160  0.341  0.399
 H         -0.334  0.262 -0.062   -0.187  0.102 -0.070    0.013  0.017 -0.003
 H         -0.109  0.174 -0.221   -0.228  0.265 -0.245    0.008 -0.018  0.010
 H          0.064 -0.086  0.089   -0.163  0.336 -0.318    0.016 -0.019  0.020
 H          0.262 -0.116  0.078   -0.342  0.120 -0.073    0.068 -0.009 -0.008
 C          0.014  0.015  0.005   -0.018 -0.035 -0.006   -0.073 -0.384 -0.104
 H         -0.008  0.030  0.003   -0.008 -0.055 -0.007   -0.208 -0.535 -0.059
 TransDip  -0.083 -0.043  0.027    0.074 -0.001 -0.013    0.131  0.150 -0.106

 Mode:                28                     29                     30
 Frequency:      3098.15                3177.08                3213.04
 Force Cnst:      6.1390                 6.4759                 6.6746
 Red. Mass:       1.0855                 1.0889                 1.0973
 IR Active:          YES                    YES                    YES
 IR Intens:       37.260                  2.880                 19.370
 Raman Active:       YES                    YES                    YES
               X      Y      Z        X      Y      Z        X      Y      Z
 C         -0.000 -0.000  0.000    0.000 -0.001 -0.001   -0.000  0.004  0.003
 C          0.005 -0.003  0.003    0.001  0.000 -0.001   -0.006  0.004 -0.003
 C          0.045  0.032 -0.063   -0.001 -0.001  0.001   -0.000 -0.004  0.004
 C         -0.004 -0.001  0.001   -0.023  0.007 -0.002   -0.083  0.014  0.004
 C         -0.000  0.000 -0.000    0.020 -0.058  0.055   -0.004  0.022 -0.021
 N         -0.000 -0.000  0.000   -0.001 -0.000  0.001    0.002  0.000 -0.000
 H         -0.000  0.002  0.002    0.000  0.009  0.009    0.005 -0.040 -0.035
 H         -0.078  0.053 -0.052   -0.004  0.003 -0.002    0.063 -0.044  0.045
 H         -0.530 -0.375  0.746    0.008  0.007 -0.012    0.021  0.020 -0.035
 H          0.059 -0.009 -0.003    0.310 -0.064 -0.001    0.922 -0.183 -0.014
 H          0.001 -0.001  0.002   -0.256  0.668 -0.617    0.080 -0.219  0.202
 C          0.000  0.000  0.000    0.000  0.000 -0.000   -0.000 -0.000  0.000
 H          0.001  0.002 -0.000    0.003  0.004 -0.001   -0.004 -0.010 -0.000
 TransDip   0.116  0.077 -0.137    0.040 -0.025  0.027   -0.134  0.041 -0.011

 Mode:                31                     32                     33
 Frequency:      3218.93                3228.53                3405.22
 Force Cnst:      6.7352                 6.7679                 7.7319
 Red. Mass:       1.1033                 1.1020                 1.1317
 IR Active:          YES                    YES                    YES
 IR Intens:        9.424                  5.022                 79.593
 Raman Active:       YES                    YES                    YES
               X      Y      Z        X      Y      Z        X      Y      Z
 C          0.006 -0.073 -0.057   -0.000  0.002  0.002    0.002  0.027  0.014
 C         -0.003  0.002 -0.001   -0.069  0.043 -0.039   -0.000  0.001 -0.000
 C          0.000 -0.000  0.000    0.015  0.002 -0.010   -0.000  0.000  0.000
 C         -0.004  0.001  0.000    0.007 -0.002  0.001   -0.000  0.000  0.000
 C         -0.000  0.002 -0.002    0.001 -0.002  0.002   -0.000  0.000  0.000
 N         -0.002 -0.001  0.001    0.000  0.000 -0.000    0.001 -0.001 -0.001
 H         -0.093  0.740  0.638    0.003 -0.023 -0.020    0.011 -0.091 -0.081
 H          0.026 -0.018  0.017    0.695 -0.487  0.502    0.001  0.000 -0.000
 H          0.002  0.001 -0.002   -0.056 -0.038  0.077    0.001 -0.000 -0.001
 H          0.044 -0.009 -0.001   -0.077  0.018 -0.000    0.001 -0.000  0.000
 H          0.009 -0.021  0.018   -0.008  0.024 -0.022    0.001 -0.003  0.002
 C         -0.001  0.000 -0.000   -0.000 -0.000 -0.000   -0.032 -0.096 -0.014
 H          0.053  0.144  0.016   -0.002 -0.005 -0.001    0.342  0.921  0.093
 TransDip   0.055  0.025 -0.078   -0.019  0.052 -0.046    0.136  0.249 -0.037

 STANDARD THERMODYNAMIC QUANTITIES AT   298.15 K  AND     1.00 ATM

   This Molecule has  1 Imaginary Frequencies
   Zero point vibrational energy:       58.841 kcal/mol

   Atom    1 Element C  Has Mass   12.00000
   Atom    2 Element C  Has Mass   12.00000
   Atom    3 Element C  Has Mass   12.00000
   Atom    4 Element C  Has Mass   12.00000
   Atom    5 Element C  Has Mass   12.00000
   Atom    6 Element N  Has Mass   14.00307
   Atom    7 Element H  Has Mass    1.00783
   Atom    8 Element H  Has Mass    1.00783
   Atom    9 Element H  Has Mass    1.00783
   Atom   10 Element H  Has Mass    1.00783
   Atom   11 Element H  Has Mass    1.00783
   Atom   12 Element C  Has Mass   12.00000
   Atom   13 Element H  Has Mass    1.00783
   Molecular Mass:    92.050050 amu
   Principal axes and moments of inertia in amu*Bohr^2:
                             1           2           3
    Eigenvalues --      279.07846   857.27330  1049.68388
          X               0.64504     0.72638     0.23725
          Y               0.45848    -0.61628     0.64031
          Z              -0.61132     0.30425     0.73056
   Rotational Symmetry Number is   1
   The Molecule is an Asymmetric Top
   Translational Enthalpy:        0.889 kcal/mol
   Rotational Enthalpy:           0.889 kcal/mol
   Vibrational Enthalpy:         61.535 kcal/mol
   gas constant (RT):             0.592 kcal/mol
   Translational Entropy:        39.471  cal/mol.K
   Rotational Entropy:           27.020  cal/mol.K
   Vibrational Entropy:          15.167  cal/mol.K

   Total Enthalpy:               63.905 kcal/mol
   Total Entropy:                81.658  cal/mol.K
Archival summary:
1\1\c8-68\FREQ\ProcedureUnspecified\6-31+G**\166(2)\hpark21\ThuMar311:52:342022ThuMar311:52:342022\0\\#,FREQ,ProcedureUnspecified,6-31+G**,\\0,2\N\C,1,1.42255\H,2,1.08715,1,118.26\C,2,1.3507,1,116.818,3,-176.521,0\H,4,1.08511,2,121.446,1,175.333,0\C,1,1.43282,2,117.46,3,-44.8481,0\H,6,1.08419,1,131.937,2,-79.082,0\C,6,1.28504,1,79.8923,2,97.5401,0\H,8,1.071,6,167.523,1,170.621,0\C,4,1.45835,2,116.48,1,-2.56952,0\H,10,1.09305,4,119.514,2,167.336,0\C,10,1.3342,4,117.229,2,-9.47619,0\H,12,1.08408,10,134.151,4,168.365,0\\\@

 Total job time:  526.40s(wall), 520.73s(cpu) 
 Thu Mar  3 11:52:34 2022

        *************************************************************
        *                                                           *
        *  Thank you very much for using Q-Chem.  Have a nice day.  *
        *                                                           *
        *************************************************************


