
Running Job 1 of 1 qcts2.in
qchem qcts2.in_15535.0 ./qcts2.d/ 1
/home/leeping/opt/qchem/5.0.2-openmp/exe/qcprog.exe_s qcts2.in_15535.0 ./qcts2.d/
Check license passed

                  Welcome to Q-Chem
     A Quantum Leap Into The Future Of Chemistry


 Q-Chem 5.0, Q-Chem, Inc., Pleasanton, CA (2017)

 Yihan Shao,  Zhengting Gan,  E. Epifanovsky,  A. T. B. Gilbert,  M. Wormit,  
 J. Kussmann,  A. W. Lange,  A. Behn,  Jia Deng,  Xintian Feng,  D. Ghosh,  
 M. Goldey,  P. R. Horn,  L. D. Jacobson,  I. Kaliman,  T. Kus,  A. Landau,  
 Jie Liu,  E. I. Proynov,  R. M. Richard,  R. P. Steele,  E. J. Sundstrom,  
 H. L. Woodcock III,  P. M. Zimmerman,  D. Zuev,  B. Albrecht,  E. Alguire,  
 S. A. Baeppler,  D. Barton,  Z. Benda,  Y. A. Bernard,  E. J. Berquist,  
 K. B. Bravaya,  H. Burton,  D. Casanova,  Chun-Min Chang,  Yunqing Chen,  
 A. Chien,  K. D. Closser,  M. P. Coons,  S. Dasgupta,  A. L. Dempwolff,  
 M. Diedenhofen,  Hainam Do,  R. G. Edgar,  Po-Tung Fang,  S. Fatehi,  
 Qingguo Feng,  J. Fosso-Tande,  Qinghui Ge,  A. Ghysels,  G. Gidofalvi,  
 J. Gomes,  J. Gonthier,  A. Gunina,  M. W. D. Hanson-Heine,  
 P. H. P. Harbach,  A. W. Hauser,  J. E. Herr,  E. G. Hohenstein,  
 Z. C. Holden,  Kerwin Hui,  T.-C. Jagau,  Hyunjun Ji,  B. Kaduk,  
 K. Khistyaev,  Jaehoon Kim,  P. Klunzinger,  K. Koh,  D. Kosenkov,  
 L. Koulias,  T. Kowalczyk,  C. M. Krauter,  A. Kunitsa,  Ka Un Lao,  
 A. Laurent,  K. V. Lawler,  Joonho Lee,  D. Lefrancois,  S. Lehtola,  
 D. S. Levine,  Yi-Pei Li,  You-Sheng Lin,  Fenglai Liu,  E. Livshits,  
 A. Luenser,  P. Manohar,  E. Mansoor,  S. F. Manzer,  Shan-Ping Mao,  
 Yuezhi Mao,  N. Mardirossian,  A. V. Marenich,  T. Markovich,  
 L. A. Martinez-Martinez,  S. A. Maurer,  N. J. Mayhall,  S. C. McKenzie,  
 J.-M. Mewes,  A. F. Morrison,  J. W. Mullinax,  K. Nanda,  
 T. S. Nguyen-Beck,  R. Olivares-Amaya,  J. A. Parkhill,  T. M. Perrine,  
 F. Plasser,  S. Prager,  A. Prociuk,  E. Ramos,  D. R. Rehn,  F. Rob,  
 M. Schneider,  N. Sergueev,  S. M. Sharada,  S. Sharma,  D. W. Small,  
 T. Stauch,  T. Stein,  Yu-Chuan Su,  A. J. W. Thom,  A. Tkatchenko,  
 T. Tsuchimochi,  L. Vogt,  O. Vydrov,  M. A. Watson,  J. Wenzel,  
 M. de Wergifosse,  T. A. Wesolowski,  A. White,  J. Witte,  A. Yamada,  
 Jun Yang,  K. Yao,  S. Yeganeh,  S. R. Yost,  Zhi-Qiang You,  A. Zech,  
 Igor Ying Zhang,  Xing Zhang,  Yan Zhao,  Ying Zhu,  B. R. Brooks,  
 G. K. L. Chan,  C. J. Cramer,  M. S. Gordon,  W. J. Hehre,  A. Klamt,  
 M. W. Schmidt,  C. D. Sherrill,  D. G. Truhlar,  A. Aspuru-Guzik,  R. Baer,  
 A. T. Bell,  N. A. Besley,  Jeng-Da Chai,  R. A. DiStasio Jr.,  A. Dreuw,  
 B. D. Dunietz,  T. R. Furlani,  Chao-Ping Hsu,  Yousung Jung,  Jing Kong,  
 D. S. Lambrecht,  WanZhen Liang,  C. Ochsenfeld,  V. A. Rassolov,  
 L. V. Slipchenko,  J. E. Subotnik,  T. Van Voorhis,  J. M. Herbert,  
 A. I. Krylov,  P. M. W. Gill,  M. Head-Gordon

 Contributors to earlier versions of Q-Chem not listed above: 
 R. D. Adamson,  B. Austin,  J. Baker,  G. J. O. Beran,  K. Brandhorst,  
 S. T. Brown,  E. F. C. Byrd,  A. K. Chakraborty,  C.-L. Cheng,  
 Siu Hung Chien,  D. M. Chipman,  D. L. Crittenden,  H. Dachsel,  
 R. J. Doerksen,  A. D. Dutoi,  L. Fusti-Molnar,  W. A. Goddard III,  
 A. Golubeva-Zadorozhnaya,  S. R. Gwaltney,  G. Hawkins,  A. Heyden,  
 S. Hirata,  G. Kedziora,  F. J. Keil,  C. Kelley,  Jihan Kim,  R. A. King,  
 R. Z. Khaliullin,  P. P. Korambath,  W. Kurlancheek,  A. M. Lee,  M. S. Lee,  
 S. V. Levchenko,  Ching Yeh Lin,  D. Liotard,  R. C. Lochan,  I. Lotan,  
 P. E. Maslen,  N. Nair,  D. P. O'Neill,  D. Neuhauser,  E. Neuscamman,  
 C. M. Oana,  R. Olson,  B. Peters,  R. Peverati,  P. A. Pieniazek,  
 Y. M. Rhee,  J. Ritchie,  M. A. Rohrdanz,  E. Rosta,  N. J. Russ,  
 H. F. Schaefer III,  N. E. Schultz,  N. Shenvi,  A. C. Simmonett,  A. Sodt,  
 D. Stuck,  K. S. Thanthiriwatte,  V. Vanovschi,  Tao Wang,  A. Warshel,  
 C. F. Williams,  Q. Wu,  X. Xu,  W. Zhang

 Please cite Q-Chem as follows:
 Y. Shao et al., Mol. Phys. 113, 184-215 (2015)
 DOI: 10.1080/00268976.2014.952696

 Q-Chem 5.0.2 for Intel X86 EM64T Linux

 Parts of Q-Chem use Armadillo 5.200.1 (Boston Tea Smuggler).
 http://arma.sourceforge.net/

 Q-Chem begins on Thu Mar  3 11:29:28 2022  

Host: 
0

     Scratch files written to ./qcts2.d//
 Dec517 15110_ 26548  26544 5633   
Processing $rem in /home/leeping/opt/qchem/5.0.2-openmp/config/preferences.
 MEM_STATIC 2000
 MEM_TOTAL  8000
 SYMMETRY   OFF
 SYM_IGNORE TRUE 

Checking the input file for inconsistencies... 	...done.

--------------------------------------------------------------
User input:
--------------------------------------------------------------
$molecule
0 2
C        1.4087790899    0.1838199692   -1.4141116078
C        0.2973510422   -1.3371744432    1.1613111933
C       -0.9877935738   -1.0473242938    1.3577904388
C       -1.5871854531   -0.0614473978    0.4659561111
C       -0.7436474367    0.6066389831   -0.3458072292
N        0.6454243124    0.3224971749   -0.2058117782
H        1.5036915323   -0.6338171678   -2.1211301216
H        1.0356461369   -1.8830589599    1.7393838374
H       -1.5846844583   -1.4658486623    2.1730632436
H       -2.6521776549    0.1503216944    0.4748920123
H       -1.0398057870    1.3764908901   -1.0541617824
C        1.6746787848    1.4011465988   -1.1079380098
H        2.0459392763    2.4068975614   -1.0876864283
$end

$rem
method                b3lyp
basis                 6-31+g(d,p)
unrestricted          true
symmetry              off
sym_ignore            true
incdft                false
incfock               0
scf_convergence       8
thresh                14
jobtype               freq
scf_guess             read
scf_algorithm         diis
max_scf_cycles        100
$end

--------------------------------------------------------------
 ----------------------------------------------------------------
             Standard Nuclear Orientation (Angstroms)
    I     Atom           X                Y                Z
 ----------------------------------------------------------------
    1      C       1.4087790899     0.1838199692    -1.4141116078
    2      C       0.2973510422    -1.3371744432     1.1613111933
    3      C      -0.9877935738    -1.0473242938     1.3577904388
    4      C      -1.5871854531    -0.0614473978     0.4659561111
    5      C      -0.7436474367     0.6066389831    -0.3458072292
    6      N       0.6454243124     0.3224971749    -0.2058117782
    7      H       1.5036915323    -0.6338171678    -2.1211301216
    8      H       1.0356461369    -1.8830589599     1.7393838374
    9      H      -1.5846844583    -1.4658486623     2.1730632436
   10      H      -2.6521776549     0.1503216944     0.4748920123
   11      H      -1.0398057870     1.3764908901    -1.0541617824
   12      C       1.6746787848     1.4011465988    -1.1079380098
   13      H       2.0459392763     2.4068975614    -1.0876864283
 ----------------------------------------------------------------
 Nuclear Repulsion Energy =   254.1987551047 hartrees
 There are       25 alpha and       24 beta electrons
 Requested basis set is 6-31+G(d,p)
 There are 53 shells and 163 basis functions

 Total QAlloc Memory Limit   8000 MB
 Mega-Array Size      1956 MB
 MEM_STATIC part      2000 MB

                       Distance Matrix (Angstroms)
             C (  1)   C (  2)   C (  3)   C (  4)   C (  5)   N (  6)
   C (  2)  3.190846
   C (  3)  3.865581  1.331996
   C (  4)  3.545506  2.379596  1.458284
   C (  5)  2.439875  2.670860  2.386933  1.347908
   N (  6)  1.435942  2.178231  2.643608  2.362886  1.424730
   H (  7)  1.085087  3.567126  4.298997  4.071135  3.121063  2.306427
   H (  8)  3.788898  1.085006  2.222245  3.437897  3.703040  2.966570
   H (  9)  4.954801  2.140621  1.093669  2.210557  3.368569  3.718953
   H ( 10)  4.478931  3.373950  2.232496  1.085880  2.127031  3.371525
   H ( 11)  2.747289  3.749705  3.419810  2.162880  1.087266  2.161157
   C ( 12)  1.283094  3.813781  4.377623  3.905904  2.657139  1.742608
   H ( 13)  2.335509  4.704639  5.207258  4.658984  3.401927  2.661554
             H (  7)   H (  8)   H (  9)   H ( 10)   H ( 11)   C ( 12)
   H (  8)  4.084512
   H (  9)  5.354478  2.688545
   H ( 10)  4.962404  4.397001  2.575914
   H ( 11)  3.413083  4.768235  4.334832  2.537960
   C ( 12)  2.279665  4.393360  5.441331  4.774055  2.715129
   H ( 13)  3.256990  5.236100  6.229934  5.441148  3.253411  1.072278

 
 A cutoff of  1.0D-14 yielded   1341 shell pairs
 There are     13195 function pairs
 Smallest overlap matrix eigenvalue = 1.78E-05
 Guess MOs from SCF MO coefficient file
 Reading MOs from coefficient file
 Reading MOs from coefficient file
 An unrestricted hybrid HF-DFT SCF calculation will be
 performed using Pulay DIIS extrapolation
 Exchange:     0.2000 Hartree-Fock + 0.0800 Slater + 0.7200 B88
 Correlation:  0.1900 VWN1RPA + 0.8100 LYP
 Using SG-1 standard quadrature grid
 SCF converges when DIIS error is below 1.0E-08
Using Q-Chem read-in guess as SCF_GUESS READ specified.

 -------------------------------------------------------
 OpenMP BLAS3 based DFT computing Module                
 -------------------------------------------------------
 ---------------------------------------
  Cycle       Energy         DIIS Error
 ---------------------------------------
    1    -286.7391181803      1.33E-09
    2    -286.7391181803      2.32E-09 Convergence criterion met
 ---------------------------------------
 <S^2> = 0.7757
 SCF time:  CPU 6.39 s  wall 7.20 s
 SCF   energy in the final basis set = -286.73911818
 Total energy in the final basis set = -286.73911818
 
 --------------------------------------------------------------
 
                    Orbital Energies (a.u.)
 --------------------------------------------------------------
 
 Alpha MOs
 -- Occupied --
-14.389 -10.257 -10.244 -10.215 -10.197 -10.190 -10.186  -0.969
 -0.822  -0.739  -0.684  -0.607  -0.579  -0.538  -0.523  -0.489
 -0.443  -0.412  -0.392  -0.381  -0.341  -0.301  -0.268  -0.221
 -0.167
 -- Virtual --
 -0.034  -0.022  -0.006   0.011   0.022   0.029   0.033   0.049
  0.054   0.061   0.070   0.076   0.081   0.094   0.101   0.103
  0.107   0.131   0.136   0.141   0.146   0.160   0.173   0.176
  0.185   0.192   0.202   0.210   0.213   0.221   0.233   0.240
  0.252   0.256   0.265   0.283   0.298   0.306   0.345   0.354
  0.379   0.433   0.473   0.494   0.624   0.648   0.654   0.682
  0.698   0.715   0.732   0.740   0.749   0.765   0.777   0.794
  0.804   0.839   0.886   0.906   0.918   0.934   0.949   0.976
  0.991   1.007   1.050   1.085   1.116   1.123   1.133   1.169
  1.185   1.237   1.259   1.290   1.331   1.348   1.394   1.407
  1.425   1.434   1.525   1.544   1.678   1.708   1.785   1.797
  1.839   1.856   1.865   1.929   1.983   1.993   2.004   2.025
  2.058   2.075   2.105   2.146   2.193   2.248   2.308   2.335
  2.369   2.387   2.402   2.448   2.496   2.502   2.510   2.529
  2.578   2.604   2.626   2.642   2.706   2.707   2.740   2.777
  2.856   2.930   3.005   3.015   3.208   3.258   3.308   3.386
  3.528   3.750   3.779   4.145   4.342   4.348   4.505   4.559
  4.702   4.957
 
 Beta MOs
 -- Occupied --
-14.387 -10.258 -10.239 -10.216 -10.189 -10.187 -10.185  -0.967
 -0.818  -0.732  -0.676  -0.601  -0.572  -0.533  -0.515  -0.485
 -0.438  -0.406  -0.387  -0.375  -0.335  -0.294  -0.250  -0.211
 -- Virtual --
 -0.061  -0.027  -0.013   0.005   0.014   0.023   0.031   0.034
  0.051   0.055   0.064   0.073   0.077   0.082   0.096   0.102
  0.105   0.110   0.132   0.137   0.142   0.151   0.161   0.174
  0.177   0.186   0.193   0.205   0.212   0.215   0.221   0.234
  0.242   0.253   0.259   0.268   0.284   0.301   0.308   0.351
  0.356   0.383   0.438   0.477   0.505   0.630   0.654   0.658
  0.685   0.701   0.716   0.737   0.742   0.751   0.771   0.780
  0.799   0.811   0.845   0.888   0.909   0.922   0.940   0.958
  0.981   0.995   1.010   1.054   1.095   1.122   1.126   1.136
  1.175   1.188   1.242   1.264   1.293   1.338   1.350   1.400
  1.409   1.428   1.440   1.531   1.555   1.686   1.731   1.796
  1.813   1.845   1.861   1.873   1.937   1.989   1.997   2.009
  2.028   2.068   2.086   2.110   2.151   2.195   2.251   2.315
  2.342   2.372   2.391   2.404   2.453   2.497   2.506   2.513
  2.532   2.581   2.608   2.632   2.652   2.711   2.717   2.748
  2.782   2.859   2.935   3.010   3.018   3.211   3.263   3.313
  3.389   3.535   3.755   3.785   4.148   4.348   4.354   4.516
  4.564   4.708   4.962
 --------------------------------------------------------------
 
          Ground-State Mulliken Net Atomic Charges

     Atom                 Charge (a.u.)    Spin (a.u.)
  --------------------------------------------------------
      1 C                    -0.025545      -0.087648
      2 C                    -0.349498       0.849839
      3 C                    -0.131396      -0.142179
      4 C                    -0.097592       0.097916
      5 C                    -0.159234      -0.073645
      6 N                    -0.033898      -0.033025
      7 H                     0.148301       0.008328
      8 H                     0.128230       0.009098
      9 H                     0.129880       0.049447
     10 H                     0.123330       0.001367
     11 H                     0.132299      -0.000296
     12 C                    -0.043419       0.331001
     13 H                     0.178543      -0.010202
  --------------------------------------------------------
  Sum of atomic charges =     0.000000
  Sum of spin   charges =     1.000000

 -----------------------------------------------------------------
                    Cartesian Multipole Moments
 -----------------------------------------------------------------
    Charge (ESU x 10^10)
                 0.0000
    Dipole Moment (Debye)
         X       0.4843      Y       1.0294      Z      -1.5035
       Tot       1.8854
    Quadrupole Moments (Debye-Ang)
        XX     -38.7320     XY       0.6921     YY     -39.5460
        XZ      -2.8985     YZ      -2.3452     ZZ     -40.3029
    Octopole Moments (Debye-Ang^2)
       XXX     -14.5766    XXY       3.9067    XYY       7.5916
       YYY      13.8339    XXZ      -0.2048    XYZ       0.3384
       YYZ      -2.5600    XZZ      -0.4109    YZZ      -7.2476
       ZZZ      -1.3800
    Hexadecapole Moments (Debye-Ang^3)
      XXXX    -415.4402   XXXY     -48.1880   XXYY     -99.6971
      XYYY     -35.8669   YYYY    -270.5009   XXXZ      92.9910
      XXYZ      24.4368   XYYZ      28.7621   YYYZ      89.8107
      XXZZ    -118.7663   XYZZ     -22.0132   YYZZ     -95.5664
      XZZZ      95.3990   YZZZ     106.5993   ZZZZ    -338.0997
 -----------------------------------------------------------------
 Calculating MO derivatives via CPSCF
   1         3          39      0.347249    0.074370
   2         3          39      0.043239    0.009340
   3         3          39      0.006491    0.001456
   4         3          39      0.001178    0.000298
   5        22          20      0.000118    0.000031
   6        38           4      0.000007    0.000003
   7        42           0      0.000000    0.000000    Roots Converged
 Time for AOints: 18.7 s (CPU) 19.3 s (wall)
 ------------------------------------------------------------------------------
                     AOints        : Timing summary (seconds)
 ------------------------------------------------------------------------------
     job step          cpu (% of tot)      sys (% of tot)     wall (% of tot)
 ------------------------------------------------------------------------------
  cpscf_lag         0.1075E+03 (27.3)   0.4800E-04 (40.0)   0.1078E+03 (27.1)
  iterzp            0.2665E+03 (67.8)   0.6800E-04 (56.7)   0.2700E+03 (67.9)
  make_fx           0.0000E+00 ( 0.0)   0.0000E+00 ( 0.0)   0.0000E+00 ( 0.0)
  AOints            0.1874E+02 ( 4.8)   0.2000E-05 ( 1.7)   0.1932E+02 ( 4.9)
 ------------------------------------------------------------------------------
   Grand Totals     0.3930E+03          0.1200E-03          0.3975E+03
 ------------------------------------------------------------------------------
 Calculating analytic Hessian of the SCF energy
 Polarizability Matrix (a.u.)
            1           2           3
    1 -94.2723657 -12.6148582  21.8816864
    2 -12.6148582 -90.9583871  28.3073510
    3  21.8816864  28.3073510 -87.3317857
 
 Direct stationary perturbation theory relativistic correction:
 
 rels  =       0.069342969231
 relv  =      -0.333357472035
 rel2e =       0.150921799788
 E_rel =      -0.113092703016
 
 Hessian of the SCF Energy
            1           2           3           4           5           6
    1   0.2115782   0.1073336  -0.0727374   0.0000477  -0.0030429  -0.0031376
    2   0.1073336   0.9209251   0.3481371   0.0009124   0.0025259  -0.0015446
    3  -0.0727374   0.3481371   0.3944641  -0.0006009  -0.0110416   0.0088740
    4   0.0000477   0.0009124  -0.0006009   0.7384914  -0.2458519   0.0661450
    5  -0.0030429   0.0025259  -0.0110416  -0.2458519   0.1723410  -0.0815665
    6  -0.0031376  -0.0015446   0.0088740   0.0661450  -0.0815665   0.1598061
    7   0.0003020  -0.0036571   0.0034286  -0.4911710   0.1081453   0.0416103
    8   0.0005734  -0.0031144  -0.0018223   0.0891851  -0.0711105   0.0097726
    9   0.0025537   0.0033756   0.0002661   0.0836942  -0.0075735  -0.0707405
   10  -0.0010932   0.0031037   0.0024631  -0.0298981   0.0240527  -0.0179946
   11   0.0026884  -0.0001069   0.0013190   0.0358129  -0.0142349   0.0022330
   12  -0.0030012  -0.0004382  -0.0021166  -0.0291846   0.0054334   0.0129749
   13  -0.0297215  -0.0132258  -0.0013565  -0.0070600   0.0142500  -0.0080269
   14   0.0027437  -0.0087409   0.0168905  -0.0032628  -0.0009362   0.0048614
   15   0.0383616  -0.0008421  -0.0109790   0.0071418   0.0006787  -0.0012418
   16  -0.0979362   0.0411686   0.1326340  -0.0064821   0.0265498  -0.0197813
   17   0.0010742  -0.0105130   0.0071628  -0.0026026   0.0340362  -0.0451779
   18   0.0654032  -0.0515398  -0.1832464   0.0043666  -0.0274457   0.0124114
   19  -0.0443041   0.0096744   0.0212303   0.0004866   0.0020833  -0.0018532
   20   0.0139356  -0.2210472  -0.1471510  -0.0003878  -0.0002329   0.0005009
   21   0.0198222  -0.1505745  -0.1657341  -0.0006066   0.0002691  -0.0002903
   22  -0.0002591  -0.0005852  -0.0010721  -0.1845646   0.1047246  -0.1028986
   23   0.0001982  -0.0003266  -0.0010384   0.1160228  -0.1082052   0.0900019
   24   0.0009061   0.0016614   0.0006400  -0.1351051   0.0954309  -0.1137742
   25   0.0002554  -0.0007726  -0.0006837  -0.0171226  -0.0062432   0.0242587
   26   0.0006083   0.0005565  -0.0002754   0.0068357   0.0107465  -0.0018867
   27   0.0002752  -0.0000813   0.0005967   0.0081010   0.0059071   0.0008348
   28  -0.0008835  -0.0002115  -0.0003997  -0.0012799   0.0013043  -0.0012612
   29  -0.0018539   0.0007157   0.0000533   0.0014807  -0.0021424   0.0043061
   30  -0.0008022   0.0008971  -0.0003438  -0.0005367   0.0023299  -0.0010251
   31   0.0030203   0.0025088  -0.0054551  -0.0024760  -0.0027429   0.0027879
   32  -0.0009207   0.0012084  -0.0006094  -0.0002667   0.0019015  -0.0023306
   33  -0.0002334  -0.0005188   0.0019280  -0.0001607  -0.0015026   0.0002255
   34  -0.0406424  -0.1482114  -0.0845427   0.0005333  -0.0225789   0.0179966
   35  -0.1196061  -0.6881727  -0.2192519   0.0024358  -0.0242259   0.0202454
   36  -0.0507608  -0.1447624  -0.0382152  -0.0027166   0.0142866  -0.0045565
   37  -0.0003636   0.0019621   0.0070921   0.0004952  -0.0006502   0.0021549
   38  -0.0037319   0.0060902   0.0076274  -0.0003136  -0.0004630   0.0005849
   39   0.0033507  -0.0037696  -0.0061337  -0.0005374   0.0047942  -0.0034982
            7           8           9          10          11          12
    1   0.0003020   0.0005734   0.0025537  -0.0010932   0.0026884  -0.0030012
    2  -0.0036571  -0.0031144   0.0033756   0.0031037  -0.0001069  -0.0004382
    3   0.0034286  -0.0018223   0.0002661   0.0024631   0.0013190  -0.0021166
    4  -0.4911710   0.0891851   0.0836942  -0.0298981   0.0358129  -0.0291846
    5   0.1081453  -0.0711105  -0.0075735   0.0240527  -0.0142349   0.0054334
    6   0.0416103   0.0097726  -0.0707405  -0.0179946   0.0022330   0.0129749
    7   0.7327295  -0.0945457  -0.1446263  -0.1175802   0.0306566  -0.0121338
    8  -0.0945457   0.3126891  -0.1990307   0.0576234  -0.1374803   0.0715913
    9  -0.1446263  -0.1990307   0.4161861  -0.0444421   0.0846341  -0.1355204
   10  -0.1175802   0.0576234  -0.0444421   0.7640862  -0.0026470  -0.1250670
   11   0.0306566  -0.1374803   0.0846341  -0.0026470   0.3747527  -0.2587644
   12  -0.0121338   0.0715913  -0.1355204  -0.1250670  -0.2587644   0.3989071
   13   0.0237590  -0.0152510   0.0105547  -0.2479849  -0.1034311   0.1357821
   14   0.0000354  -0.0210694   0.0289165  -0.1222756  -0.1744673   0.1418049
   15  -0.0055219   0.0364777  -0.0233001   0.1518401   0.1357477  -0.2187954
   16  -0.0142799   0.0108573  -0.0093419  -0.0592035  -0.0153215   0.0308246
   17  -0.0110710   0.0024594  -0.0022326  -0.0242022   0.0064482   0.0099442
   18   0.0099107  -0.0027131  -0.0021166   0.0284707  -0.0034070   0.0009284
   19  -0.0006609   0.0005145  -0.0002275  -0.0010649  -0.0009907   0.0009138
   20   0.0002820   0.0002646  -0.0001231  -0.0002319  -0.0003111  -0.0000272
   21  -0.0002049  -0.0005378   0.0003678   0.0008984  -0.0001951   0.0000363
   22  -0.0037244   0.0133202  -0.0177573  -0.0025931   0.0018059   0.0023288
   23  -0.0002681  -0.0008727   0.0053122   0.0050147   0.0073166   0.0012787
   24   0.0149626  -0.0079014   0.0040857  -0.0001644   0.0029469   0.0009924
   25  -0.1247336  -0.0560363   0.1105254   0.0105931   0.0073872  -0.0108496
   26  -0.0492191  -0.0805293   0.0817336  -0.0121012  -0.0035731   0.0157348
   27   0.1046236   0.0860305  -0.1920190   0.0119131   0.0063669  -0.0097765
   28  -0.0043654  -0.0016559   0.0032604  -0.3299745   0.0555093   0.0049607
   29   0.0194823  -0.0011635  -0.0029553   0.0584245  -0.0548629   0.0115863
   30  -0.0174763   0.0006097   0.0049376   0.0054038   0.0130612  -0.0470065
   31  -0.0016309  -0.0009917   0.0025874   0.0108253  -0.0135487   0.0125955
   32  -0.0015688   0.0032803   0.0047555   0.0070455  -0.0040199   0.0075410
   33   0.0029262   0.0042274   0.0036335  -0.0068190   0.0128694  -0.0052463
   34   0.0017433  -0.0035360   0.0035746   0.0044723   0.0022234  -0.0074851
   35   0.0015178  -0.0032515   0.0029559   0.0056328   0.0002412  -0.0052591
   36   0.0030920   0.0025066  -0.0049883  -0.0059818   0.0039033   0.0034698
   37  -0.0003875  -0.0000574  -0.0003551  -0.0005845  -0.0001446   0.0003158
   38   0.0002105  -0.0001020   0.0002319   0.0005606   0.0002976  -0.0004258
   39  -0.0005905   0.0007895  -0.0007920  -0.0005204  -0.0007149   0.0011530
           13          14          15          16          17          18
    1  -0.0297215   0.0027437   0.0383616  -0.0979362   0.0010742   0.0654032
    2  -0.0132258  -0.0087409  -0.0008421   0.0411686  -0.0105130  -0.0515398
    3  -0.0013565   0.0168905  -0.0109790   0.1326340   0.0071628  -0.1832464
    4  -0.0070600  -0.0032628   0.0071418  -0.0064821  -0.0026026   0.0043666
    5   0.0142500  -0.0009362   0.0006787   0.0265498   0.0340362  -0.0274457
    6  -0.0080269   0.0048614  -0.0012418  -0.0197813  -0.0451779   0.0124114
    7   0.0237590   0.0000354  -0.0055219  -0.0142799  -0.0110710   0.0099107
    8  -0.0152510  -0.0210694   0.0364777   0.0108573   0.0024594  -0.0027131
    9   0.0105547   0.0289165  -0.0233001  -0.0093419  -0.0022326  -0.0021166
   10  -0.2479849  -0.1222756   0.1518401  -0.0592035  -0.0242022   0.0284707
   11  -0.1034311  -0.1744673   0.1357477  -0.0153215   0.0064482  -0.0034070
   12   0.1357821   0.1418049  -0.2187954   0.0308246   0.0099442   0.0009284
   13   0.5655442   0.0243380  -0.1110944  -0.1968554   0.0559929  -0.0142179
   14   0.0243380   0.4651956  -0.3415817   0.0501624  -0.0964595   0.0181685
   15  -0.1110944  -0.3415817   0.4898908  -0.0369023   0.0350101  -0.0775857
   16  -0.1968554   0.0501624  -0.0369023   0.3764621  -0.1223565  -0.0834226
   17   0.0559929  -0.0964595   0.0350101  -0.1223565   0.0299894   0.0429231
   18  -0.0142179   0.0181685  -0.0775857  -0.0834226   0.0429231   0.2424933
   19   0.0043327   0.0006719  -0.0001993   0.0026548   0.0049143   0.0112724
   20   0.0010846   0.0011487   0.0005748  -0.0014877   0.0061137  -0.0007260
   21  -0.0013741  -0.0003532   0.0000736   0.0044410  -0.0142585  -0.0093364
   22  -0.0029894  -0.0003609   0.0010102   0.0056144   0.0049344  -0.0031724
   23  -0.0032770   0.0005950   0.0002645   0.0054762   0.0075352  -0.0059520
   24   0.0013967  -0.0008160   0.0002307  -0.0027279  -0.0047561   0.0022830
   25  -0.0025913   0.0028861  -0.0011696  -0.0002775   0.0014775   0.0009542
   26   0.0033654  -0.0007818   0.0023221  -0.0018119  -0.0003897   0.0048557
   27  -0.0018844   0.0030977  -0.0010159  -0.0025322  -0.0019795   0.0036156
   28  -0.0136886   0.0064056  -0.0038565   0.0007084   0.0000618   0.0036316
   29  -0.0155666   0.0051363  -0.0016890  -0.0007534   0.0042965   0.0059774
   30   0.0193323  -0.0060844   0.0042369   0.0017709   0.0087625   0.0009497
   31  -0.0703178   0.0517995  -0.0458961  -0.0183739   0.0273453  -0.0169736
   32   0.0556891  -0.1861690   0.1442436  -0.0018681  -0.0061237   0.0081834
   33  -0.0447427   0.1431351  -0.1623336   0.0004873   0.0009507  -0.0002524
   34  -0.0238308  -0.0103533   0.0087528   0.0034090   0.0657885  -0.0027003
   35  -0.0021456   0.0149866  -0.0120833   0.0078497   0.0238415   0.0136672
   36   0.0151312  -0.0062371   0.0006430  -0.0086925  -0.0355874  -0.0008117
   37   0.0014039  -0.0027901  -0.0024662   0.0045599  -0.0013567  -0.0035225
   38  -0.0018228   0.0015619   0.0008770   0.0015349  -0.0012342  -0.0019916
   39   0.0005000  -0.0018022   0.0001766  -0.0067569  -0.0007614   0.0106677
           19          20          21          22          23          24
    1  -0.0443041   0.0139356   0.0198222  -0.0002591   0.0001982   0.0009061
    2   0.0096744  -0.2210472  -0.1505745  -0.0005852  -0.0003266   0.0016614
    3   0.0212303  -0.1471510  -0.1657341  -0.0010721  -0.0010384   0.0006400
    4   0.0004866  -0.0003878  -0.0006066  -0.1845646   0.1160228  -0.1351051
    5   0.0020833  -0.0002329   0.0002691   0.1047246  -0.1082052   0.0954309
    6  -0.0018532   0.0005009  -0.0002903  -0.1028986   0.0900019  -0.1137742
    7  -0.0006609   0.0002820  -0.0002049  -0.0037244  -0.0002681   0.0149626
    8   0.0005145   0.0002646  -0.0005378   0.0133202  -0.0008727  -0.0079014
    9  -0.0002275  -0.0001231   0.0003678  -0.0177573   0.0053122   0.0040857
   10  -0.0010649  -0.0002319   0.0008984  -0.0025931   0.0050147  -0.0001644
   11  -0.0009907  -0.0003111  -0.0001951   0.0018059   0.0073166   0.0029469
   12   0.0009138  -0.0000272   0.0000363   0.0023288   0.0012787   0.0009924
   13   0.0043327   0.0010846  -0.0013741  -0.0029894  -0.0032770   0.0013967
   14   0.0006719   0.0011487  -0.0003532  -0.0003609   0.0005950  -0.0008160
   15  -0.0001993   0.0005748   0.0000736   0.0010102   0.0002645   0.0002307
   16   0.0026548  -0.0014877   0.0044410   0.0056144   0.0054762  -0.0027279
   17   0.0049143   0.0061137  -0.0142585   0.0049344   0.0075352  -0.0047561
   18   0.0112724  -0.0007260  -0.0093364  -0.0031724  -0.0059520   0.0022830
   19   0.0284734  -0.0144954  -0.0278112   0.0001646   0.0003270  -0.0000590
   20  -0.0144954   0.2207126   0.1611379   0.0001281   0.0000171  -0.0002679
   21  -0.0278112   0.1611379   0.1687896   0.0000759   0.0000872  -0.0001262
   22   0.0001646   0.0001281   0.0000759   0.1900627  -0.1195557   0.1208832
   23   0.0003270   0.0000171   0.0000872  -0.1195557   0.1015144  -0.0893959
   24  -0.0000590  -0.0002679  -0.0001262   0.1208832  -0.0893959   0.1083712
   25  -0.0000629   0.0002064  -0.0000477   0.0009345  -0.0003036  -0.0025508
   26  -0.0000249   0.0000262   0.0001880  -0.0015601  -0.0029283  -0.0010832
   27  -0.0001194   0.0000676   0.0000099  -0.0009165  -0.0030211   0.0001795
   28   0.0000046   0.0000147  -0.0000078  -0.0001065   0.0002520  -0.0000440
   29  -0.0000815  -0.0001964   0.0001207   0.0009815  -0.0005067   0.0001630
   30  -0.0000056  -0.0001887   0.0001003  -0.0011713  -0.0002431   0.0008336
   31  -0.0000047   0.0000134   0.0003576   0.0003740   0.0000205  -0.0000691
   32   0.0003554  -0.0003305   0.0001264  -0.0001362   0.0003219   0.0005374
   33  -0.0002484   0.0001824  -0.0002137  -0.0002811   0.0001195   0.0005974
   34   0.0096782  -0.0002743   0.0057473  -0.0027287  -0.0036047   0.0024550
   35  -0.0029752  -0.0059406   0.0035852  -0.0036283  -0.0043239   0.0035028
   36  -0.0010679  -0.0126940   0.0048500   0.0021565   0.0016318  -0.0033923
   37   0.0003024   0.0012123  -0.0012902  -0.0001845  -0.0003023   0.0001170
   38   0.0000268  -0.0002244   0.0004046  -0.0000682  -0.0001368  -0.0000219
   39  -0.0018251  -0.0012855   0.0014733   0.0008147   0.0009544  -0.0009207
           25          26          27          28          29          30
    1   0.0002554   0.0006083   0.0002752  -0.0008835  -0.0018539  -0.0008022
    2  -0.0007726   0.0005565  -0.0000813  -0.0002115   0.0007157   0.0008971
    3  -0.0006837  -0.0002754   0.0005967  -0.0003997   0.0000533  -0.0003438
    4  -0.0171226   0.0068357   0.0081010  -0.0012799   0.0014807  -0.0005367
    5  -0.0062432   0.0107465   0.0059071   0.0013043  -0.0021424   0.0023299
    6   0.0242587  -0.0018867   0.0008348  -0.0012612   0.0043061  -0.0010251
    7  -0.1247336  -0.0492191   0.1046236  -0.0043654   0.0194823  -0.0174763
    8  -0.0560363  -0.0805293   0.0860305  -0.0016559  -0.0011635   0.0006097
    9   0.1105254   0.0817336  -0.1920190   0.0032604  -0.0029553   0.0049376
   10   0.0105931  -0.0121012   0.0119131  -0.3299745   0.0584245   0.0054038
   11   0.0073872  -0.0035731   0.0063669   0.0555093  -0.0548629   0.0130612
   12  -0.0108496   0.0157348  -0.0097765   0.0049607   0.0115863  -0.0470065
   13  -0.0025913   0.0033654  -0.0018844  -0.0136886  -0.0155666   0.0193323
   14   0.0028861  -0.0007818   0.0030977   0.0064056   0.0051363  -0.0060844
   15  -0.0011696   0.0023221  -0.0010159  -0.0038565  -0.0016890   0.0042369
   16  -0.0002775  -0.0018119  -0.0025322   0.0007084  -0.0007534   0.0017709
   17   0.0014775  -0.0003897  -0.0019795   0.0000618   0.0042965   0.0087625
   18   0.0009542   0.0048557   0.0036156   0.0036316   0.0059774   0.0009497
   19  -0.0000629  -0.0000249  -0.0001194   0.0000046  -0.0000815  -0.0000056
   20   0.0002064   0.0000262   0.0000676   0.0000147  -0.0001964  -0.0001887
   21  -0.0000477   0.0001880   0.0000099  -0.0000078   0.0001207   0.0001003
   22   0.0009345  -0.0015601  -0.0009165  -0.0001065   0.0009815  -0.0011713
   23  -0.0003036  -0.0029283  -0.0030211   0.0002520  -0.0005067  -0.0002431
   24  -0.0025508  -0.0010832   0.0001795  -0.0000440   0.0001630   0.0008336
   25   0.1327237   0.0533950  -0.1213384   0.0002257  -0.0009312   0.0004185
   26   0.0533950   0.0760783  -0.0978711   0.0001688   0.0000188  -0.0009166
   27  -0.1213384  -0.0978711   0.1994531  -0.0002461  -0.0007357   0.0002821
   28   0.0002257   0.0001688  -0.0002461   0.3489782  -0.0608296  -0.0059456
   29  -0.0009312   0.0000188  -0.0007357  -0.0608296   0.0508414  -0.0144558
   30   0.0004185  -0.0009166   0.0002821  -0.0059456  -0.0144558   0.0384466
   31   0.0006879  -0.0009433   0.0006519   0.0004200  -0.0002281  -0.0009530
   32   0.0002308  -0.0007942   0.0004720  -0.0010090  -0.0020684  -0.0024992
   33  -0.0004374  -0.0000869  -0.0003158  -0.0003856  -0.0029341  -0.0023737
   34  -0.0004757   0.0012931   0.0015239  -0.0001293  -0.0004129  -0.0003856
   35  -0.0012975   0.0015738   0.0017291   0.0000078   0.0000575  -0.0010205
   36   0.0005388  -0.0024913  -0.0015691   0.0002802   0.0006794   0.0008542
   37  -0.0001567  -0.0000059  -0.0000518   0.0000908   0.0002882   0.0003509
   38   0.0000014  -0.0000038   0.0000179  -0.0000183  -0.0001261  -0.0002523
   39   0.0003816  -0.0002230  -0.0002754   0.0000138  -0.0001162   0.0001082
           31          32          33          34          35          36
    1   0.0030203  -0.0009207  -0.0002334  -0.0406424  -0.1196061  -0.0507608
    2   0.0025088   0.0012084  -0.0005188  -0.1482114  -0.6881727  -0.1447624
    3  -0.0054551  -0.0006094   0.0019280  -0.0845427  -0.2192519  -0.0382152
    4  -0.0024760  -0.0002667  -0.0001607   0.0005333   0.0024358  -0.0027166
    5  -0.0027429   0.0019015  -0.0015026  -0.0225789  -0.0242259   0.0142866
    6   0.0027879  -0.0023306   0.0002255   0.0179966   0.0202454  -0.0045565
    7  -0.0016309  -0.0015688   0.0029262   0.0017433   0.0015178   0.0030920
    8  -0.0009917   0.0032803   0.0042274  -0.0035360  -0.0032515   0.0025066
    9   0.0025874   0.0047555   0.0036335   0.0035746   0.0029559  -0.0049883
   10   0.0108253   0.0070455  -0.0068190   0.0044723   0.0056328  -0.0059818
   11  -0.0135487  -0.0040199   0.0128694   0.0022234   0.0002412   0.0039033
   12   0.0125955   0.0075410  -0.0052463  -0.0074851  -0.0052591   0.0034698
   13  -0.0703178   0.0556891  -0.0447427  -0.0238308  -0.0021456   0.0151312
   14   0.0517995  -0.1861690   0.1431351  -0.0103533   0.0149866  -0.0062371
   15  -0.0458961   0.1442436  -0.1623336   0.0087528  -0.0120833   0.0006430
   16  -0.0183739  -0.0018681   0.0004873   0.0034090   0.0078497  -0.0086925
   17   0.0273453  -0.0061237   0.0009507   0.0657885   0.0238415  -0.0355874
   18  -0.0169736   0.0081834  -0.0002524  -0.0027003   0.0136672  -0.0008117
   19  -0.0000047   0.0003554  -0.0002484   0.0096782  -0.0029752  -0.0010679
   20   0.0000134  -0.0003305   0.0001824  -0.0002743  -0.0059406  -0.0126940
   21   0.0003576   0.0001264  -0.0002137   0.0057473   0.0035852   0.0048500
   22   0.0003740  -0.0001362  -0.0002811  -0.0027287  -0.0036283   0.0021565
   23   0.0000205   0.0003219   0.0001195  -0.0036047  -0.0043239   0.0016318
   24  -0.0000691   0.0005374   0.0005974   0.0024550   0.0035028  -0.0033923
   25   0.0006879   0.0002308  -0.0004374  -0.0004757  -0.0012975   0.0005388
   26  -0.0009433  -0.0007942  -0.0000869   0.0012931   0.0015738  -0.0024913
   27   0.0006519   0.0004720  -0.0003158   0.0015239   0.0017291  -0.0015691
   28   0.0004200  -0.0010090  -0.0003856  -0.0001293   0.0000078   0.0002802
   29  -0.0002281  -0.0020684  -0.0029341  -0.0004129   0.0000575   0.0006794
   30  -0.0009530  -0.0024992  -0.0023737  -0.0003856  -0.0010205   0.0008542
   31   0.0772036  -0.0590969   0.0499983   0.0007907  -0.0042109   0.0002616
   32  -0.0590969   0.1893855  -0.1567152   0.0013287   0.0034841  -0.0029713
   33   0.0499983  -0.1567152   0.1649782   0.0001829   0.0002550  -0.0012692
   34   0.0007907   0.0013287   0.0001829   0.1090270   0.2373549   0.0512884
   35  -0.0042109   0.0034841   0.0002550   0.2373549   1.0393395   0.2031266
   36   0.0002616  -0.0029713  -0.0012692   0.0512884   0.2031266   0.0554061
   37  -0.0005186   0.0002168  -0.0002864  -0.0618468  -0.1209353  -0.0035290
   38   0.0000748  -0.0000759   0.0000182  -0.1190171  -0.3576095  -0.0213909
   39   0.0001067  -0.0007335   0.0006422   0.0035924  -0.0114523  -0.0104209
           37          38          39
    1  -0.0003636  -0.0037319   0.0033507
    2   0.0019621   0.0060902  -0.0037696
    3   0.0070921   0.0076274  -0.0061337
    4   0.0004952  -0.0003136  -0.0005374
    5  -0.0006502  -0.0004630   0.0047942
    6   0.0021549   0.0005849  -0.0034982
    7  -0.0003875   0.0002105  -0.0005905
    8  -0.0000574  -0.0001020   0.0007895
    9  -0.0003551   0.0002319  -0.0007920
   10  -0.0005845   0.0005606  -0.0005204
   11  -0.0001446   0.0002976  -0.0007149
   12   0.0003158  -0.0004258   0.0011530
   13   0.0014039  -0.0018228   0.0005000
   14  -0.0027901   0.0015619  -0.0018022
   15  -0.0024662   0.0008770   0.0001766
   16   0.0045599   0.0015349  -0.0067569
   17  -0.0013567  -0.0012342  -0.0007614
   18  -0.0035225  -0.0019916   0.0106677
   19   0.0003024   0.0000268  -0.0018251
   20   0.0012123  -0.0002244  -0.0012855
   21  -0.0012902   0.0004046   0.0014733
   22  -0.0001845  -0.0000682   0.0008147
   23  -0.0003023  -0.0001368   0.0009544
   24   0.0001170  -0.0000219  -0.0009207
   25  -0.0001567   0.0000014   0.0003816
   26  -0.0000059  -0.0000038  -0.0002230
   27  -0.0000518   0.0000179  -0.0002754
   28   0.0000908  -0.0000183   0.0000138
   29   0.0002882  -0.0001261  -0.0001162
   30   0.0003509  -0.0002523   0.0001082
   31  -0.0005186   0.0000748   0.0001067
   32   0.0002168  -0.0000759  -0.0007335
   33  -0.0002864   0.0000182   0.0006422
   34  -0.0618468  -0.1190171   0.0035924
   35  -0.1209353  -0.3576095  -0.0114523
   36  -0.0035290  -0.0213909  -0.0104209
   37   0.0571900   0.1225630   0.0014703
   38   0.1225630   0.3520259   0.0143207
   39   0.0014703   0.0143207   0.0078201
 Gradient time:  CPU 511.07 s  wall 518.47 s
 **********************************************************************
 **                                                                  **
 **                       VIBRATIONAL ANALYSIS                       **
 **                       --------------------                       **
 **                                                                  **
 **        VIBRATIONAL FREQUENCIES (CM**-1) AND NORMAL MODES         **
 **     FORCE CONSTANTS (mDYN/ANGSTROM) AND REDUCED MASSES (AMU)     **
 **                  INFRARED INTENSITIES (KM/MOL)                   **
 **                                                                  **
 **********************************************************************
 

 Mode:                 1                      2                      3
 Frequency:      -638.25                 102.31                 148.88
 Force Cnst:      1.4084                 0.0210                 0.0719
 Red. Mass:       5.8681                 3.3969                 5.5085
 IR Active:          YES                    YES                    YES
 IR Intens:       75.808                  6.382                  4.905
 Raman Active:       YES                    YES                    YES
               X      Y      Z        X      Y      Z        X      Y      Z
 C          0.027 -0.088 -0.166    0.040  0.118 -0.133   -0.055 -0.163  0.034
 C         -0.011 -0.213  0.196   -0.031 -0.033 -0.004    0.176  0.244 -0.228
 C          0.016 -0.015  0.020    0.023  0.133  0.134    0.139  0.037 -0.074
 C          0.083 -0.005 -0.047    0.001  0.031  0.041   -0.044 -0.038 -0.031
 C         -0.000  0.088 -0.048   -0.019 -0.126 -0.115   -0.126  0.077 -0.025
 N          0.132  0.356 -0.152   -0.033 -0.185 -0.146   -0.103  0.068 -0.006
 H          0.114 -0.131 -0.072    0.083  0.307 -0.346   -0.157 -0.152  0.017
 H         -0.234 -0.402  0.304   -0.004  0.042  0.034    0.289  0.436 -0.182
 H         -0.083  0.109  0.022    0.100  0.347  0.300    0.287  0.027  0.026
 H          0.064 -0.068 -0.101    0.014  0.093  0.094   -0.060 -0.117  0.061
 H         -0.149  0.118  0.027   -0.017 -0.194 -0.190   -0.129  0.157  0.066
 C         -0.231 -0.140  0.179    0.012  0.038  0.213    0.002 -0.243  0.326
 H         -0.163 -0.156  0.344   -0.031  0.047  0.504    0.115 -0.267  0.059
 TransDip   0.135  0.153 -0.190    0.030  0.071  0.022    0.038  0.044 -0.041

 Mode:                 4                      5                      6
 Frequency:       225.09                 321.82                 362.23
 Force Cnst:      0.0841                 0.2091                 0.1792
 Red. Mass:       2.8174                 3.4272                 2.3174
 IR Active:          YES                    YES                    YES
 IR Intens:        4.385                  5.892                 13.603
 Raman Active:       YES                    YES                    YES
               X      Y      Z        X      Y      Z        X      Y      Z
 C         -0.189  0.085 -0.138    0.018  0.027  0.092    0.104 -0.025 -0.018
 C          0.035  0.081  0.191    0.000 -0.139 -0.010    0.059  0.117  0.121
 C         -0.029 -0.063 -0.033    0.054  0.010  0.085   -0.024 -0.111 -0.089
 C         -0.002 -0.089 -0.083   -0.032 -0.061  0.053   -0.006  0.064  0.088
 C          0.020  0.029  0.037   -0.172  0.004 -0.065   -0.052  0.052  0.023
 N          0.015 -0.009  0.009   -0.142  0.157 -0.093   -0.073 -0.078 -0.133
 H         -0.556  0.233 -0.360    0.114 -0.080  0.222    0.392 -0.057  0.056
 H         -0.009  0.151  0.313   -0.004 -0.184 -0.043   -0.027 -0.020  0.103
 H         -0.118 -0.126 -0.129    0.103  0.096  0.167   -0.122 -0.384 -0.299
 H         -0.016 -0.154 -0.164   -0.060 -0.192  0.083    0.020  0.187  0.265
 H          0.016  0.046  0.057   -0.341 -0.080 -0.090   -0.059  0.201  0.186
 C          0.179 -0.037  0.031    0.260  0.023 -0.091   -0.023  0.006 -0.039
 H          0.320 -0.092  0.088    0.640 -0.129  0.181    0.127 -0.069  0.507
 TransDip  -0.066 -0.001 -0.014    0.055 -0.030  0.046    0.112  0.014  0.036

 Mode:                 7                      8                      9
 Frequency:       413.40                 500.63                 531.96
 Force Cnst:      0.1485                 0.4379                 0.3464
 Red. Mass:       1.4750                 2.9654                 2.0779
 IR Active:          YES                    YES                    YES
 IR Intens:       41.836                 23.568                 28.055
 Raman Active:       YES                    YES                    YES
               X      Y      Z        X      Y      Z        X      Y      Z
 C         -0.073 -0.021  0.048    0.116 -0.000 -0.116    0.021  0.004  0.023
 C          0.022 -0.016 -0.034   -0.128  0.110 -0.094    0.033 -0.123  0.047
 C          0.039  0.055 -0.011   -0.130 -0.063  0.133    0.058  0.057 -0.040
 C          0.006 -0.011 -0.066   -0.056 -0.158 -0.015   -0.022 -0.070 -0.116
 C          0.039  0.017  0.009    0.026 -0.002  0.161   -0.011  0.146  0.077
 N          0.017 -0.025  0.060    0.098  0.055 -0.059   -0.081 -0.105 -0.047
 H         -0.044 -0.050  0.082    0.279 -0.042 -0.043    0.185 -0.023  0.073
 H          0.005  0.046  0.050    0.209  0.434 -0.235    0.019  0.214  0.389
 H          0.067  0.141  0.054    0.011  0.172  0.354    0.132  0.420  0.202
 H         -0.004 -0.063 -0.125   -0.043 -0.071 -0.104   -0.009 -0.019  0.031
 H          0.107 -0.016 -0.055   -0.044  0.155  0.360    0.064  0.442  0.370
 C         -0.088  0.013 -0.091   -0.004  0.004 -0.038   -0.004  0.016 -0.003
 H          0.291 -0.164  0.877    0.318 -0.115  0.115   -0.165  0.083 -0.250
 TransDip   0.150  0.055  0.132    0.147  0.029  0.043   -0.005  0.153  0.074

 Mode:                10                     11                     12
 Frequency:       648.94                 662.01                 732.65
 Force Cnst:      0.3478                 0.3253                 0.5518
 Red. Mass:       1.4016                 1.2600                 1.7447
 IR Active:          YES                    YES                    YES
 IR Intens:       53.855                 26.211                 29.000
 Raman Active:       YES                    YES                    YES
               X      Y      Z        X      Y      Z        X      Y      Z
 C         -0.002 -0.002  0.006    0.001  0.039 -0.052    0.049 -0.005 -0.074
 C         -0.009 -0.059 -0.045    0.015 -0.019  0.009    0.029  0.002 -0.054
 C         -0.035 -0.075 -0.081    0.016  0.019 -0.026    0.035  0.072 -0.037
 C         -0.002  0.055  0.075   -0.012  0.029  0.009   -0.130  0.011  0.047
 C         -0.000 -0.058 -0.029    0.002 -0.004  0.012   -0.038  0.028  0.140
 N          0.027  0.049  0.012   -0.005 -0.036  0.033    0.043 -0.006  0.011
 H         -0.082  0.009 -0.015    0.236 -0.066  0.106    0.204 -0.004 -0.055
 H          0.059  0.681  0.579   -0.062 -0.014  0.118   -0.370 -0.107  0.384
 H          0.093  0.147  0.128    0.010 -0.047 -0.064    0.135 -0.172 -0.093
 H          0.029  0.209  0.201   -0.029 -0.059 -0.066   -0.204 -0.354 -0.276
 H         -0.026 -0.118 -0.085    0.033 -0.120 -0.120   -0.071 -0.350 -0.258
 C          0.009  0.003 -0.011   -0.099  0.027  0.046    0.055 -0.026 -0.021
 H          0.011  0.001  0.042    0.775 -0.268 -0.414   -0.280  0.090  0.110
 TransDip   0.031  0.201  0.118    0.051 -0.155 -0.019   -0.078  0.032 -0.150

 Mode:                13                     14                     15
 Frequency:       748.13                 818.05                 861.64
 Force Cnst:      0.5920                 0.6235                 0.8119
 Red. Mass:       1.7953                 1.5815                 1.8562
 IR Active:          YES                    YES                    YES
 IR Intens:       11.687                 15.212                  6.857
 Raman Active:       YES                    YES                    YES
               X      Y      Z        X      Y      Z        X      Y      Z
 C         -0.048  0.002  0.011   -0.168  0.061 -0.078    0.046 -0.000 -0.068
 C         -0.034 -0.028 -0.003    0.002  0.020  0.001    0.040 -0.049  0.114
 C         -0.033 -0.070  0.059   -0.004 -0.000 -0.020    0.011 -0.064 -0.076
 C          0.135  0.035  0.015   -0.001 -0.003 -0.011   -0.129  0.073 -0.016
 C          0.057  0.145  0.029    0.026 -0.064 -0.014   -0.073  0.048 -0.004
 N         -0.080 -0.034 -0.057    0.022  0.013  0.025    0.038 -0.008  0.096
 H          0.174 -0.095  0.150    0.658 -0.359  0.524    0.123  0.058 -0.127
 H          0.306  0.351 -0.091   -0.021 -0.050 -0.040    0.553  0.019 -0.522
 H         -0.156 -0.071 -0.030    0.031  0.063  0.038    0.069  0.370  0.206
 H          0.063 -0.308 -0.394    0.035  0.169  0.100   -0.148 -0.003  0.100
 H         -0.061 -0.349 -0.460    0.048  0.043  0.098    0.017 -0.146 -0.257
 C          0.000 -0.008  0.023    0.073 -0.023  0.028    0.013 -0.023 -0.016
 H         -0.140  0.042  0.007   -0.197  0.073  0.059   -0.056 -0.001  0.061
 TransDip   0.012 -0.105 -0.027    0.104  0.023  0.065    0.060 -0.058 -0.006

 Mode:                16                     17                     18
 Frequency:       874.01                 926.13                 959.27
 Force Cnst:      0.6813                 0.6704                 1.7135
 Red. Mass:       1.5137                 1.3266                 3.1605
 IR Active:          YES                    YES                    YES
 IR Intens:        2.284                  0.371                  3.657
 Raman Active:       YES                    YES                    YES
               X      Y      Z        X      Y      Z        X      Y      Z
 C         -0.019 -0.003  0.055    0.006 -0.003  0.002    0.047  0.009 -0.105
 C          0.013  0.095  0.012   -0.007  0.011 -0.007   -0.034  0.068 -0.061
 C         -0.037 -0.100 -0.094    0.004  0.021  0.016   -0.028 -0.096  0.064
 C          0.037  0.005  0.029    0.001 -0.106 -0.084    0.163 -0.044  0.019
 C          0.045 -0.009  0.048    0.011  0.070  0.067   -0.139  0.146 -0.165
 N         -0.019 -0.001 -0.068   -0.006  0.006 -0.005    0.002 -0.045  0.219
 H         -0.120 -0.014  0.053   -0.007  0.008 -0.013    0.344  0.176 -0.258
 H         -0.330 -0.406 -0.009   -0.076 -0.061  0.014   -0.457 -0.173  0.288
 H          0.274  0.550  0.467   -0.043 -0.058 -0.061    0.034  0.134  0.221
 H          0.035 -0.010 -0.120    0.130  0.516  0.585    0.120 -0.244  0.225
 H         -0.011 -0.182 -0.115   -0.066 -0.396 -0.407   -0.150  0.216 -0.080
 C         -0.008  0.018  0.010   -0.003 -0.001  0.004    0.003 -0.038 -0.045
 H          0.048 -0.000 -0.057    0.010 -0.005 -0.010   -0.066 -0.018  0.053
 TransDip   0.020  0.037 -0.024    0.011  0.002  0.016   -0.001  0.061 -0.009

 Mode:                19                     20                     21
 Frequency:      1022.35                1091.95                1156.78
 Force Cnst:      1.2646                 1.0881                 1.2386
 Red. Mass:       2.0535                 1.5489                 1.5710
 IR Active:          YES                    YES                    YES
 IR Intens:        1.334                 32.443                  6.450
 Raman Active:       YES                    YES                    YES
               X      Y      Z        X      Y      Z        X      Y      Z
 C         -0.014  0.006  0.017    0.009  0.023 -0.004   -0.113 -0.030  0.126
 C          0.057 -0.006 -0.021   -0.019  0.010 -0.002   -0.010  0.011 -0.008
 C          0.014 -0.143  0.171   -0.006 -0.007  0.005   -0.003 -0.010  0.012
 C         -0.129  0.081 -0.088   -0.021 -0.017  0.025   -0.038 -0.007  0.016
 C          0.009  0.064 -0.066   -0.071  0.070 -0.049   -0.004  0.022 -0.021
 N          0.020 -0.011 -0.022    0.137 -0.066 -0.054    0.093  0.010 -0.082
 H         -0.058 -0.049  0.075   -0.474 -0.450  0.483    0.445  0.424 -0.324
 H         -0.107 -0.065  0.169   -0.024  0.018  0.010   -0.011  0.023  0.004
 H          0.420 -0.436  0.322   -0.072  0.029 -0.023   -0.082  0.018 -0.029
 H         -0.079  0.414 -0.289   -0.093 -0.373  0.332   -0.105 -0.342  0.327
 H          0.290  0.123 -0.133    0.082  0.069 -0.120    0.429  0.079 -0.145
 C         -0.001  0.012  0.005   -0.004  0.054  0.029   -0.002 -0.011 -0.007
 H          0.008  0.011 -0.034    0.012  0.056  0.011    0.049 -0.033 -0.106
 TransDip   0.014  0.033  0.010   -0.107 -0.105  0.104   -0.041 -0.026  0.065

 Mode:                22                     23                     24
 Frequency:      1210.18                1236.47                1390.79
 Force Cnst:      1.4717                 1.2021                 1.9208
 Red. Mass:       1.7056                 1.3345                 1.6855
 IR Active:          YES                    YES                    YES
 IR Intens:       21.556                 39.244                  8.871
 Raman Active:       YES                    YES                    YES
               X      Y      Z        X      Y      Z        X      Y      Z
 C          0.069  0.011 -0.087   -0.008 -0.002  0.009    0.001 -0.005 -0.003
 C         -0.014  0.003 -0.001   -0.114 -0.003  0.060   -0.034 -0.006  0.023
 C         -0.003 -0.007  0.005   -0.005  0.062 -0.075    0.001  0.054 -0.062
 C         -0.024 -0.017  0.022    0.035 -0.015  0.002    0.066 -0.109  0.100
 C          0.108 -0.025 -0.004    0.033  0.016 -0.021   -0.159  0.012  0.016
 N         -0.160  0.067  0.034    0.003 -0.006  0.001    0.032 -0.000 -0.008
 H         -0.127 -0.139  0.056    0.024  0.029 -0.023   -0.014 -0.021  0.010
 H         -0.045 -0.021  0.015    0.068  0.086 -0.133    0.053  0.038 -0.071
 H          0.025 -0.003  0.029    0.772 -0.466  0.211    0.119 -0.031 -0.033
 H         -0.078 -0.315  0.329    0.012 -0.172  0.160    0.176  0.433 -0.477
 H          0.804  0.098 -0.154   -0.158 -0.008  0.030    0.641  0.105 -0.210
 C          0.006 -0.012 -0.002   -0.004 -0.005  0.002    0.006  0.009  0.001
 H         -0.040  0.007  0.061    0.001 -0.008  0.005   -0.005  0.015 -0.001
 TransDip   0.138  0.013 -0.053    0.009 -0.157  0.125   -0.033 -0.074  0.050

 Mode:                25                     26                     27
 Frequency:      1572.09                1655.70                1760.40
 Force Cnst:     11.3183                 8.5545                 9.0181
 Red. Mass:       7.7728                 5.2964                 4.9390
 IR Active:          YES                    YES                    YES
 IR Intens:        9.292                  5.157                 52.696
 Raman Active:       YES                    YES                    YES
               X      Y      Z        X      Y      Z        X      Y      Z
 C          0.012 -0.014 -0.009   -0.008  0.033  0.016    0.091  0.411  0.111
 C         -0.389  0.087  0.044   -0.198  0.044  0.031    0.006  0.005 -0.007
 C          0.473 -0.186  0.030    0.271 -0.058 -0.036   -0.012  0.002  0.002
 C          0.099  0.214 -0.223   -0.216 -0.194  0.241    0.016  0.014 -0.016
 C         -0.191 -0.146  0.177    0.248  0.153 -0.200   -0.032 -0.016  0.023
 N         -0.005  0.010 -0.012   -0.003 -0.011  0.011    0.021 -0.011 -0.036
 H         -0.035 -0.033 -0.004    0.018  0.046  0.025   -0.155  0.344  0.404
 H         -0.332  0.264 -0.068   -0.184  0.103 -0.073    0.014  0.018 -0.004
 H         -0.099  0.177 -0.226   -0.220  0.265 -0.245    0.007 -0.018  0.009
 H          0.068 -0.080  0.081   -0.165  0.337 -0.314    0.015 -0.019  0.019
 H          0.258 -0.119  0.079   -0.338  0.125 -0.080    0.066 -0.010 -0.007
 C          0.014  0.014  0.005   -0.018 -0.034 -0.005   -0.072 -0.384 -0.103
 H         -0.007  0.028  0.004   -0.008 -0.053 -0.005   -0.210 -0.534 -0.042
 TransDip  -0.084 -0.043  0.026    0.072 -0.004 -0.010    0.138  0.152 -0.109

 Mode:                28                     29                     30
 Frequency:      3092.52                3175.24                3206.40
 Force Cnst:      6.1171                 6.4640                 6.6536
 Red. Mass:       1.0856                 1.0882                 1.0984
 IR Active:          YES                    YES                    YES
 IR Intens:       36.815                  1.968                 20.865
 Raman Active:       YES                    YES                    YES
               X      Y      Z        X      Y      Z        X      Y      Z
 C         -0.000 -0.000  0.000    0.000 -0.001 -0.001   -0.001  0.005  0.004
 C          0.005 -0.004  0.004    0.001  0.000 -0.001   -0.008  0.005 -0.004
 C          0.046  0.033 -0.062   -0.001 -0.001  0.002    0.000 -0.004  0.004
 C         -0.004 -0.001  0.001   -0.029  0.008 -0.002   -0.081  0.013  0.004
 C         -0.000  0.000 -0.000    0.019 -0.057  0.053   -0.005  0.026 -0.025
 N         -0.000 -0.000  0.000   -0.001 -0.000  0.001    0.002  0.000 -0.000
 H         -0.000  0.002  0.002    0.000  0.009  0.009    0.005 -0.049 -0.042
 H         -0.082  0.056 -0.056   -0.002  0.002 -0.001    0.078 -0.056  0.058
 H         -0.535 -0.383  0.737    0.011  0.009 -0.016    0.019  0.019 -0.032
 H          0.060 -0.009 -0.003    0.371 -0.075 -0.000    0.898 -0.175 -0.010
 H          0.001 -0.001  0.001   -0.246  0.653 -0.601    0.095 -0.263  0.242
 C          0.000  0.000  0.000    0.000  0.000 -0.000   -0.000  0.000  0.000
 H          0.001  0.002 -0.001    0.003  0.005 -0.002   -0.005 -0.012  0.000
 TransDip   0.116  0.078 -0.135    0.028 -0.023  0.027   -0.139  0.044 -0.013

 Mode:                31                     32                     33
 Frequency:      3211.45                3219.22                3390.89
 Force Cnst:      6.7038                 6.7302                 7.6752
 Red. Mass:       1.1032                 1.1022                 1.1330
 IR Active:          YES                    YES                    YES
 IR Intens:        8.752                  5.337                 67.295
 Raman Active:       YES                    YES                    YES
               X      Y      Z        X      Y      Z        X      Y      Z
 C          0.005 -0.074 -0.056   -0.000  0.003  0.002    0.002  0.028  0.015
 C         -0.004  0.002 -0.002   -0.069  0.043 -0.040   -0.000  0.001 -0.000
 C          0.001 -0.000 -0.000    0.015  0.003 -0.011   -0.000  0.000  0.000
 C         -0.005  0.001  0.000    0.008 -0.002  0.001   -0.000  0.000  0.000
 C         -0.000  0.002 -0.002    0.001 -0.003  0.003   -0.000  0.000 -0.000
 N         -0.002 -0.001  0.001    0.000  0.000  0.000    0.001 -0.001 -0.001
 H         -0.084  0.741  0.633    0.003 -0.030 -0.025    0.011 -0.100 -0.087
 H          0.034 -0.023  0.023    0.687 -0.489  0.505    0.001  0.000 -0.000
 H          0.001  0.001 -0.001   -0.061 -0.042  0.082    0.001 -0.000 -0.001
 H          0.051 -0.010 -0.001   -0.097  0.022 -0.000    0.001 -0.000  0.000
 H          0.010 -0.026  0.023   -0.011  0.033 -0.030    0.001 -0.003  0.002
 C         -0.001 -0.001  0.001   -0.000 -0.000 -0.000   -0.031 -0.097 -0.009
 H          0.056  0.156  0.008   -0.003 -0.007 -0.001    0.334  0.926  0.034
 TransDip   0.050  0.026 -0.076   -0.018  0.054 -0.048    0.122  0.229 -0.041

 STANDARD THERMODYNAMIC QUANTITIES AT   298.15 K  AND     1.00 ATM

   This Molecule has  1 Imaginary Frequencies
   Zero point vibrational energy:       58.941 kcal/mol

   Atom    1 Element C  Has Mass   12.00000
   Atom    2 Element C  Has Mass   12.00000
   Atom    3 Element C  Has Mass   12.00000
   Atom    4 Element C  Has Mass   12.00000
   Atom    5 Element C  Has Mass   12.00000
   Atom    6 Element N  Has Mass   14.00307
   Atom    7 Element H  Has Mass    1.00783
   Atom    8 Element H  Has Mass    1.00783
   Atom    9 Element H  Has Mass    1.00783
   Atom   10 Element H  Has Mass    1.00783
   Atom   11 Element H  Has Mass    1.00783
   Atom   12 Element C  Has Mass   12.00000
   Atom   13 Element H  Has Mass    1.00783
   Molecular Mass:    92.050050 amu
   Principal axes and moments of inertia in amu*Bohr^2:
                             1           2           3
    Eigenvalues --      278.02947   854.89057  1047.24715
          X               0.64651     0.72488     0.23788
          Y               0.46074    -0.61950     0.63556
          Z              -0.60807     0.30130     0.73449
   Rotational Symmetry Number is   1
   The Molecule is an Asymmetric Top
   Translational Enthalpy:        0.889 kcal/mol
   Rotational Enthalpy:           0.889 kcal/mol
   Vibrational Enthalpy:         61.597 kcal/mol
   gas constant (RT):             0.592 kcal/mol
   Translational Entropy:        39.471  cal/mol.K
   Rotational Entropy:           27.012  cal/mol.K
   Vibrational Entropy:          14.890  cal/mol.K

   Total Enthalpy:               63.967 kcal/mol
   Total Entropy:                81.373  cal/mol.K
Archival summary:
1\1\c8-68\FREQ\ProcedureUnspecified\6-31+G**\166(2)\hpark21\ThuMar311:38:162022ThuMar311:38:162022\0\\#,FREQ,ProcedureUnspecified,6-31+G**,\\0,2\N\C,1,1.42473\H,2,1.08727,1,118.086\C,2,1.34791,1,116.88,3,-176.817,0\H,4,1.08588,2,121.471,1,175.365,0\C,1,1.43594,2,117.057,3,-45.6535,0\H,6,1.08509,1,131.879,2,-78.5067,0\C,6,1.28309,1,79.4991,2,97.8228,0\H,8,1.07228,6,165.047,1,-179.05,0\C,4,1.45828,2,116.498,1,-2.67941,0\H,10,1.09367,4,119.359,2,167.465,0\C,10,1.332,4,116.967,2,-9.3246,0\H,12,1.08501,10,133.425,4,168.332,0\\\@

 Total job time:  527.24s(wall), 517.68s(cpu) 
 Thu Mar  3 11:38:16 2022

        *************************************************************
        *                                                           *
        *  Thank you very much for using Q-Chem.  Have a nice day.  *
        *                                                           *
        *************************************************************


