
Running Job 1 of 1 qcts1.in
qchem qcts1.in_14161.0 ./qcts1.d/ 1
/home/leeping/opt/qchem/5.0.2-openmp/exe/qcprog.exe_s qcts1.in_14161.0 ./qcts1.d/
Check license passed

                  Welcome to Q-Chem
     A Quantum Leap Into The Future Of Chemistry


 Q-Chem 5.0, Q-Chem, Inc., Pleasanton, CA (2017)

 Yihan Shao,  Zhengting Gan,  E. Epifanovsky,  A. T. B. Gilbert,  M. Wormit,  
 J. Kussmann,  A. W. Lange,  A. Behn,  Jia Deng,  Xintian Feng,  D. Ghosh,  
 M. Goldey,  P. R. Horn,  L. D. Jacobson,  I. Kaliman,  T. Kus,  A. Landau,  
 Jie Liu,  E. I. Proynov,  R. M. Richard,  R. P. Steele,  E. J. Sundstrom,  
 H. L. Woodcock III,  P. M. Zimmerman,  D. Zuev,  B. Albrecht,  E. Alguire,  
 S. A. Baeppler,  D. Barton,  Z. Benda,  Y. A. Bernard,  E. J. Berquist,  
 K. B. Bravaya,  H. Burton,  D. Casanova,  Chun-Min Chang,  Yunqing Chen,  
 A. Chien,  K. D. Closser,  M. P. Coons,  S. Dasgupta,  A. L. Dempwolff,  
 M. Diedenhofen,  Hainam Do,  R. G. Edgar,  Po-Tung Fang,  S. Fatehi,  
 Qingguo Feng,  J. Fosso-Tande,  Qinghui Ge,  A. Ghysels,  G. Gidofalvi,  
 J. Gomes,  J. Gonthier,  A. Gunina,  M. W. D. Hanson-Heine,  
 P. H. P. Harbach,  A. W. Hauser,  J. E. Herr,  E. G. Hohenstein,  
 Z. C. Holden,  Kerwin Hui,  T.-C. Jagau,  Hyunjun Ji,  B. Kaduk,  
 K. Khistyaev,  Jaehoon Kim,  P. Klunzinger,  K. Koh,  D. Kosenkov,  
 L. Koulias,  T. Kowalczyk,  C. M. Krauter,  A. Kunitsa,  Ka Un Lao,  
 A. Laurent,  K. V. Lawler,  Joonho Lee,  D. Lefrancois,  S. Lehtola,  
 D. S. Levine,  Yi-Pei Li,  You-Sheng Lin,  Fenglai Liu,  E. Livshits,  
 A. Luenser,  P. Manohar,  E. Mansoor,  S. F. Manzer,  Shan-Ping Mao,  
 Yuezhi Mao,  N. Mardirossian,  A. V. Marenich,  T. Markovich,  
 L. A. Martinez-Martinez,  S. A. Maurer,  N. J. Mayhall,  S. C. McKenzie,  
 J.-M. Mewes,  A. F. Morrison,  J. W. Mullinax,  K. Nanda,  
 T. S. Nguyen-Beck,  R. Olivares-Amaya,  J. A. Parkhill,  T. M. Perrine,  
 F. Plasser,  S. Prager,  A. Prociuk,  E. Ramos,  D. R. Rehn,  F. Rob,  
 M. Schneider,  N. Sergueev,  S. M. Sharada,  S. Sharma,  D. W. Small,  
 T. Stauch,  T. Stein,  Yu-Chuan Su,  A. J. W. Thom,  A. Tkatchenko,  
 T. Tsuchimochi,  L. Vogt,  O. Vydrov,  M. A. Watson,  J. Wenzel,  
 M. de Wergifosse,  T. A. Wesolowski,  A. White,  J. Witte,  A. Yamada,  
 Jun Yang,  K. Yao,  S. Yeganeh,  S. R. Yost,  Zhi-Qiang You,  A. Zech,  
 Igor Ying Zhang,  Xing Zhang,  Yan Zhao,  Ying Zhu,  B. R. Brooks,  
 G. K. L. Chan,  C. J. Cramer,  M. S. Gordon,  W. J. Hehre,  A. Klamt,  
 M. W. Schmidt,  C. D. Sherrill,  D. G. Truhlar,  A. Aspuru-Guzik,  R. Baer,  
 A. T. Bell,  N. A. Besley,  Jeng-Da Chai,  R. A. DiStasio Jr.,  A. Dreuw,  
 B. D. Dunietz,  T. R. Furlani,  Chao-Ping Hsu,  Yousung Jung,  Jing Kong,  
 D. S. Lambrecht,  WanZhen Liang,  C. Ochsenfeld,  V. A. Rassolov,  
 L. V. Slipchenko,  J. E. Subotnik,  T. Van Voorhis,  J. M. Herbert,  
 A. I. Krylov,  P. M. W. Gill,  M. Head-Gordon

 Contributors to earlier versions of Q-Chem not listed above: 
 R. D. Adamson,  B. Austin,  J. Baker,  G. J. O. Beran,  K. Brandhorst,  
 S. T. Brown,  E. F. C. Byrd,  A. K. Chakraborty,  C.-L. Cheng,  
 Siu Hung Chien,  D. M. Chipman,  D. L. Crittenden,  H. Dachsel,  
 R. J. Doerksen,  A. D. Dutoi,  L. Fusti-Molnar,  W. A. Goddard III,  
 A. Golubeva-Zadorozhnaya,  S. R. Gwaltney,  G. Hawkins,  A. Heyden,  
 S. Hirata,  G. Kedziora,  F. J. Keil,  C. Kelley,  Jihan Kim,  R. A. King,  
 R. Z. Khaliullin,  P. P. Korambath,  W. Kurlancheek,  A. M. Lee,  M. S. Lee,  
 S. V. Levchenko,  Ching Yeh Lin,  D. Liotard,  R. C. Lochan,  I. Lotan,  
 P. E. Maslen,  N. Nair,  D. P. O'Neill,  D. Neuhauser,  E. Neuscamman,  
 C. M. Oana,  R. Olson,  B. Peters,  R. Peverati,  P. A. Pieniazek,  
 Y. M. Rhee,  J. Ritchie,  M. A. Rohrdanz,  E. Rosta,  N. J. Russ,  
 H. F. Schaefer III,  N. E. Schultz,  N. Shenvi,  A. C. Simmonett,  A. Sodt,  
 D. Stuck,  K. S. Thanthiriwatte,  V. Vanovschi,  Tao Wang,  A. Warshel,  
 C. F. Williams,  Q. Wu,  X. Xu,  W. Zhang

 Please cite Q-Chem as follows:
 Y. Shao et al., Mol. Phys. 113, 184-215 (2015)
 DOI: 10.1080/00268976.2014.952696

 Q-Chem 5.0.2 for Intel X86 EM64T Linux

 Parts of Q-Chem use Armadillo 5.200.1 (Boston Tea Smuggler).
 http://arma.sourceforge.net/

 Q-Chem begins on Thu Mar  3 11:08:21 2022  

Host: 
0

     Scratch files written to ./qcts1.d//
 Dec517 15110_ 26548  26544 5633   
Processing $rem in /home/leeping/opt/qchem/5.0.2-openmp/config/preferences.
 MEM_STATIC 2000
 MEM_TOTAL  8000
 SYMMETRY   OFF
 SYM_IGNORE TRUE 

Checking the input file for inconsistencies... 	...done.

--------------------------------------------------------------
User input:
--------------------------------------------------------------
$molecule
0 2
C        1.4628101094    0.1445654151   -1.1340797347
C        0.2894502819   -1.2705779331    1.1991555815
C       -1.0291855556   -1.1735757365    1.1517007316
C       -1.6067740671   -0.0059832272    0.4981993664
C       -0.7458529239    0.8333333120   -0.1132353455
N        0.6503805322    0.6073237525   -0.0381949649
H        1.9024752958   -0.8290432509   -1.2961894725
H        1.0315114217   -1.9725004577    1.5639368432
H       -1.6748641773   -1.9088817170    1.6385797579
H       -2.6663680847    0.2040368511    0.5575494085
H       -1.0626825773    1.7727618956   -0.5523774691
C        1.5307872932    1.3796587277   -1.4665114339
H        1.9345282626    2.2380243154   -1.9727833894
$end

$rem
method                b3lyp
basis                 6-31g(d)
unrestricted          true
symmetry              off
sym_ignore            true
incdft                false
incfock               0
scf_convergence       6
thresh                14
jobtype               sp
scf_guess             read
scf_algorithm         diis
max_scf_cycles        100
stability_analysis    true
max_cis_cycles        100
cis_n_roots           4
$end

--------------------------------------------------------------
 ----------------------------------------------------------------
             Standard Nuclear Orientation (Angstroms)
    I     Atom           X                Y                Z
 ----------------------------------------------------------------
    1      C       1.4628101094     0.1445654151    -1.1340797347
    2      C       0.2894502819    -1.2705779331     1.1991555815
    3      C      -1.0291855556    -1.1735757365     1.1517007316
    4      C      -1.6067740671    -0.0059832272     0.4981993664
    5      C      -0.7458529239     0.8333333120    -0.1132353455
    6      N       0.6503805322     0.6073237525    -0.0381949649
    7      H       1.9024752958    -0.8290432509    -1.2961894725
    8      H       1.0315114217    -1.9725004577     1.5639368432
    9      H      -1.6748641773    -1.9088817170     1.6385797579
   10      H      -2.6663680847     0.2040368511     0.5575494085
   11      H      -1.0626825773     1.7727618956    -0.5523774691
   12      C       1.5307872932     1.3796587277    -1.4665114339
   13      H       1.9345282626     2.2380243154    -1.9727833894
 ----------------------------------------------------------------
 Nuclear Repulsion Energy =   252.8482493426 hartrees
 There are       25 alpha and       24 beta electrons
 Requested basis set is 6-31G(d)
 There are 40 shells and 117 basis functions

 Total QAlloc Memory Limit   8000 MB
 Mega-Array Size      1956 MB
 MEM_STATIC part      2000 MB

                       Distance Matrix (Angstroms)
             C (  1)   C (  2)   C (  3)   C (  4)   C (  5)   N (  6)
   C (  2)  2.970419
   C (  3)  3.629371  1.323050
   C (  4)  3.479849  2.384577  1.457376
   C (  5)  2.528778  2.687130  2.389147  1.348885
   N (  6)  1.440538  2.277679  2.721837  2.399711  1.416397
   H (  7)  1.080509  3.003922  3.834776  4.026424  3.343130  2.283296
   H (  8)  3.456484  1.084627  2.248264  3.458835  3.720838  3.060650
   H (  9)  4.663613  2.111648  1.092990  2.219488  3.384030  3.814397
   H ( 10)  4.462652  3.364968  2.220630  1.081837  2.129400  3.393873
   H ( 11)  3.060640  3.762718  3.403808  2.136277  1.084321  2.134763
   C ( 12)  1.280854  3.958592  4.464023  3.952769  2.704241  1.847080
   H ( 13)  2.304021  5.007771  5.494089  4.866431  3.551833  2.837402
             H (  7)   H (  8)   H (  9)   H ( 10)   H ( 11)   C ( 12)
   H (  8)  3.200999
   H (  9)  4.751450  2.708152
   H ( 10)  5.037651  4.407317  2.572184
   H ( 11)  4.014325  4.784498  4.327766  2.502927
   C ( 12)  2.246225  4.546412  5.543671  4.805728  2.777815
   H ( 13)  3.140973  5.572463  6.577727  5.630980  3.349223  1.075225

 
 A cutoff of  1.0D-14 yielded    782 shell pairs
 There are      6997 function pairs
 Smallest overlap matrix eigenvalue = 1.32E-03

 Scale SEOQF with 1.000000e-01/1.000000e-01/1.000000e-01

 Standard Electronic Orientation quadrupole field applied
 Nucleus-field energy     =     0.0000000011 hartrees
 Guess MOs from SCF MO coefficient file
 Reading MOs from coefficient file
 Reading MOs from coefficient file
 An unrestricted hybrid HF-DFT SCF calculation will be
 performed using Pulay DIIS extrapolation
 Exchange:     0.2000 Hartree-Fock + 0.0800 Slater + 0.7200 B88
 Correlation:  0.1900 VWN1RPA + 0.8100 LYP
 Using SG-1 standard quadrature grid
 SCF converges when DIIS error is below 1.0E-06
Using Q-Chem read-in guess as SCF_GUESS READ specified.

 -------------------------------------------------------
 OpenMP BLAS3 based DFT computing Module                
 -------------------------------------------------------
 ---------------------------------------
  Cycle       Energy         DIIS Error
 ---------------------------------------
    1    -286.7014183506      3.24E-09
    2    -286.7014183506      4.59E-09 Convergence criterion met
 ---------------------------------------
 <S^2> = 0.8098
 SCF time:  CPU 3.11 s  wall 4.14 s
 SCF   energy in the final basis set = -286.70141835
 Total energy in the final basis set = -286.70141835
 
 Direct TDDFT/TDA calculation will be performed
 Exchange:     0.2000 Hartree-Fock + 0.0800 Slater + 0.7200 B88
 Correlation:  0.1900 VWN1RPA + 0.8100 LYP
 Using SG-1 standard quadrature grid
 CIS energy converged when residual is below 10e- 6
 ---------------------------------------------------
 Iter    Rts Conv    Rts Left    Ttl Dev     Max Dev
 ---------------------------------------------------
   1         0           4      0.004852    0.002190
   2         0           4      0.002075    0.000612
   3         0           4      0.001025    0.000308
   4         0           4      0.000790    0.000409
   5         0           4      0.000710    0.000493
   6         0           4      0.000257    0.000176
   7         0           4      0.000138    0.000097
   8         1           3      0.000062    0.000045
   9         1           3      0.000017    0.000012
  10         3           1      0.000004    0.000003
  11         4           0      0.000001    0.000001    Roots Converged
 ---------------------------------------------------
 
 ---------------------------------------------------
         TDDFT/TDA Excitation Energies              
 ---------------------------------------------------

 Excited state   1: excitation energy (eV) =    2.1110
 Total energy for state  1:                  -286.62383883 au
    <S**2>     :  0.8827
    Trans. Mom.: -0.0474 X  -0.0204 Y  -0.0179 Z
    Strength   :     0.0001540731
    D( 24) --> S(  1) amplitude =  0.9791 beta

 Excited state   2: excitation energy (eV) =    2.8820
 Total energy for state  2:                  -286.59550567 au
    <S**2>     :  1.5368
    Trans. Mom.: -0.1292 X  -0.1436 Y   0.1570 Z
    Strength   :     0.0043732553
    D( 23) --> V(  1) amplitude =  0.1947 alpha
    D( 24) --> V(  1) amplitude = -0.2230 alpha
    D( 24) --> V(  2) amplitude =  0.1800 alpha
    S(  1) --> V(  1) amplitude =  0.4018 alpha
    S(  1) --> V(  2) amplitude = -0.4195 alpha
    D( 23) --> S(  1) amplitude =  0.6319 beta
    D( 24) --> V(  1) amplitude =  0.1756 beta
    D( 24) --> V(  2) amplitude = -0.2567 beta

 Excited state   3: excitation energy (eV) =    2.9831
 Total energy for state  3:                  -286.59178984 au
    <S**2>     :  0.9203
    Trans. Mom.: -0.1521 X  -0.2140 Y   0.2399 Z
    Strength   :     0.0092432839
    S(  1) --> V(  1) amplitude =  0.8127 alpha
    S(  1) --> V(  2) amplitude =  0.2644 alpha
    D( 22) --> S(  1) amplitude =  0.3053 beta
    D( 23) --> S(  1) amplitude = -0.3043 beta

 Excited state   4: excitation energy (eV) =    3.0614
 Total energy for state  4:                  -286.58891331 au
    <S**2>     :  2.6231
    Trans. Mom.:  0.0097 X   0.0182 Y   0.0190 Z
    Strength   :     0.0000590067
    D( 23) --> V(  2) amplitude = -0.1517 alpha
    D( 24) --> V(  1) amplitude = -0.3579 alpha
    D( 24) --> V(  2) amplitude = -0.4955 alpha
    S(  1) --> V(  2) amplitude =  0.1712 alpha
    D( 23) --> S(  1) amplitude =  0.2560 beta
    D( 24) --> V(  1) amplitude = -0.6263 beta
 
 ---------------------------------------------------

 Stability analysis will be performed
 ---------------------------------------------------
 Iter    Rts Conv    Rts Left    Ttl Dev     Max Dev
 ---------------------------------------------------
   1         0           8      0.005384    0.000758
   2         0           8      0.003177    0.000701
   3         0           8      0.001764    0.000509
   4         0           8      0.000959    0.000371
   5         1           7      0.000692    0.000317
   6         3           5      0.000366    0.000177
   7         4           4      0.000105    0.000048
   8         4           4      0.000031    0.000014
   9         5           3      0.000008    0.000003
  10         8           0      0.000003    0.000001    Roots Converged
 UKS-> UKS   stable,    smallest eigenvalue:      0.0653460
 UKS->CUKS   stable,    smallest eigenvalue:      0.0794720
 ---------------------------------------------------
  SETman timing summary (seconds)
  CPU time                86.11s
  System time              0.00s
  Wall time               90.29s
 
 --------------------------------------------------------------
 
                    Orbital Energies (a.u.)
 --------------------------------------------------------------
 
 Alpha MOs
 -- Occupied --
-14.369 -10.238 -10.221 -10.207 -10.196 -10.185 -10.177  -0.933
 -0.809  -0.736  -0.678  -0.598  -0.569  -0.522  -0.511  -0.482
 -0.439  -0.403  -0.385  -0.378  -0.305  -0.290  -0.244  -0.205
 -0.182
 -- Virtual --
 -0.019  -0.012   0.011   0.097   0.118   0.129   0.136   0.157
  0.175   0.179   0.208   0.272   0.332   0.369   0.392   0.435
  0.483   0.496   0.503   0.535   0.552   0.583   0.594   0.596
  0.613   0.631   0.650   0.652   0.685   0.724   0.766   0.801
  0.816   0.836   0.850   0.860   0.890   0.920   0.938   0.953
  0.980   1.026   1.051   1.071   1.101   1.155   1.197   1.221
  1.351   1.383   1.457   1.470   1.492   1.534   1.615   1.644
  1.700   1.750   1.790   1.833   1.844   1.879   1.913   1.966
  1.980   2.063   2.070   2.159   2.216   2.239   2.256   2.277
  2.354   2.401   2.426   2.519   2.616   2.639   2.647   2.687
  2.745   2.795   2.928   2.951   3.127   3.968   4.101   4.144
  4.173   4.270   4.298   4.491
 
 Beta MOs
 -- Occupied --
-14.370 -10.239 -10.214 -10.208 -10.187 -10.183 -10.176  -0.935
 -0.804  -0.730  -0.670  -0.589  -0.561  -0.518  -0.505  -0.478
 -0.434  -0.399  -0.383  -0.373  -0.303  -0.275  -0.238  -0.196
 -- Virtual --
 -0.066  -0.005   0.005   0.023   0.100   0.122   0.130   0.140
  0.160   0.179   0.181   0.210   0.274   0.337   0.376   0.398
  0.448   0.493   0.499   0.505   0.540   0.557   0.586   0.599
  0.602   0.623   0.634   0.652   0.659   0.687   0.733   0.768
  0.804   0.823   0.840   0.856   0.866   0.898   0.926   0.942
  0.956   0.985   1.031   1.056   1.075   1.107   1.156   1.200
  1.229   1.355   1.388   1.463   1.474   1.494   1.537   1.633
  1.648   1.715   1.777   1.805   1.844   1.864   1.882   1.920
  1.974   1.994   2.075   2.076   2.163   2.221   2.240   2.259
  2.287   2.360   2.405   2.429   2.523   2.619   2.645   2.655
  2.691   2.747   2.802   2.932   2.957   3.132   3.966   4.105
  4.158   4.186   4.277   4.301   4.493
 --------------------------------------------------------------
 
          Ground-State Mulliken Net Atomic Charges

     Atom                 Charge (a.u.)    Spin (a.u.)
  --------------------------------------------------------
      1 C                     0.030509      -0.067269
      2 C                    -0.184942       0.823429
      3 C                    -0.137088      -0.132059
      4 C                    -0.119026       0.059467
      5 C                     0.029767      -0.037455
      6 N                    -0.385844      -0.166548
      7 H                     0.155695       0.017234
      8 H                     0.147362      -0.000487
      9 H                     0.137499       0.062000
     10 H                     0.129014       0.000965
     11 H                     0.144877      -0.008800
     12 C                    -0.133426       0.453280
     13 H                     0.185604      -0.003756
  --------------------------------------------------------
  Sum of atomic charges =     0.000000
  Sum of spin   charges =     1.000000

 -----------------------------------------------------------------
                    Cartesian Multipole Moments
 -----------------------------------------------------------------
    Charge (ESU x 10^10)
                 0.0000
    Dipole Moment (Debye)
         X       0.3404      Y      -0.1948      Z      -1.4436
       Tot       1.4959
    Quadrupole Moments (Debye-Ang)
        XX     -36.4869     XY      -0.6089     YY     -36.2219
        XZ      -3.6436     YZ      -4.4433     ZZ     -40.4064
    Octopole Moments (Debye-Ang^2)
       XXX     -10.5386    XXY      -2.8996    XYY       3.4029
       YYY      -1.7452    XXZ      -3.2453    XYZ      -3.2473
       YYZ      -4.9734    XZZ       2.8384    YZZ      -1.7513
       ZZZ      -6.1520
    Hexadecapole Moments (Debye-Ang^3)
      XXXX    -387.7501   XXXY     -47.8426   XXYY     -97.6414
      XYYY     -38.9395   YYYY    -272.8692   XXXZ      86.3450
      XXYZ      19.7739   XYYZ      19.8593   YYYZ      75.8671
      XXZZ    -104.3339   XYZZ      -6.7080   YYZZ     -77.0309
      XZZZ      95.0051   YZZZ      91.7469   ZZZZ    -297.2445
 -----------------------------------------------------------------
Archival summary:
1\1\c8-68\SP\ProcedureUnspecified\6-31G*\166(2)\hpark21\ThuMar311:09:572022ThuMar311:09:572022\0\\#,ProcedureUnspecified,6-31G*,\\0,2\N\C,1,1.4164\H,2,1.08432,1,116.598\C,2,1.34888,1,120.388,3,-171.406,0\H,4,1.08184,2,121.951,1,172.622,0\C,1,1.44054,2,124.535,3,-80.7176,0\H,6,1.08051,1,129.278,2,-106.213,0\C,6,1.28085,1,85.2741,2,85.2073,0\H,8,1.07523,6,155.773,1,161.866,0\C,4,1.45738,2,116.668,1,-3.62724,0\H,10,1.09299,4,120.305,2,-178.108,0\C,10,1.32305,4,118.023,2,5.5938,0\H,12,1.08463,10,137.85,4,-178.219,0\\\@

 Total job time:  96.31s(wall), 89.40s(cpu) 
 Thu Mar  3 11:09:57 2022

        *************************************************************
        *                                                           *
        *  Thank you very much for using Q-Chem.  Have a nice day.  *
        *                                                           *
        *************************************************************


