13
image # 1 Energy = -286.72397
C 1.48632   0.14066   -1.02861  
C 0.38096   -1.53802  1.30208   
C -0.87389  -1.18630  1.05792   
C -1.38284  0.03839   0.44362   
C -0.66564  1.03581   -0.11517  
N 0.74345   1.12269   -0.14525  
H 1.80106   -0.88634  -0.96892  
H 0.85795   -2.38390  1.78268   
H -1.65523  -1.89153  1.37400   
H -2.46284  0.16110   0.46213   
H -1.18145  1.91924   -0.49275  
C 1.38419   1.32810   -1.49372  
H 1.56795   2.14009   -2.17800  
13
image # 2 Energy = -286.71933
C 1.49217   0.11091   -1.01594  
C 0.38114   -1.52088  1.27124   
C -0.89834  -1.18198  1.06515   
C -1.41013  0.03231   0.45887   
C -0.67297  1.02398   -0.12049  
N 0.72195   1.09811   -0.13224  
H 1.83195   -0.86757  -0.96125  
H 0.87851   -2.35763  1.72925   
H -1.65545  -1.89414  1.40356   
H -2.49207  0.16935   0.48996   
H -1.17723  1.90511   -0.50373  
C 1.39343   1.35807   -1.51047  
H 1.60951   2.12556   -2.17030  
13
image # 3 Energy = -286.72163
C 1.48772   0.15102   -1.02333  
C 0.36962   -1.49789  1.24051   
C -0.90382  -1.18228  1.07255   
C -1.43009  0.03893   0.46687   
C -0.69784  1.00346   -0.11841  
N 0.71166   1.06123   -0.11193  
H 1.86365   -0.86593  -0.95205  
H 0.89492   -2.33827  1.68661   
H -1.65758  -1.89831  1.42918   
H -2.51022  0.17628   0.51246   
H -1.17501  1.89756   -0.51422  
C 1.40188   1.32401   -1.49931  
H 1.65013   2.13165   -2.18170  
13
image # 4 Energy = -286.71959
C 1.48415   0.14450   -1.00382  
C 0.36849   -1.48394  1.20792   
C -0.92767  -1.17501  1.08076   
C -1.47321  0.02685   0.48535   
C -0.70202  0.99035   -0.12219  
N 0.71427   1.03313   -0.13605  
H 1.89874   -0.84636  -0.94792  
H 0.91398   -2.30154  1.62361   
H -1.65607  -1.89931  1.46292   
H -2.54114  0.18544   0.54240   
H -1.17180  1.88031   -0.52537  
C 1.40378   1.32702   -1.48280  
H 1.69567   2.12179   -2.17380  
13
image # 5 Energy = -286.71892
C 1.50366   0.14191   -1.01776  
C 0.36395   -1.46569  1.17255   
C -0.94753  -1.17092  1.08864   
C -1.50454  0.03382   0.49625   
C -0.74575  0.98270   -0.13338  
N 0.69277   1.01252   -0.10930  
H 1.93858   -0.83881  -0.94010  
H 0.93724   -2.26886  1.56065   
H -1.66006  -1.90221  1.50262   
H -2.55011  0.19596   0.56802   
H -1.17014  1.85877   -0.53248  
C 1.41533   1.31444   -1.48857  
H 1.73506   2.11236   -2.15281  
13
image # 6 Energy = -286.71605
C 1.51117   0.12456   -0.99885  
C 0.33451   -1.43803  1.12867   
C -0.96470  -1.17727  1.10623   
C -1.51074  0.04624   0.49457   
C -0.74955  0.94688   -0.12689  
N 0.67545   0.99504   -0.14673  
H 1.98532   -0.83204  -0.93920  
H 0.97130   -2.22788  1.48135   
H -1.65490  -1.89392  1.54787   
H -2.60291  0.21095   0.60197   
H -1.17881  1.84206   -0.54827  
C 1.41822   1.31513   -1.46726  
H 1.77527   2.09771   -2.11517  
13
image # 7 Energy = -286.71239
C 1.51937   0.12218   -0.99820  
C 0.31066   -1.40796  1.09446   
C -0.96743  -1.16720  1.10882   
C -1.55232  0.03839   0.51243   
C -0.75928  0.93346   -0.12948  
N 0.66243   0.95704   -0.12767  
H 2.01801   -0.81695  -0.93999  
H 0.98891   -2.18914  1.42438   
H -1.65696  -1.89756  1.58026   
H -2.61798  0.21929   0.62167   
H -1.17042  1.82166   -0.55479  
C 1.42775   1.30952   -1.46484  
H 1.80808   2.09024   -2.10406  
13
image # 8 Energy = -286.70868
C 1.52273   0.12194   -0.99320  
C 0.31112   -1.38339  1.06503   
C -0.99693  -1.15533  1.11297   
C -1.57839  0.03032   0.52694   
C -0.76638  0.90191   -0.12145  
N 0.65961   0.91316   -0.10501  
H 2.04809   -0.81144  -0.94648  
H 1.00217   -2.14215  1.37022   
H -1.65606  -1.89765  1.60631   
H -2.63610  0.22835   0.63454   
H -1.16517  1.81806   -0.56695  
C 1.43465   1.30175   -1.45844  
H 1.83280   2.09050   -2.09691  
13
image # 9 Energy = -286.70374
C 1.52178   0.12406   -0.98094  
C 0.29661   -1.35154  1.04060   
C -1.01450  -1.16534  1.12604   
C -1.59081  0.02762   0.53423   
C -0.77306  0.89324   -0.12029  
N 0.65639   0.85266   -0.07853  
H 2.07150   -0.81079  -0.95697  
H 1.01538   -2.09699  1.32461   
H -1.64936  -1.89222  1.62239   
H -2.66342  0.23778   0.64252   
H -1.15004  1.80305   -0.57068  
C 1.44471   1.30659   -1.45853  
H 1.84831   2.09033   -2.09320  
13
image # 10 Energy = -286.69833
C 1.52602   0.12620   -0.97869  
C 0.28410   -1.33043  1.03730   
C -1.01520  -1.16025  1.12581   
C -1.60857  0.03823   0.53126   
C -0.77364  0.87793   -0.10697  
N 0.64123   0.78436   -0.04368  
H 2.07140   -0.80454  -0.97259  
H 1.02742   -2.04710  1.28984   
H -1.64997  -1.89944  1.63718   
H -2.67751  0.24167   0.63818   
H -1.12515  1.78971   -0.56987  
C 1.46454   1.30906   -1.46376  
H 1.85031   2.09407   -2.09008  
13
image # 11 Energy = -286.69589
C 1.51561   0.14382   -0.97846  
C 0.28379   -1.29188  1.03794   
C -1.02658  -1.15605  1.12599   
C -1.62175  0.03444   0.53557   
C -0.77132  0.86855   -0.09636  
N 0.63303   0.69266   0.01929   
H 2.04786   -0.79236  -0.98433  
H 1.03622   -2.03157  1.29537   
H -1.64639  -1.90358  1.62563   
H -2.67795  0.23956   0.62452   
H -1.09948  1.78916   -0.56492  
C 1.49104   1.31508   -1.48968  
H 1.85212   2.11129   -2.11482  
13
image # 12 Energy = -286.71921
C 1.48651   0.18018   -0.97911  
C 0.29626   -1.25081  1.05191   
C -1.02621  -1.14724  1.12452   
C -1.62685  0.02690   0.53720   
C -0.76427  0.86242   -0.08967  
N 0.61520   0.56154   0.10335   
H 1.99845   -0.78086  -0.98860  
H 1.03675   -2.03396  1.32654   
H -1.64495  -1.90864  1.60258   
H -2.66942  0.23394   0.60418   
H -1.07834  1.79643   -0.55651  
C 1.53900   1.33043   -1.54825  
H 1.85503   2.14676   -2.15261  
13
image # 13 Energy = -286.75828
C 1.45373   0.23415   -0.96890  
C 0.32451   -1.20379  1.06957   
C -1.01781  -1.15045  1.12117   
C -1.62149  0.01918   0.53353   
C -0.73572  0.86146   -0.06532  
N 0.59791   0.43264   0.20119   
H 1.93010   -0.75848  -0.99434  
H 1.00179   -2.05863  1.40629   
H -1.64614  -1.91405  1.54926   
H -2.65662  0.21975   0.57709   
H -1.05211  1.80506   -0.53899  
C 1.58940   1.34490   -1.63116  
H 1.84951   2.18395   -2.22490  
13
image # 14 Energy = -286.74577
C 1.48885   0.16545   -0.95186  
C 0.30164   -1.18770  1.00983   
C -1.02673  -1.14016  1.12131   
C -1.61773  0.03021   0.52297   
C -0.74878  0.86882   -0.08375  
N 0.59839   0.47409   0.14652   
H 1.99779   -0.81464  -0.99736  
H 1.04771   -1.98284  1.29929   
H -1.64175  -1.90002  1.60960   
H -2.68294  0.24344   0.58894   
H -1.07528  1.79813   -0.55984  
C 1.54253   1.30824   -1.54492  
H 1.83329   2.15128   -2.12735  
13
image # 15 Energy = -286.76602
C 1.49666   0.18257   -0.94237  
C 0.29586   -1.16584  0.95674   
C -1.03755  -1.14800  1.12756   
C -1.65251  0.03875   0.54003   
C -0.75806  0.84819   -0.06978  
N 0.57159   0.42811   0.16116   
H 2.04610   -0.76580  -0.98377  
H 1.03053   -1.96351  1.25602   
H -1.63173  -1.90908  1.62500   
H -2.68999  0.24451   0.62658   
H -1.06276  1.78598   -0.57039  
C 1.52210   1.33191   -1.53880  
H 1.88541   2.10425   -2.15798  
13
image # 16 Energy = -286.80048
C 1.50033   0.22057   -0.91325  
C 0.28685   -1.12712  0.93972   
C -1.05328  -1.14551  1.11773   
C -1.66111  0.02621   0.56067   
C -0.75196  0.82847   -0.02641  
N 0.57074   0.34930   0.19410   
H 2.06410   -0.73493  -1.01753  
H 1.00379   -1.90899  1.24359   
H -1.63585  -1.92827  1.61130   
H -2.72133  0.24732   0.62392   
H -0.99894  1.75873   -0.55893  
C 1.51945   1.35271   -1.54199  
H 1.89082   2.07169   -2.20735  
13
image # 17 Energy = -286.82071
C 1.50215   0.24107   -0.89515  
C 0.27635   -1.11274  0.91063   
C -1.06652  -1.15290  1.12679   
C -1.68642  0.01953   0.58149   
C -0.75054  0.81713   -0.01958  
N 0.54765   0.29201   0.18733   
H 2.09714   -0.68777  -1.00930  
H 0.98241   -1.88812  1.20617   
H -1.63136  -1.92748  1.62561   
H -2.74080  0.25163   0.65721   
H -0.98594  1.72572   -0.55625  
C 1.52069   1.36207   -1.54862  
H 1.94617   2.06774   -2.24594  
13
image # 18 Energy = -286.83603
C 1.50035   0.25783   -0.87988  
C 0.25369   -1.09976  0.87932   
C -1.06796  -1.14178  1.12895   
C -1.70286  0.01969   0.59558   
C -0.76301  0.78930   -0.00828  
N 0.52131   0.23975   0.16558   
H 2.12664   -0.64408  -0.98900  
H 0.97357   -1.87765  1.16614   
H -1.62709  -1.93004  1.65006   
H -2.74937  0.25532   0.69250   
H -0.98496  1.70432   -0.56029  
C 1.52694   1.37324   -1.55930  
H 2.00105   2.05923   -2.26605  
13
image # 19 Energy = -286.84664
C 1.49314   0.28894   -0.87467  
C 0.24350   -1.09143  0.84948   
C -1.08046  -1.12773  1.13215   
C -1.72616  0.01384   0.61469   
C -0.77571  0.77687   -0.01107  
N 0.49526   0.18602   0.14149   
H 2.15235   -0.60766  -0.96365  
H 0.96905   -1.86687  1.12497   
H -1.61800  -1.92935  1.67421   
H -2.74821  0.25829   0.72434   
H -0.98647  1.68307   -0.56264  
C 1.53776   1.37593   -1.56708  
H 2.04919   2.04332   -2.27159  
13
image # 20 Energy = -286.85401
C 1.48775   0.29571   -0.87376  
C 0.23763   -1.10471  0.81260   
C -1.09851  -1.13696  1.15361   
C -1.72640  0.01567   0.63167   
C -0.80598  0.76693   -0.03210  
N 0.44949   0.15399   0.09404   
H 2.18146   -0.55479  -0.90976  
H 0.96756   -1.87336  1.06956   
H -1.59387  -1.91329  1.70605   
H -2.75731  0.26619   0.77658   
H -1.00812  1.66967   -0.57533  
C 1.55564   1.41045   -1.59497  
H 2.11289   2.00585   -2.25226  
13
image # 21 Energy = -286.85890
C 1.47843   0.32072   -0.88143  
C 0.21445   -1.11453  0.78100   
C -1.08760  -1.15119  1.17006   
C -1.72469  0.02148   0.64700   
C -0.83112  0.75277   -0.05010  
N 0.40738   0.12064   0.03985   
H 2.20429   -0.50608  -0.85557  
H 0.97118   -1.87724  1.01416   
H -1.57226  -1.90169  1.74046   
H -2.77363  0.27681   0.82434   
H -1.02863  1.66961   -0.59502  
C 1.55602   1.40715   -1.58724  
H 2.18573   1.98095   -2.24529  
13
image # 22 Energy = -286.86284
C 1.46209   0.31852   -0.86826  
C 0.21896   -1.13219  0.74864   
C -1.08305  -1.14030  1.17288   
C -1.74799  0.01648   0.67584   
C -0.85579  0.74509   -0.07131  
N 0.37969   0.09220   -0.01605  
H 2.22270   -0.46316  -0.80414  
H 0.97552   -1.87364  0.95704   
H -1.55929  -1.90774  1.78564   
H -2.77624  0.28629   0.86293   
H -1.04521  1.67909   -0.61985  
C 1.55651   1.42245   -1.58879  
H 2.25114   1.95478   -2.23463  
13
image # 23 Energy = -286.86695
C 1.45211   0.33841   -0.85911  
C 0.21799   -1.12282  0.71266   
C -1.09876  -1.13927  1.18596   
C -1.75405  0.01997   0.68851   
C -0.88046  0.72711   -0.07281  
N 0.34664   0.04646   -0.05039  
H 2.23705   -0.42872  -0.76886  
H 0.98228   -1.85561  0.90134   
H -1.54012  -1.90680  1.81537   
H -2.78414  0.29450   0.89229   
H -1.04341  1.67144   -0.63462  
C 1.56590   1.42584   -1.58806  
H 2.29791   1.92614   -2.22345  
13
image # 24 Energy = -286.87020
C 1.44951   0.35318   -0.85437  
C 0.17725   -1.11502  0.68880   
C -1.09248  -1.14598  1.19704   
C -1.77159  0.01970   0.70827   
C -0.90244  0.72566   -0.09014  
N 0.30839   0.02670   -0.08719  
H 2.24945   -0.39234  -0.73167  
H 1.00338   -1.84700  0.84286   
H -1.51822  -1.90361  1.84429   
H -2.78773  0.30255   0.92121   
H -1.03713  1.64958   -0.64405  
C 1.58318   1.43786   -1.59438  
H 2.33671   1.88691   -2.20181  
13
image # 25 Energy = -286.87238
C 1.43901   0.36506   -0.83469  
C 0.16445   -1.12175  0.66970   
C -1.09880  -1.14122  1.20478   
C -1.78241  0.01811   0.72209   
C -0.91351  0.70368   -0.09011  
N 0.28214   0.00725   -0.12633  
H 2.25397   -0.35204  -0.70456  
H 0.99656   -1.80326  0.77689   
H -1.49394  -1.89918  1.86752   
H -2.79907  0.31076   0.94807   
H -1.02398  1.62057   -0.64966  
C 1.59384   1.43389   -1.59051  
H 2.38173   1.85812   -2.19319  
