13   
From optimize.out: Frame 1 / 2, Energy=    -286.7239725374
C        1.4857242514    0.1403985435   -1.0273985024
C        0.3818308775   -1.5373736536    1.3003364506
C       -0.8735670675   -1.1854072571    1.0586365777
C       -1.3831562798    0.0386825458    0.4438302619
C       -0.6664499257    1.0357765302   -0.1158438988
N        0.7426315719    1.1230951540   -0.1453585458
H        1.7994299597   -0.8867779077   -0.9658731112
H        0.8590313472   -2.3840913248    1.7794556900
H       -1.6541406774   -1.8916486756    1.3742144719
H       -2.4631164119    0.1614477774    0.4627803502
H       -1.1821178147    1.9191284392   -0.4938414681
C        1.3845826537    1.3275891906   -1.4932286479
H        1.5693175161    2.1391806379   -2.1777096282
