13
image # 1 Energy = -286.85847
C 1.57548   0.44564   -0.08641  
C 0.82233   -0.81511  0.11690   
C -0.51843  -0.96800  -0.58274  
C -1.11971  0.31637   -0.03592  
C -0.37015  1.57900   -0.23919  
N 0.96094   1.61424   -0.25952  
H 2.66367   0.43912   -0.09786  
H 1.40561   -1.72499  0.24896   
H -0.91992  -1.74389  -1.21964  
H -2.20658  0.37962   -0.03338  
H -0.90387  2.51726   -0.37830  
C -0.50200  -0.74594  0.85908   
H -0.88738  -1.29332  1.70802   
13
image # 2 Energy = -286.85365
C 1.55059   0.43639   -0.07509  
C 0.82763   -0.83916  0.07174   
C -0.52307  -1.00829  -0.60546  
C -1.13215  0.33730   -0.00949  
C -0.38120  1.59352   -0.24556  
N 0.94863   1.60473   -0.27217  
H 2.63413   0.44475   -0.01539  
H 1.43762   -1.74245  0.18555   
H -0.86890  -1.83455  -1.23336  
H -2.22234  0.43849   0.03867   
H -0.89398  2.54865   -0.40306  
C -0.50318  -0.73176  0.86075   
H -0.88566  -1.25579  1.70626   
13
image # 3 Energy = -286.84232
C 1.52594   0.42843   -0.06644  
C 0.82501   -0.86031  0.01934   
C -0.53197  -1.04896  -0.62222  
C -1.14393  0.36850   0.02231   
C -0.39583  1.60616   -0.25974  
N 0.93385   1.58782   -0.28551  
H 2.59367   0.44921   0.09688   
H 1.47357   -1.75557  0.10255   
H -0.81082  -1.93043  -1.23602  
H -2.23219  0.50420   0.12452   
H -0.88291  2.58014   -0.43578  
C -0.49868  -0.73202  0.83769   
H -0.88145  -1.21503  1.70676   
13
image # 4 Energy = -286.82833
C 1.50050   0.41375   -0.05692  
C 0.82624   -0.88617  -0.02938  
C -0.53368  -1.09870  -0.64336  
C -1.15971  0.39193   0.05149   
C -0.40537  1.62196   -0.27699  
N 0.92196   1.58725   -0.29878  
H 2.55632   0.45126   0.20837   
H 1.49512   -1.75201  0.01652   
H -0.76328  -2.00122  -1.22612  
H -2.23092  0.55720   0.20289   
H -0.87006  2.59243   -0.46685  
C -0.49855  -0.71726  0.80658   
H -0.87705  -1.18871  1.71580   
13
image # 5 Energy = -286.81183
C 1.47696   0.41127   -0.03973  
C 0.81711   -0.90002  -0.08923  
C -0.51689  -1.14647  -0.66064  
C -1.16196  0.43259   0.07862   
C -0.41452  1.62394   -0.29174  
N 0.91653   1.57605   -0.31123  
H 2.50302   0.44982   0.32302   
H 1.52400   -1.75350  -0.07646  
H -0.72602  -2.07967  -1.22026  
H -2.23467  0.60666   0.28005   
H -0.86227  2.60569   -0.50067  
C -0.50695  -0.70452  0.80035   
H -0.86218  -1.15787  1.70958   
13
image # 6 Energy = -286.79869
C 1.45014   0.40876   -0.02143  
C 0.83114   -0.91042  -0.14344  
C -0.50448  -1.20491  -0.68532  
C -1.17278  0.48378   0.12509   
C -0.42424  1.62608   -0.30938  
N 0.91622   1.56109   -0.31451  
H 2.43862   0.44181   0.43542   
H 1.54958   -1.74624  -0.17194  
H -0.69584  -2.15332  -1.20942  
H -2.22922  0.65079   0.34805   
H -0.85711  2.60930   -0.53695  
C -0.51190  -0.67536  0.77486   
H -0.84627  -1.13571  1.70664   
13
image # 7 Energy = -286.80650
C 1.44400   0.40007   -0.01594  
C 0.83434   -0.90740  -0.20732  
C -0.47449  -1.27251  -0.70818  
C -1.16457  0.58558   0.21187   
C -0.44010  1.61293   -0.33588  
N 0.91321   1.56991   -0.29117  
H 2.36648   0.42320   0.56791   
H 1.56245   -1.72567  -0.26450  
H -0.67721  -2.22754  -1.17247  
H -2.22415  0.69323   0.42714   
H -0.85735  2.58426   -0.59597  
C -0.53953  -0.67719  0.69890   
H -0.80466  -1.11040  1.67817   
13
image # 8 Energy = -286.80122
C 1.41557   0.39446   0.00954   
C 0.85104   -0.92294  -0.26474  
C -0.44364  -1.33017  -0.72756  
C -1.17606  0.63888   0.27990   
C -0.43932  1.63009   -0.34183  
N 0.91018   1.56244   -0.28744  
H 2.30551   0.40241   0.63969   
H 1.60030   -1.71625  -0.33257  
H -0.65330  -2.30291  -1.16459  
H -2.23254  0.73537   0.47456   
H -0.85849  2.58730   -0.62985  
C -0.55991  -0.64086  0.67939   
H -0.78294  -1.09436  1.65294   
13
image # 9 Energy = -286.78902
C 1.37333   0.37418   0.04028   
C 0.87563   -0.94161  -0.32343  
C -0.41679  -1.38209  -0.74068  
C -1.17671  0.69079   0.32672   
C -0.44778  1.64236   -0.33014  
N 0.90570   1.56037   -0.29041  
H 2.24672   0.37711   0.70284   
H 1.64870   -1.70695  -0.39692  
H -0.62861  -2.36871  -1.15758  
H -2.25066  0.77799   0.51714   
H -0.85882  2.59712   -0.66330  
C -0.57462  -0.59706  0.66629   
H -0.76057  -1.08354  1.62944   
13
image # 10 Energy = -286.77562
C 1.32421   0.34852   0.07869   
C 0.89626   -0.97142  -0.39419  
C -0.38200  -1.41836  -0.74234  
C -1.20089  0.73477   0.36766   
C -0.44605  1.67507   -0.32012  
N 0.89147   1.55392   -0.29466  
H 2.17956   0.34369   0.76425   
H 1.71008   -1.69688  -0.46313  
H -0.60568  -2.42348  -1.14572  
H -2.26175  0.81892   0.55577   
H -0.85745  2.60386   -0.69810  
C -0.58313  -0.55956  0.66291   
H -0.72908  -1.07157  1.60074   
13
image # 11 Energy = -286.78309
C 1.25820   0.31184   0.11935   
C 0.94513   -1.00407  -0.48983  
C -0.34333  -1.43130  -0.71087  
C -1.22287  0.77343   0.39160   
C -0.45296  1.70522   -0.29339  
N 0.87815   1.53536   -0.28162  
H 2.09862   0.29154   0.82363   
H 1.79038   -1.68837  -0.52737  
H -0.59411  -2.44019  -1.09765  
H -2.28567  0.86874   0.60071   
H -0.86174  2.61129   -0.75125  
C -0.60909  -0.53124  0.62068   
H -0.66451  -1.06635  1.55919   
13
image # 12 Energy = -286.79017
C 1.17416   0.25964   0.17548   
C 0.98628   -1.05477  -0.54272  
C -0.28102  -1.42884  -0.68637  
C -1.25743  0.78074   0.37336   
C -0.46030  1.72203   -0.27824  
N 0.85896   1.51387   -0.29345  
H 2.05391   0.26266   0.83423   
H 1.85197   -1.69106  -0.58078  
H -0.60818  -2.41332  -1.09623  
H -2.31358  0.87972   0.58563   
H -0.85850  2.62776   -0.75160  
C -0.58085  -0.46724  0.65824   
H -0.62897  -1.05693  1.55958   
13
image # 13 Energy = -286.82485
C 1.05188   0.17788   0.25867   
C 1.06301   -1.09109  -0.61573  
C -0.22345  -1.39664  -0.64476  
C -1.29444  0.76586   0.34926   
C -0.46309  1.73678   -0.26622  
N 0.81975   1.48297   -0.30548  
H 1.98390   0.22016   0.86716   
H 1.93124   -1.71737  -0.63423  
H -0.66465  -2.32486  -1.06144  
H -2.35092  0.87277   0.56533   
H -0.86561  2.62682   -0.76754  
C -0.50121  -0.39112  0.67675   
H -0.55046  -1.02848  1.53096   
13
image # 14 Energy = -286.80762
C 1.03320   0.19159   0.27887   
C 1.01236   -1.07200  -0.56647  
C -0.24482  -1.46541  -0.80052  
C -1.24649  0.79225   0.43576   
C -0.45288  1.74646   -0.28296  
N 0.83255   1.49455   -0.35922  
H 1.93675   0.23364   0.90753   
H 1.90001   -1.71290  -0.59123  
H -0.68297  -2.39456  -1.18070  
H -2.32418  0.78264   0.53785   
H -0.87623  2.62072   -0.78886  
C -0.40255  -0.26174  0.80155   
H -0.54668  -1.02041  1.55828   
13
image # 15 Energy = -286.80411
C 1.05647   0.21342   0.26820   
C 0.97254   -1.07918  -0.52656  
C -0.23676  -1.55649  -0.82619  
C -1.23949  0.79518   0.44575   
C -0.43620  1.75040   -0.29967  
N 0.83052   1.47971   -0.38029  
H 1.96528   0.26454   0.88694   
H 1.87564   -1.66756  -0.64776  
H -0.60762  -2.48468  -1.25107  
H -2.31908  0.80476   0.53239   
H -0.84640  2.65011   -0.72967  
C -0.42660  -0.21478  0.89162   
H -0.64720  -1.01560  1.58322   
13
image # 16 Energy = -286.81682
C 1.01087   0.18756   0.29056   
C 0.96975   -1.09380  -0.52795  
C -0.20663  -1.62793  -0.82627  
C -1.24545  0.82424   0.45930   
C -0.43600  1.74480   -0.29053  
N 0.83022   1.45255   -0.40095  
H 1.92794   0.25820   0.89733   
H 1.90840   -1.62454  -0.73016  
H -0.55014  -2.54672  -1.28481  
H -2.33101  0.84043   0.54381   
H -0.82383  2.68408   -0.70894  
C -0.42558  -0.15590  0.94021   
H -0.68388  -0.99627  1.58176   
13
image # 17 Energy = -286.82632
C 0.96438   0.15830   0.30688   
C 0.97743   -1.11209  -0.53599  
C -0.17938  -1.69943  -0.81617  
C -1.25717  0.83829   0.47865   
C -0.42115  1.76508   -0.29491  
N 0.81724   1.42997   -0.41554  
H 1.89069   0.24846   0.90541   
H 1.93079   -1.56494  -0.81174  
H -0.47488  -2.61780  -1.30684  
H -2.33827  0.89779   0.57041   
H -0.79357  2.70583   -0.68394  
C -0.44298  -0.12339  0.97207   
H -0.72452  -0.97081  1.57286   
13
image # 18 Energy = -286.83151
C 0.90794   0.13327   0.30640   
C 0.98292   -1.13096  -0.55174  
C -0.13288  -1.77076  -0.80023  
C -1.26351  0.87105   0.48593   
C -0.41213  1.76806   -0.28508  
N 0.80692   1.40217   -0.42336  
H 1.85469   0.23542   0.91577   
H 1.93694   -1.49325  -0.88720  
H -0.39053  -2.69833  -1.32568  
H -2.34273  0.96608   0.60892   
H -0.76299  2.73322   -0.66491  
C -0.46121  -0.10036  0.99229   
H -0.76942  -0.95144  1.56840   
13
image # 19 Energy = -286.83597
C 0.89209   0.10213   0.31732   
C 0.97387   -1.13031  -0.55653  
C -0.09471  -1.85395  -0.79344  
C -1.27400  0.89438   0.50033   
C -0.42356  1.79105   -0.27801  
N 0.80799   1.36697   -0.42825  
H 1.80239   0.22108   0.91107   
H 1.94793   -1.42622  -0.95808  
H -0.30085  -2.76762  -1.33207  
H -2.33614  1.03910   0.65089   
H -0.73227  2.75174   -0.64668  
C -0.48478  -0.07034  0.98218   
H -0.81887  -0.94384  1.57277   
13
image # 20 Energy = -286.83876
C 0.86139   0.07380   0.32557   
C 0.96738   -1.13900  -0.56795  
C -0.04992  -1.93026  -0.78723  
C -1.28294  0.93237   0.51793   
C -0.39581  1.79119   -0.26968  
N 0.77666   1.35161   -0.43375  
H 1.74973   0.19929   0.91903   
H 1.95132   -1.35520  -1.02610  
H -0.20825  -2.84016  -1.33522  
H -2.32843  1.11398   0.70104   
H -0.70748  2.77713   -0.64181  
C -0.50926  -0.06793  0.97790   
H -0.85981  -0.92321  1.56739   
13
image # 21 Energy = -286.84225
C 0.79885   0.05149   0.31280   
C 0.98550   -1.14749  -0.58607  
C -0.00999  -2.00865  -0.78066  
C -1.27019  0.95931   0.53949   
C -0.39992  1.80677   -0.25904  
N 0.77866   1.32941   -0.44477  
H 1.71446   0.17460   0.94053   
H 1.93478   -1.28146  -1.08605  
H -0.10934  -2.91674  -1.33848  
H -2.32546  1.19448   0.75825   
H -0.67959  2.79750   -0.63980  
C -0.54494  -0.06919  0.97228   
H -0.90076  -0.90086  1.56342   
13
image # 22 Energy = -286.84359
C 0.76654   0.03809   0.29611   
C 0.96903   -1.16373  -0.60957  
C 0.05795   -2.07032  -0.76734  
C -1.30598  1.00420   0.57051   
C -0.39679  1.83604   -0.25755  
N 0.78111   1.31072   -0.46235  
H 1.66966   0.14383   0.96372   
H 1.91721   -1.21195  -1.13886  
H -0.01010  -3.00052  -1.34628  
H -2.29863  1.26947   0.81522   
H -0.65138  2.80899   -0.63845  
C -0.57263  -0.07571  0.95791   
H -0.94698  -0.89514  1.57542   
13
image # 23 Energy = -286.84701
C 0.75978   0.02762   0.27971   
C 0.96108   -1.16306  -0.62387  
C 0.11146   -2.15114  -0.76935  
C -1.28771  1.04622   0.58895   
C -0.38962  1.84335   -0.24686  
N 0.76479   1.29788   -0.47804  
H 1.60844   0.10769   0.98172   
H 1.90386   -1.15182  -1.18638  
H 0.08297   -3.06786  -1.34586  
H -2.29763  1.34182   0.87739   
H -0.62666  2.82563   -0.64396  
C -0.62580  -0.07859  0.95748   
H -0.97875  -0.88088  1.57908   
13
image # 24 Energy = -286.84772
C 0.71202   0.00408   0.26891   
C 0.96920   -1.16285  -0.64459  
C 0.16757   -2.22818  -0.77393  
C -1.29631  1.09595   0.61915   
C -0.38366  1.85550   -0.24017  
N 0.74915   1.27461   -0.48308  
H 1.53986   0.06979   0.99508   
H 1.88415   -1.10025  -1.23014  
H 0.17928   -3.12956  -1.34194  
H -2.27515  1.40713   0.93362   
H -0.60424  2.83735   -0.64835  
C -0.64414  -0.06849  0.95772   
H -1.00464  -0.85613  1.57231   
13
image # 25 Energy = -286.85056
C 0.66926   -0.01473  0.25635   
C 0.96253   -1.18496  -0.66444  
C 0.23170   -2.26906  -0.77487  
C -1.28676  1.12556   0.65380   
C -0.37641  1.86467   -0.23312  
N 0.73148   1.25548   -0.48925  
H 1.47498   0.03313   1.01021   
H 1.86952   -1.05883  -1.26728  
H 0.26375   -3.19017  -1.34304  
H -2.26208  1.46476   0.98434   
H -0.58452  2.84704   -0.65573  
C -0.66736  -0.03136  0.94990   
H -1.02609  -0.84153  1.57313   
