13   
From optimize.out: Frame 1 / 2, Energy=    -286.8364833336
C        1.5871009538    0.3755264582   -0.3116244312
C        0.7821350691   -0.8577647211   -0.0688524155
C       -0.5626290120   -0.5793790896   -0.6572543254
C       -0.8327764020    0.7412134938    0.9847469708
C       -0.5271697749    0.9883524455   -0.4982458957
N        0.8917849901    1.4119936331   -0.5985757953
H        2.6718718654    0.4221695134   -0.2212875333
H        1.2116614490   -1.8546572397   -0.0957778496
H       -1.1227289481   -1.1920031248   -1.3577921109
H       -1.7095061515    1.1068612456    1.5072487067
H       -1.1953502009    1.6215094683   -1.0817421650
C       -0.4585775688   -0.6819958159    0.8723179200
H       -0.7358162694   -1.5018262667    1.5268389245
