13   
From optimize.out: Frame 1 / 5, Energy=    -286.8505190740
C       -0.0938840000    0.0730440000    0.0000000000
C       -0.0785170000   -0.1645950000   -0.0000000000
C       -0.1942260000    1.0448070000   -0.0000000000
C       -0.1412500000    0.0036960000    0.0000000000
C        0.0519700000    0.0081810000   -0.0000000000
N       -0.3664410000   -0.0019260000   -0.0000000000
H        0.1747920000   -0.0035330000    0.0000000000
H        0.1590270000    0.0377730000   -0.0000000000
H        0.1601980000    0.0015200000    0.0000000000
H        0.1427400000    0.0002750000    0.0000000000
H        0.1452460000    0.0007530000   -0.0000000000
C       -0.1119070000    0.0001500000    0.0000000000
H        0.1522520000   -0.0001450000    0.0000000000
13   
From optimize.out: Frame 2 / 5, Energy=    -286.8505749504
C       -0.0947040000    0.0729060000    0.0000000000
C       -0.0771480000   -0.1641590000   -0.0000000000
C       -0.1942680000    1.0444460000   -0.0000000000
C       -0.1410420000    0.0033290000    0.0000000000
C        0.0519530000    0.0084430000   -0.0000000000
N       -0.3650950000   -0.0025560000   -0.0000000000
H        0.1739180000   -0.0034690000    0.0000000000
H        0.1584480000    0.0375900000   -0.0000000000
H        0.1604050000    0.0015810000    0.0000000000
H        0.1427750000    0.0003210000    0.0000000000
H        0.1451700000    0.0007070000   -0.0000000000
C       -0.1128750000    0.0010430000    0.0000000000
H        0.1524630000   -0.0001810000    0.0000000000
13   
From optimize.out: Frame 3 / 5, Energy=    -286.8505925824
C       -0.0954950000    0.0727380000    0.0000000000
C       -0.0756820000   -0.1637110000   -0.0000000000
C       -0.1944270000    1.0441210000   -0.0000000000
C       -0.1412460000    0.0028300000    0.0000000000
C        0.0521270000    0.0088240000   -0.0000000000
N       -0.3635890000   -0.0033750000   -0.0000000000
H        0.1732220000   -0.0033820000    0.0000000000
H        0.1576210000    0.0373550000   -0.0000000000
H        0.1605660000    0.0017170000   -0.0000000000
H        0.1428260000    0.0003970000    0.0000000000
H        0.1452000000    0.0006080000   -0.0000000000
C       -0.1137850000    0.0021030000    0.0000000000
H        0.1526620000   -0.0002250000    0.0000000000
13   
From optimize.out: Frame 4 / 5, Energy=    -286.8505973773
C       -0.0953200000    0.0727260000    0.0000000000
C       -0.0758790000   -0.1637980000   -0.0000000000
C       -0.1943420000    1.0441980000   -0.0000000000
C       -0.1410390000    0.0029090000    0.0000000000
C        0.0520450000    0.0087500000   -0.0000000000
N       -0.3638450000   -0.0032990000   -0.0000000000
H        0.1732710000   -0.0033850000    0.0000000000
H        0.1577400000    0.0373250000   -0.0000000000
H        0.1605600000    0.0017440000   -0.0000000000
H        0.1427680000    0.0003830000    0.0000000000
H        0.1452350000    0.0006340000   -0.0000000000
C       -0.1137760000    0.0020360000    0.0000000000
H        0.1525810000   -0.0002210000    0.0000000000
