
Running Job 1 of 1 optimize.in
qchem optimize.in_8531.0 ./optimize.d/ 1
/home/leeping/opt/qchem/5.0.2-openmp/exe/qcprog.exe_s optimize.in_8531.0 ./optimize.d/
Check license passed

                  Welcome to Q-Chem
     A Quantum Leap Into The Future Of Chemistry


 Q-Chem 5.0, Q-Chem, Inc., Pleasanton, CA (2017)

 Yihan Shao,  Zhengting Gan,  E. Epifanovsky,  A. T. B. Gilbert,  M. Wormit,  
 J. Kussmann,  A. W. Lange,  A. Behn,  Jia Deng,  Xintian Feng,  D. Ghosh,  
 M. Goldey,  P. R. Horn,  L. D. Jacobson,  I. Kaliman,  T. Kus,  A. Landau,  
 Jie Liu,  E. I. Proynov,  R. M. Richard,  R. P. Steele,  E. J. Sundstrom,  
 H. L. Woodcock III,  P. M. Zimmerman,  D. Zuev,  B. Albrecht,  E. Alguire,  
 S. A. Baeppler,  D. Barton,  Z. Benda,  Y. A. Bernard,  E. J. Berquist,  
 K. B. Bravaya,  H. Burton,  D. Casanova,  Chun-Min Chang,  Yunqing Chen,  
 A. Chien,  K. D. Closser,  M. P. Coons,  S. Dasgupta,  A. L. Dempwolff,  
 M. Diedenhofen,  Hainam Do,  R. G. Edgar,  Po-Tung Fang,  S. Fatehi,  
 Qingguo Feng,  J. Fosso-Tande,  Qinghui Ge,  A. Ghysels,  G. Gidofalvi,  
 J. Gomes,  J. Gonthier,  A. Gunina,  M. W. D. Hanson-Heine,  
 P. H. P. Harbach,  A. W. Hauser,  J. E. Herr,  E. G. Hohenstein,  
 Z. C. Holden,  Kerwin Hui,  T.-C. Jagau,  Hyunjun Ji,  B. Kaduk,  
 K. Khistyaev,  Jaehoon Kim,  P. Klunzinger,  K. Koh,  D. Kosenkov,  
 L. Koulias,  T. Kowalczyk,  C. M. Krauter,  A. Kunitsa,  Ka Un Lao,  
 A. Laurent,  K. V. Lawler,  Joonho Lee,  D. Lefrancois,  S. Lehtola,  
 D. S. Levine,  Yi-Pei Li,  You-Sheng Lin,  Fenglai Liu,  E. Livshits,  
 A. Luenser,  P. Manohar,  E. Mansoor,  S. F. Manzer,  Shan-Ping Mao,  
 Yuezhi Mao,  N. Mardirossian,  A. V. Marenich,  T. Markovich,  
 L. A. Martinez-Martinez,  S. A. Maurer,  N. J. Mayhall,  S. C. McKenzie,  
 J.-M. Mewes,  A. F. Morrison,  J. W. Mullinax,  K. Nanda,  
 T. S. Nguyen-Beck,  R. Olivares-Amaya,  J. A. Parkhill,  T. M. Perrine,  
 F. Plasser,  S. Prager,  A. Prociuk,  E. Ramos,  D. R. Rehn,  F. Rob,  
 M. Schneider,  N. Sergueev,  S. M. Sharada,  S. Sharma,  D. W. Small,  
 T. Stauch,  T. Stein,  Yu-Chuan Su,  A. J. W. Thom,  A. Tkatchenko,  
 T. Tsuchimochi,  L. Vogt,  O. Vydrov,  M. A. Watson,  J. Wenzel,  
 M. de Wergifosse,  T. A. Wesolowski,  A. White,  J. Witte,  A. Yamada,  
 Jun Yang,  K. Yao,  S. Yeganeh,  S. R. Yost,  Zhi-Qiang You,  A. Zech,  
 Igor Ying Zhang,  Xing Zhang,  Yan Zhao,  Ying Zhu,  B. R. Brooks,  
 G. K. L. Chan,  C. J. Cramer,  M. S. Gordon,  W. J. Hehre,  A. Klamt,  
 M. W. Schmidt,  C. D. Sherrill,  D. G. Truhlar,  A. Aspuru-Guzik,  R. Baer,  
 A. T. Bell,  N. A. Besley,  Jeng-Da Chai,  R. A. DiStasio Jr.,  A. Dreuw,  
 B. D. Dunietz,  T. R. Furlani,  Chao-Ping Hsu,  Yousung Jung,  Jing Kong,  
 D. S. Lambrecht,  WanZhen Liang,  C. Ochsenfeld,  V. A. Rassolov,  
 L. V. Slipchenko,  J. E. Subotnik,  T. Van Voorhis,  J. M. Herbert,  
 A. I. Krylov,  P. M. W. Gill,  M. Head-Gordon

 Contributors to earlier versions of Q-Chem not listed above: 
 R. D. Adamson,  B. Austin,  J. Baker,  G. J. O. Beran,  K. Brandhorst,  
 S. T. Brown,  E. F. C. Byrd,  A. K. Chakraborty,  C.-L. Cheng,  
 Siu Hung Chien,  D. M. Chipman,  D. L. Crittenden,  H. Dachsel,  
 R. J. Doerksen,  A. D. Dutoi,  L. Fusti-Molnar,  W. A. Goddard III,  
 A. Golubeva-Zadorozhnaya,  S. R. Gwaltney,  G. Hawkins,  A. Heyden,  
 S. Hirata,  G. Kedziora,  F. J. Keil,  C. Kelley,  Jihan Kim,  R. A. King,  
 R. Z. Khaliullin,  P. P. Korambath,  W. Kurlancheek,  A. M. Lee,  M. S. Lee,  
 S. V. Levchenko,  Ching Yeh Lin,  D. Liotard,  R. C. Lochan,  I. Lotan,  
 P. E. Maslen,  N. Nair,  D. P. O'Neill,  D. Neuhauser,  E. Neuscamman,  
 C. M. Oana,  R. Olson,  B. Peters,  R. Peverati,  P. A. Pieniazek,  
 Y. M. Rhee,  J. Ritchie,  M. A. Rohrdanz,  E. Rosta,  N. J. Russ,  
 H. F. Schaefer III,  N. E. Schultz,  N. Shenvi,  A. C. Simmonett,  A. Sodt,  
 D. Stuck,  K. S. Thanthiriwatte,  V. Vanovschi,  Tao Wang,  A. Warshel,  
 C. F. Williams,  Q. Wu,  X. Xu,  W. Zhang

 Please cite Q-Chem as follows:
 Y. Shao et al., Mol. Phys. 113, 184-215 (2015)
 DOI: 10.1080/00268976.2014.952696

 Q-Chem 5.0.2 for Intel X86 EM64T Linux

 Parts of Q-Chem use Armadillo 5.200.1 (Boston Tea Smuggler).
 http://arma.sourceforge.net/

 Q-Chem begins on Tue Mar  1 19:58:23 2022  

Host: 
0

     Scratch files written to ./optimize.d//
 Dec517 15110_ 26548  26544 5633   
Processing $rem in /home/leeping/opt/qchem/5.0.2-openmp/config/preferences.
 MEM_STATIC 2000
 MEM_TOTAL  8000
 SYMMETRY   OFF
 SYM_IGNORE TRUE 

Checking the input file for inconsistencies... 	...done.

--------------------------------------------------------------
User input:
--------------------------------------------------------------
$molecule
0 2
C        1.6868280310    0.3354855984   -2.4364632468
C        1.3635740912   -1.0992734445   -2.3814419338
C       -0.2014787854   -1.2991263815   -2.4393932819
C       -1.3246924915    0.4273759589   -1.0343598414
C       -0.7883465801    1.1798098045   -2.2209108852
N        0.8123315424    1.3076615743   -2.7861737250
H        2.6970111827    0.8517521343   -2.5755200879
H        2.0466138620   -1.8906804747   -2.0027881981
H       -0.2514649951   -1.3129652307   -3.5864670442
H       -0.9393103929    0.8104862214   -0.0890741649
H       -1.7262144881    1.5701219789   -2.7080934136
C       -1.6970773217   -0.9786671917   -1.1378104749
H       -1.9665556925   -1.7320957924   -0.5285007398
$end

$rem
method                b3lyp
basis                 6-31g(d)
unrestricted          true
symmetry              off
sym_ignore            true
incdft                false
incfock               0
scf_convergence       8
thresh                14
jobtype               opt
scf_guess             read
scf_algorithm         diis
max_scf_cycles        100
geom_opt_tol_gradient 600
geom_opt_tol_displacement 2400
geom_opt_tol_energy   200
geom_opt_max_cycles   100
$end

--------------------------------------------------------------
 ----------------------------------------------------------------
             Standard Nuclear Orientation (Angstroms)
    I     Atom           X                Y                Z
 ----------------------------------------------------------------
    1      C       1.6868280310     0.3354855984    -2.4364632468
    2      C       1.3635740912    -1.0992734445    -2.3814419338
    3      C      -0.2014787854    -1.2991263815    -2.4393932819
    4      C      -1.3246924915     0.4273759589    -1.0343598414
    5      C      -0.7883465801     1.1798098045    -2.2209108852
    6      N       0.8123315424     1.3076615743    -2.7861737250
    7      H       2.6970111827     0.8517521343    -2.5755200879
    8      H       2.0466138620    -1.8906804747    -2.0027881981
    9      H      -0.2514649951    -1.3129652307    -3.5864670442
   10      H      -0.9393103929     0.8104862214    -0.0890741649
   11      H      -1.7262144881     1.5701219789    -2.7080934136
   12      C      -1.6970773217    -0.9786671917    -1.1378104749
   13      H      -1.9665556925    -1.7320957924    -0.5285007398
 ----------------------------------------------------------------
 Nuclear Repulsion Energy =   243.7795205573 hartrees
 There are       25 alpha and       24 beta electrons
 Requested basis set is 6-31G(d)
 There are 40 shells and 117 basis functions

 Total QAlloc Memory Limit   8000 MB
 Mega-Array Size      1956 MB
 MEM_STATIC part      2000 MB
 A cutoff of  1.0D-14 yielded    792 shell pairs
 There are      7041 function pairs
 
 -------------------------------------------------------
 OpenMP Integral Computing Module                       
 Release: version 1.0, May 2013, Q-Chem Inc. Pittsburgh 
 -------------------------------------------------------
 Integral Job Info:
 Integral job number is                      11
 Integral operator is                         1
 short-range coefficients                     0
 long-range coefficients              100000000
 Omega coefficients                           0
 if combine SR and LR in K                    0
 Integral screening is                        0
 Integral computing path is                   2
 max size of driver memory is            800000
 size of driver memory is                593474
 size of scratch memory is              2361544
 max col of scratch BK array               1296
 max len of scratch array in speh3          155
 max len of scratch index in speh4           18
 max int batch size is                      520
 min int batch size is                       52
 fixed nKL is                                52
 max L of basis functions is                  2
 order of int derivative is                   0
 number of shells is                         40
 number of basis is                         117
 number of cartesian basis is               117
 number of contracted shell pairs           792
 number of primitive shell pairs           3347
 maxK2 (contraction) of shell pair           36
 max number of K2 of shell pair               1
 max number of CS2 of shell pair             87
 max number of PS2 of shell pair            420
 mem total for path MDJ                  532812
 -------------------------------------------------------
 Smallest overlap matrix eigenvalue = 3.95E-03

 Scale SEOQF with 1.000000e-01/1.000000e-01/1.000000e-01

 Standard Electronic Orientation quadrupole field applied
 Nucleus-field energy     =    -0.0000000180 hartrees
 Guess MOs from SCF MO coefficient file
 Reading MOs from coefficient file
 Reading MOs from coefficient file
 An unrestricted hybrid HF-DFT SCF calculation will be
 performed using Pulay DIIS extrapolation
 Exchange:     0.2000 Hartree-Fock + 0.0800 Slater + 0.7200 B88
 Correlation:  0.1900 VWN1RPA + 0.8100 LYP
 Using SG-1 standard quadrature grid
 SCF converges when DIIS error is below 1.0E-08
Using Q-Chem read-in guess as SCF_GUESS READ specified.

 using 4 threads for integral computing
 -------------------------------------------------------
 OpenMP Integral computing Module                
 Release: version 1.0, May 2013, Q-Chem Inc. Pittsburgh 
 -------------------------------------------------------
 -------------------------------------------------------
 OpenMP BLAS3 based DFT computing Module                
 Release: version 1.0, May 2013, Q-Chem Inc. Pittsburgh 
 -------------------------------------------------------
 ---------------------------------------
  Cycle       Energy         DIIS Error
 ---------------------------------------
    1    -286.5779459517      2.72E-09
    2    -286.5779459517      3.37E-09 Convergence criterion met
 ---------------------------------------
 <S^2> = 1.2911
 SCF time:  CPU 5.12 s  wall 3.85 s
 SCF   energy in the final basis set = -286.57794595
 Total energy in the final basis set = -286.57794595
 
 --------------------------------------------------------------
 
                    Orbital Energies (a.u.)
 --------------------------------------------------------------
 
 Alpha MOs
 -- Occupied --
-14.366 -10.255 -10.247 -10.246 -10.240 -10.236 -10.229  -0.884
 -0.778  -0.744  -0.660  -0.619  -0.554  -0.522  -0.473  -0.468
 -0.413  -0.411  -0.375  -0.336  -0.328  -0.283  -0.241  -0.227
 -0.204
 -- Virtual --
 -0.075  -0.064  -0.018   0.042   0.083   0.128   0.137   0.141
  0.144   0.155   0.173   0.215   0.275   0.313   0.321   0.368
  0.492   0.493   0.530   0.541   0.553   0.562   0.590   0.602
  0.607   0.618   0.635   0.658   0.686   0.726   0.758   0.782
  0.792   0.804   0.824   0.851   0.854   0.866   0.874   0.877
  0.936   0.944   0.974   1.005   1.022   1.061   1.134   1.186
  1.239   1.311   1.403   1.442   1.501   1.511   1.596   1.654
  1.686   1.707   1.722   1.763   1.778   1.824   1.878   1.913
  1.930   1.980   1.985   2.028   2.075   2.110   2.141   2.158
  2.216   2.250   2.262   2.315   2.429   2.466   2.504   2.583
  2.643   2.670   2.724   2.815   2.873   3.776   4.005   4.080
  4.174   4.223   4.372   4.378
 
 Beta MOs
 -- Occupied --
-14.358 -10.264 -10.242 -10.240 -10.237 -10.233 -10.229  -0.873
 -0.783  -0.722  -0.661  -0.605  -0.552  -0.517  -0.468  -0.464
 -0.413  -0.411  -0.364  -0.326  -0.316  -0.279  -0.223  -0.214
 -- Virtual --
 -0.102  -0.068  -0.041  -0.003   0.059   0.075   0.132   0.141
  0.144   0.148   0.156   0.171   0.223   0.269   0.315   0.333
  0.374   0.492   0.501   0.529   0.549   0.562   0.574   0.584
  0.602   0.613   0.620   0.644   0.657   0.693   0.733   0.763
  0.788   0.796   0.813   0.829   0.853   0.858   0.866   0.879
  0.880   0.943   0.951   0.980   1.007   1.032   1.066   1.138
  1.190   1.233   1.317   1.408   1.457   1.501   1.514   1.615
  1.663   1.698   1.721   1.736   1.784   1.800   1.829   1.888
  1.909   1.934   1.970   1.994   2.036   2.095   2.125   2.149
  2.151   2.223   2.253   2.277   2.316   2.435   2.461   2.523
  2.592   2.647   2.669   2.725   2.815   2.877   3.787   4.018
  4.084   4.186   4.216   4.365   4.390
 --------------------------------------------------------------
 
          Ground-State Mulliken Net Atomic Charges

     Atom                 Charge (a.u.)    Spin (a.u.)
  --------------------------------------------------------
      1 C                     0.053572      -0.221190
      2 C                    -0.176234       0.463986
      3 C                    -0.206121       0.775165
      4 C                    -0.163918      -0.269881
      5 C                    -0.051382      -0.669233
      6 N                    -0.355679       0.417353
      7 H                     0.154715       0.015601
      8 H                     0.167152      -0.004390
      9 H                     0.176680      -0.035942
     10 H                     0.174699       0.039136
     11 H                     0.181192       0.034451
     12 C                    -0.129866       0.473332
     13 H                     0.175191      -0.018386
  --------------------------------------------------------
  Sum of atomic charges =     0.000000
  Sum of spin   charges =     1.000000

 -----------------------------------------------------------------
                    Cartesian Multipole Moments
 -----------------------------------------------------------------
    Charge (ESU x 10^10)
                 0.0000
    Dipole Moment (Debye)
         X      -0.1730      Y      -1.3151      Z       1.4743
       Tot       1.9832
    Quadrupole Moments (Debye-Ang)
        XX     -38.0753     XY      -2.6373     YY     -43.2031
        XZ      -0.1234     YZ       3.3805     ZZ     -46.8910
    Octopole Moments (Debye-Ang^2)
       XXX      12.6067    XXY       0.8617    XYY      -2.3748
       YYY      -3.4579    XXZ      79.6966    XYZ      10.2146
       YYZ      95.1309    XZZ      -3.2477    YZZ     -10.4747
       ZZZ     275.5744
    Hexadecapole Moments (Debye-Ang^3)
      XXXX    -443.8432   XXXY      -5.4653   XXYY    -116.4035
      XYYY     -18.9375   YYYY    -343.0929   XXXZ      49.8559
      XXYZ      -9.4505   XYYZ      30.3127   YYYZ      21.2559
      XXZZ    -271.3805   XYZZ     -29.0965   YYZZ    -290.3072
      XZZZ     100.0912   YZZZ      52.4477   ZZZZ   -1293.4763
 -----------------------------------------------------------------
 Calculating analytic gradient of the SCF energy
 Gradient of SCF Energy
            1           2           3           4           5           6
    1   0.0008141   0.0432903  -0.0130846  -0.0255129  -0.0504692   0.0983212
    2   0.0149227  -0.0565846   0.0116246   0.0783584   0.0315311  -0.0040392
    3   0.0216601  -0.0440435   0.0166485   0.0000986   0.0235424  -0.0427720
            7           8           9          10          11          12
    1   0.0139032   0.0076191   0.0304004   0.0208700  -0.0370594  -0.1064858
    2   0.0320840  -0.0124565  -0.0007673  -0.0075500  -0.0089372  -0.1237812
    3  -0.0082592   0.0098469  -0.0274458  -0.0122017   0.0140963   0.0966603
           13
    1   0.0173937
    2   0.0455951
    3  -0.0478309
 Max gradient component =       1.238E-01
 RMS gradient           =       4.442E-02
 Gradient time:  CPU 7.48 s  wall 5.17 s
 Geometry Optimization Parameters
   NAtoms,    NIC,     NZ,  NCons,   NDum,   NFix, NCnnct, MaxDiis
       13      82       0       0       0       0       0       0


** GEOMETRY OPTIMIZATION IN DELOCALIZED INTERNAL COORDINATES **
   Searching for a Minimum

   Optimization Cycle:   1

                       Coordinates (Angstroms)
     ATOM                X               Y               Z
      1  C         1.6868280310    0.3354855984   -2.4364632468
      2  C         1.3635740912   -1.0992734445   -2.3814419338
      3  C        -0.2014787854   -1.2991263815   -2.4393932819
      4  C        -1.3246924915    0.4273759589   -1.0343598414
      5  C        -0.7883465801    1.1798098045   -2.2209108852
      6  N         0.8123315424    1.3076615743   -2.7861737250
      7  H         2.6970111827    0.8517521343   -2.5755200879
      8  H         2.0466138620   -1.8906804747   -2.0027881981
      9  H        -0.2514649951   -1.3129652307   -3.5864670442
     10  H        -0.9393103929    0.8104862214   -0.0890741649
     11  H        -1.7262144881    1.5701219789   -2.7080934136
     12  C        -1.6970773217   -0.9786671917   -1.1378104749
     13  H        -1.9665556925   -1.7320957924   -0.5285007398
   Point Group: c1    Number of degrees of freedom:    33


   Energy is   -286.577945952


 Attempting to Generate Delocalized Internal Coordinates

 33 Hessian modes will be used to form the next step
  Hessian Eigenvalues:
     0.003010    0.005386    0.007949    0.008802    0.013513    0.016151
     0.016834    0.018082    0.024383    0.045936    0.089884    0.094862
     0.140350    0.146648    0.153056    0.154264    0.159635    0.167932
     0.185943    0.200938    0.208249    0.227841    0.250425    0.288643
     0.293461    0.307208    0.309012    0.324032    0.346300    0.347725
     0.367205    0.466916    0.525975

 Minimum Search - Taking Simple RFO Step
 Searching for Lamda that Minimizes Along All modes
 Value Taken    Lamda =  -0.14734688
 Calculated Step too Large.  Step scaled by  0.439069
 Step Taken.  Stepsize is  0.300000

                             Maximum     Tolerance    Cnvgd?
         Gradient           0.105997      0.000600      NO
         Displacement       0.129800      0.002400      NO
         Energy change     *********      0.000002      NO


 New Cartesian Coordinates Obtained by Inverse Iteration

 Displacement from previous Coordinates is:  0.456131
 ----------------------------------------------------------------
             Standard Nuclear Orientation (Angstroms)
    I     Atom           X                Y                Z
 ----------------------------------------------------------------
    1      C       1.6371707207     0.3453970704    -2.4104036945
    2      C       1.3077777649    -1.0625240232    -2.3657681089
    3      C      -0.2211102263    -1.2911349515    -2.4530753167
    4      C      -1.2728300068     0.3995384564    -1.0549032625
    5      C      -0.7515132305     1.1551212548    -2.2401974408
    6      N       0.7754093181     1.3208617399    -2.7640934264
    7      H       2.6565662380     0.8157652106    -2.5229124576
    8      H       1.9877054082    -1.8435496976    -1.9843366627
    9      H      -0.3317534533    -1.3030838908    -3.5819370123
   10      H      -0.9203010480     0.7962510211    -0.0992840408
   11      H      -1.6527785922     1.5519411248    -2.7644222207
   12      C      -1.6171323955    -0.9753951151    -1.1621772270
   13      H      -1.8859925354    -1.7393034446    -0.5234861666
 ----------------------------------------------------------------
 Nuclear Repulsion Energy =   248.6677502381 hartrees
 There are       25 alpha and       24 beta electrons
 Applying Cartesian multipole field
    Component          Value
    ---------          -----
     (2,0,0)        1.00000E-11
     (0,2,0)        2.00000E-11
     (0,0,2)       -3.00000E-11
 Nucleus-field energy     =    -0.0000000183 hartrees
 Requested basis set is 6-31G(d)
 There are 40 shells and 117 basis functions
 A cutoff of  1.0D-14 yielded    798 shell pairs
 There are      7065 function pairs
 Smallest overlap matrix eigenvalue = 3.65E-03
 Guess MOs from SCF MO coefficient file
 Reading MOs from coefficient file
 Reading MOs from coefficient file
 An unrestricted hybrid HF-DFT SCF calculation will be
 performed using Pulay DIIS extrapolation
 Exchange:     0.2000 Hartree-Fock + 0.0800 Slater + 0.7200 B88
 Correlation:  0.1900 VWN1RPA + 0.8100 LYP
 Using SG-1 standard quadrature grid
 SCF converges when DIIS error is below 1.0E-08
 Geometry optimization detected.  Setting ReadMinima to 0
 Setting SaveMinima to 0
Using Q-Chem read-in guess as SCF_GUESS READ specified.

 using 4 threads for integral computing
 -------------------------------------------------------
 OpenMP Integral computing Module                
 Release: version 1.0, May 2013, Q-Chem Inc. Pittsburgh 
 -------------------------------------------------------
 -------------------------------------------------------
 OpenMP BLAS3 based DFT computing Module                
 Release: version 1.0, May 2013, Q-Chem Inc. Pittsburgh 
 -------------------------------------------------------
 ---------------------------------------
  Cycle       Energy         DIIS Error
 ---------------------------------------
    1    -286.7379303301      2.90E-03
    2    -286.6359974006      1.37E-03
    3    -286.6352563443      1.58E-03
    4    -286.6396094168      6.06E-04
    5    -286.6403090956      1.28E-04
    6    -286.6403754593      6.14E-05
    7    -286.6404216855      3.13E-05
    8    -286.6404456062      2.62E-05
    9    -286.6404799372      1.29E-05
   10    -286.6405028662      1.01E-05
   11    -286.6405116608      3.62E-06
   12    -286.6405183858      2.90E-06
   13    -286.6405202979      1.85E-06
   14    -286.6405217674      1.69E-06
   15    -286.6405223497      1.26E-06
   16    -286.6405226639      6.72E-07
   17    -286.6405227484      1.70E-07
   18    -286.6405227520      4.99E-08
   19    -286.6405227523      2.79E-08
   20    -286.6405227525      9.61E-09 Convergence criterion met
 ---------------------------------------
 <S^2> = 1.0888
 SCF time:  CPU 50.11 s  wall 39.88 s
 SCF   energy in the final basis set = -286.64052275
 Total energy in the final basis set = -286.64052275
 
 --------------------------------------------------------------
 
                    Orbital Energies (a.u.)
 --------------------------------------------------------------
 
 Alpha MOs
 -- Occupied --
-14.361 -10.257 -10.244 -10.239 -10.233 -10.227 -10.225  -0.893
 -0.786  -0.749  -0.661  -0.625  -0.554  -0.524  -0.476  -0.469
 -0.423  -0.418  -0.381  -0.341  -0.330  -0.288  -0.243  -0.227
 -0.201
 -- Virtual --
 -0.071  -0.058  -0.002   0.058   0.105   0.133   0.139   0.149
  0.150   0.158   0.187   0.231   0.281   0.327   0.338   0.384
  0.492   0.494   0.530   0.546   0.553   0.564   0.587   0.603
  0.612   0.621   0.640   0.656   0.684   0.719   0.748   0.788
  0.796   0.808   0.834   0.851   0.857   0.870   0.873   0.882
  0.929   0.954   0.991   1.000   1.032   1.080   1.134   1.204
  1.263   1.301   1.414   1.447   1.501   1.531   1.598   1.661
  1.692   1.719   1.742   1.782   1.803   1.849   1.899   1.919
  1.947   1.985   2.011   2.057   2.123   2.143   2.162   2.188
  2.242   2.268   2.307   2.361   2.459   2.477   2.521   2.611
  2.670   2.707   2.736   2.849   2.918   3.801   4.014   4.113
  4.184   4.246   4.391   4.396
 
 Beta MOs
 -- Occupied --
-14.354 -10.265 -10.236 -10.235 -10.233 -10.228 -10.219  -0.883
 -0.788  -0.730  -0.663  -0.610  -0.549  -0.521  -0.470  -0.464
 -0.422  -0.417  -0.372  -0.332  -0.319  -0.284  -0.228  -0.214
 -- Virtual --
 -0.100  -0.062  -0.036   0.012   0.074   0.099   0.136   0.140
  0.152   0.156   0.159   0.187   0.238   0.278   0.330   0.349
  0.390   0.493   0.502   0.528   0.548   0.565   0.574   0.585
  0.608   0.617   0.623   0.649   0.654   0.692   0.726   0.756
  0.797   0.800   0.813   0.837   0.854   0.859   0.874   0.878
  0.884   0.938   0.959   0.994   1.005   1.039   1.086   1.138
  1.209   1.259   1.307   1.419   1.462   1.505   1.533   1.619
  1.666   1.703   1.735   1.755   1.801   1.821   1.854   1.906
  1.917   1.948   1.984   2.012   2.069   2.140   2.159   2.170
  2.187   2.250   2.270   2.321   2.364   2.465   2.478   2.538
  2.619   2.676   2.707   2.737   2.850   2.922   3.810   4.026
  4.116   4.195   4.242   4.386   4.408
 --------------------------------------------------------------
 
          Ground-State Mulliken Net Atomic Charges

     Atom                 Charge (a.u.)    Spin (a.u.)
  --------------------------------------------------------
      1 C                     0.050411      -0.186621
      2 C                    -0.167069       0.386654
      3 C                    -0.207754       0.807400
      4 C                    -0.152897      -0.157776
      5 C                    -0.040137      -0.546682
      6 N                    -0.360907       0.378205
      7 H                     0.149063       0.013734
      8 H                     0.163222      -0.002846
      9 H                     0.175740      -0.032274
     10 H                     0.171744       0.032693
     11 H                     0.181298       0.030506
     12 C                    -0.133957       0.290518
     13 H                     0.171244      -0.013511
  --------------------------------------------------------
  Sum of atomic charges =     0.000000
  Sum of spin   charges =     1.000000

 -----------------------------------------------------------------
                    Cartesian Multipole Moments
 -----------------------------------------------------------------
    Charge (ESU x 10^10)
                -0.0000
    Dipole Moment (Debye)
         X      -0.3180      Y      -1.2251      Z       1.4359
       Tot       1.9141
    Quadrupole Moments (Debye-Ang)
        XX     -38.6182     XY      -2.5226     YY     -43.0225
        XZ       0.6209     YZ       3.1916     ZZ     -46.6169
    Octopole Moments (Debye-Ang^2)
       XXX      12.2200    XXY       1.2922    XYY      -2.7393
       YYY      -3.3765    XXZ      80.4955    XYZ       9.6818
       YYZ      94.7295    XZZ      -5.7892    YZZ      -9.9797
       ZZZ     274.2345
    Hexadecapole Moments (Debye-Ang^3)
      XXXX    -416.8536   XXXY      -8.5265   XXYY    -112.5687
      XYYY     -20.8494   YYYY    -335.8319   XXXZ      45.9222
      XXYZ      -8.7695   XYYZ      29.7047   YYYZ      21.6331
      XXZZ    -266.9444   XYZZ     -28.8457   YYZZ    -287.5480
      XZZZ     101.4638   YZZZ      51.5171   ZZZZ   -1283.5400
 -----------------------------------------------------------------
 Calculating analytic gradient of the SCF energy
 Gradient of SCF Energy
            1           2           3           4           5           6
    1  -0.0087480   0.0376164   0.0044361  -0.0247867  -0.0690323   0.1165881
    2   0.0209931  -0.0508710   0.0063290   0.0625328   0.0252624  -0.0042705
    3   0.0172198  -0.0409439   0.0083070  -0.0070786   0.0316459  -0.0405138
            7           8           9          10          11          12
    1   0.0097102   0.0040260   0.0256519   0.0228579  -0.0302721  -0.0991674
    2   0.0260511  -0.0084156   0.0012281  -0.0092830  -0.0101766  -0.0847037
    3  -0.0083746   0.0094755  -0.0232730  -0.0093746   0.0093388   0.0856946
           13
    1   0.0111198
    2   0.0253239
    3  -0.0321233
 Max gradient component =       1.166E-01
 RMS gradient           =       4.020E-02
 Gradient time:  CPU 7.49 s  wall 2.64 s
 Geometry Optimization Parameters
   NAtoms,    NIC,     NZ,  NCons,   NDum,   NFix, NCnnct, MaxDiis
       13      82       0       0       0       0       0       0

 Cartesian Hessian Update
 Hessian Updated using BFGS Update


** GEOMETRY OPTIMIZATION IN DELOCALIZED INTERNAL COORDINATES **
   Searching for a Minimum

   Optimization Cycle:   2

                       Coordinates (Angstroms)
     ATOM                X               Y               Z
      1  C         1.6371707207    0.3453970704   -2.4104036945
      2  C         1.3077777649   -1.0625240232   -2.3657681089
      3  C        -0.2211102263   -1.2911349515   -2.4530753167
      4  C        -1.2728300068    0.3995384564   -1.0549032625
      5  C        -0.7515132305    1.1551212548   -2.2401974408
      6  N         0.7754093181    1.3208617399   -2.7640934264
      7  H         2.6565662380    0.8157652106   -2.5229124576
      8  H         1.9877054082   -1.8435496976   -1.9843366627
      9  H        -0.3317534533   -1.3030838908   -3.5819370123
     10  H        -0.9203010480    0.7962510211   -0.0992840408
     11  H        -1.6527785922    1.5519411248   -2.7644222207
     12  C        -1.6171323955   -0.9753951151   -1.1621772270
     13  H        -1.8859925354   -1.7393034446   -0.5234861666
   Point Group: c1    Number of degrees of freedom:    33


   Energy is   -286.640522752

 Hessian Updated using BFGS Update

 33 Hessian modes will be used to form the next step
  Hessian Eigenvalues:
     0.002996    0.005336    0.007380    0.008804    0.012022    0.015888
     0.016793    0.018239    0.022805    0.030715    0.046463    0.094584
     0.108349    0.142990    0.147648    0.153835    0.155755    0.170177
     0.181968    0.200288    0.209274    0.230028    0.262621    0.289585
     0.297690    0.307455    0.312822    0.326530    0.344714    0.347856
     0.381593    0.505783    0.729472

 Minimum Search - Taking Simple RFO Step
 Searching for Lamda that Minimizes Along All modes
 Value Taken    Lamda =  -0.18709904
 Calculated Step too Large.  Step scaled by  0.321206
 Step Taken.  Stepsize is  0.300000

                             Maximum     Tolerance    Cnvgd?
         Gradient           0.093680      0.000600      NO
         Displacement       0.125777      0.002400      NO
         Energy change     -0.062577      0.000002      NO


 New Cartesian Coordinates Obtained by Inverse Iteration

 Displacement from previous Coordinates is:  0.445076
 ----------------------------------------------------------------
             Standard Nuclear Orientation (Angstroms)
    I     Atom           X                Y                Z
 ----------------------------------------------------------------
    1      C       1.5859241984     0.3486798351    -2.3802091634
    2      C       1.2566721437    -1.0325132624    -2.3522672875
    3      C      -0.2408518651    -1.2847956150    -2.4697760252
    4      C      -1.2235102570     0.3783141051    -1.0736955629
    5      C      -0.7128594545     1.1354626352    -2.2593557607
    6      N       0.7217344101     1.3232574587    -2.7412350633
    7      H       2.6100429035     0.7872293403    -2.4641956575
    8      H       1.9349862023    -1.8053504570    -1.9680088378
    9      H      -0.4034590507    -1.3005366806    -3.5802395340
   10      H      -0.8973825051     0.7886790179    -0.1121036991
   11      H      -1.5848602713     1.5373010285    -2.8096118205
   12      C      -1.5354519770    -0.9700558821    -1.1899641255
   13      H      -1.7997665153    -1.7357867684    -0.5263344999
 ----------------------------------------------------------------
 Nuclear Repulsion Energy =   253.8787241021 hartrees
 There are       25 alpha and       24 beta electrons
 Applying Cartesian multipole field
    Component          Value
    ---------          -----
     (2,0,0)        1.00000E-11
     (0,2,0)        2.00000E-11
     (0,0,2)       -3.00000E-11
 Nucleus-field energy     =    -0.0000000185 hartrees
 Requested basis set is 6-31G(d)
 There are 40 shells and 117 basis functions
 A cutoff of  1.0D-14 yielded    801 shell pairs
 There are      7073 function pairs
 Smallest overlap matrix eigenvalue = 3.37E-03
 Guess MOs from SCF MO coefficient file
 Reading MOs from coefficient file
 Reading MOs from coefficient file
 An unrestricted hybrid HF-DFT SCF calculation will be
 performed using Pulay DIIS extrapolation
 Exchange:     0.2000 Hartree-Fock + 0.0800 Slater + 0.7200 B88
 Correlation:  0.1900 VWN1RPA + 0.8100 LYP
 Using SG-1 standard quadrature grid
 SCF converges when DIIS error is below 1.0E-08
 Geometry optimization detected.  Setting ReadMinima to 0
 Setting SaveMinima to 0
Using Q-Chem read-in guess as SCF_GUESS READ specified.

 using 4 threads for integral computing
 -------------------------------------------------------
 OpenMP Integral computing Module                
 Release: version 1.0, May 2013, Q-Chem Inc. Pittsburgh 
 -------------------------------------------------------
 -------------------------------------------------------
 OpenMP BLAS3 based DFT computing Module                
 Release: version 1.0, May 2013, Q-Chem Inc. Pittsburgh 
 -------------------------------------------------------
 ---------------------------------------
  Cycle       Energy         DIIS Error
 ---------------------------------------
    1    -286.8010218784      3.50E-03
    2    -286.6935471732      1.44E-03
    3    -286.6920591965      1.75E-03
    4    -286.6973986666      6.38E-04
    5    -286.6981881493      1.22E-04
    6    -286.6982651310      5.78E-05
    7    -286.6983232784      3.11E-05
    8    -286.6983604571      2.92E-05
    9    -286.6983976486      1.52E-05
   10    -286.6984351505      6.67E-06
   11    -286.6984457770      3.54E-06
   12    -286.6984499921      1.18E-06
   13    -286.6984507901      5.86E-07
   14    -286.6984509145      4.68E-07
   15    -286.6984509618      2.50E-07
   16    -286.6984509807      2.06E-07
   17    -286.6984510011      1.54E-07
   18    -286.6984510172      6.85E-08
   19    -286.6984510205      2.33E-08
   20    -286.6984510207      1.09E-08
   21    -286.6984510207      5.31E-09 Convergence criterion met
 ---------------------------------------
 <S^2> = 0.9016
 SCF time:  CPU 52.65 s  wall 36.53 s
 SCF   energy in the final basis set = -286.69845102
 Total energy in the final basis set = -286.69845102
 
 --------------------------------------------------------------
 
                    Orbital Energies (a.u.)
 --------------------------------------------------------------
 
 Alpha MOs
 -- Occupied --
-14.355 -10.259 -10.240 -10.232 -10.227 -10.222 -10.213  -0.903
 -0.794  -0.755  -0.664  -0.630  -0.555  -0.527  -0.480  -0.468
 -0.433  -0.425  -0.387  -0.346  -0.329  -0.293  -0.247  -0.227
 -0.199
 -- Virtual --
 -0.069  -0.048   0.013   0.076   0.121   0.135   0.139   0.158
  0.160   0.163   0.213   0.250   0.286   0.340   0.356   0.399
  0.493   0.495   0.530   0.547   0.557   0.568   0.580   0.603
  0.620   0.625   0.645   0.654   0.684   0.715   0.737   0.794
  0.801   0.814   0.839   0.849   0.857   0.872   0.879   0.891
  0.916   0.964   0.993   1.014   1.047   1.104   1.135   1.229
  1.283   1.300   1.417   1.465   1.501   1.544   1.604   1.677
  1.706   1.729   1.767   1.803   1.840   1.870   1.915   1.925
  1.970   1.991   2.037   2.087   2.165   2.175   2.206   2.229
  2.265   2.287   2.358   2.407   2.475   2.498   2.542   2.644
  2.692   2.741   2.758   2.881   2.972   3.839   4.025   4.142
  4.195   4.270   4.408   4.421
 
 Beta MOs
 -- Occupied --
-14.349 -10.264 -10.230 -10.229 -10.228 -10.223 -10.209  -0.896
 -0.792  -0.740  -0.664  -0.617  -0.549  -0.525  -0.474  -0.464
 -0.430  -0.423  -0.378  -0.337  -0.320  -0.290  -0.236  -0.213
 -- Virtual --
 -0.096  -0.053  -0.030   0.025   0.091   0.118   0.137   0.141
  0.160   0.163   0.168   0.216   0.255   0.286   0.343   0.365
  0.404   0.496   0.502   0.530   0.547   0.568   0.575   0.587
  0.608   0.623   0.628   0.649   0.658   0.691   0.724   0.745
  0.801   0.808   0.817   0.841   0.853   0.860   0.879   0.883
  0.892   0.923   0.969   0.997   1.018   1.051   1.109   1.139
  1.234   1.282   1.304   1.420   1.482   1.507   1.551   1.622
  1.682   1.715   1.748   1.778   1.824   1.852   1.876   1.919
  1.922   1.975   1.995   2.038   2.099   2.173   2.196   2.213
  2.232   2.274   2.289   2.369   2.411   2.481   2.502   2.556
  2.649   2.698   2.742   2.759   2.883   2.976   3.846   4.035
  4.144   4.204   4.271   4.410   4.428
 --------------------------------------------------------------
 
          Ground-State Mulliken Net Atomic Charges

     Atom                 Charge (a.u.)    Spin (a.u.)
  --------------------------------------------------------
      1 C                     0.042963      -0.126303
      2 C                    -0.160346       0.250649
      3 C                    -0.210173       0.847860
      4 C                    -0.146581      -0.083994
      5 C                    -0.023051      -0.361492
      6 N                    -0.363447       0.290924
      7 H                     0.143946       0.009903
      8 H                     0.158892       0.001182
      9 H                     0.173965      -0.033739
     10 H                     0.170111       0.030271
     11 H                     0.179015       0.022726
     12 C                    -0.131549       0.161059
     13 H                     0.166255      -0.009046
  --------------------------------------------------------
  Sum of atomic charges =     0.000000
  Sum of spin   charges =     1.000000

 -----------------------------------------------------------------
                    Cartesian Multipole Moments
 -----------------------------------------------------------------
    Charge (ESU x 10^10)
                 0.0000
    Dipole Moment (Debye)
         X      -0.4676      Y      -1.1202      Z       1.4132
       Tot       1.8630
    Quadrupole Moments (Debye-Ang)
        XX     -39.0465     XY      -2.2697     YY     -42.7600
        XZ       1.3276     YZ       3.0100     ZZ     -46.4199
    Octopole Moments (Debye-Ang^2)
       XXX      11.7647    XXY       1.6672    XYY      -2.7394
       YYY      -2.8810    XXZ      81.0836    XYZ       8.7283
       YYZ      94.1428    XZZ      -8.0715    YZZ      -9.4773
       ZZZ     273.3141
    Hexadecapole Moments (Debye-Ang^3)
      XXXX    -389.7968   XXXY      -9.5483   XXYY    -108.3344
      XYYY     -20.8793   YYYY    -328.3993   XXXZ      41.7854
      XXYZ      -8.2368   XYYZ      28.0971   YYYZ      20.4925
      XXZZ    -262.3443   XYZZ     -26.8780   YYZZ    -284.4452
      XZZZ     101.6126   YZZZ      49.6505   ZZZZ   -1275.5386
 -----------------------------------------------------------------
 Calculating analytic gradient of the SCF energy
 Gradient of SCF Energy
            1           2           3           4           5           6
    1  -0.0178152   0.0308692   0.0183574  -0.0242220  -0.0802117   0.1261287
    2   0.0223353  -0.0440780   0.0058318   0.0431249   0.0149698  -0.0012574
    3   0.0131795  -0.0373273  -0.0007667  -0.0115645   0.0353708  -0.0353337
            7           8           9          10          11          12
    1   0.0064453   0.0011275   0.0213186   0.0239787  -0.0230600  -0.0911295
    2   0.0208071  -0.0053392   0.0023864  -0.0098731  -0.0122123  -0.0514827
    3  -0.0090783   0.0095960  -0.0186456  -0.0069156   0.0054054   0.0792223
           13
    1   0.0082130
    2   0.0147874
    3  -0.0231425
 Max gradient component =       1.261E-01
 RMS gradient           =       3.730E-02
 Gradient time:  CPU 7.14 s  wall 3.44 s
 Geometry Optimization Parameters
   NAtoms,    NIC,     NZ,  NCons,   NDum,   NFix, NCnnct, MaxDiis
       13      82       0       0       0       0       0       0

 Cartesian Hessian Update
 Hessian Updated using BFGS Update


** GEOMETRY OPTIMIZATION IN DELOCALIZED INTERNAL COORDINATES **
   Searching for a Minimum

   Optimization Cycle:   3

                       Coordinates (Angstroms)
     ATOM                X               Y               Z
      1  C         1.5859241984    0.3486798351   -2.3802091634
      2  C         1.2566721437   -1.0325132624   -2.3522672875
      3  C        -0.2408518651   -1.2847956150   -2.4697760252
      4  C        -1.2235102570    0.3783141051   -1.0736955629
      5  C        -0.7128594545    1.1354626352   -2.2593557607
      6  N         0.7217344101    1.3232574587   -2.7412350633
      7  H         2.6100429035    0.7872293403   -2.4641956575
      8  H         1.9349862023   -1.8053504570   -1.9680088378
      9  H        -0.4034590507   -1.3005366806   -3.5802395340
     10  H        -0.8973825051    0.7886790179   -0.1121036991
     11  H        -1.5848602713    1.5373010285   -2.8096118205
     12  C        -1.5354519770   -0.9700558821   -1.1899641255
     13  H        -1.7997665153   -1.7357867684   -0.5263344999
   Point Group: c1    Number of degrees of freedom:    33


   Energy is   -286.698451021

 Hessian Updated using BFGS Update

 33 Hessian modes will be used to form the next step
  Hessian Eigenvalues:
     0.003012    0.005235    0.007971    0.008715    0.012871    0.015883
     0.016897    0.018347    0.024186    0.038530    0.051082    0.094846
     0.104053    0.142724    0.147648    0.153732    0.155767    0.170588
     0.181584    0.200191    0.209387    0.229905    0.265546    0.289769
     0.297491    0.306975    0.313757    0.326541    0.343520    0.347855
     0.417338    0.497715    0.879399

 Minimum Search - Taking Simple RFO Step
 Searching for Lamda that Minimizes Along All modes
 Value Taken    Lamda =  -0.16350015
 Calculated Step too Large.  Step scaled by  0.332640
 Step Taken.  Stepsize is  0.300000

                             Maximum     Tolerance    Cnvgd?
         Gradient           0.078354      0.000600      NO
         Displacement       0.116044      0.002400      NO
         Energy change     -0.057928      0.000002      NO


 New Cartesian Coordinates Obtained by Inverse Iteration

 Displacement from previous Coordinates is:  0.423411
 ----------------------------------------------------------------
             Standard Nuclear Orientation (Angstroms)
    I     Atom           X                Y                Z
 ----------------------------------------------------------------
    1      C       1.5364402290     0.3490180482    -2.3509878180
    2      C       1.2110251632    -1.0091378082    -2.3390273090
    3      C      -0.2606865979    -1.2887369799    -2.4832622535
    4      C      -1.1758000764     0.3638757377    -1.0939130643
    5      C      -0.6752979291     1.1292413157    -2.2786520415
    6      N       0.6608905105     1.3237748241    -2.7175443423
    7      H       2.5625593281     0.7632330254    -2.4066231515
    8      H       1.8919966449    -1.7725530392    -1.9535217475
    9      H      -0.4706858651    -1.3114190710    -3.5756372103
   10      H      -0.8759309269     0.7841423264    -0.1264663016
   11      H      -1.5224925096     1.5415712109    -2.8468246877
   12      C      -1.4560421473    -0.9691097101    -1.2221165986
   13      H      -1.7147578614    -1.7340151249    -0.5324205117
 ----------------------------------------------------------------
 Nuclear Repulsion Energy =   258.8145850681 hartrees
 There are       25 alpha and       24 beta electrons
 Applying Cartesian multipole field
    Component          Value
    ---------          -----
     (2,0,0)        1.00000E-11
     (0,2,0)        2.00000E-11
     (0,0,2)       -3.00000E-11
 Nucleus-field energy     =    -0.0000000187 hartrees
 Requested basis set is 6-31G(d)
 There are 40 shells and 117 basis functions
 A cutoff of  1.0D-14 yielded    804 shell pairs
 There are      7076 function pairs
 Smallest overlap matrix eigenvalue = 3.16E-03
 Guess MOs from SCF MO coefficient file
 Reading MOs from coefficient file
 Reading MOs from coefficient file
 An unrestricted hybrid HF-DFT SCF calculation will be
 performed using Pulay DIIS extrapolation
 Exchange:     0.2000 Hartree-Fock + 0.0800 Slater + 0.7200 B88
 Correlation:  0.1900 VWN1RPA + 0.8100 LYP
 Using SG-1 standard quadrature grid
 SCF converges when DIIS error is below 1.0E-08
 Geometry optimization detected.  Setting ReadMinima to 0
 Setting SaveMinima to 0
Using Q-Chem read-in guess as SCF_GUESS READ specified.

 using 4 threads for integral computing
 -------------------------------------------------------
 OpenMP Integral computing Module                
 Release: version 1.0, May 2013, Q-Chem Inc. Pittsburgh 
 -------------------------------------------------------
 -------------------------------------------------------
 OpenMP BLAS3 based DFT computing Module                
 Release: version 1.0, May 2013, Q-Chem Inc. Pittsburgh 
 -------------------------------------------------------
 ---------------------------------------
  Cycle       Energy         DIIS Error
 ---------------------------------------
    1    -286.8498270412      4.20E-03
    2    -286.7439537763      1.48E-03
    3    -286.7421987403      1.82E-03
    4    -286.7480237825      5.60E-04
    5    -286.7486461136      1.26E-04
    6    -286.7487294570      5.20E-05
    7    -286.7487854369      2.55E-05
    8    -286.7488276624      1.87E-05
    9    -286.7488637660      1.14E-05
   10    -286.7488944279      8.27E-06
   11    -286.7489141031      3.28E-06
   12    -286.7489221699      1.67E-06
   13    -286.7489250041      7.42E-07
   14    -286.7489257441      2.74E-07
   15    -286.7489258130      1.49E-07
   16    -286.7489258186      8.03E-08
   17    -286.7489258218      4.44E-08
   18    -286.7489258239      2.66E-08
   19    -286.7489258248      1.82E-08
   20    -286.7489258252      9.79E-09 Convergence criterion met
 ---------------------------------------
 <S^2> = 0.7906
 SCF time:  CPU 50.34 s  wall 40.00 s
 SCF   energy in the final basis set = -286.74892583
 Total energy in the final basis set = -286.74892583
 
 --------------------------------------------------------------
 
                    Orbital Energies (a.u.)
 --------------------------------------------------------------
 
 Alpha MOs
 -- Occupied --
-14.348 -10.255 -10.233 -10.225 -10.222 -10.217 -10.203  -0.918
 -0.798  -0.762  -0.666  -0.635  -0.557  -0.529  -0.485  -0.466
 -0.441  -0.432  -0.392  -0.352  -0.326  -0.299  -0.250  -0.227
 -0.199
 -- Virtual --
 -0.064  -0.037   0.026   0.095   0.128   0.134   0.142   0.164
  0.168   0.174   0.234   0.285   0.293   0.349   0.369   0.413
  0.495   0.500   0.530   0.547   0.564   0.570   0.580   0.603
  0.626   0.631   0.643   0.654   0.684   0.713   0.732   0.798
  0.809   0.819   0.838   0.850   0.857   0.873   0.886   0.897
  0.903   0.960   1.001   1.026   1.065   1.125   1.141   1.253
  1.296   1.312   1.416   1.490   1.515   1.550   1.610   1.687
  1.717   1.739   1.791   1.819   1.875   1.892   1.925   1.936
  1.996   2.010   2.064   2.103   2.195   2.215   2.248   2.272
  2.298   2.313   2.407   2.450   2.487   2.518   2.566   2.681
  2.703   2.768   2.788   2.908   3.031   3.889   4.037   4.159
  4.209   4.291   4.421   4.446
 
 Beta MOs
 -- Occupied --
-14.344 -10.258 -10.224 -10.223 -10.221 -10.217 -10.201  -0.914
 -0.794  -0.752  -0.663  -0.623  -0.549  -0.527  -0.477  -0.462
 -0.437  -0.429  -0.384  -0.343  -0.320  -0.297  -0.243  -0.214
 -- Virtual --
 -0.090  -0.042  -0.025   0.035   0.109   0.128   0.136   0.144
  0.165   0.170   0.181   0.240   0.289   0.294   0.353   0.377
  0.418   0.500   0.505   0.534   0.548   0.570   0.580   0.590
  0.605   0.631   0.634   0.648   0.662   0.690   0.724   0.738
  0.803   0.815   0.821   0.841   0.853   0.861   0.881   0.890
  0.899   0.909   0.965   1.005   1.029   1.067   1.129   1.144
  1.259   1.298   1.314   1.419   1.502   1.528   1.557   1.625
  1.694   1.723   1.760   1.801   1.843   1.886   1.894   1.926
  1.938   2.006   2.015   2.067   2.116   2.204   2.227   2.259
  2.279   2.302   2.318   2.418   2.453   2.493   2.522   2.577
  2.685   2.708   2.770   2.790   2.910   3.034   3.894   4.045
  4.161   4.216   4.295   4.426   4.452
 --------------------------------------------------------------
 
          Ground-State Mulliken Net Atomic Charges

     Atom                 Charge (a.u.)    Spin (a.u.)
  --------------------------------------------------------
      1 C                     0.031780      -0.052202
      2 C                    -0.153605       0.098302
      3 C                    -0.212474       0.906432
      4 C                    -0.145802      -0.050048
      5 C                    -0.003346      -0.171048
      6 N                    -0.358043       0.169095
      7 H                     0.140298       0.005549
      8 H                     0.155046       0.008016
      9 H                     0.170478      -0.038869
     10 H                     0.168757       0.029774
     11 H                     0.172222       0.013029
     12 C                    -0.126759       0.087151
     13 H                     0.161448      -0.005181
  --------------------------------------------------------
  Sum of atomic charges =    -0.000000
  Sum of spin   charges =     1.000000

 -----------------------------------------------------------------
                    Cartesian Multipole Moments
 -----------------------------------------------------------------
    Charge (ESU x 10^10)
                -0.0000
    Dipole Moment (Debye)
         X      -0.5278      Y      -1.0167      Z       1.3739
       Tot       1.7888
    Quadrupole Moments (Debye-Ang)
        XX     -39.3842     XY      -1.9633     YY     -42.4776
        XZ       1.7571     YZ       2.8388     ZZ     -46.1319
    Octopole Moments (Debye-Ang^2)
       XXX      11.6618    XXY       1.9143    XYY      -2.4738
       YYY      -2.0437    XXZ      81.5291    XYZ       7.6108
       YYZ      93.4798    XZZ      -9.4759    YZZ      -8.9246
       ZZZ     272.0347
    Hexadecapole Moments (Debye-Ang^3)
      XXXX    -364.6299   XXXY      -9.6023   XXYY    -104.5737
      XYYY     -19.9809   YYYY    -324.0226   XXXZ      36.7239
      XXYZ      -7.5621   XYYZ      25.7799   YYYZ      18.3900
      XXZZ    -257.8153   XYZZ     -24.0988   YYZZ    -281.4953
      XZZZ      99.1627   YZZZ      47.1094   ZZZZ   -1266.0438
 -----------------------------------------------------------------
 Calculating analytic gradient of the SCF energy
 Gradient of SCF Energy
            1           2           3           4           5           6
    1  -0.0243754   0.0243104   0.0273651  -0.0208116  -0.0684284   0.1098266
    2   0.0184905  -0.0361826   0.0091606   0.0280140   0.0028128   0.0041766
    3   0.0100153  -0.0325197  -0.0088507  -0.0131995   0.0289059  -0.0233205
            7           8           9          10          11          12
    1   0.0037602  -0.0014021   0.0169984   0.0242913  -0.0153163  -0.0819426
    2   0.0159407  -0.0026778   0.0029185  -0.0096658  -0.0136304  -0.0258025
    3  -0.0097698   0.0098577  -0.0141073  -0.0045214   0.0015920   0.0711325
           13
    1   0.0057243
    2   0.0064454
    3  -0.0152142
 Max gradient component =       1.098E-01
 RMS gradient           =       3.174E-02
 Gradient time:  CPU 7.27 s  wall 2.53 s
 Geometry Optimization Parameters
   NAtoms,    NIC,     NZ,  NCons,   NDum,   NFix, NCnnct, MaxDiis
       13      82       0       0       0       0       0       0

 Cartesian Hessian Update
 Hessian Updated using BFGS Update


** GEOMETRY OPTIMIZATION IN DELOCALIZED INTERNAL COORDINATES **
   Searching for a Minimum

   Optimization Cycle:   4

                       Coordinates (Angstroms)
     ATOM                X               Y               Z
      1  C         1.5364402290    0.3490180482   -2.3509878180
      2  C         1.2110251632   -1.0091378082   -2.3390273090
      3  C        -0.2606865979   -1.2887369799   -2.4832622535
      4  C        -1.1758000764    0.3638757377   -1.0939130643
      5  C        -0.6752979291    1.1292413157   -2.2786520415
      6  N         0.6608905105    1.3237748241   -2.7175443423
      7  H         2.5625593281    0.7632330254   -2.4066231515
      8  H         1.8919966449   -1.7725530392   -1.9535217475
      9  H        -0.4706858651   -1.3114190710   -3.5756372103
     10  H        -0.8759309269    0.7841423264   -0.1264663016
     11  H        -1.5224925096    1.5415712109   -2.8468246877
     12  C        -1.4560421473   -0.9691097101   -1.2221165986
     13  H        -1.7147578614   -1.7340151249   -0.5324205117
   Point Group: c1    Number of degrees of freedom:    33


   Energy is   -286.748925825

 Hessian Updated using BFGS Update

 33 Hessian modes will be used to form the next step
  Hessian Eigenvalues:
     0.003019    0.005386    0.007977    0.008743    0.013169    0.016148
     0.016884    0.018357    0.024520    0.043760    0.076878    0.095763
     0.129966    0.144519    0.148495    0.154347    0.156937    0.170541
     0.182107    0.203826    0.219034    0.229976    0.266233    0.289683
     0.297282    0.306806    0.313902    0.326547    0.343525    0.347870
     0.423286    0.494653    0.932448

 Minimum Search - Taking Simple RFO Step
 Searching for Lamda that Minimizes Along All modes
 Value Taken    Lamda =  -0.11511497
 Calculated Step too Large.  Step scaled by  0.378866
 Step Taken.  Stepsize is  0.300000

                             Maximum     Tolerance    Cnvgd?
         Gradient           0.059664      0.000600      NO
         Displacement       0.125984      0.002400      NO
         Energy change     -0.050475      0.000002      NO


 New Cartesian Coordinates Obtained by Inverse Iteration

 Displacement from previous Coordinates is:  0.401723
 ----------------------------------------------------------------
             Standard Nuclear Orientation (Angstroms)
    I     Atom           X                Y                Z
 ----------------------------------------------------------------
    1      C       1.4971855733     0.3475178194    -2.3272737509
    2      C       1.1713290620    -0.9919362052    -2.3260239105
    3      C      -0.2801963235    -1.3075486684    -2.4894486449
    4      C      -1.1369874894     0.3550525847    -1.1167254861
    5      C      -0.6489526697     1.1427555414    -2.2932626472
    6      N       0.6087456824     1.3279058182    -2.6959142313
    7      H       2.5260526417     0.7353420650    -2.3547975533
    8      H       1.8600206565    -1.7444620886    -1.9422585046
    9      H      -0.5388895609    -1.3452491993    -3.5622587196
   10      H      -0.8753595917     0.7802398812    -0.1398192785
   11      H      -1.4751772996     1.5739297948    -2.8712280888
   12      C      -1.3729460214    -0.9727047705    -1.2634000307
   13      H      -1.6236066976    -1.7309578174    -0.5445861911
 ----------------------------------------------------------------
 Nuclear Repulsion Energy =   262.8763824974 hartrees
 There are       25 alpha and       24 beta electrons
 Applying Cartesian multipole field
    Component          Value
    ---------          -----
     (2,0,0)        1.00000E-11
     (0,2,0)        2.00000E-11
     (0,0,2)       -3.00000E-11
 Nucleus-field energy     =    -0.0000000187 hartrees
 Requested basis set is 6-31G(d)
 There are 40 shells and 117 basis functions
 A cutoff of  1.0D-14 yielded    805 shell pairs
 There are      7077 function pairs
 Smallest overlap matrix eigenvalue = 2.98E-03
 Guess MOs from SCF MO coefficient file
 Reading MOs from coefficient file
 Reading MOs from coefficient file
 An unrestricted hybrid HF-DFT SCF calculation will be
 performed using Pulay DIIS extrapolation
 Exchange:     0.2000 Hartree-Fock + 0.0800 Slater + 0.7200 B88
 Correlation:  0.1900 VWN1RPA + 0.8100 LYP
 Using SG-1 standard quadrature grid
 SCF converges when DIIS error is below 1.0E-08
 Geometry optimization detected.  Setting ReadMinima to 0
 Setting SaveMinima to 0
Using Q-Chem read-in guess as SCF_GUESS READ specified.

 using 4 threads for integral computing
 -------------------------------------------------------
 OpenMP Integral computing Module                
 Release: version 1.0, May 2013, Q-Chem Inc. Pittsburgh 
 -------------------------------------------------------
 -------------------------------------------------------
 OpenMP BLAS3 based DFT computing Module                
 Release: version 1.0, May 2013, Q-Chem Inc. Pittsburgh 
 -------------------------------------------------------
 ---------------------------------------
  Cycle       Energy         DIIS Error
 ---------------------------------------
    1    -286.8778890438      4.36E-03
    2    -286.7828630893      1.30E-03
    3    -286.7821937355      1.51E-03
    4    -286.7862349587      2.91E-04
    5    -286.7863942143      1.15E-04
    6    -286.7864398529      4.69E-05
    7    -286.7864622148      1.65E-05
    8    -286.7864789714      1.04E-05
    9    -286.7864908978      4.38E-06
   10    -286.7865010358      3.65E-06
   11    -286.7865059796      1.65E-06
   12    -286.7865090944      8.62E-07
   13    -286.7865101602      4.13E-07
   14    -286.7865106517      1.18E-07
   15    -286.7865106926      5.61E-08
   16    -286.7865106960      3.08E-08
   17    -286.7865106972      1.46E-08
   18    -286.7865106974      4.80E-09 Convergence criterion met
 ---------------------------------------
 <S^2> = 0.7610
 SCF time:  CPU 45.50 s  wall 30.02 s
 SCF   energy in the final basis set = -286.78651070
 Total energy in the final basis set = -286.78651070
 
 --------------------------------------------------------------
 
                    Orbital Energies (a.u.)
 --------------------------------------------------------------
 
 Alpha MOs
 -- Occupied --
-14.341 -10.248 -10.226 -10.219 -10.218 -10.211 -10.197  -0.934
 -0.802  -0.769  -0.666  -0.640  -0.559  -0.530  -0.489  -0.462
 -0.446  -0.438  -0.398  -0.358  -0.326  -0.303  -0.252  -0.226
 -0.203
 -- Virtual --
 -0.055  -0.027   0.036   0.112   0.131   0.135   0.145   0.167
  0.173   0.192   0.241   0.296   0.325   0.357   0.379   0.422
  0.498   0.507   0.533   0.547   0.564   0.582   0.587   0.604
  0.630   0.633   0.641   0.658   0.686   0.705   0.738   0.801
  0.818   0.823   0.837   0.852   0.859   0.872   0.891   0.894
  0.901   0.949   1.012   1.034   1.084   1.138   1.154   1.261
  1.316   1.331   1.417   1.488   1.555   1.574   1.613   1.701
  1.718   1.743   1.817   1.833   1.879   1.899   1.929   1.958
  2.004   2.050   2.094   2.106   2.212   2.251   2.282   2.301
  2.336   2.363   2.444   2.480   2.515   2.534   2.588   2.702
  2.724   2.791   2.823   2.932   3.082   3.933   4.054   4.169
  4.222   4.304   4.431   4.467
 
 Beta MOs
 -- Occupied --
-14.339 -10.249 -10.218 -10.218 -10.213 -10.211 -10.196  -0.931
 -0.795  -0.761  -0.659  -0.629  -0.551  -0.528  -0.480  -0.458
 -0.442  -0.435  -0.391  -0.351  -0.322  -0.302  -0.247  -0.216
 -- Virtual --
 -0.083  -0.034  -0.019   0.043   0.124   0.133   0.137   0.147
  0.168   0.175   0.201   0.246   0.302   0.326   0.362   0.385
  0.426   0.502   0.516   0.538   0.551   0.571   0.586   0.599
  0.607   0.636   0.641   0.646   0.664   0.691   0.716   0.743
  0.805   0.822   0.825   0.840   0.854   0.864   0.878   0.895
  0.900   0.904   0.955   1.016   1.036   1.085   1.140   1.158
  1.268   1.319   1.333   1.422   1.499   1.559   1.587   1.626
  1.709   1.723   1.764   1.825   1.859   1.888   1.902   1.932
  1.962   2.013   2.059   2.098   2.120   2.221   2.258   2.291
  2.307   2.342   2.370   2.455   2.483   2.518   2.539   2.598
  2.706   2.727   2.795   2.826   2.934   3.084   3.936   4.061
  4.172   4.228   4.309   4.436   4.475
 --------------------------------------------------------------
 
          Ground-State Mulliken Net Atomic Charges

     Atom                 Charge (a.u.)    Spin (a.u.)
  --------------------------------------------------------
      1 C                     0.020981      -0.006455
      2 C                    -0.147497       0.008636
      3 C                    -0.211153       0.960843
      4 C                    -0.148952      -0.024039
      5 C                     0.010561      -0.070281
      6 N                    -0.345409       0.086420
      7 H                     0.139079       0.003564
      8 H                     0.151929       0.014732
      9 H                     0.166173      -0.043603
     10 H                     0.166201       0.027308
     11 H                     0.162744       0.006987
     12 C                    -0.120697       0.036502
     13 H                     0.156041      -0.000613
  --------------------------------------------------------
  Sum of atomic charges =     0.000000
  Sum of spin   charges =     1.000000

 -----------------------------------------------------------------
                    Cartesian Multipole Moments
 -----------------------------------------------------------------
    Charge (ESU x 10^10)
                 0.0000
    Dipole Moment (Debye)
         X      -0.4922      Y      -0.9537      Z       1.2975
       Tot       1.6838
    Quadrupole Moments (Debye-Ang)
        XX     -39.5789     XY      -1.7329     YY     -42.1979
        XZ       1.9408     YZ       2.7901     ZZ     -45.7297
    Octopole Moments (Debye-Ang^2)
       XXX      11.8807    XXY       2.0802    XYY      -2.2645
       YYY      -1.2528    XXZ      81.6701    XYZ       6.5986
       YYZ      92.7416    XZZ     -10.2045    YZZ      -8.6673
       ZZZ     270.5300
    Hexadecapole Moments (Debye-Ang^3)
      XXXX    -342.9357   XXXY      -9.1239   XXYY    -102.1082
      XYYY     -18.7482   YYYY    -324.3414   XXXZ      31.3911
      XXYZ      -6.6327   XYYZ      23.8785   YYYZ      16.4532
      XXZZ    -253.2710   XYZZ     -21.2393   YYZZ    -278.8912
      XZZZ      95.3333   YZZZ      45.0887   ZZZZ   -1255.8899
 -----------------------------------------------------------------
 Calculating analytic gradient of the SCF energy
 Gradient of SCF Energy
            1           2           3           4           5           6
    1  -0.0242870   0.0179411   0.0297870  -0.0150969  -0.0290964   0.0602240
    2   0.0117940  -0.0268728   0.0100629   0.0181904  -0.0022240   0.0066141
    3   0.0082583  -0.0263452  -0.0124567  -0.0130949   0.0124779  -0.0041687
            7           8           9          10          11          12
    1   0.0017588  -0.0033475   0.0120546   0.0243030  -0.0083161  -0.0699952
    2   0.0110066  -0.0003292   0.0035226  -0.0087684  -0.0139204  -0.0097851
    3  -0.0097753   0.0099057  -0.0094977  -0.0025052  -0.0016589   0.0576761
           13
    1   0.0040707
    2   0.0007091
    3  -0.0088155
 Max gradient component =       7.000E-02
 RMS gradient           =       2.209E-02
 Gradient time:  CPU 7.25 s  wall 2.39 s
 Geometry Optimization Parameters
   NAtoms,    NIC,     NZ,  NCons,   NDum,   NFix, NCnnct, MaxDiis
       13      82       0       0       0       0       0       0

 Cartesian Hessian Update
 Hessian Updated using BFGS Update


** GEOMETRY OPTIMIZATION IN DELOCALIZED INTERNAL COORDINATES **
   Searching for a Minimum

   Optimization Cycle:   5

                       Coordinates (Angstroms)
     ATOM                X               Y               Z
      1  C         1.4971855733    0.3475178194   -2.3272737509
      2  C         1.1713290620   -0.9919362052   -2.3260239105
      3  C        -0.2801963235   -1.3075486684   -2.4894486449
      4  C        -1.1369874894    0.3550525847   -1.1167254861
      5  C        -0.6489526697    1.1427555414   -2.2932626472
      6  N         0.6087456824    1.3279058182   -2.6959142313
      7  H         2.5260526417    0.7353420650   -2.3547975533
      8  H         1.8600206565   -1.7444620886   -1.9422585046
      9  H        -0.5388895609   -1.3452491993   -3.5622587196
     10  H        -0.8753595917    0.7802398812   -0.1398192785
     11  H        -1.4751772996    1.5739297948   -2.8712280888
     12  C        -1.3729460214   -0.9727047705   -1.2634000307
     13  H        -1.6236066976   -1.7309578174   -0.5445861911
   Point Group: c1    Number of degrees of freedom:    33


   Energy is   -286.786510697

 Hessian Updated using BFGS Update

 33 Hessian modes will be used to form the next step
  Hessian Eigenvalues:
     0.003019    0.005515    0.007970    0.008897    0.013207    0.016306
     0.016833    0.018344    0.024377    0.046728    0.080359    0.095879
     0.139252    0.146397    0.150919    0.155026    0.163016    0.170696
     0.187454    0.207315    0.229868    0.265154    0.289594    0.296162
     0.306717    0.312835    0.326503    0.333584    0.347230    0.351420
     0.426391    0.494513    0.945733

 Minimum Search - Taking Simple RFO Step
 Searching for Lamda that Minimizes Along All modes
 Value Taken    Lamda =  -0.06719390
 Calculated Step too Large.  Step scaled by  0.409015
 Step Taken.  Stepsize is  0.300000

                             Maximum     Tolerance    Cnvgd?
         Gradient           0.044808      0.000600      NO
         Displacement       0.126968      0.002400      NO
         Energy change     -0.037585      0.000002      NO


 New Cartesian Coordinates Obtained by Inverse Iteration

 Displacement from previous Coordinates is:  0.360705
 ----------------------------------------------------------------
             Standard Nuclear Orientation (Angstroms)
    I     Atom           X                Y                Z
 ----------------------------------------------------------------
    1      C       1.4837909719     0.3435122315    -2.3167141907
    2      C       1.1443949518    -0.9803322813    -2.3184011963
    3      C      -0.2953968041    -1.3273792090    -2.4850732509
    4      C      -1.1215549221     0.3495069930    -1.1347963212
    5      C      -0.6438794485     1.1650490931    -2.2978158978
    6      N       0.5910535183     1.3371455102    -2.6833981160
    7      H       2.5184919411     0.6985196170    -2.3183949748
    8      H       1.8427916746    -1.7280808859    -1.9476008903
    9      H      -0.6036091900    -1.3887569201    -3.5371317443
   10      H      -0.9299927323     0.7830073185    -0.1456255532
   11      H      -1.4521179324     1.6205468982    -2.8802458190
   12      C      -1.2885635817    -0.9787490566    -1.3038550391
   13      H      -1.5341904845    -1.7241045535    -0.5579440438
 ----------------------------------------------------------------
 Nuclear Repulsion Energy =   265.1061072239 hartrees
 There are       25 alpha and       24 beta electrons
 Applying Cartesian multipole field
    Component          Value
    ---------          -----
     (2,0,0)        1.00000E-11
     (0,2,0)        2.00000E-11
     (0,0,2)       -3.00000E-11
 Nucleus-field energy     =    -0.0000000187 hartrees
 Requested basis set is 6-31G(d)
 There are 40 shells and 117 basis functions
 A cutoff of  1.0D-14 yielded    805 shell pairs
 There are      7077 function pairs
 Smallest overlap matrix eigenvalue = 2.77E-03
 Guess MOs from SCF MO coefficient file
 Reading MOs from coefficient file
 Reading MOs from coefficient file
 An unrestricted hybrid HF-DFT SCF calculation will be
 performed using Pulay DIIS extrapolation
 Exchange:     0.2000 Hartree-Fock + 0.0800 Slater + 0.7200 B88
 Correlation:  0.1900 VWN1RPA + 0.8100 LYP
 Using SG-1 standard quadrature grid
 SCF converges when DIIS error is below 1.0E-08
 Geometry optimization detected.  Setting ReadMinima to 0
 Setting SaveMinima to 0
Using Q-Chem read-in guess as SCF_GUESS READ specified.

 using 4 threads for integral computing
 -------------------------------------------------------
 OpenMP Integral computing Module                
 Release: version 1.0, May 2013, Q-Chem Inc. Pittsburgh 
 -------------------------------------------------------
 -------------------------------------------------------
 OpenMP BLAS3 based DFT computing Module                
 Release: version 1.0, May 2013, Q-Chem Inc. Pittsburgh 
 -------------------------------------------------------
 ---------------------------------------
  Cycle       Energy         DIIS Error
 ---------------------------------------
    1    -286.8647709435      3.11E-03
    2    -286.8086232957      8.50E-04
    3    -286.8076844525      1.15E-03
    4    -286.8100291363      3.11E-04
    5    -286.8102048613      7.15E-05
    6    -286.8102198056      2.87E-05
    7    -286.8102253833      1.14E-05
    8    -286.8102291895      4.59E-06
    9    -286.8102311750      1.87E-06
   10    -286.8102328411      1.29E-06
   11    -286.8102336419      8.55E-07
   12    -286.8102342010      3.75E-07
   13    -286.8102345017      2.15E-07
   14    -286.8102346583      5.61E-08
   15    -286.8102346690      2.97E-08
   16    -286.8102346698      9.17E-09 Convergence criterion met
 ---------------------------------------
 <S^2> = 0.7555
 SCF time:  CPU 40.37 s  wall 26.52 s
 SCF   energy in the final basis set = -286.81023467
 Total energy in the final basis set = -286.81023467
 
 --------------------------------------------------------------
 
                    Orbital Energies (a.u.)
 --------------------------------------------------------------
 
 Alpha MOs
 -- Occupied --
-14.338 -10.244 -10.220 -10.217 -10.211 -10.206 -10.193  -0.938
 -0.809  -0.770  -0.665  -0.645  -0.557  -0.530  -0.492  -0.459
 -0.448  -0.442  -0.403  -0.365  -0.327  -0.302  -0.252  -0.224
 -0.208
 -- Virtual --
 -0.048  -0.021   0.042   0.121   0.131   0.137   0.147   0.169
  0.177   0.217   0.243   0.301   0.343   0.365   0.386   0.424
  0.500   0.515   0.534   0.545   0.562   0.584   0.600   0.609
  0.621   0.632   0.648   0.662   0.687   0.700   0.745   0.800
  0.825   0.828   0.836   0.852   0.861   0.871   0.886   0.892
  0.904   0.938   1.021   1.037   1.099   1.144   1.171   1.255
  1.337   1.339   1.417   1.478   1.557   1.613   1.633   1.709
  1.722   1.742   1.840   1.849   1.881   1.897   1.939   1.960
  2.003   2.066   2.099   2.120   2.217   2.258   2.297   2.334
  2.359   2.398   2.463   2.504   2.533   2.552   2.601   2.704
  2.747   2.806   2.855   2.945   3.101   3.945   4.078   4.176
  4.227   4.307   4.437   4.481
 
 Beta MOs
 -- Occupied --
-14.337 -10.244 -10.216 -10.211 -10.207 -10.205 -10.194  -0.935
 -0.800  -0.764  -0.656  -0.636  -0.550  -0.528  -0.483  -0.455
 -0.443  -0.439  -0.397  -0.358  -0.323  -0.300  -0.249  -0.216
 -- Virtual --
 -0.079  -0.031  -0.014   0.047   0.129   0.135   0.141   0.151
  0.171   0.179   0.226   0.248   0.308   0.345   0.372   0.392
  0.428   0.504   0.527   0.540   0.552   0.569   0.588   0.609
  0.613   0.631   0.642   0.651   0.668   0.693   0.709   0.750
  0.804   0.826   0.831   0.840   0.854   0.864   0.876   0.892
  0.897   0.908   0.945   1.025   1.038   1.101   1.146   1.175
  1.264   1.340   1.342   1.423   1.489   1.559   1.622   1.645
  1.718   1.728   1.763   1.854   1.862   1.886   1.909   1.945
  1.966   2.011   2.076   2.105   2.135   2.223   2.265   2.306
  2.339   2.364   2.412   2.470   2.509   2.536   2.556   2.611
  2.708   2.751   2.810   2.860   2.947   3.104   3.946   4.085
  4.179   4.234   4.311   4.443   4.491
 --------------------------------------------------------------
 
          Ground-State Mulliken Net Atomic Charges

     Atom                 Charge (a.u.)    Spin (a.u.)
  --------------------------------------------------------
      1 C                     0.018601       0.011316
      2 C                    -0.145337      -0.026141
      3 C                    -0.205064       0.989719
      4 C                    -0.150730       0.003504
      5 C                     0.012863      -0.038421
      6 N                    -0.341567       0.053560
      7 H                     0.139659       0.002910
      8 H                     0.149088       0.018787
      9 H                     0.163346      -0.046151
     10 H                     0.163663       0.023900
     11 H                     0.157853       0.004367
     12 C                    -0.113346      -0.004123
     13 H                     0.150970       0.006774
  --------------------------------------------------------
  Sum of atomic charges =    -0.000000
  Sum of spin   charges =     1.000000

 -----------------------------------------------------------------
                    Cartesian Multipole Moments
 -----------------------------------------------------------------
    Charge (ESU x 10^10)
                -0.0000
    Dipole Moment (Debye)
         X      -0.5055      Y      -0.9759      Z       1.2286
       Tot       1.6485
    Quadrupole Moments (Debye-Ang)
        XX     -39.5185     XY      -1.6938     YY     -42.0203
        XZ       2.1489     YZ       2.9780     ZZ     -45.4437
    Octopole Moments (Debye-Ang^2)
       XXX      11.7252    XXY       2.1697    XYY      -2.6221
       YYY      -1.2092    XXZ      81.3461    XYZ       6.0571
       YYZ      92.2013    XZZ     -11.1793    YZZ      -9.0939
       ZZZ     269.8967
    Hexadecapole Moments (Debye-Ang^3)
      XXXX    -328.9084   XXXY      -8.3934   XXYY    -101.2488
      XYYY     -17.7893   YYYY    -327.8285   XXXZ      28.7419
      XXYZ      -5.5208   XYYZ      24.0405   YYYZ      16.5280
      XXZZ    -249.3389   XYZZ     -19.4837   YYZZ    -277.3063
      XZZZ      95.0315   YZZZ      45.3829   ZZZZ   -1251.0760
 -----------------------------------------------------------------
 Calculating analytic gradient of the SCF energy
 Gradient of SCF Energy
            1           2           3           4           5           6
    1  -0.0166604   0.0118938   0.0218604  -0.0105669  -0.0111467   0.0309090
    2   0.0054346  -0.0167595   0.0084950   0.0100923  -0.0029945   0.0084968
    3   0.0070388  -0.0200803  -0.0065933  -0.0106213   0.0026734   0.0056055
            7           8           9          10          11          12
    1   0.0006450  -0.0041254   0.0072686   0.0236723  -0.0051433  -0.0520902
    2   0.0066043   0.0012797   0.0044763  -0.0069395  -0.0136034  -0.0030315
    3  -0.0087829   0.0096161  -0.0052669  -0.0004005  -0.0039410   0.0354978
           13
    1   0.0034838
    2  -0.0015507
    3  -0.0047454
 Max gradient component =       5.209E-02
 RMS gradient           =       1.475E-02
 Gradient time:  CPU 7.45 s  wall 2.88 s
 Geometry Optimization Parameters
   NAtoms,    NIC,     NZ,  NCons,   NDum,   NFix, NCnnct, MaxDiis
       13      82       0       0       0       0       0       0

 Cartesian Hessian Update
 Hessian Updated using BFGS Update


** GEOMETRY OPTIMIZATION IN DELOCALIZED INTERNAL COORDINATES **
   Searching for a Minimum

   Optimization Cycle:   6

                       Coordinates (Angstroms)
     ATOM                X               Y               Z
      1  C         1.4837909719    0.3435122315   -2.3167141907
      2  C         1.1443949518   -0.9803322813   -2.3184011963
      3  C        -0.2953968041   -1.3273792090   -2.4850732509
      4  C        -1.1215549221    0.3495069930   -1.1347963212
      5  C        -0.6438794485    1.1650490931   -2.2978158978
      6  N         0.5910535183    1.3371455102   -2.6833981160
      7  H         2.5184919411    0.6985196170   -2.3183949748
      8  H         1.8427916746   -1.7280808859   -1.9476008903
      9  H        -0.6036091900   -1.3887569201   -3.5371317443
     10  H        -0.9299927323    0.7830073185   -0.1456255532
     11  H        -1.4521179324    1.6205468982   -2.8802458190
     12  C        -1.2885635817   -0.9787490566   -1.3038550391
     13  H        -1.5341904845   -1.7241045535   -0.5579440438
   Point Group: c1    Number of degrees of freedom:    33


   Energy is   -286.810234670

 Hessian Updated using BFGS Update

 33 Hessian modes will be used to form the next step
  Hessian Eigenvalues:
     0.003009    0.005533    0.007885    0.008926    0.013349    0.016192
     0.016997    0.018296    0.024779    0.045934    0.092908    0.110440
     0.137555    0.145393    0.150964    0.155420    0.159698    0.171112
     0.187452    0.210258    0.229950    0.265449    0.289658    0.296613
     0.306661    0.313721    0.326509    0.340191    0.347576    0.383384
     0.448188    0.494888    0.953969

 Minimum Search - Taking Simple RFO Step
 Searching for Lamda that Minimizes Along All modes
 Value Taken    Lamda =  -0.04191356
 Calculated Step too Large.  Step scaled by  0.403906
 Step Taken.  Stepsize is  0.300000

                             Maximum     Tolerance    Cnvgd?
         Gradient           0.029264      0.000600      NO
         Displacement       0.121886      0.002400      NO
         Energy change     -0.023724      0.000002      NO


 New Cartesian Coordinates Obtained by Inverse Iteration

 Displacement from previous Coordinates is:  0.341099
 ----------------------------------------------------------------
             Standard Nuclear Orientation (Angstroms)
    I     Atom           X                Y                Z
 ----------------------------------------------------------------
    1      C       1.4795672750     0.3357699768    -2.3185583088
    2      C       1.1369129331    -0.9800573613    -2.3255563562
    3      C      -0.2924083567    -1.3540815087    -2.4838523418
    4      C      -1.1264660197     0.3498992131    -1.1445081950
    5      C      -0.6440984076     1.1878208517    -2.2902360763
    6      N       0.5853379590     1.3424819260    -2.6714683942
    7      H       2.5171323859     0.6682985782    -2.2987262202
    8      H       1.8510858913    -1.7246017988    -1.9807103432
    9      H      -0.6403131546    -1.4477535444    -3.5171493624
   10      H      -1.0286649199     0.7938271541    -0.1471949718
   11      H      -1.4290493652     1.6826077613    -2.8698725925
   12      C      -1.2215315320    -0.9796598787    -1.3256138271
   13      H      -1.4762867265    -1.7046666141    -0.5535500479
 ----------------------------------------------------------------
 Nuclear Repulsion Energy =   265.8171234857 hartrees
 There are       25 alpha and       24 beta electrons
 Applying Cartesian multipole field
    Component          Value
    ---------          -----
     (2,0,0)        1.00000E-11
     (0,2,0)        2.00000E-11
     (0,0,2)       -3.00000E-11
 Nucleus-field energy     =    -0.0000000187 hartrees
 Requested basis set is 6-31G(d)
 There are 40 shells and 117 basis functions
 A cutoff of  1.0D-14 yielded    806 shell pairs
 There are      7078 function pairs
 Smallest overlap matrix eigenvalue = 2.63E-03
 Guess MOs from SCF MO coefficient file
 Reading MOs from coefficient file
 Reading MOs from coefficient file
 An unrestricted hybrid HF-DFT SCF calculation will be
 performed using Pulay DIIS extrapolation
 Exchange:     0.2000 Hartree-Fock + 0.0800 Slater + 0.7200 B88
 Correlation:  0.1900 VWN1RPA + 0.8100 LYP
 Using SG-1 standard quadrature grid
 SCF converges when DIIS error is below 1.0E-08
 Geometry optimization detected.  Setting ReadMinima to 0
 Setting SaveMinima to 0
Using Q-Chem read-in guess as SCF_GUESS READ specified.

 using 4 threads for integral computing
 -------------------------------------------------------
 OpenMP Integral computing Module                
 Release: version 1.0, May 2013, Q-Chem Inc. Pittsburgh 
 -------------------------------------------------------
 -------------------------------------------------------
 OpenMP BLAS3 based DFT computing Module                
 Release: version 1.0, May 2013, Q-Chem Inc. Pittsburgh 
 -------------------------------------------------------
 ---------------------------------------
  Cycle       Energy         DIIS Error
 ---------------------------------------
    1    -286.8516168755      2.14E-03
    2    -286.8247011259      4.95E-04
    3    -286.8242648972      7.43E-04
    4    -286.8252490105      1.94E-04
    5    -286.8253176630      3.87E-05
    6    -286.8253243977      1.76E-05
    7    -286.8253269052      8.20E-06
    8    -286.8253285285      2.37E-06
    9    -286.8253292467      1.33E-06
   10    -286.8253298347      7.23E-07
   11    -286.8253301086      4.82E-07
   12    -286.8253303250      2.02E-07
   13    -286.8253304523      1.18E-07
   14    -286.8253305070      3.10E-08
   15    -286.8253305110      1.53E-08
[...]
     0.221122    0.242651    0.278758    0.289875    0.296731    0.314483
     0.322426    0.329426    0.350092    0.392259    0.415801    0.462816
     0.503058    0.574121    0.597635

 Minimum Search - Taking Simple RFO Step
 Searching for Lamda that Minimizes Along All modes
 Value Taken    Lamda =  -0.00000191
 Step Taken.  Stepsize is  0.008416

                             Maximum     Tolerance    Cnvgd?
         Gradient           0.000208      0.000600     YES
         Displacement       0.003805      0.002400      NO
         Energy change     -0.000003      0.000002      NO


 New Cartesian Coordinates Obtained by Inverse Iteration

 Displacement from previous Coordinates is:  0.009164
 ----------------------------------------------------------------
             Standard Nuclear Orientation (Angstroms)
    I     Atom           X                Y                Z
 ----------------------------------------------------------------
    1      C       1.4584433809     0.3609201963    -2.6380037139
    2      C       1.1695215161    -0.9863146799    -2.5203800514
    3      C      -0.0285772129    -1.5978222423    -2.0043108094
    4      C      -1.3307897977     0.4643141103    -1.4168671680
    5      C      -0.4664668769     1.4767901003    -1.7862062698
    6      N       0.7730784519     1.4863357534    -2.3318569574
    7      H       2.4390773590     0.5833358964    -3.0649556504
    8      H       1.9461621375    -1.6657683195    -2.8634170117
    9      H      -0.0436191758    -2.6859778619    -2.0075754915
   10      H      -2.2798303571     0.7866980292    -0.9953344853
   11      H      -0.8431886737     2.4870497947    -1.6114101764
   12      C      -1.1306094688    -0.9593758352    -1.5189716351
   13      H      -1.9519833204    -1.5803001867    -1.1677076172
 ----------------------------------------------------------------
 Nuclear Repulsion Energy =   260.7199170617 hartrees
 There are       25 alpha and       24 beta electrons
 Applying Cartesian multipole field
    Component          Value
    ---------          -----
     (2,0,0)        1.00000E-11
     (0,2,0)        2.00000E-11
     (0,0,2)       -3.00000E-11
 Nucleus-field energy     =    -0.0000000151 hartrees
 Requested basis set is 6-31G(d)
 There are 40 shells and 117 basis functions
 A cutoff of  1.0D-14 yielded    791 shell pairs
 There are      7063 function pairs
 Smallest overlap matrix eigenvalue = 1.33E-03
 Guess MOs from SCF MO coefficient file
 Reading MOs from coefficient file
 Reading MOs from coefficient file
 An unrestricted hybrid HF-DFT SCF calculation will be
 performed using Pulay DIIS extrapolation
 Exchange:     0.2000 Hartree-Fock + 0.0800 Slater + 0.7200 B88
 Correlation:  0.1900 VWN1RPA + 0.8100 LYP
 Using SG-1 standard quadrature grid
 SCF converges when DIIS error is below 1.0E-08
 Geometry optimization detected.  Setting ReadMinima to 0
 Setting SaveMinima to 0
Using Q-Chem read-in guess as SCF_GUESS READ specified.

 using 4 threads for integral computing
 -------------------------------------------------------
 OpenMP Integral computing Module                
 Release: version 1.0, May 2013, Q-Chem Inc. Pittsburgh 
 -------------------------------------------------------
 -------------------------------------------------------
 OpenMP BLAS3 based DFT computing Module                
 Release: version 1.0, May 2013, Q-Chem Inc. Pittsburgh 
 -------------------------------------------------------
 ---------------------------------------
  Cycle       Energy         DIIS Error
 ---------------------------------------
    1    -286.9244951206      6.66E-05
    2    -286.9243351536      7.97E-06
    3    -286.9243352691      9.20E-06
    4    -286.9243354431      2.60E-06
    5    -286.9243354807      1.15E-06
    6    -286.9243355030      8.15E-07
    7    -286.9243355336      6.25E-07
    8    -286.9243355505      4.02E-07
    9    -286.9243355627      1.11E-07
   10    -286.9243355637      4.36E-08
   11    -286.9243355639      1.49E-08
   12    -286.9243355639      9.42E-09 Convergence criterion met
 ---------------------------------------
 <S^2> = 0.7684
 SCF time:  CPU 29.86 s  wall 23.72 s
 SCF   energy in the final basis set = -286.92433556
 Total energy in the final basis set = -286.92433556
 
 --------------------------------------------------------------
 
                    Orbital Energies (a.u.)
 --------------------------------------------------------------
 
 Alpha MOs
 -- Occupied --
-14.322 -10.232 -10.232 -10.212 -10.211 -10.201 -10.200  -0.922
 -0.818  -0.784  -0.693  -0.667  -0.551  -0.537  -0.518  -0.449
 -0.439  -0.414  -0.394  -0.387  -0.349  -0.322  -0.299  -0.251
 -0.162
 -- Virtual --
 -0.072   0.077   0.097   0.101   0.117   0.142   0.181   0.184
  0.193   0.213   0.266   0.320   0.356   0.390   0.412   0.483
  0.496   0.521   0.547   0.576   0.584   0.587   0.591   0.610
  0.619   0.624   0.646   0.658   0.714   0.718   0.833   0.840
  0.847   0.854   0.868   0.872   0.885   0.922   0.964   0.975
  1.024   1.027   1.043   1.127   1.177   1.185   1.300   1.303
  1.326   1.402   1.429   1.480   1.482   1.546   1.574   1.586
  1.682   1.732   1.769   1.829   1.850   1.919   1.924   2.030
  2.046   2.048   2.100   2.141   2.142   2.191   2.247   2.391
  2.410   2.414   2.446   2.545   2.577   2.601   2.614   2.739
  2.749   2.807   3.052   3.249   3.250   4.018   4.046   4.102
  4.196   4.239   4.532   4.595
 
 Beta MOs
 -- Occupied --
-14.314 -10.234 -10.233 -10.210 -10.210 -10.196 -10.196  -0.911
 -0.809  -0.777  -0.681  -0.665  -0.546  -0.534  -0.514  -0.447
 -0.438  -0.411  -0.383  -0.373  -0.348  -0.295  -0.276  -0.241
 -- Virtual --
 -0.078  -0.070   0.078   0.118   0.124   0.125   0.142   0.182
  0.187   0.196   0.219   0.268   0.324   0.360   0.393   0.415
  0.486   0.505   0.525   0.552   0.587   0.588   0.592   0.596
  0.614   0.623   0.629   0.649   0.676   0.716   0.729   0.834
  0.843   0.846   0.869   0.875   0.880   0.887   0.925   0.967
  0.979   1.026   1.030   1.045   1.133   1.180   1.189   1.311
  1.315   1.333   1.411   1.429   1.489   1.492   1.560   1.582
  1.597   1.685   1.737   1.781   1.831   1.853   1.922   1.933
  2.036   2.058   2.061   2.110   2.141   2.147   2.203   2.259
  2.399   2.422   2.425   2.448   2.558   2.579   2.611   2.624
  2.742   2.761   2.810   3.054   3.252   3.253   4.030   4.053
  4.109   4.201   4.239   4.537   4.601
 --------------------------------------------------------------
 
          Ground-State Mulliken Net Atomic Charges

     Atom                 Charge (a.u.)    Spin (a.u.)
  --------------------------------------------------------
      1 C                     0.036030      -0.115002
      2 C                    -0.132045       0.351036
      3 C                    -0.110888       0.088823
      4 C                    -0.130910       0.343239
      5 C                     0.035019      -0.110394
      6 N                    -0.423294       0.386889
      7 H                     0.142608       0.003520
      8 H                     0.134356      -0.018522
      9 H                     0.141956      -0.006399
     10 H                     0.134432      -0.018159
     11 H                     0.142589       0.003292
     12 C                    -0.111766       0.098544
     13 H                     0.141914      -0.006867
  --------------------------------------------------------
  Sum of atomic charges =     0.000000
  Sum of spin   charges =     1.000000

 -----------------------------------------------------------------
                    Cartesian Multipole Moments
 -----------------------------------------------------------------
    Charge (ESU x 10^10)
                 0.0000
    Dipole Moment (Debye)
         X      -0.9662      Y      -1.9824      Z       0.4125
       Tot       2.2436
    Quadrupole Moments (Debye-Ang)
        XX     -37.1965     XY      -2.8670     YY     -40.0255
        XZ      -0.7778     YZ       5.2706     ZZ     -43.8194
    Octopole Moments (Debye-Ang^2)
       XXX      -5.3388    XXY      -3.1154    XYY      -9.5735
       YYY     -13.1321    XXZ      75.4127    XYZ       7.3660
       YYZ      84.2780    XZZ       5.2877    YZZ     -13.0645
       ZZZ     260.5818
    Hexadecapole Moments (Debye-Ang^3)
      XXXX    -327.8486   XXXY      -1.4220   XXYY    -125.3840
      XYYY     -19.0970   YYYY    -397.4988   XXXZ      61.4285
      XXYZ       6.6443   XYYZ      38.6151   YYYZ      33.4639
      XXZZ    -224.1925   XYZZ     -18.2892   YYZZ    -266.0993
      XZZZ      54.4896   YZZZ      29.3225   ZZZZ   -1152.1206
 -----------------------------------------------------------------
 Calculating analytic gradient of the SCF energy
 Gradient of SCF Energy
            1           2           3           4           5           6
    1  -0.0000554   0.0000621  -0.0001204  -0.0000099  -0.0000847   0.0001172
    2   0.0002250  -0.0000694   0.0000268   0.0003634  -0.0001248  -0.0001899
    3   0.0001167  -0.0000685   0.0000687  -0.0001094   0.0001495  -0.0001815
            7           8           9          10          11          12
    1   0.0000467   0.0000037   0.0000643   0.0000480  -0.0000746  -0.0001164
    2   0.0000374  -0.0000363  -0.0000509  -0.0000194   0.0000162  -0.0002251
    3  -0.0000254  -0.0000104  -0.0000029   0.0000649   0.0000001   0.0000749
           13
    1   0.0001195
    2   0.0000471
    3  -0.0000766
 Max gradient component =       3.634E-04
 RMS gradient           =       1.121E-04
 Gradient time:  CPU 7.36 s  wall 3.42 s
 Geometry Optimization Parameters
   NAtoms,    NIC,     NZ,  NCons,   NDum,   NFix, NCnnct, MaxDiis
       13      82       0       0       0       0       0       0

 Cartesian Hessian Update
 Hessian Updated using BFGS Update


** GEOMETRY OPTIMIZATION IN DELOCALIZED INTERNAL COORDINATES **
   Searching for a Minimum

   Optimization Cycle:  38

                       Coordinates (Angstroms)
     ATOM                X               Y               Z
      1  C         1.4584433809    0.3609201963   -2.6380037139
      2  C         1.1695215161   -0.9863146799   -2.5203800514
      3  C        -0.0285772129   -1.5978222423   -2.0043108094
      4  C        -1.3307897977    0.4643141103   -1.4168671680
      5  C        -0.4664668769    1.4767901003   -1.7862062698
      6  N         0.7730784519    1.4863357534   -2.3318569574
      7  H         2.4390773590    0.5833358964   -3.0649556504
      8  H         1.9461621375   -1.6657683195   -2.8634170117
      9  H        -0.0436191758   -2.6859778619   -2.0075754915
     10  H        -2.2798303571    0.7866980292   -0.9953344853
     11  H        -0.8431886737    2.4870497947   -1.6114101764
     12  C        -1.1306094688   -0.9593758352   -1.5189716351
     13  H        -1.9519833204   -1.5803001867   -1.1677076172
   Point Group: c1    Number of degrees of freedom:    33


   Energy is   -286.924335564

 Hessian Updated using BFGS Update

 33 Hessian modes will be used to form the next step
  Hessian Eigenvalues:
     0.007595    0.010080    0.013628    0.016943    0.019103    0.023523
     0.025045    0.028202    0.034720    0.041720    0.071051    0.141063
     0.149794    0.153074    0.156702    0.165938    0.181539    0.201709
     0.221783    0.246895    0.272451    0.290537    0.297072    0.313285
     0.321556    0.326942    0.348775    0.413520    0.417154    0.456795
     0.501968    0.557148    0.577137

 Minimum Search - Taking Simple RFO Step
 Searching for Lamda that Minimizes Along All modes
 Value Taken    Lamda =  -0.00000128
 Step Taken.  Stepsize is  0.006774

                             Maximum     Tolerance    Cnvgd?
         Gradient           0.000144      0.000600     YES
         Displacement       0.002563      0.002400      NO
         Energy change     -0.000001      0.000002     YES


                       Distance Matrix (Angstroms)
             C (  1)   C (  2)   C (  3)   C (  4)   C (  5)   N (  6)
   C (  2)  1.382879
   C (  3)  2.539580  1.440732
   C (  4)  3.046586  3.094127  2.508636
   C (  5)  2.382437  3.046696  3.113287  1.381511
   N (  6)  1.352779  2.511316  3.203431  2.511572  1.354363
   H (  7)  1.092428  2.090966  3.460020  4.116098  3.297825  2.031845
   H (  8)  2.096699  1.087429  2.154594  4.167514  4.105708  3.405061
   H (  9)  3.455028  2.150240  1.088264  3.453995  4.190041  4.263843
   H ( 10)  4.105404  4.167417  3.431051  1.087336  2.095231  3.405296
   H ( 11)  3.297246  4.116004  4.183795  2.089752  1.092290  2.032927
   C ( 12)  3.114259  2.508814  1.362954  1.441316  2.539174  3.204109
   H ( 13)  4.190599  3.453452  2.097547  2.151374  3.454722  4.264442
             H (  7)   H (  8)   H (  9)   H ( 10)   H ( 11)   C ( 12)
   H (  8)  2.311288
   H (  9)  4.239133  2.394269
   H ( 10)  5.156819  5.230998  4.252617
   H ( 11)  4.063273  5.156927  5.249426  2.309694
   C ( 12)  4.184817  3.431187  2.097960  2.154920  3.459625
   H ( 13)  5.249980  4.251855  2.360033  2.395804  4.239060  1.087929

 
 Final energy is   -286.924335563872     


 ******************************
 **  OPTIMIZATION CONVERGED  **
 ******************************

                       Coordinates (Angstroms)
     ATOM                X               Y               Z
      1  C         1.4584433809    0.3609201963   -2.6380037139
      2  C         1.1695215161   -0.9863146799   -2.5203800514
      3  C        -0.0285772129   -1.5978222423   -2.0043108094
      4  C        -1.3307897977    0.4643141103   -1.4168671680
      5  C        -0.4664668769    1.4767901003   -1.7862062698
      6  N         0.7730784519    1.4863357534   -2.3318569574
      7  H         2.4390773590    0.5833358964   -3.0649556504
      8  H         1.9461621375   -1.6657683195   -2.8634170117
      9  H        -0.0436191758   -2.6859778619   -2.0075754915
     10  H        -2.2798303571    0.7866980292   -0.9953344853
     11  H        -0.8431886737    2.4870497947   -1.6114101764
     12  C        -1.1306094688   -0.9593758352   -1.5189716351
     13  H        -1.9519833204   -1.5803001867   -1.1677076172

Z-matrix Print:
$molecule
0 2
N 
C  1 1.352779
H  2 1.092428 1 111.953721
C  1 1.354363 2 123.298248 3 -179.799178 0
H  4 1.092290 1 111.938228 2 179.742407 0
C  4 1.381511 1 133.272659 2 -0.374390 0
H  6 1.087336 4 115.620948 1 179.994007 0
C  2 1.382879 1 133.265995 3 -179.978468 0
H  8 1.087429 2 115.637309 1 -179.992419 0
C  8 1.440732 2 128.149241 1 0.135468 0
H  10 1.088264 8 115.773802 2 179.807116 0
C  10 1.362954 8 126.950411 2 -0.184183 0
H  12 1.087929 10 117.263127 8 179.959472 0
$end

 
 --------------------------------------------------------------
 
                    Orbital Energies (a.u.)
 --------------------------------------------------------------
 
 Alpha MOs
 -- Occupied --
-14.322 -10.232 -10.232 -10.212 -10.211 -10.201 -10.200  -0.922
 -0.818  -0.784  -0.693  -0.667  -0.551  -0.537  -0.518  -0.449
 -0.439  -0.414  -0.394  -0.387  -0.349  -0.322  -0.299  -0.251
 -0.162
 -- Virtual --
 -0.072   0.077   0.097   0.101   0.117   0.142   0.181   0.184
  0.193   0.213   0.266   0.320   0.356   0.390   0.412   0.483
  0.496   0.521   0.547   0.576   0.584   0.587   0.591   0.610
  0.619   0.624   0.646   0.658   0.714   0.718   0.833   0.840
  0.847   0.854   0.868   0.872   0.885   0.922   0.964   0.975
  1.024   1.027   1.043   1.127   1.177   1.185   1.300   1.303
  1.326   1.402   1.429   1.480   1.482   1.546   1.574   1.586
  1.682   1.732   1.769   1.829   1.850   1.919   1.924   2.030
  2.046   2.048   2.100   2.141   2.142   2.191   2.247   2.391
  2.410   2.414   2.446   2.545   2.577   2.601   2.614   2.739
  2.749   2.807   3.052   3.249   3.250   4.018   4.046   4.102
  4.196   4.239   4.532   4.595
 
 Beta MOs
 -- Occupied --
-14.314 -10.234 -10.233 -10.210 -10.210 -10.196 -10.196  -0.911
 -0.809  -0.777  -0.681  -0.665  -0.546  -0.534  -0.514  -0.447
 -0.438  -0.411  -0.383  -0.373  -0.348  -0.295  -0.276  -0.241
 -- Virtual --
 -0.078  -0.070   0.078   0.118   0.124   0.125   0.142   0.182
  0.187   0.196   0.219   0.268   0.324   0.360   0.393   0.415
  0.486   0.505   0.525   0.552   0.587   0.588   0.592   0.596
  0.614   0.623   0.629   0.649   0.676   0.716   0.729   0.834
  0.843   0.846   0.869   0.875   0.880   0.887   0.925   0.967
  0.979   1.026   1.030   1.045   1.133   1.180   1.189   1.311
  1.315   1.333   1.411   1.429   1.489   1.492   1.560   1.582
  1.597   1.685   1.737   1.781   1.831   1.853   1.922   1.933
  2.036   2.058   2.061   2.110   2.141   2.147   2.203   2.259
  2.399   2.422   2.425   2.448   2.558   2.579   2.611   2.624
  2.742   2.761   2.810   3.054   3.252   3.253   4.030   4.053
  4.109   4.201   4.239   4.537   4.601
 --------------------------------------------------------------
 
          Ground-State Mulliken Net Atomic Charges

     Atom                 Charge (a.u.)    Spin (a.u.)
  --------------------------------------------------------
      1 C                     0.036030      -0.115002
      2 C                    -0.132045       0.351036
      3 C                    -0.110888       0.088823
      4 C                    -0.130910       0.343239
      5 C                     0.035019      -0.110394
      6 N                    -0.423294       0.386889
      7 H                     0.142608       0.003520
      8 H                     0.134356      -0.018522
      9 H                     0.141956      -0.006399
     10 H                     0.134432      -0.018159
     11 H                     0.142589       0.003292
     12 C                    -0.111766       0.098544
     13 H                     0.141914      -0.006867
  --------------------------------------------------------
  Sum of atomic charges =     0.000000
  Sum of spin   charges =     1.000000

 -----------------------------------------------------------------
                    Cartesian Multipole Moments
 -----------------------------------------------------------------
    Charge (ESU x 10^10)
                 0.0000
    Dipole Moment (Debye)
         X      -0.9662      Y      -1.9824      Z       0.4125
       Tot       2.2436
    Quadrupole Moments (Debye-Ang)
        XX     -37.1965     XY      -2.8670     YY     -40.0255
        XZ      -0.7778     YZ       5.2706     ZZ     -43.8194
    Octopole Moments (Debye-Ang^2)
       XXX      -5.3388    XXY      -3.1154    XYY      -9.5735
       YYY     -13.1321    XXZ      75.4127    XYZ       7.3660
       YYZ      84.2780    XZZ       5.2877    YZZ     -13.0645
       ZZZ     260.5818
    Hexadecapole Moments (Debye-Ang^3)
      XXXX    -327.8486   XXXY      -1.4220   XXYY    -125.3840
      XYYY     -19.0970   YYYY    -397.4988   XXXZ      61.4285
      XXYZ       6.6443   XYYZ      38.6151   YYYZ      33.4639
      XXZZ    -224.1925   XYZZ     -18.2892   YYZZ    -266.0993
      XZZZ      54.4896   YZZZ      29.3225   ZZZZ   -1152.1206
 -----------------------------------------------------------------
Archival summary:
1\1\c8-66\OPT\ProcedureUnspecified\6-31G*\166(2)\hpark21\TueMar120:21:132022TueMar120:21:132022\0\\#,OPT,ProcedureUnspecified,6-31G*,\\0,2\N\C,1,1.35278\H,2,1.09243,1,111.954\C,1,1.35436,2,123.298,3,-179.799,0\H,4,1.09229,1,111.938,2,179.742,0\C,4,1.38151,1,133.273,2,-0.37439,0\H,6,1.08734,4,115.621,1,179.994,0\C,2,1.38288,1,133.266,3,-179.978,0\H,8,1.08743,2,115.637,1,-179.992,0\C,8,1.44073,2,128.149,1,0.135468,0\H,10,1.08826,8,115.774,2,179.807,0\C,10,1.36295,8,126.95,2,-0.184183,0\H,12,1.08793,10,117.263,8,179.959,0\\\@

 Total job time:  1369.90s(wall), 1788.66s(cpu) 
 Tue Mar  1 20:21:13 2022

        *************************************************************
        *                                                           *
        *  Thank you very much for using Q-Chem.  Have a nice day.  *
        *                                                           *
        *************************************************************


