13   
From optimize.out: Frame 1 / 38, Energy=    -286.5779459517
C        0.0535720000   -0.2211900000   -0.0000000000
C       -0.1762340000    0.4639860000   -0.0000000000
C       -0.2061210000    0.7751650000   -0.0000000000
C       -0.1639180000   -0.2698810000   -0.0000000000
C       -0.0513820000   -0.6692330000   -0.0000000000
N       -0.3556790000    0.4173530000   -0.0000000000
H        0.1547150000    0.0156010000   -0.0000000000
H        0.1671520000   -0.0043900000   -0.0000000000
H        0.1766800000   -0.0359420000   -0.0000000000
H        0.1746990000    0.0391360000   -0.0000000000
H        0.1811920000    0.0344510000   -0.0000000000
C       -0.1298660000    0.4733320000   -0.0000000000
H        0.1751910000   -0.0183860000   -0.0000000000
13   
From optimize.out: Frame 2 / 38, Energy=    -286.6405227525
C        0.0504110000   -0.1866210000   -0.0000000000
C       -0.1670690000    0.3866540000   -0.0000000000
C       -0.2077540000    0.8074000000   -0.0000000000
C       -0.1528970000   -0.1577760000   -0.0000000000
C       -0.0401370000   -0.5466820000   -0.0000000000
N       -0.3609070000    0.3782050000   -0.0000000000
H        0.1490630000    0.0137340000   -0.0000000000
H        0.1632220000   -0.0028460000   -0.0000000000
H        0.1757400000   -0.0322740000   -0.0000000000
H        0.1717440000    0.0326930000   -0.0000000000
H        0.1812980000    0.0305060000   -0.0000000000
C       -0.1339570000    0.2905180000   -0.0000000000
H        0.1712440000   -0.0135110000   -0.0000000000
13   
From optimize.out: Frame 3 / 38, Energy=    -286.6984510207
C        0.0429630000   -0.1263030000   -0.0000000000
C       -0.1603460000    0.2506490000   -0.0000000000
C       -0.2101730000    0.8478600000   -0.0000000000
C       -0.1465810000   -0.0839940000   -0.0000000000
C       -0.0230510000   -0.3614920000   -0.0000000000
N       -0.3634470000    0.2909240000   -0.0000000000
H        0.1439460000    0.0099030000   -0.0000000000
H        0.1588920000    0.0011820000   -0.0000000000
H        0.1739650000   -0.0337390000   -0.0000000000
H        0.1701110000    0.0302710000   -0.0000000000
H        0.1790150000    0.0227260000   -0.0000000000
C       -0.1315490000    0.1610590000   -0.0000000000
H        0.1662550000   -0.0090460000   -0.0000000000
13   
From optimize.out: Frame 4 / 38, Energy=    -286.7489258252
C        0.0317800000   -0.0522020000   -0.0000000000
C       -0.1536050000    0.0983020000   -0.0000000000
C       -0.2124740000    0.9064320000   -0.0000000000
C       -0.1458020000   -0.0500480000   -0.0000000000
C       -0.0033460000   -0.1710480000   -0.0000000000
N       -0.3580430000    0.1690950000   -0.0000000000
H        0.1402980000    0.0055490000   -0.0000000000
H        0.1550460000    0.0080160000   -0.0000000000
H        0.1704780000   -0.0388690000   -0.0000000000
H        0.1687570000    0.0297740000   -0.0000000000
H        0.1722220000    0.0130290000   -0.0000000000
C       -0.1267590000    0.0871510000   -0.0000000000
H        0.1614480000   -0.0051810000   -0.0000000000
13   
From optimize.out: Frame 5 / 38, Energy=    -286.7865106974
C        0.0209810000   -0.0064550000   -0.0000000000
C       -0.1474970000    0.0086360000   -0.0000000000
C       -0.2111530000    0.9608430000   -0.0000000000
C       -0.1489520000   -0.0240390000   -0.0000000000
C        0.0105610000   -0.0702810000   -0.0000000000
N       -0.3454090000    0.0864200000   -0.0000000000
H        0.1390790000    0.0035640000   -0.0000000000
H        0.1519290000    0.0147320000   -0.0000000000
H        0.1661730000   -0.0436030000   -0.0000000000
H        0.1662010000    0.0273080000   -0.0000000000
H        0.1627440000    0.0069870000   -0.0000000000
C       -0.1206970000    0.0365020000   -0.0000000000
H        0.1560410000   -0.0006130000   -0.0000000000
13   
From optimize.out: Frame 6 / 38, Energy=    -286.8102346698
C        0.0186010000    0.0113160000   -0.0000000000
C       -0.1453370000   -0.0261410000   -0.0000000000
C       -0.2050640000    0.9897190000   -0.0000000000
C       -0.1507300000    0.0035040000   -0.0000000000
C        0.0128630000   -0.0384210000   -0.0000000000
N       -0.3415670000    0.0535600000   -0.0000000000
H        0.1396590000    0.0029100000   -0.0000000000
H        0.1490880000    0.0187870000   -0.0000000000
H        0.1633460000   -0.0461510000   -0.0000000000
H        0.1636630000    0.0239000000   -0.0000000000
H        0.1578530000    0.0043670000   -0.0000000000
C       -0.1133460000   -0.0041230000   -0.0000000000
H        0.1509700000    0.0067740000   -0.0000000000
13   
From optimize.out: Frame 7 / 38, Energy=    -286.8253305112
C        0.0196170000    0.0234780000   -0.0000000000
C       -0.1452440000   -0.0486820000   -0.0000000000
C       -0.1991950000    1.0098190000   -0.0000000000
C       -0.1494300000    0.0246250000   -0.0000000000
C        0.0129970000   -0.0196320000   -0.0000000000
N       -0.3419270000    0.0326310000   -0.0000000000
H        0.1400510000    0.0024800000   -0.0000000000
H        0.1473730000    0.0221690000   -0.0000000000
H        0.1617750000   -0.0478650000   -0.0000000000
H        0.1616040000    0.0199100000   -0.0000000000
H        0.1547660000    0.0025260000   -0.0000000000
C       -0.1103710000   -0.0364560000   -0.0000000000
H        0.1479850000    0.0149970000   -0.0000000000
13   
From optimize.out: Frame 8 / 38, Energy=    -286.8364125580
C        0.0204320000    0.0348910000   -0.0000000000
C       -0.1452420000   -0.0659300000   -0.0000000000
C       -0.1945430000    1.0225560000   -0.0000000000
C       -0.1467850000    0.0364590000   -0.0000000000
C        0.0140910000   -0.0050820000   -0.0000000000
N       -0.3421660000    0.0164610000   -0.0000000000
H        0.1405130000    0.0020870000   -0.0000000000
H        0.1463890000    0.0249490000   -0.0000000000
H        0.1609500000   -0.0484200000   -0.0000000000
H        0.1594420000    0.0162240000   -0.0000000000
H        0.1518430000    0.0011510000   -0.0000000000
C       -0.1112890000   -0.0566560000   -0.0000000000
H        0.1463650000    0.0213110000   -0.0000000000
13   
From optimize.out: Frame 9 / 38, Energy=    -286.8456768756
C        0.0222600000    0.0455870000   -0.0000000000
C       -0.1448660000   -0.0785740000   -0.0000000000
C       -0.1914410000    1.0255680000   -0.0000000000
C       -0.1440550000    0.0442630000   -0.0000000000
C        0.0146320000    0.0047190000   -0.0000000000
N       -0.3452320000    0.0062350000   -0.0000000000
H        0.1409170000    0.0016790000   -0.0000000000
H        0.1455820000    0.0269980000   -0.0000000000
H        0.1603050000   -0.0482880000   -0.0000000000
H        0.1569810000    0.0137570000   -0.0000000000
H        0.1504910000    0.0002590000   -0.0000000000
C       -0.1113560000   -0.0692760000   -0.0000000000
H        0.1457820000    0.0270750000   -0.0000000000
13   
From optimize.out: Frame 10 / 38, Energy=    -286.8536594476
C        0.0226380000    0.0592560000   -0.0000000000
C       -0.1442690000   -0.0906470000   -0.0000000000
C       -0.1886960000    1.0236000000   -0.0000000000
C       -0.1405150000    0.0501890000   -0.0000000000
C        0.0167590000    0.0130960000   -0.0000000000
N       -0.3464580000   -0.0012630000   -0.0000000000
H        0.1411740000    0.0010650000   -0.0000000000
H        0.1449510000    0.0283970000   -0.0000000000
H        0.1600490000   -0.0474810000   -0.0000000000
H        0.1545910000    0.0113050000   -0.0000000000
H        0.1482430000   -0.0004480000   -0.0000000000
C       -0.1139380000   -0.0776370000   -0.0000000000
H        0.1454700000    0.0305690000   -0.0000000000
13   
From optimize.out: Frame 11 / 38, Energy=    -286.8607743748
C        0.0242270000    0.0735960000   -0.0000000000
C       -0.1430130000   -0.1013960000   -0.0000000000
C       -0.1874490000    1.0142100000   -0.0000000000
C       -0.1374070000    0.0579330000   -0.0000000000
C        0.0176540000    0.0192690000   -0.0000000000
N       -0.3507650000   -0.0054030000   -0.0000000000
H        0.1413330000    0.0003280000   -0.0000000000
H        0.1442270000    0.0294850000   -0.0000000000
H        0.1594010000   -0.0469860000   -0.0000000000
H        0.1519270000    0.0096970000   -0.0000000000
H        0.1476440000   -0.0009190000   -0.0000000000
C       -0.1135920000   -0.0845460000   -0.0000000000
H        0.1458110000    0.0347300000   -0.0000000000
13   
From optimize.out: Frame 12 / 38, Energy=    -286.8671147326
C        0.0236250000    0.0937680000   -0.0000000000
C       -0.1411140000   -0.1137340000   -0.0000000000
C       -0.1862210000    0.9996550000   -0.0000000000
C       -0.1338310000    0.0673800000   -0.0000000000
C        0.0201330000    0.0254320000   -0.0000000000
N       -0.3524920000   -0.0076890000   -0.0000000000
H        0.1413500000   -0.0008630000   -0.0000000000
H        0.1434880000    0.0298930000   -0.0000000000
H        0.1590870000   -0.0459050000   -0.0000000000
H        0.1496840000    0.0076120000   -0.0000000000
H        0.1459600000   -0.0013710000   -0.0000000000
C       -0.1155830000   -0.0902820000   -0.0000000000
H        0.1459140000    0.0361050000   -0.0000000000
13   
From optimize.out: Frame 13 / 38, Energy=    -286.8728607612
C        0.0227800000    0.1172880000   -0.0000000000
C       -0.1378230000   -0.1262760000   -0.0000000000
C       -0.1863360000    0.9769700000   -0.0000000000
C       -0.1315120000    0.0821470000   -0.0000000000
C        0.0221760000    0.0309910000   -0.0000000000
N       -0.3552670000   -0.0078710000   -0.0000000000
H        0.1411920000   -0.0023300000   -0.0000000000
H        0.1427330000    0.0301480000   -0.0000000000
H        0.1582060000   -0.0452260000   -0.0000000000
H        0.1474030000    0.0056590000   -0.0000000000
H        0.1451810000   -0.0017430000   -0.0000000000
C       -0.1149230000   -0.0974260000   -0.0000000000
H        0.1461890000    0.0376690000   -0.0000000000
13   
From optimize.out: Frame 14 / 38, Energy=    -286.8781983225
C        0.0204480000    0.1461250000   -0.0000000000
C       -0.1335300000   -0.1393440000   -0.0000000000
C       -0.1866550000    0.9462710000   -0.0000000000
C       -0.1300440000    0.1019930000   -0.0000000000
C        0.0245470000    0.0363540000   -0.0000000000
N       -0.3570380000   -0.0058900000   -0.0000000000
H        0.1410080000   -0.0042410000   -0.0000000000
H        0.1419310000    0.0297850000   -0.0000000000
H        0.1572020000   -0.0442600000   -0.0000000000
H        0.1455690000    0.0033490000   -0.0000000000
H        0.1443160000   -0.0020990000   -0.0000000000
C       -0.1139390000   -0.1057380000   -0.0000000000
H        0.1461860000    0.0376970000   -0.0000000000
13   
From optimize.out: Frame 15 / 38, Energy=    -286.8833356023
C        0.0170510000    0.1782630000   -0.0000000000
C       -0.1279470000   -0.1511010000   -0.0000000000
C       -0.1871760000    0.9073750000   -0.0000000000
C       -0.1299940000    0.1272570000   -0.0000000000
C        0.0270630000    0.0402950000   -0.0000000000
N       -0.3587700000   -0.0013110000   -0.0000000000
H        0.1406940000   -0.0063600000   -0.0000000000
H        0.1412320000    0.0289860000   -0.0000000000
H        0.1558020000   -0.0431610000   -0.0000000000
H        0.1438380000    0.0007750000   -0.0000000000
H        0.1438200000   -0.0023930000   -0.0000000000
C       -0.1117070000   -0.1155800000   -0.0000000000
H        0.1460940000    0.0369550000   -0.0000000000
13   
From optimize.out: Frame 16 / 38, Energy=    -286.8883692128
C        0.0126700000    0.2115400000   -0.0000000000
C       -0.1219090000   -0.1602230000   -0.0000000000
C       -0.1871670000    0.8623460000   -0.0000000000
C       -0.1308990000    0.1571180000   -0.0000000000
C        0.0294870000    0.0422110000   -0.0000000000
N       -0.3600600000    0.0056750000   -0.0000000000
H        0.1404290000   -0.0086180000   -0.0000000000
H        0.1405670000    0.0276500000   -0.0000000000
H        0.1541040000   -0.0417460000   -0.0000000000
H        0.1423630000   -0.0019860000   -0.0000000000
H        0.1432640000   -0.0025670000   -0.0000000000
C       -0.1088480000   -0.1265290000   -0.0000000000
H        0.1460010000    0.0351290000   -0.0000000000
13   
From optimize.out: Frame 17 / 38, Energy=    -286.8933338348
C        0.0075490000    0.2450660000   -0.0000000000
C       -0.1151350000   -0.1660250000   -0.0000000000
C       -0.1864190000    0.8115420000   -0.0000000000
C       -0.1329600000    0.1906990000   -0.0000000000
C        0.0323590000    0.0411660000   -0.0000000000
N       -0.3620340000    0.0158690000   -0.0000000000
H        0.1400540000   -0.0108520000   -0.0000000000
H        0.1401750000    0.0258180000   -0.0000000000
H        0.1520200000   -0.0399880000   -0.0000000000
H        0.1408950000   -0.0049800000   -0.0000000000
H        0.1431140000   -0.0026380000   -0.0000000000
C       -0.1054840000   -0.1381330000   -0.0000000000
H        0.1458650000    0.0324550000   -0.0000000000
13   
From optimize.out: Frame 18 / 38, Energy=    -286.8981830716
C        0.0021400000    0.2735300000   -0.0000000000
C       -0.1091860000   -0.1665260000   -0.0000000000
C       -0.1845600000    0.7593580000   -0.0000000000
C       -0.1360170000    0.2288160000   -0.0000000000
C        0.0351270000    0.0352850000   -0.0000000000
N       -0.3633950000    0.0291770000   -0.0000000000
H        0.1399290000   -0.0128610000   -0.0000000000
H        0.1397330000    0.0234990000   -0.0000000000
H        0.1496960000   -0.0380050000   -0.0000000000
H        0.1396440000   -0.0080880000   -0.0000000000
H        0.1425720000   -0.0024010000   -0.0000000000
C       -0.1015760000   -0.1510630000   -0.0000000000
H        0.1458930000    0.0292780000   -0.0000000000
13   
From optimize.out: Frame 19 / 38, Energy=    -286.9028883150
C       -0.0029910000    0.2964530000   -0.0000000000
C       -0.1033040000   -0.1619390000   -0.0000000000
C       -0.1816830000    0.7054980000   -0.0000000000
C       -0.1399850000    0.2696180000   -0.0000000000
C        0.0387080000    0.0238720000   -0.0000000000
N       -0.3664410000    0.0476650000   -0.0000000000
H        0.1397860000   -0.0145070000   -0.0000000000
H        0.1396580000    0.0207110000   -0.0000000000
H        0.1470830000   -0.0357830000   -0.0000000000
H        0.1382960000   -0.0113410000   -0.0000000000
H        0.1426390000   -0.0019570000   -0.0000000000
C       -0.0974780000   -0.1641160000   -0.0000000000
H        0.1457110000    0.0258260000   -0.0000000000
13   
From optimize.out: Frame 20 / 38, Energy=    -286.9073479898
C       -0.0070120000    0.3051780000   -0.0000000000
C       -0.0994900000   -0.1489560000   -0.0000000000
C       -0.1772720000    0.6539860000   -0.0000000000
C       -0.1448450000    0.3158980000   -0.0000000000
C        0.0424760000    0.0035700000   -0.0000000000
N       -0.3695160000    0.0728080000   -0.0000000000
H        0.1400610000   -0.0153500000   -0.0000000000
H        0.1393790000    0.0174590000   -0.0000000000
H        0.1445650000   -0.0335090000   -0.0000000000
H        0.1371310000   -0.0146910000   -0.0000000000
H        0.1423330000   -0.0009560000   -0.0000000000
C       -0.0933090000   -0.1779350000   -0.0000000000
H        0.1455010000    0.0224970000   -0.0000000000
13   
From optimize.out: Frame 21 / 38, Energy=    -286.9114846668
C       -0.0091330000    0.2976940000   -0.0000000000
C       -0.0969290000   -0.1263130000   -0.0000000000
C       -0.1717070000    0.6014130000   -0.0000000000
C       -0.1499830000    0.3655250000   -0.0000000000
C        0.0469460000   -0.0257610000   -0.0000000000
N       -0.3751250000    0.1077900000   -0.0000000000
H        0.1405680000   -0.0152680000   -0.0000000000
H        0.1394230000    0.0138510000   -0.0000000000
H        0.1418750000   -0.0310490000   -0.0000000000
H        0.1357070000   -0.0179870000   -0.0000000000
H        0.1425500000    0.0004840000   -0.0000000000
C       -0.0894800000   -0.1896590000   -0.0000000000
H        0.1452880000    0.0192790000   -0.0000000000
13   
From optimize.out: Frame 22 / 38, Energy=    -286.9151432789
C       -0.0088080000    0.2669870000   -0.0000000000
C       -0.0973000000   -0.0907790000   -0.0000000000
C       -0.1643000000    0.5502460000   -0.0000000000
C       -0.1543120000    0.4137060000   -0.0000000000
C        0.0507860000   -0.0613000000   -0.0000000000
N       -0.3809000000    0.1506300000   -0.0000000000
H        0.1414900000   -0.0139020000   -0.0000000000
H        0.1388840000    0.0097090000   -0.0000000000
H        0.1403060000   -0.0285600000   -0.0000000000
H        0.1347340000   -0.0209120000   -0.0000000000
H        0.1422560000    0.0023750000   -0.0000000000
C       -0.0872820000   -0.1943680000   -0.0000000000
H        0.1444450000    0.0161690000   -0.0000000000
13   
From optimize.out: Frame 23 / 38, Energy=    -286.9182100778
C       -0.0055870000    0.2162580000   -0.0000000000
C       -0.0985010000   -0.0391800000   -0.0000000000
C       -0.1562840000    0.4839200000   -0.0000000000
C       -0.1577210000    0.4582700000   -0.0000000000
C        0.0546000000   -0.1012880000   -0.0000000000
N       -0.3908060000    0.2059380000   -0.0000000000
H        0.1426600000   -0.0115210000   -0.0000000000
H        0.1391330000    0.0052770000   -0.0000000000
H        0.1379210000   -0.0252640000   -0.0000000000
H        0.1331210000   -0.0232940000   -0.0000000000
H        0.1426000000    0.0044100000   -0.0000000000
C       -0.0859040000   -0.1864110000   -0.0000000000
H        0.1447680000    0.0128860000   -0.0000000000
13   
From optimize.out: Frame 24 / 38, Energy=    -286.9205480459
C       -0.0017270000    0.1567250000   -0.0000000000
C       -0.1019650000    0.0166610000   -0.0000000000
C       -0.1472730000    0.4275960000   -0.0000000000
C       -0.1567640000    0.4817160000   -0.0000000000
C        0.0551140000   -0.1289410000   -0.0000000000
N       -0.3971870000    0.2521100000   -0.0000000000
H        0.1435110000   -0.0087130000   -0.0000000000
H        0.1380170000    0.0007500000   -0.0000000000
H        0.1384510000   -0.0224990000   -0.0000000000
H        0.1330410000   -0.0244030000   -0.0000000000
H        0.1419480000    0.0058770000   -0.0000000000
C       -0.0883520000   -0.1666040000   -0.0000000000
H        0.1431850000    0.0097240000   -0.0000000000
13   
From optimize.out: Frame 25 / 38, Energy=    -286.9220472076
C        0.0042430000    0.0886760000   -0.0000000000
C       -0.1057780000    0.0855090000   -0.0000000000
C       -0.1386570000    0.3538160000   -0.0000000000
C       -0.1548790000    0.4905250000   -0.0000000000
C        0.0551460000   -0.1514730000   -0.0000000000
N       -0.4065250000    0.3024680000   -0.0000000000
H        0.1443830000   -0.0056370000   -0.0000000000
H        0.1375860000   -0.0039380000   -0.0000000000
H        0.1379580000   -0.0188970000   -0.0000000000
H        0.1327140000   -0.0247610000   -0.0000000000
H        0.1416330000    0.0068990000   -0.0000000000
C       -0.0915460000   -0.1293450000   -0.0000000000
H        0.1437230000    0.0061570000   -0.0000000000
13   
From optimize.out: Frame 26 / 38, Energy=    -286.9228373474
C        0.0103080000    0.0281240000   -0.0000000000
C       -0.1095970000    0.1521900000   -0.0000000000
C       -0.1315700000    0.2919730000   -0.0000000000
C       -0.1498690000    0.4744540000   -0.0000000000
C        0.0530350000   -0.1594300000   -0.0000000000
N       -0.4143760000    0.3414990000   -0.0000000000
H        0.1441780000   -0.0031210000   -0.0000000000
H        0.1372660000   -0.0083180000   -0.0000000000
H        0.1391760000   -0.0160210000   -0.0000000000
H        0.1325710000   -0.0240720000   -0.0000000000
H        0.1416790000    0.0068400000   -0.0000000000
C       -0.0961020000   -0.0872000000   -0.0000000000
H        0.1433010000    0.0030800000   -0.0000000000
13   
From optimize.out: Frame 27 / 38, Energy=    -286.9232017454
C        0.0179050000   -0.0310620000   -0.0000000000
C       -0.1166840000    0.2235310000   -0.0000000000
C       -0.1243140000    0.2218590000   -0.0000000000
C       -0.1455790000    0.4478010000   -0.0000000000
C        0.0491660000   -0.1568340000   -0.0000000000
N       -0.4190570000    0.3670270000   -0.0000000000
H        0.1440200000   -0.0004200000   -0.0000000000
H        0.1362280000   -0.0123520000   -0.0000000000
H        0.1395390000   -0.0126360000   -0.0000000000
H        0.1339970000   -0.0228570000   -0.0000000000
H        0.1410500000    0.0061630000   -0.0000000000
C       -0.1003750000   -0.0296020000   -0.0000000000
H        0.1441030000   -0.0006180000   -0.0000000000
13   
From optimize.out: Frame 28 / 38, Energy=    -286.9237275872
C        0.0221940000   -0.0516460000   -0.0000000000
C       -0.1196080000    0.2529270000   -0.0000000000
C       -0.1221090000    0.1971950000   -0.0000000000
C       -0.1426410000    0.4242080000   -0.0000000000
C        0.0468920000   -0.1500330000   -0.0000000000
N       -0.4214850000    0.3753760000   -0.0000000000
H        0.1436850000    0.0004350000   -0.0000000000
H        0.1357280000   -0.0138760000   -0.0000000000
H        0.1406550000   -0.0115110000   -0.0000000000
H        0.1339230000   -0.0218930000   -0.0000000000
H        0.1416510000    0.0055210000   -0.0000000000
C       -0.1023890000   -0.0048740000   -0.0000000000
H        0.1435040000   -0.0018280000   -0.0000000000
13   
From optimize.out: Frame 29 / 38, Energy=    -286.9239502348
C        0.0277640000   -0.0782230000   -0.0000000000
C       -0.1245510000    0.2924490000   -0.0000000000
C       -0.1174060000    0.1575390000   -0.0000000000
C       -0.1387820000    0.3950750000   -0.0000000000
C        0.0428100000   -0.1371380000   -0.0000000000
N       -0.4227480000    0.3815000000   -0.0000000000
H        0.1430070000    0.0017100000   -0.0000000000
H        0.1355630000   -0.0157840000   -0.0000000000
H        0.1406650000   -0.0096500000   -0.0000000000
H        0.1328220000   -0.0206110000   -0.0000000000
H        0.1425270000    0.0046550000   -0.0000000000
C       -0.1042980000    0.0321010000   -0.0000000000
H        0.1426270000   -0.0036240000   -0.0000000000
13   
From optimize.out: Frame 30 / 38, Energy=    -286.9240973401
C        0.0313510000   -0.0908650000   -0.0000000000
C       -0.1272090000    0.3131970000   -0.0000000000
C       -0.1158370000    0.1366310000   -0.0000000000
C       -0.1362620000    0.3774240000   -0.0000000000
C        0.0397090000   -0.1297190000   -0.0000000000
N       -0.4226240000    0.3833160000   -0.0000000000
H        0.1426550000    0.0023330000   -0.0000000000
H        0.1345880000   -0.0167770000   -0.0000000000
H        0.1415710000   -0.0086770000   -0.0000000000
H        0.1341110000   -0.0197840000   -0.0000000000
H        0.1424980000    0.0042590000   -0.0000000000
C       -0.1070060000    0.0533470000   -0.0000000000
H        0.1424570000   -0.0046840000   -0.0000000000
13   
From optimize.out: Frame 31 / 38, Energy=    -286.9241801772
C        0.0324300000   -0.0975450000   -0.0000000000
C       -0.1285000000    0.3228110000   -0.0000000000
C       -0.1144580000    0.1231470000   -0.0000000000
C       -0.1345530000    0.3689680000   -0.0000000000
C        0.0386370000   -0.1252040000   -0.0000000000
N       -0.4230510000    0.3853230000   -0.0000000000
H        0.1429250000    0.0026690000   -0.0000000000
H        0.1344160000   -0.0172030000   -0.0000000000
H        0.1417340000   -0.0080140000   -0.0000000000
H        0.1345160000   -0.0193750000   -0.0000000000
H        0.1422790000    0.0040390000   -0.0000000000
C       -0.1086190000    0.0656780000   -0.0000000000
H        0.1422460000   -0.0052970000   -0.0000000000
13   
From optimize.out: Frame 32 / 38, Energy=    -286.9242581234
C        0.0345190000   -0.1092720000   -0.0000000000
C       -0.1307990000    0.3402400000   -0.0000000000
C       -0.1115490000    0.0996180000   -0.0000000000
C       -0.1323820000    0.3545730000   -0.0000000000
C        0.0362430000   -0.1164630000   -0.0000000000
N       -0.4231880000    0.3872920000   -0.0000000000
H        0.1428040000    0.0032360000   -0.0000000000
H        0.1345120000   -0.0179850000   -0.0000000000
H        0.1414060000   -0.0068980000   -0.0000000000
H        0.1344430000   -0.0186810000   -0.0000000000
H        0.1424310000    0.0036130000   -0.0000000000
C       -0.1104820000    0.0870620000   -0.0000000000
H        0.1420420000   -0.0063330000   -0.0000000000
13   
From optimize.out: Frame 33 / 38, Energy=    -286.9242986553
C        0.0365680000   -0.1161590000   -0.0000000000
C       -0.1323610000    0.3525590000   -0.0000000000
C       -0.1104400000    0.0852860000   -0.0000000000
C       -0.1303130000    0.3400660000   -0.0000000000
C        0.0343840000   -0.1082620000   -0.0000000000
N       -0.4234180000    0.3870100000   -0.0000000000
H        0.1425580000    0.0035720000   -0.0000000000
H        0.1344180000   -0.0185800000   -0.0000000000
H        0.1418140000   -0.0062260000   -0.0000000000
H        0.1344270000   -0.0180120000   -0.0000000000
H        0.1426640000    0.0032050000   -0.0000000000
C       -0.1122450000    0.1025930000   -0.0000000000
H        0.1419420000   -0.0070540000   -0.0000000000
13   
From optimize.out: Frame 34 / 38, Energy=    -286.9243147914
C        0.0378580000   -0.1226010000   -0.0000000000
C       -0.1336730000    0.3643860000   -0.0000000000
C       -0.1089490000    0.0714210000   -0.0000000000
C       -0.1287300000    0.3282310000   -0.0000000000
C        0.0325410000   -0.1013900000   -0.0000000000
N       -0.4231530000    0.3870730000   -0.0000000000
H        0.1422760000    0.0038940000   -0.0000000000
H        0.1342550000   -0.0191370000   -0.0000000000
H        0.1420900000   -0.0055710000   -0.0000000000
H        0.1345970000   -0.0174610000   -0.0000000000
H        0.1426900000    0.0028560000   -0.0000000000
C       -0.1134730000    0.1159970000   -0.0000000000
H        0.1416700000   -0.0076990000   -0.0000000000
13   
From optimize.out: Frame 35 / 38, Energy=    -286.9243263042
C        0.0372270000   -0.1192550000   -0.0000000000
C       -0.1332120000    0.3586820000   -0.0000000000
C       -0.1096570000    0.0788870000   -0.0000000000
C       -0.1298810000    0.3340690000   -0.0000000000
C        0.0337790000   -0.1048610000   -0.0000000000
N       -0.4232690000    0.3863980000   -0.0000000000
H        0.1425310000    0.0037300000   -0.0000000000
H        0.1341620000   -0.0188780000   -0.0000000000
H        0.1421620000   -0.0059260000   -0.0000000000
H        0.1344920000   -0.0177350000   -0.0000000000
H        0.1427960000    0.0030230000   -0.0000000000
C       -0.1128310000    0.1092440000   -0.0000000000
H        0.1416990000   -0.0073780000   -0.0000000000
13   
From optimize.out: Frame 36 / 38, Energy=    -286.9243317825
C        0.0368150000   -0.1178860000   -0.0000000000
C       -0.1327530000    0.3557960000   -0.0000000000
C       -0.1102020000    0.0823380000   -0.0000000000
C       -0.1302820000    0.3375020000   -0.0000000000
C        0.0342620000   -0.1068770000   -0.0000000000
N       -0.4233940000    0.3868300000   -0.0000000000
H        0.1425760000    0.0036620000   -0.0000000000
H        0.1343470000   -0.0187440000   -0.0000000000
H        0.1419730000   -0.0060880000   -0.0000000000
H        0.1344110000   -0.0178960000   -0.0000000000
H        0.1427310000    0.0031190000   -0.0000000000
C       -0.1124050000    0.1054380000   -0.0000000000
H        0.1419210000   -0.0071940000   -0.0000000000
13   
From optimize.out: Frame 37 / 38, Energy=    -286.9243343203
C        0.0363560000   -0.1162220000   -0.0000000000
C       -0.1323570000    0.3530880000   -0.0000000000
C       -0.1106290000    0.0861600000   -0.0000000000
C       -0.1306760000    0.3410080000   -0.0000000000
C        0.0347040000   -0.1090180000   -0.0000000000
N       -0.4232920000    0.3867930000   -0.0000000000
H        0.1425900000    0.0035810000   -0.0000000000
H        0.1343630000   -0.0186170000   -0.0000000000
H        0.1419470000   -0.0062720000   -0.0000000000
H        0.1344450000   -0.0180560000   -0.0000000000
H        0.1426200000    0.0032250000   -0.0000000000
C       -0.1120050000    0.1013300000   -0.0000000000
H        0.1419350000   -0.0070000000   -0.0000000000
