13   
Frame   0 IRC: Energy =  -286.8792930000 ; +0.0000 kcal/mol
C       -0.1020600000    0.6054840000   -0.0000000000
C       -0.1724450000   -0.0506350000    0.0000000000
C       -0.0147720000    0.0813710000   -0.0000000000
C       -0.1724140000   -0.0504750000   -0.0000000000
C       -0.1008400000    0.6057130000   -0.0000000000
N       -0.2161800000   -0.2017800000   -0.0000000000
H        0.1242550000   -0.0322710000    0.0000000000
H        0.1304200000    0.0008000000    0.0000000000
H        0.1413680000   -0.0039990000   -0.0000000000
H        0.1303650000    0.0007970000   -0.0000000000
H        0.1242630000   -0.0322920000   -0.0000000000
C       -0.0133970000    0.0812810000    0.0000000000
H        0.1414360000   -0.0039940000    0.0000000000
13   
Frame   1 IRC: Energy =  -286.8792870000 ; +0.0038 kcal/mol
C       -0.1018630000    0.6051820000   -0.0000000000
C       -0.1726560000   -0.0505930000    0.0000000000
C       -0.0146000000    0.0812640000   -0.0000000000
C       -0.1725810000   -0.0505340000   -0.0000000000
C       -0.1008200000    0.6061420000   -0.0000000000
N       -0.2161820000   -0.2018380000   -0.0000000000
H        0.1242960000   -0.0322580000    0.0000000000
H        0.1303890000    0.0007980000    0.0000000000
H        0.1413440000   -0.0039920000   -0.0000000000
H        0.1303410000    0.0007960000   -0.0000000000
H        0.1243360000   -0.0323160000   -0.0000000000
C       -0.0134410000    0.0813440000    0.0000000000
H        0.1414370000   -0.0039950000    0.0000000000
13   
Frame   2 IRC: Energy =  -286.8792800000 ; +0.0082 kcal/mol
C       -0.1008530000    0.6027720000   -0.0000000000
C       -0.1731890000   -0.0501510000    0.0000000000
C       -0.0143770000    0.0811070000   -0.0000000000
C       -0.1725840000   -0.0508550000   -0.0000000000
C       -0.1015580000    0.6087860000   -0.0000000000
N       -0.2162170000   -0.2018480000   -0.0000000000
H        0.1242290000   -0.0321330000    0.0000000000
H        0.1303250000    0.0007840000    0.0000000000
H        0.1413530000   -0.0039840000   -0.0000000000
H        0.1303520000    0.0008050000   -0.0000000000
H        0.1244350000   -0.0324490000   -0.0000000000
C       -0.0133880000    0.0811540000    0.0000000000
H        0.1414710000   -0.0039870000    0.0000000000
13   
Frame   3 IRC: Energy =  -286.8791260000 ; +0.1048 kcal/mol
C       -0.1018650000    0.6042030000   -0.0000000000
C       -0.1739590000   -0.0508040000    0.0000000000
C       -0.0139130000    0.0817270000   -0.0000000000
C       -0.1739390000   -0.0505640000   -0.0000000000
C       -0.1004360000    0.6040340000   -0.0000000000
N       -0.2156770000   -0.1993820000   -0.0000000000
H        0.1242880000   -0.0322260000    0.0000000000
H        0.1305600000    0.0007920000    0.0000000000
H        0.1413850000   -0.0040170000   -0.0000000000
H        0.1305110000    0.0007860000    0.0000000000
H        0.1242710000   -0.0322240000   -0.0000000000
C       -0.0127040000    0.0816880000    0.0000000000
H        0.1414780000   -0.0040130000    0.0000000000
13   
Frame   4 IRC: Energy =  -286.8791190000 ; +0.1092 kcal/mol
C       -0.1010960000    0.6022550000   -0.0000000000
C       -0.1742810000   -0.0504950000    0.0000000000
C       -0.0138770000    0.0817750000   -0.0000000000
C       -0.1738570000   -0.0508320000   -0.0000000000
C       -0.1010460000    0.6059320000   -0.0000000000
N       -0.2156730000   -0.1992620000   -0.0000000000
H        0.1242200000   -0.0321250000    0.0000000000
H        0.1305280000    0.0007820000    0.0000000000
H        0.1413890000   -0.0040190000   -0.0000000000
H        0.1305390000    0.0007940000    0.0000000000
H        0.1243240000   -0.0323190000   -0.0000000000
C       -0.0126600000    0.0815220000    0.0000000000
H        0.1414900000   -0.0040080000    0.0000000000
13   
Frame   5 IRC: Energy =  -286.8790720000 ; +0.1387 kcal/mol
C       -0.1019140000    0.6040640000   -0.0000000000
C       -0.1743860000   -0.0508890000    0.0000000000
C       -0.0136760000    0.0818210000   -0.0000000000
C       -0.1744650000   -0.0505560000   -0.0000000000
C       -0.1002280000    0.6032810000   -0.0000000000
N       -0.2155000000   -0.1986550000   -0.0000000000
H        0.1243120000   -0.0322270000    0.0000000000
H        0.1306130000    0.0007900000    0.0000000000
H        0.1413960000   -0.0040210000   -0.0000000000
H        0.1305550000    0.0007810000    0.0000000000
H        0.1242740000   -0.0321920000   -0.0000000000
C       -0.0124690000    0.0818210000    0.0000000000
H        0.1414880000   -0.0040200000    0.0000000000
13   
Frame   6 IRC: Energy =  -286.8790630000 ; +0.1443 kcal/mol
C       -0.1030510000    0.6065420000   -0.0000000000
C       -0.1740870000   -0.0512680000    0.0000000000
C       -0.0135980000    0.0817110000   -0.0000000000
C       -0.1747400000   -0.0501700000   -0.0000000000
C       -0.0994990000    0.6007520000   -0.0000000000
N       -0.2154500000   -0.1986710000   -0.0000000000
H        0.1244000000   -0.0323590000    0.0000000000
H        0.1306880000    0.0008030000    0.0000000000
H        0.1414370000   -0.0040160000   -0.0000000000
H        0.1305380000    0.0007680000    0.0000000000
H        0.1241990000   -0.0320650000   -0.0000000000
C       -0.0123580000    0.0819980000    0.0000000000
H        0.1415190000   -0.0040240000    0.0000000000
13   
Frame   7 IRC: Energy =  -286.8787940000 ; +0.3131 kcal/mol
C       -0.1013520000    0.6012120000   -0.0000000000
C       -0.1767030000   -0.0510200000    0.0000000000
C       -0.0126240000    0.0823750000   -0.0000000000
C       -0.1767210000   -0.0508450000   -0.0000000000
C       -0.0998750000    0.6014120000   -0.0000000000
N       -0.2146320000   -0.1948240000   -0.0000000000
H        0.1243390000   -0.0321170000    0.0000000000
H        0.1308370000    0.0007710000    0.0000000000
H        0.1414320000   -0.0040480000   -0.0000000000
H        0.1308100000    0.0007680000    0.0000000000
H        0.1243190000   -0.0321250000   -0.0000000000
C       -0.0113450000    0.0824930000    0.0000000000
H        0.1415140000   -0.0040530000    0.0000000000
13   
Frame   8 IRC: Energy =  -286.8787770000 ; +0.3238 kcal/mol
C       -0.1025160000    0.6035240000   -0.0000000000
C       -0.1764180000   -0.0513820000    0.0000000000
C       -0.0126020000    0.0822600000   -0.0000000000
C       -0.1770080000   -0.0505050000   -0.0000000000
C       -0.0991510000    0.5989390000   -0.0000000000
N       -0.2145390000   -0.1947500000   -0.0000000000
H        0.1244330000   -0.0322470000    0.0000000000
H        0.1309280000    0.0007830000    0.0000000000
H        0.1414660000   -0.0040440000   -0.0000000000
H        0.1307960000    0.0007570000    0.0000000000
H        0.1242470000   -0.0319980000   -0.0000000000
C       -0.0111740000    0.0827220000    0.0000000000
H        0.1415400000   -0.0040590000    0.0000000000
13   
Frame   9 IRC: Energy =  -286.8784250000 ; +0.5447 kcal/mol
C       -0.1011190000    0.5986370000   -0.0000000000
C       -0.1794270000   -0.0512800000    0.0000000000
C       -0.0114780000    0.0827810000   -0.0000000000
C       -0.1795420000   -0.0510900000    0.0000000000
C       -0.0990740000    0.5981530000   -0.0000000000
N       -0.2135360000   -0.1900810000   -0.0000000000
H        0.1243930000   -0.0320370000    0.0000000000
H        0.1311380000    0.0007470000    0.0000000000
H        0.1415000000   -0.0040690000   -0.0000000000
H        0.1311140000    0.0007510000    0.0000000000
H        0.1243660000   -0.0319920000   -0.0000000000
C       -0.0098500000    0.0835850000    0.0000000000
H        0.1415120000   -0.0041060000    0.0000000000
13   
Frame  10 IRC: Energy =  -286.8783970000 ; +0.5622 kcal/mol
C       -0.1022340000    0.5994290000   -0.0000000000
C       -0.1790930000   -0.0515370000    0.0000000000
C       -0.0115930000    0.0827650000   -0.0000000000
C       -0.1799070000   -0.0509080000    0.0000000000
C       -0.0985750000    0.5970050000   -0.0000000000
N       -0.2133650000   -0.1899180000   -0.0000000000
H        0.1244640000   -0.0321170000    0.0000000000
H        0.1312960000    0.0007550000    0.0000000000
H        0.1415330000   -0.0040690000   -0.0000000000
H        0.1310890000    0.0007430000    0.0000000000
H        0.1243230000   -0.0319190000   -0.0000000000
C       -0.0094970000    0.0838850000    0.0000000000
H        0.1415590000   -0.0041140000    0.0000000000
13   
Frame  11 IRC: Energy =  -286.8779450000 ; +0.8459 kcal/mol
C       -0.1013830000    0.5962430000   -0.0000000000
C       -0.1825380000   -0.0516210000    0.0000000000
C       -0.0103800000    0.0828730000   -0.0000000000
C       -0.1828570000   -0.0513350000    0.0000000000
C       -0.0977400000    0.5936420000   -0.0000000000
N       -0.2121900000   -0.1844370000   -0.0000000000
H        0.1244640000   -0.0319930000    0.0000000000
H        0.1315370000    0.0007130000    0.0000000000
H        0.1416130000   -0.0040750000   -0.0000000000
H        0.1314580000    0.0007320000    0.0000000000
H        0.1244300000   -0.0317910000   -0.0000000000
C       -0.0079010000    0.0852310000    0.0000000000
H        0.1414860000   -0.0041820000    0.0000000000
13   
Frame  12 IRC: Energy =  -286.8779020000 ; +0.8729 kcal/mol
C       -0.1023540000    0.5956740000   -0.0000000000
C       -0.1822390000   -0.0517690000    0.0000000000
C       -0.0106360000    0.0829130000   -0.0000000000
C       -0.1833090000   -0.0512970000    0.0000000000
C       -0.0973920000    0.5936850000   -0.0000000000
N       -0.2119590000   -0.1841490000   -0.0000000000
H        0.1245060000   -0.0320280000    0.0000000000
H        0.1317340000    0.0007150000    0.0000000000
H        0.1416410000   -0.0040780000   -0.0000000000
H        0.1314280000    0.0007280000    0.0000000000
H        0.1244150000   -0.0317650000   -0.0000000000
C       -0.0073820000    0.0855640000    0.0000000000
H        0.1415470000   -0.0041930000    0.0000000000
13   
Frame  13 IRC: Energy =  -286.8773370000 ; +1.2274 kcal/mol
C       -0.1022900000    0.5943690000   -0.0000000000
C       -0.1858950000   -0.0520160000    0.0000000000
C       -0.0094350000    0.0825380000   -0.0000000000
C       -0.1865370000   -0.0515800000    0.0000000000
C       -0.0957120000    0.5879080000   -0.0000000000
N       -0.2106460000   -0.1781480000   -0.0000000000
H        0.1245440000   -0.0320050000    0.0000000000
H        0.1320250000    0.0006650000    0.0000000000
H        0.1417680000   -0.0040610000   -0.0000000000
H        0.1318170000    0.0007150000    0.0000000000
H        0.1245180000   -0.0315180000   -0.0000000000
C       -0.0055870000    0.0874150000    0.0000000000
H        0.1414300000   -0.0042820000    0.0000000000
13   
Frame  14 IRC: Energy =  -286.8772700000 ; +1.2695 kcal/mol
C       -0.1031410000    0.5926060000   -0.0000000000
C       -0.1856640000   -0.0520670000    0.0000000000
C       -0.0098530000    0.0826090000   -0.0000000000
C       -0.1871080000   -0.0516690000    0.0000000000
C       -0.0954250000    0.5889610000   -0.0000000000
N       -0.2103470000   -0.1777000000   -0.0000000000
H        0.1245540000   -0.0320040000    0.0000000000
H        0.1322540000    0.0006620000    0.0000000000
H        0.1417920000   -0.0040660000   -0.0000000000
H        0.1317880000    0.0007150000    0.0000000000
H        0.1245270000   -0.0315300000   -0.0000000000
C       -0.0048760000    0.0877780000    0.0000000000
H        0.1415010000   -0.0042950000    0.0000000000
13   
Frame  15 IRC: Energy =  -286.8765810000 ; +1.7018 kcal/mol
C       -0.1039680000    0.5934460000   -0.0000000000
C       -0.1893520000   -0.0524610000    0.0000000000
C       -0.0086040000    0.0817600000   -0.0000000000
C       -0.1904830000   -0.0517970000    0.0000000000
C       -0.0928710000    0.5808770000   -0.0000000000
N       -0.2089550000   -0.1714670000   -0.0000000000
H        0.1246350000   -0.0320900000    0.0000000000
H        0.1325880000    0.0006040000    0.0000000000
H        0.1419660000   -0.0040250000   -0.0000000000
H        0.1321790000    0.0007000000    0.0000000000
H        0.1246240000   -0.0311670000   -0.0000000000
C       -0.0031110000    0.0900220000    0.0000000000
H        0.1413530000   -0.0044010000    0.0000000000
13   
Frame  16 IRC: Energy =  -286.8764780000 ; +1.7664 kcal/mol
C       -0.1047220000    0.5904620000   -0.0000000000
C       -0.1891840000   -0.0524080000    0.0000000000
C       -0.0092060000    0.0818240000   -0.0000000000
C       -0.1911870000   -0.0520050000    0.0000000000
C       -0.0926240000    0.5830020000   -0.0000000000
N       -0.2085600000   -0.1708360000   -0.0000000000
H        0.1246070000   -0.0320580000    0.0000000000
H        0.1328450000    0.0005940000    0.0000000000
H        0.1419800000   -0.0040290000   -0.0000000000
H        0.1321510000    0.0007040000    0.0000000000
H        0.1246610000   -0.0312190000   -0.0000000000
C       -0.0021890000    0.0903840000    0.0000000000
H        0.1414300000   -0.0044150000    0.0000000000
13   
Frame  17 IRC: Energy =  -286.8756640000 ; +2.2772 kcal/mol
C       -0.1063930000    0.5937460000   -0.0000000000
C       -0.1927720000   -0.0529520000   -0.0000000000
C       -0.0077920000    0.0806210000   -0.0000000000
C       -0.1945680000   -0.0519680000    0.0000000000
C       -0.0892570000    0.5726340000   -0.0000000000
N       -0.2071900000   -0.1646590000   -0.0000000000
H        0.1247490000   -0.0322480000    0.0000000000
H        0.1332020000    0.0005320000    0.0000000000
H        0.1422120000   -0.0039700000   -0.0000000000
H        0.1325430000    0.0006870000    0.0000000000
H        0.1247390000   -0.0307460000   -0.0000000000
C       -0.0007370000    0.0928540000    0.0000000000
H        0.1412640000   -0.0045300000    0.0000000000
13   
Frame  18 IRC: Energy =  -286.8755030000 ; +2.3783 kcal/mol
C       -0.1069970000    0.5892980000   -0.0000000000
C       -0.1927080000   -0.0527810000   -0.0000000000
C       -0.0085690000    0.0806460000   -0.0000000000
C       -0.1954890000   -0.0522950000    0.0000000000
C       -0.0890140000    0.5760360000   -0.0000000000
N       -0.2066880000   -0.1637730000   -0.0000000000
H        0.1246750000   -0.0321760000    0.0000000000
H        0.1334840000    0.0005130000    0.0000000000
H        0.1422120000   -0.0039710000   -0.0000000000
H        0.1325150000    0.0006930000    0.0000000000
H        0.1248180000   -0.0308450000   -0.0000000000
C        0.0004200000    0.0931990000    0.0000000000
H        0.1413400000   -0.0045450000    0.0000000000
13   
Frame  19 IRC: Energy =  -286.8745610000 ; +2.9694 kcal/mol
C       -0.1095230000    0.5952650000   -0.0000000000
C       -0.1961400000   -0.0534850000   -0.0000000000
C       -0.0069070000    0.0792250000   -0.0000000000
C       -0.1987210000   -0.0521000000    0.0000000000
C       -0.0849560000    0.5633070000   -0.0000000000
N       -0.2053740000   -0.1578100000   -0.0000000000
H        0.1249100000   -0.0324650000    0.0000000000
H        0.1338640000    0.0004500000   -0.0000000000
H        0.1425180000   -0.0038990000   -0.0000000000
H        0.1329190000    0.0006720000    0.0000000000
H        0.1248600000   -0.0302630000   -0.0000000000
C        0.0013700000    0.0957710000    0.0000000000
H        0.1411770000   -0.0046660000    0.0000000000
13   
Frame  20 IRC: Energy =  -286.8743080000 ; +3.1281 kcal/mol
C       -0.1098990000    0.5891030000   -0.0000000000
C       -0.1962760000   -0.0531760000   -0.0000000000
C       -0.0077920000    0.0791940000   -0.0000000000
C       -0.1999540000   -0.0525520000    0.0000000000
C       -0.0846480000    0.5681250000   -0.0000000000
N       -0.2047680000   -0.1565580000   -0.0000000000
H        0.1247890000   -0.0323420000    0.0000000000
H        0.1341650000    0.0004190000   -0.0000000000
H        0.1425100000   -0.0038930000   -0.0000000000
H        0.1328960000    0.0006820000    0.0000000000
H        0.1249930000   -0.0304120000   -0.0000000000
C        0.0027370000    0.0960950000    0.0000000000
H        0.1412480000   -0.0046830000    0.0000000000
13   
Frame  21 IRC: Energy =  -286.8732180000 ; +3.8121 kcal/mol
C       -0.1133090000    0.5977090000   -0.0000000000
C       -0.1995510000   -0.0540310000   -0.0000000000
C       -0.0059120000    0.0776510000   -0.0000000000
C       -0.2029600000   -0.0522210000    0.0000000000
C       -0.0800180000    0.5531290000   -0.0000000000
N       -0.2034720000   -0.1508480000   -0.0000000000
H        0.1251490000   -0.0327170000    0.0000000000
H        0.1345810000    0.0003550000   -0.0000000000
H        0.1429070000   -0.0038160000   -0.0000000000
H        0.1333280000    0.0006530000    0.0000000000
H        0.1249960000   -0.0297300000   -0.0000000000
C        0.0031590000    0.0986700000    0.0000000000
H        0.1411040000   -0.0048050000    0.0000000000
13   
Frame  22 IRC: Energy =  -286.8728360000 ; +4.0518 kcal/mol
C       -0.1134300000    0.5897130000   -0.0000000000
C       -0.1999740000   -0.0535460000   -0.0000000000
C       -0.0067970000    0.0775640000   -0.0000000000
C       -0.2045310000   -0.0528010000    0.0000000000
C       -0.0796260000    0.5594400000   -0.0000000000
N       -0.2027740000   -0.1491890000   -0.0000000000
H        0.1249970000   -0.0325370000    0.0000000000
H        0.1348930000    0.0003090000   -0.0000000000
H        0.1429070000   -0.0038000000   -0.0000000000
H        0.1333180000    0.0006660000    0.0000000000
H        0.1251890000   -0.0299300000   -0.0000000000
C        0.0046590000    0.0989320000    0.0000000000
H        0.1411690000   -0.0048230000    0.0000000000
13   
Frame  23 IRC: Energy =  -286.8715570000 ; +4.8544 kcal/mol
C       -0.1176260000    0.6004850000   -0.0000000000
C       -0.2031310000   -0.0544870000   -0.0000000000
C       -0.0048350000    0.0759810000   -0.0000000000
C       -0.2073570000   -0.0523710000    0.0000000000
C       -0.0744810000    0.5425310000   -0.0000000000
N       -0.2014380000   -0.1436280000   -0.0000000000
H        0.1254990000   -0.0329630000    0.0000000000
H        0.1353620000    0.0002400000   -0.0000000000
H        0.1434150000   -0.0037210000   -0.0000000000
H        0.1337960000    0.0006290000    0.0000000000
H        0.1251620000   -0.0291650000   -0.0000000000
C        0.0045790000    0.1014130000    0.0000000000
H        0.1410540000   -0.0049450000    0.0000000000
13   
Frame  24 IRC: Energy =  -286.8710200000 ; +5.1914 kcal/mol
C       -0.1175110000    0.5905940000   -0.0000000000
C       -0.2038080000   -0.0537770000   -0.0000000000
C       -0.0056200000    0.0758930000   -0.0000000000
C       -0.2091920000   -0.0530820000    0.0000000000
C       -0.0741450000    0.5505680000   -0.0000000000
N       -0.2007230000   -0.1417440000   -0.0000000000
H        0.1253550000   -0.0327170000    0.0000000000
H        0.1356760000    0.0001790000   -0.0000000000
H        0.1434420000   -0.0036940000   -0.0000000000
H        0.1338080000    0.0006450000    0.0000000000
H        0.1254280000   -0.0294220000   -0.0000000000
C        0.0061700000    0.1015170000    0.0000000000
H        0.1411210000   -0.0049600000    0.0000000000
13   
Frame  25 IRC: Energy =  -286.8694760000 ; +6.1603 kcal/mol
C       -0.1222060000    0.6026320000   -0.0000000000
C       -0.2069880000   -0.0545960000   -0.0000000000
C       -0.0038570000    0.0742970000   -0.0000000000
C       -0.2121220000   -0.0525680000    0.0000000000
C       -0.0684380000    0.5323090000   -0.0000000000
N       -0.1992760000   -0.1360340000   -0.0000000000
H        0.1259920000   -0.0331460000    0.0000000000
H        0.1362170000    0.0000960000   -0.0000000000
H        0.1441180000   -0.0036150000   -0.0000000000
H        0.1343560000    0.0005970000    0.0000000000
H        0.1253840000   -0.0286000000   -0.0000000000
C        0.0057460000    0.1037040000    0.0000000000
H        0.1410740000   -0.0050770000    0.0000000000
13   
Frame  26 IRC: Energy =  -286.8688360000 ; +6.5619 kcal/mol
C       -0.1216780000    0.5909250000   -0.0000000000
C       -0.2072560000   -0.0537810000   -0.0000000000
C       -0.0047870000    0.0745750000   -0.0000000000
C       -0.2136570000   -0.0535180000    0.0000000000
C       -0.0683010000    0.5422440000   -0.0000000000
N       -0.1987500000   -0.1344810000   -0.0000000000
H        0.1259030000   -0.0328240000    0.0000000000
H        0.1364910000    0.0000280000   -0.0000000000
H        0.1440600000   -0.0035850000   -0.0000000000
H        0.1343570000    0.0006170000    0.0000000000
H        0.1257400000   -0.0289280000   -0.0000000000
C        0.0068730000    0.1038190000    0.0000000000
H        0.1410060000   -0.0050920000    0.0000000000
13   
Frame  27 IRC: Energy =  -286.8670900000 ; +7.6575 kcal/mol
C       -0.1264060000    0.6037180000   -0.0000000000
C       -0.2107640000   -0.0540570000   -0.0000000000
C       -0.0034630000    0.0728270000   -0.0000000000
C       -0.2171070000   -0.0527210000    0.0000000000
C       -0.0626100000    0.5234550000   -0.0000000000
N       -0.1973350000   -0.1287760000   -0.0000000000
H        0.1266100000   -0.0332160000    0.0000000000
H        0.1370970000   -0.0000760000   -0.0000000000
H        0.1450590000   -0.0035090000   -0.0000000000
H        0.1349970000    0.0005550000    0.0000000000
H        0.1256520000   -0.0280900000   -0.0000000000
C        0.0070240000    0.1050700000    0.0000000000
H        0.1412460000   -0.0051810000    0.0000000000
13   
Frame  28 IRC: Energy =  -286.8662350000 ; +8.1940 kcal/mol
C       -0.1258960000    0.5929660000   -0.0000000000
C       -0.2103010000   -0.0534000000   -0.0000000000
C       -0.0047260000    0.0735590000   -0.0000000000
C       -0.2181140000   -0.0538350000    0.0000000000
C       -0.0617760000    0.5316890000   -0.0000000000
N       -0.1969190000   -0.1271200000   -0.0000000000
H        0.1266920000   -0.0328970000    0.0000000000
H        0.1373640000   -0.0001500000   -0.0000000000
H        0.1449080000   -0.0034790000   -0.0000000000
H        0.1350300000    0.0005730000    0.0000000000
H        0.1260590000   -0.0283480000   -0.0000000000
C        0.0067990000    0.1056560000    0.0000000000
H        0.1408790000   -0.0052140000    0.0000000000
13   
Frame  29 IRC: Energy =  -286.8642430000 ; +9.4440 kcal/mol
C       -0.1297410000    0.6016310000   -0.0000000000
C       -0.2139740000   -0.0524960000   -0.0000000000
C       -0.0046520000    0.0719270000   -0.0000000000
C       -0.2225900000   -0.0529900000    0.0000000000
C       -0.0569730000    0.5171590000   -0.0000000000
N       -0.1957800000   -0.1216170000   -0.0000000000
H        0.1273800000   -0.0330930000    0.0000000000
H        0.1381000000   -0.0002910000   -0.0000000000
H        0.1462380000   -0.0034070000   -0.0000000000
H        0.1357370000    0.0005080000    0.0000000000
H        0.1260570000   -0.0276770000   -0.0000000000
C        0.0086860000    0.1056090000    0.0000000000
H        0.1415120000   -0.0052630000    0.0000000000
13   
Frame  30 IRC: Energy =  -286.8630090000 ; +10.2184 kcal/mol
C       -0.1292650000    0.5921550000   -0.0000000000
C       -0.2128430000   -0.0516880000   -0.0000000000
C       -0.0064460000    0.0730010000   -0.0000000000
C       -0.2234850000   -0.0541110000    0.0000000000
C       -0.0552940000    0.5229170000   -0.0000000000
N       -0.1954830000   -0.1195370000   -0.0000000000
H        0.1276790000   -0.0327680000    0.0000000000
H        0.1384680000   -0.0003850000   -0.0000000000
H        0.1461730000   -0.0033670000   -0.0000000000
H        0.1358660000    0.0005210000    0.0000000000
H        0.1265130000   -0.0278400000   -0.0000000000
C        0.0071840000    0.1064080000    0.0000000000
H        0.1409340000   -0.0053060000    0.0000000000
13   
Frame  31 IRC: Energy =  -286.8606370000 ; +11.7068 kcal/mol
C       -0.1320110000    0.5939900000    0.0000000000
C       -0.2154240000   -0.0490760000   -0.0000000000
C       -0.0093780000    0.0720820000   -0.0000000000
C       -0.2292010000   -0.0534600000    0.0000000000
C       -0.0513780000    0.5138060000   -0.0000000000
N       -0.1948750000   -0.1139050000   -0.0000000000
H        0.1283680000   -0.0326770000    0.0000000000
H        0.1394590000   -0.0005740000   -0.0000000000
H        0.1477730000   -0.0033120000   -0.0000000000
H        0.1366550000    0.0004590000    0.0000000000
H        0.1267140000   -0.0273590000   -0.0000000000
C        0.0114570000    0.1053580000    0.0000000000
H        0.1418410000   -0.0053320000    0.0000000000
13   
Frame  32 IRC: Energy =  -286.8575250000 ; +13.6596 kcal/mol
C       -0.1327670000    0.5759490000    0.0000000000
C       -0.2114280000   -0.0448610000   -0.0000000000
C       -0.0144820000    0.0746610000   -0.0000000000
C       -0.2344070000   -0.0543870000   -0.0000000000
C       -0.0487790000    0.5192560000   -0.0000000000
N       -0.1956940000   -0.1075640000   -0.0000000000
H        0.1292440000   -0.0319060000    0.0000000000
H        0.1409450000   -0.0008210000   -0.0000000000
H        0.1489870000   -0.0032580000   -0.0000000000
H        0.1372670000    0.0004610000    0.0000000000
H        0.1272610000   -0.0274780000   -0.0000000000
C        0.0121500000    0.1053470000    0.0000000000
H        0.1417030000   -0.0053990000    0.0000000000
13   
Frame  33 IRC: Energy =  -286.8536290000 ; +16.1044 kcal/mol
C       -0.1357730000    0.5563820000    0.0000000000
C       -0.2055680000   -0.0382470000   -0.0000000000
C       -0.0218970000    0.0780070000   -0.0000000000
C       -0.2413140000   -0.0543880000   -0.0000000000
C       -0.0475210000    0.5216800000   -0.0000000000
N       -0.1969190000   -0.0991440000   -0.0000000000
H        0.1302750000   -0.0309260000    0.0000000000
H        0.1428650000   -0.0011340000   -0.0000000000
H        0.1511080000   -0.0032130000   -0.0000000000
H        0.1381170000    0.0004380000    0.0000000000
H        0.1275980000   -0.0274800000   -0.0000000000
C        0.0165190000    0.1034480000    0.0000000000
H        0.1425110000   -0.0054220000    0.0000000000
13   
Frame  34 IRC: Energy =  -286.8488070000 ; +19.1303 kcal/mol
C       -0.1411100000    0.5232980000    0.0000000000
C       -0.1936450000   -0.0284780000   -0.0000000000
C       -0.0262530000    0.0884450000   -0.0000000000
C       -0.2511010000   -0.0533140000   -0.0000000000
C       -0.0499380000    0.5262660000   -0.0000000000
N       -0.2001370000   -0.0875470000   -0.0000000000
H        0.1315590000   -0.0290400000    0.0000000000
H        0.1452720000   -0.0015340000   -0.0000000000
H        0.1543280000   -0.0031460000   -0.0000000000
H        0.1388440000    0.0004280000    0.0000000000
H        0.1272730000   -0.0277180000   -0.0000000000
C        0.0206700000    0.0975630000    0.0000000000
H        0.1442380000   -0.0052220000    0.0000000000
13   
Frame  35 IRC: Energy =  -286.8423970000 ; +23.1526 kcal/mol
C       -0.1494180000    0.4822770000    0.0000000000
C       -0.1769600000   -0.0151860000   -0.0000000000
C       -0.0298710000    0.1098770000   -0.0000000000
C       -0.2617320000   -0.0509020000   -0.0000000000
C       -0.0541920000    0.5252010000   -0.0000000000
N       -0.2039520000   -0.0725160000   -0.0000000000
H        0.1330150000   -0.0261900000    0.0000000000
H        0.1477410000   -0.0021000000   -0.0000000000
H        0.1579310000   -0.0028870000   -0.0000000000
H        0.1397010000    0.0003340000    0.0000000000
H        0.1265310000   -0.0277990000   -0.0000000000
C        0.0244870000    0.0843210000    0.0000000000
H        0.1467170000   -0.0044280000    0.0000000000
13   
Frame  36 IRC: Energy =  -286.8343150000 ; +28.2241 kcal/mol
C       -0.1610200000    0.4353930000    0.0000000000
C       -0.1557000000    0.0018080000   -0.0000000000
C       -0.0375220000    0.1521190000   -0.0000000000
C       -0.2705450000   -0.0476880000   -0.0000000000
C       -0.0559390000    0.5113070000   -0.0000000000
N       -0.2076290000   -0.0540290000   -0.0000000000
H        0.1346570000   -0.0225540000    0.0000000000
H        0.1499630000   -0.0029430000   -0.0000000000
H        0.1606590000   -0.0022950000   -0.0000000000
H        0.1407130000    0.0000660000    0.0000000000
H        0.1256400000   -0.0273200000   -0.0000000000
C        0.0275480000    0.0585180000    0.0000000000
H        0.1491760000   -0.0023810000    0.0000000000
13   
Frame  37 IRC: Energy =  -286.8253560000 ; +33.8460 kcal/mol
C       -0.1772790000    0.3823250000    0.0000000000
C       -0.1308350000    0.0225040000   -0.0000000000
C       -0.0554010000    0.2347680000   -0.0000000000
C       -0.2756230000   -0.0440520000   -0.0000000000
C       -0.0492300000    0.4745000000   -0.0000000000
N       -0.2103290000   -0.0333280000   -0.0000000000
H        0.1366600000   -0.0184050000    0.0000000000
H        0.1515980000   -0.0042190000   -0.0000000000
H        0.1613470000   -0.0014490000   -0.0000000000
H        0.1416340000   -0.0004940000    0.0000000000
H        0.1250660000   -0.0256630000   -0.0000000000
C        0.0314890000    0.0116030000    0.0000000000
H        0.1509050000    0.0019110000    0.0000000000
13   
Frame  38 IRC: Energy =  -286.8174970000 ; +38.7776 kcal/mol
C       -0.2062920000    0.3261350000    0.0000000000
C       -0.1001730000    0.0421090000   -0.0000000000
C       -0.0924200000    0.3902410000   -0.0000000000
C       -0.2745750000   -0.0409640000   -0.0000000000
C       -0.0235740000    0.3876210000   -0.0000000000
N       -0.2088180000   -0.0158330000   -0.0000000000
H        0.1395970000   -0.0142230000    0.0000000000
H        0.1520120000   -0.0059620000   -0.0000000000
H        0.1587000000   -0.0015820000   -0.0000000000
H        0.1416200000   -0.0015450000    0.0000000000
H        0.1256420000   -0.0212640000   -0.0000000000
C        0.0373450000   -0.0538320000    0.0000000000
H        0.1509360000    0.0090990000    0.0000000000
13   