13   
Frame   0 IRC: Energy =  -286.8792930000 ; +0.0000 kcal/mol
C        1.5758624978    0.4527193644   -0.0524852427
C        0.8243225195   -0.8156766714    0.1049358752
C       -0.5142214665   -0.9607802064   -0.5986270279
C       -1.1207515238    0.3151218051   -0.0314326887
C       -0.3743500131    1.5783697681   -0.2436122342
N        0.9579280578    1.6192493267   -0.2360078737
H        2.6620976006    0.4571557914    0.0011031635
H        1.4104144824   -1.7254489639    0.2208635463
H       -0.9157871709   -1.7293673214   -1.2431378866
H       -2.2071341972    0.3783825191   -0.0254864027
H       -0.9090022993    2.5063868469   -0.4328187474
C       -0.5020998447   -0.7568194346    0.8492679420
H       -0.8872786424   -1.3192928234    1.6874375763
13   
Frame   1 IRC: Energy =  -286.8792870000 ; +0.0038 kcal/mol
C        1.5760891744    0.4525177928   -0.0524390652
C        0.8243059418   -0.8156896907    0.1050233995
C       -0.5146503634   -0.9602392316   -0.5988812215
C       -1.1207922451    0.3150492168   -0.0318825786
C       -0.3745016412    1.5786284450   -0.2434743768
N        0.9579920323    1.6188417191   -0.2360958404
H        2.6623607695    0.4574744521    0.0028914568
H        1.4103632001   -1.7254063611    0.2197703338
H       -0.9163600929   -1.7289440785   -1.2429140934
H       -2.2071803531    0.3786273283   -0.0243123311
H       -0.9093407100    2.5065834549   -0.4347118394
C       -0.5014967376   -0.7577512075    0.8491402056
H       -0.8867889747   -1.3196918395    1.6878859508
13   
Frame   2 IRC: Energy =  -286.8792800000 ; +0.0082 kcal/mol
C        1.5763770420    0.4530468739   -0.0525521189
C        0.8237321081   -0.8157675487    0.1051705921
C       -0.5147045870   -0.9599169694   -0.5987576189
C       -1.1208019274    0.3151998960   -0.0322789043
C       -0.3748793598    1.5784671156   -0.2432924929
N        0.9585369244    1.6181859618   -0.2360636601
H        2.6622779561    0.4575651987    0.0033741473
H        1.4104030108   -1.7254165189    0.2195058763
H       -0.9165264364   -1.7288461910   -1.2428337951
H       -2.2071816656    0.3787093863   -0.0239906543
H       -0.9095946067    2.5068652447   -0.4352818458
C       -0.5009044772   -0.7582359721    0.8488446009
H       -0.8867339814   -1.3198564769    1.6881558735
13   
Frame   3 IRC: Energy =  -286.8791260000 ; +0.1048 kcal/mol
C        1.5757149509    0.4536899173   -0.0457953831
C        0.8243817588   -0.8170568223    0.0919821365
C       -0.5198162845   -0.9566455137   -0.5992267319
C       -1.1203705134    0.3171378095   -0.0186621026
C       -0.3741677471    1.5773022813   -0.2504552374
N        0.9577594317    1.6189860010   -0.2359912402
H        2.6595378622    0.4625875366    0.0440261773
H        1.4101458330   -1.7284351992    0.1951054765
H       -0.9289471743   -1.7210811997   -1.2439232242
H       -2.2064859156    0.3823339947    0.0003153867
H       -0.9084764199    2.4975413974   -0.4751425748
C       -0.4955838579   -0.7596005977    0.8497501657
H       -0.8736919237   -1.3267596051    1.6880171515
13   
Frame   4 IRC: Energy =  -286.8791190000 ; +0.1092 kcal/mol
C        1.5758634134    0.4542978658   -0.0456675165
C        0.8239770938   -0.8171740069    0.0916171924
C       -0.5198078661   -0.9566166412   -0.5991663790
C       -1.1203668496    0.3174266778   -0.0183055388
C       -0.3744365653    1.5769931398   -0.2506001270
N        0.9581631111    1.6186568160   -0.2359409119
H        2.6592961103    0.4626992933    0.0450709182
H        1.4102321114   -1.7286325974    0.1944802400
H       -0.9292744071   -1.7208882082   -1.2439641008
H       -2.2064200405    0.3824150463    0.0009464474
H       -0.9084956472    2.4973931211   -0.4761944976
C       -0.4953671075   -0.7596074298    0.8496845691
H       -0.8733633566   -1.3269630765    1.6880397045
13   
Frame   5 IRC: Energy =  -286.8790720000 ; +0.1387 kcal/mol
C        1.5756625251    0.4538164570   -0.0441568004
C        0.8244544099   -0.8173558604    0.0890456396
C       -0.5211183134   -0.9555379387   -0.5994356464
C       -1.1202630888    0.3175811758   -0.0157531857
C       -0.3741072006    1.5771346486   -0.2520520905
N        0.9576353332    1.6188989245   -0.2360308512
H        2.6587913362    0.4639052299    0.0543109692
H        1.4100647062   -1.7291184393    0.1888770176
H       -0.9321273011   -1.7190539936   -1.2440529295
H       -2.2062902240    0.3832982208    0.0065675805
H       -0.9082864990    2.4953073296   -0.4853033364
C       -0.4940262606   -0.7603250839    0.8497951162
H       -0.8703894231   -1.3285506702    1.6881885170
13   
Frame   6 IRC: Energy =  -286.8790630000 ; +0.1443 kcal/mol
C        1.5754147069    0.4530251216   -0.0439383139
C        0.8249338185   -0.8172964730    0.0888024511
C       -0.5213099092   -0.9552485953   -0.5993438250
C       -1.1203159869    0.3172427744   -0.0154514668
C       -0.3737979640    1.5774779932   -0.2522624897
N        0.9571376459    1.6194024502   -0.2361032815
H        2.6589612216    0.4640512531    0.0552367741
H        1.4099586885   -1.7290442713    0.1883109321
H       -0.9324474609   -1.7189408253   -1.2441183385
H       -2.2062794480    0.3834062229    0.0071203580
H       -0.9081857370    2.4949656658   -0.4861743961
C       -0.4939514151   -0.7603049435    0.8496738286
H       -0.8701181602   -1.3287363728    1.6882477676
13   
Frame   7 IRC: Energy =  -286.8787940000 ; +0.3131 kcal/mol
C        1.5755191499    0.4550719710   -0.0377532236
C        0.8243820203   -0.8185507422    0.0760124874
C       -0.5264205221   -0.9514461995   -0.6002691423
C       -1.1196390727    0.3197797721   -0.0036846107
C       -0.3739753763    1.5759465567   -0.2589329022
N        0.9575051495    1.6184036354   -0.2359124519
H        2.6545636300    0.4688450147    0.0972721982
H        1.4097546899   -1.7318501118    0.1630687197
H       -0.9453137882   -1.7112239272   -1.2441690262
H       -2.2052073270    0.3871712897    0.0314705436
H       -0.9073918053    2.4854132278   -0.5258675027
C       -0.4874005785   -0.7624920055    0.8500626238
H       -0.8563761695   -1.3350684813    1.6887022868
13   
Frame   8 IRC: Energy =  -286.8787770000 ; +0.3238 kcal/mol
C        1.5751765879    0.4542938662   -0.0374293600
C        0.8247918974   -0.8185560186    0.0754631082
C       -0.5266654808   -0.9511699294   -0.6002325706
C       -1.1197616750    0.3195541417   -0.0030752712
C       -0.3737190694    1.5763267583   -0.2593483784
N        0.9570242865    1.6189549190   -0.2359721167
H        2.6547224888    0.4690893184    0.0991366790
H        1.4096474127   -1.7318313723    0.1619545784
H       -0.9459053329   -1.7109372310   -1.2442193734
H       -2.2051282272    0.3873549183    0.0325225645
H       -0.9072252281    2.4847776642   -0.5275339446
C       -0.4871654354   -0.7624993080    0.8499921416
H       -0.8557922245   -1.3353577267    1.6887419432
13   
Frame   9 IRC: Energy =  -286.8784250000 ; +0.5447 kcal/mol
C        1.5752488142    0.4560791531   -0.0318698951
C        0.8244021717   -0.8196532418    0.0625154109
C       -0.5317519825   -0.9476080765   -0.6014405900
C       -1.1187582621    0.3217920960    0.0068773614
C       -0.3736764048    1.5748384009   -0.2660870748
N        0.9571512834    1.6179532563   -0.2356439257
H        2.6486848339    0.4732695036    0.1411885536
H        1.4093609004   -1.7342827991    0.1367339949
H       -0.9588187305   -1.7047798954   -1.2430394911
H       -2.2037605667    0.3908859718    0.0548108657
H       -0.9062729974    2.4753650433   -0.5635226279
C       -0.4804141299   -0.7640400936    0.8498516720
H       -0.8413949297   -1.3398193187    1.6896257462
13   
Frame  10 IRC: Energy =  -286.8783970000 ; +0.5622 kcal/mol
C        1.5744363556    0.4552889718   -0.0315655449
C        0.8248123677   -0.8194442239    0.0617337829
C       -0.5320639953   -0.9473560477   -0.6014865648
C       -1.1190456141    0.3216258368    0.0076173225
C       -0.3736846344    1.5753202059   -0.2666944159
N        0.9570070714    1.6183938307   -0.2356617008
H        2.6489158943    0.4735940313    0.1438901485
H        1.4092940750   -1.7344058446    0.1351613305
H       -0.9596484074   -1.7044203111   -1.2429883587
H       -2.2035062961    0.3911252144    0.0561704946
H       -0.9060225023    2.4744536342   -0.5656382224
C       -0.4799539378   -0.7640474955    0.8497200860
H       -0.8405403767   -1.3401278023    1.6897416425
13   
Frame  11 IRC: Energy =  -286.8779450000 ; +0.8459 kcal/mol
C        1.5747440683    0.4568534131   -0.0266849764
C        0.8244475803   -0.8207930927    0.0476081455
C       -0.5373485630   -0.9443303138   -0.6030355176
C       -1.1176172817    0.3236548424    0.0157769361
C       -0.3732465219    1.5737972761   -0.2740990590
N        0.9566712445    1.6175749565   -0.2353732265
H        2.6404345357    0.4771516631    0.1883982829
H        1.4089611002   -1.7365957290    0.1088053653
H       -0.9732220140   -1.7004046659   -1.2401319141
H       -2.2018237454    0.3944908665    0.0767133939
H       -0.9049305005    2.4657001119   -0.5981476555
C       -0.4726596043   -0.7647770815    0.8489431336
H       -0.8244102983   -1.3423222466    1.6912270917
13   
Frame  12 IRC: Energy =  -286.8779020000 ; +0.8729 kcal/mol
C        1.5735499407    0.4561571404   -0.0264786646
C        0.8248297050   -0.8204816501    0.0465700912
C       -0.5377329954   -0.9441389810   -0.6031589888
C       -1.1178770720    0.3235205300    0.0165413832
C       -0.3734520569    1.5743753141   -0.2749170295
N        0.9567730943    1.6178587805   -0.2353528599
H        2.6406124090    0.4775043521    0.1919423527
H        1.4089198621   -1.7368119043    0.1067994376
H       -0.9742731098   -1.7001001837   -1.2399099879
H       -2.2015017788    0.3947696261    0.0782387674
H       -0.9045985874    2.4646088362   -0.6004349357
C       -0.4720104712   -0.7647257358    0.8487240863
H       -0.8232389394   -1.3425361244    1.6914363480
13   
Frame  13 IRC: Energy =  -286.8773370000 ; +1.2274 kcal/mol
C        1.5739746811    0.4573769635   -0.0225005043
C        0.8245078469   -0.8220207693    0.0314117347
C       -0.5431137343   -0.9418753729   -0.6050787650
C       -1.1161557154    0.3253209739    0.0224937143
C       -0.3726607306    1.5729032588   -0.2829713468
N        0.9560996099    1.6172857425   -0.2352719124
H        2.6292319615    0.4801532311    0.2384801126
H        1.4086564623   -1.7387795257    0.0797240469
H       -0.9882064088   -1.6987036862   -1.2350975349
H       -2.1993625839    0.3979281912    0.0964491258
H       -0.9034460158    2.4573870279   -0.6284043650
C       -0.4641662828   -0.7646351402    0.8472613272
H       -0.8053590903   -1.3423408946    1.6935043670
13   
Frame  14 IRC: Energy =  -286.8772700000 ; +1.2695 kcal/mol
C        1.5724063509    0.4567791034   -0.0224525562
C        0.8248930005   -0.8216838430    0.0300325014
C       -0.5436171427   -0.9417544495   -0.6053025464
C       -1.1162929087    0.3252104959    0.0232207090
C       -0.3730265744    1.5735994481   -0.2840726168
N        0.9563862284    1.6174184933   -0.2352250452
H        2.6291877292    0.4804996032    0.2431801081
H        1.4086231581   -1.7390525651    0.0771367343
H       -0.9895435349   -1.6985516709   -1.2346023465
H       -2.1989974187    0.3982582634    0.0981425352
H       -0.9030215991    2.4561626870   -0.6308133949
C       -0.4632801087   -0.7645002375    0.8469206145
H       -0.8037171799   -1.3423853282    1.6938353034
13   
Frame  15 IRC: Energy =  -286.8765810000 ; +1.7018 kcal/mol
C        1.5729407573    0.4576401208   -0.0193567132
C        0.8245913298   -0.8233176292    0.0141516240
C       -0.5489137637   -0.9402933724   -0.6074931422
C       -1.1143790279    0.3267871600    0.0269851865
C       -0.3718814023    1.5722730053   -0.2924543203
N        0.9554445350    1.6172023320   -0.2352763628
H        2.6147301804    0.4818969514    0.2905494306
H        1.4085580763   -1.7407408452    0.0499672465
H       -1.0033553355   -1.6998247163   -1.2278219906
H       -2.1964100841    0.4011682097    0.1136863115
H       -0.9018375042    2.4509473253   -0.6540353758
C       -0.4550278439   -0.7636303641    0.8448575602
H       -0.7844599172   -1.3401081773    1.6962405454
13   
Frame  16 IRC: Energy =  -286.8764780000 ; +1.7664 kcal/mol
C        1.5709838117    0.4571696662   -0.0195353680
C        0.8249682165   -0.8230303841    0.0123118071
C       -0.5495850434   -0.9402693211   -0.6078507711
C       -1.1143294823    0.3266166682    0.0276379968
C       -0.3724035018    1.5731076320   -0.2938977558
N        0.9559373050    1.6172065752   -0.2351958865
H        2.6142426854    0.4821696919    0.2967478829
H        1.4085422430   -1.7410444571    0.0466280598
H       -1.0050246034   -1.6999183327   -1.2269000914
H       -2.1959915051    0.4015687398    0.1155405555
H       -0.9013120030    2.4496754123   -0.6565415560
C       -0.4538702368   -0.7633578848    0.8443690395
H       -0.7821578857   -1.3398940058    1.6966860870
13   
Frame  17 IRC: Energy =  -286.8756640000 ; +2.2772 kcal/mol
C        1.5717011213    0.4576941830   -0.0170385410
C        0.8247020748   -0.8246078204   -0.0037238059
C       -0.5545647396   -0.9394965838   -0.6101715596
C       -1.1123589711    0.3280941999    0.0294091383
C       -0.3708940253    1.5719876347   -0.3021127118
N        0.9547011554    1.6174520646   -0.2350960859
H        2.5970102822    0.4820869646    0.3430299654
H        1.4087484213   -1.7423627782    0.0201844316
H       -1.0181904638   -1.7035792099   -1.2184023025
H       -2.1930734153    0.4041402153    0.1282813748
H       -0.9000763916    2.4465463386   -0.6753175418
C       -0.4454349957   -0.7618708034    0.8418447140
H       -0.7622700527   -1.3360844049    1.6991129244
13   
Frame  18 IRC: Energy =  -286.8755030000 ; +2.3783 kcal/mol
C        1.5694080756    0.4574443013   -0.0174832062
C        0.8251390673   -0.8243917741   -0.0062385581
C       -0.5555439896   -0.9395562010   -0.6107122864
C       -1.1120419288    0.3277769714    0.0299397351
C       -0.3715968932    1.5729968927   -0.3039938857
N        0.9554502767    1.6172916137   -0.2349178315
H        2.5956239962    0.4821629577    0.3513192050
H        1.4087786022   -1.7426940940    0.0157501451
H       -1.0203165778   -1.7040787438   -1.2168178691
H       -2.1925461947    0.4046347504    0.1303453571
H       -0.8994249095    2.4453055552   -0.6780243645
C       -0.4439429220   -0.7613841291    0.8411595462
H       -0.7589866023   -1.3355081006    1.6996740129
13   
Frame  19 IRC: Energy =  -286.8745610000 ; +2.9694 kcal/mol
C        1.5702194904    0.4575840638   -0.0151740728
C        0.8248389267   -0.8258154799   -0.0221939729
C       -0.5600131610   -0.9393501531   -0.6131063908
C       -1.1101668388    0.3292969696    0.0300557897
C       -0.3697021071    1.5721056137   -0.3117461349
N        0.9538699068    1.6181431391   -0.2343775912
H        2.5760976014    0.4805784373    0.3954949010
H        1.4092635652   -1.7435950149   -0.0096625998
H       -1.0326436297   -1.7097389678   -1.2067650482
H       -2.1894370458    0.4067925401    0.1405462895
H       -0.8980436697    2.4440226160   -0.6931601170
C       -0.4353684792   -0.7594091949    0.8382418372
H       -0.7389145591   -1.3306145689    1.7018471101
13   
Frame  20 IRC: Energy =  -286.8743080000 ; +3.1281 kcal/mol
C        1.5676606205    0.4576732806   -0.0158524101
C        0.8254661142   -0.8257004643   -0.0256674509
C       -0.5614219549   -0.9394887302   -0.6138816996
C       -1.1094922447    0.3288178920    0.0303391320
C       -0.3706029111    1.5733917464   -0.3141633605
N        0.9549028696    1.6177632941   -0.2339784579
H        2.5731732068    0.4802522009    0.4064760594
H        1.4093516734   -1.7439040580   -0.0155822599
H       -1.0353748864   -1.7109155005   -1.2041860219
H       -2.1887704475    0.4073770703    0.1428271381
H       -0.8971968826    2.4428903660   -0.6961276666
C       -0.4334214881   -0.7586159853    0.8372819672
H       -0.7342736690   -1.3295411119    1.7025150308
13   
Frame  21 IRC: Energy =  -286.8732180000 ; +3.8121 kcal/mol
C        1.5683986119    0.4573882377   -0.0134423996
C        0.8250143659   -0.8268799913   -0.0416216192
C       -0.5653286926   -0.9397330887   -0.6164170002
C       -1.1078189877    0.3304252380    0.0290981943
C       -0.3683380175    1.5727197333   -0.3213705284
N        0.9529421618    1.6193549584   -0.2326657676
H        2.5516981471    0.4771449505    0.4485166731
H        1.4101108945   -1.7444366366   -0.0401346814
H       -1.0469255791   -1.7183001926   -1.1924596638
H       -2.1855198817    0.4090153246    0.1509201381
H       -0.8955820682    2.4432268814   -0.7085434406
C       -0.4246175849   -0.7561510206    0.8339255250
H       -0.7140333694   -1.3237743940    1.7041945704
13   
Frame  22 IRC: Energy =  -286.8728360000 ; +4.0518 kcal/mol
C        1.5656248953    0.4578908262   -0.0142549050
C        0.8259265514   -0.8269211074   -0.0462745777
C       -0.5671736364   -0.9399573526   -0.6174781920
C       -1.1067343535    0.3298029766    0.0289578854
C       -0.3694709807    1.5744201526   -0.3243512303
N        0.9542613019    1.6187791479   -0.2318339942
H        2.5466692276    0.4761347814    0.4623958579
H        1.4102465362   -1.7446230888   -0.0477526333
H       -1.0503176295   -1.7204563872   -1.1884965297
H       -2.1847196685    0.4096130878    0.1533169589
H       -0.8944429167    2.4423192994   -0.7117002471
C       -0.4221028649   -0.7549435785    0.8325922051
H       -0.7077664622   -1.3220587574    1.7048794020
13   
Frame  23 IRC: Energy =  -286.8715570000 ; +4.8544 kcal/mol
C        1.5660970403    0.4572639308   -0.0115209116
C        0.8253005853   -0.8277679769   -0.0625509104
C       -0.5705702483   -0.9404953871   -0.6203430697
C       -1.1052852741    0.3315210923    0.0265052309
C       -0.3668441946    1.5740136476   -0.3310320416
N        0.9518833231    1.6211345953   -0.2293281539
H        2.5232661783    0.4713016977    0.5028061773
H        1.4112048660   -1.7449289723   -0.0718294603
H       -1.0612663342   -1.7294661171   -1.1746554627
H       -2.1812976615    0.4104815242    0.1597394725
H       -0.8925811023    2.4441414697   -0.7222074143
C       -0.4128423673   -0.7518102081    0.8286353076
H       -0.6870648106   -1.3153892961    1.7057812363
13   
Frame  24 IRC: Energy =  -286.8710200000 ; +5.1914 kcal/mol
C        1.5631541474    0.4581089450   -0.0122915416
C        0.8265226377   -0.8279483166   -0.0683329564
C       -0.5727151482   -0.9407705720   -0.6217073870
C       -1.1037692646    0.3307551432    0.0258034214
C       -0.3683665238    1.5762739410   -0.3344414061
N        0.9535132998    1.6204912330   -0.2278047371
H        2.5160496149    0.4693396619    0.5188438035
H        1.4113266054   -1.7449288703   -0.0808239761
H       -1.0651272217   -1.7327123452   -1.1690573493
H       -2.1804282497    0.4108799625    0.1620341556
H       -0.8910929493    2.4435435121   -0.7252993790
C       -0.4097576995   -0.7500729833    0.8268334335
H       -0.6793092483   -1.3129593113    1.7062439184
13   
Frame  25 IRC: Energy =  -286.8694760000 ; +6.1603 kcal/mol
C        1.5631650022    0.4574121900   -0.0091116929
C        0.8258296423   -0.8284826265   -0.0855291260
C       -0.5755420582   -0.9412320813   -0.6251856757
C       -1.1024692821    0.3326094138    0.0221255783
C       -0.3653492880    1.5763632192   -0.3406307421
N        0.9506242727    1.6235389794   -0.2235136976
H        2.4903754078    0.4621829443    0.5584931114
H        1.4121954877   -1.7452968657   -0.1048537644
H       -1.0757061392   -1.7433986617   -1.1522625197
H       -2.1767242933    0.4104210200    0.1672307824
H       -0.8891932535    2.4467684060   -0.7345951490
C       -0.3995932953   -0.7457696735    0.8218549132
H       -0.6576122032   -1.3051162639    1.7059779821
13   
Frame  26 IRC: Energy =  -286.8688360000 ; +6.5619 kcal/mol
C        1.5602267352    0.4583463150   -0.0097723970
C        0.8275982828   -0.8285579667   -0.0915300225
C       -0.5779671354   -0.9418482412   -0.6273048798
C       -1.1006861479    0.3319736914    0.0209322830
C       -0.3674980846    1.5791494661   -0.3439424085
N        0.9525691553    1.6229778502   -0.2212845056
H        2.4823823421    0.4593606658    0.5738802693
H        1.4121109845   -1.7452315166   -0.1135669829
H       -1.0791453889   -1.7468780829   -1.1455518649
H       -2.1759318474    0.4102692552    0.1690715407
H       -0.8875993102    2.4463870039   -0.7370902618
C       -0.3964551881   -0.7438314854    0.8205142276
H       -0.6496043974   -1.3021169547    1.7056450023
13   
Frame  27 IRC: Energy =  -286.8670900000 ; +7.6575 kcal/mol
C        1.5599167439    0.4577490127   -0.0059820414
C        0.8265853870   -0.8290345945   -0.1087232990
C       -0.5792021350   -0.9410635461   -0.6307419789
C       -1.0994956125    0.3336833313    0.0164467650
C       -0.3641318581    1.5797029161   -0.3491294148
N        0.9490518125    1.6264355019   -0.2152906625
H        2.4563167711    0.4500038705    0.6099890366
H        1.4123828660   -1.7461454162   -0.1357186106
H       -1.0887935865   -1.7582387129   -1.1267634800
H       -2.1720941487    0.4079535392    0.1731870245
H       -0.8864158671    2.4505449734   -0.7451016328
C       -0.3856530180   -0.7379312732    0.8135917746
H       -0.6284673547   -1.2936596024    1.7042365194
13   
Frame  28 IRC: Energy =  -286.8662350000 ; +8.1940 kcal/mol
C        1.5572143214    0.4584972802   -0.0060612386
C        0.8289128298   -0.8288710118   -0.1160573409
C       -0.5820067407   -0.9422985416   -0.6344549961
C       -1.0976776663    0.3338365675    0.0144561579
C       -0.3662331133    1.5827248907   -0.3524465168
N        0.9505498128    1.6264101255   -0.2119205946
H        2.4461290094    0.4455605538    0.6265118339
H        1.4119260994   -1.7464157339   -0.1452006116
H       -1.0921095596   -1.7620558539   -1.1175580657
H       -2.1709380645    0.4067436193    0.1749461309
H       -0.8851022783    2.4507627009   -0.7477162830
C       -0.3816892351   -0.7356244775    0.8130246410
H       -0.6189754150   -1.2892701192    1.7024768836
13   
Frame  29 IRC: Energy =  -286.8642430000 ; +9.4440 kcal/mol
C        1.5559107874    0.4581237832   -0.0016425379
C        0.8281832245   -0.8296862035   -0.1331276701
C       -0.5813666012   -0.9394374554   -0.6380947733
C       -1.0960144854    0.3351287040    0.0093560226
C       -0.3638020654    1.5845140851   -0.3570048331
N        0.9469756040    1.6296252062   -0.2040986307
H        2.4206991464    0.4337918646    0.6588728509
H        1.4111302712   -1.7486938734   -0.1650313308
H       -1.1005592776   -1.7730392916   -1.0966519103
H       -2.1670032537    0.4022047971    0.1784791773
H       -0.8853595080    2.4551342355   -0.7546403091
C       -0.3701473786   -0.7275507309    0.8037899241
H       -0.5986464634   -1.2801151211    1.6997940204
13   
Frame  30 IRC: Energy =  -286.8630090000 ; +10.2184 kcal/mol
C        1.5530813847    0.4585048954   -0.0004394545
C        0.8310046025   -0.8296402742   -0.1426590445
C       -0.5838873449   -0.9405005627   -0.6438365971
C       -1.0941300828    0.3360985310    0.0061905358
C       -0.3657216798    1.5879307862   -0.3603873015
N        0.9475442482    1.6302376209   -0.1989394398
H        2.4075759397    0.4266504687    0.6771920606
H        1.4099795847   -1.7501898223   -0.1756313997
H       -1.1037812914   -1.7770507193   -1.0835401321
H       -2.1651779814    0.3991623572    0.1804548367
H       -0.8852362741    2.4563022263   -0.7578026200
C       -0.3643326023   -0.7238849887    0.8032928126
H       -0.5869185031   -1.2736205184    1.6961057435
13   
Frame  31 IRC: Energy =  -286.8606370000 ; +11.7068 kcal/mol
C        1.5501774064    0.4576406857    0.0054598494
C        0.8314599858   -0.8316456257   -0.1594686401
C       -0.5808777676   -0.9346901844   -0.6486173578
C       -1.0916843818    0.3379543648    0.0007311382
C       -0.3652797882    1.5913325982   -0.3650174705
N        0.9431286270    1.6320984659   -0.1890928711
H        2.3833323125    0.4120845131    0.7056355323
H        1.4083196820   -1.7555111517   -0.1931113882
H       -1.1102894003   -1.7858254865   -1.0594319693
H       -2.1606720805    0.3920999086    0.1839126897
H       -0.8884492591    2.4609232417   -0.7641287086
C       -0.3522363590   -0.7134859961    0.7916340769
H       -0.5669289773   -1.2629753337    1.6914951192
13   
Frame  32 IRC: Energy =  -286.8575250000 ; +13.6596 kcal/mol
C        1.5393429342    0.4546102100    0.0166306712
C        0.8357902504   -0.8360174803   -0.1791639487
C       -0.5786064575   -0.9283093988   -0.6623766628
C       -1.0876488921    0.3410738503   -0.0059630379
C       -0.3696829713    1.5973818317   -0.3704954282
N        0.9392676952    1.6308398225   -0.1786425697
H        2.3584781738    0.3947081315    0.7331934194
H        1.4065174556   -1.7648603876   -0.2099630004
H       -1.1130387200   -1.7890084032   -1.0288379701
H       -2.1550923961    0.3830776190    0.1877416258
H       -0.8938629327    2.4644754836   -0.7700945802
C       -0.3372364835   -0.7006515809    0.7858044104
H       -0.5442276560   -1.2473196978    1.6821670710
13   
Frame  33 IRC: Energy =  -286.8536290000 ; +16.1044 kcal/mol
C        1.5260658144    0.4497742676    0.0316184086
C        0.8390982513   -0.8426780561   -0.1989388177
C       -0.5728014582   -0.9175143692   -0.6761752397
C       -1.0834645463    0.3445641149   -0.0121879183
C       -0.3744224119    1.6028799168   -0.3755859956
N        0.9329623499    1.6279492406   -0.1685899854
H        2.3342400212    0.3765545091    0.7577000671
H        1.4054616817   -1.7768265806   -0.2255564924
H       -1.1146573133   -1.7906174880   -0.9969017041
H       -2.1485960301    0.3733603502    0.1915562260
H       -0.9013871479    2.4684628395   -0.7760981400
C       -0.3207716456   -0.6848316971    0.7759922048
H       -0.5217275652   -1.2310770478    1.6731673865
13   
Frame  34 IRC: Energy =  -286.8488070000 ; +19.1303 kcal/mol
C        1.5022377810    0.4415569113    0.0561596296
C        0.8394880909   -0.8536399959   -0.2166410174
C       -0.5656217361   -0.9039816738   -0.7012677891
C       -1.0790890019    0.3457291120   -0.0165882403
C       -0.3809900587    1.6063066317   -0.3776166794
N        0.9269159588    1.6221622555   -0.1654838525
H        2.3164398657    0.3629588418    0.7721477806
H        1.4064478736   -1.7891824115   -0.2354454914
H       -1.1138206172   -1.7890685568   -0.9715536904
H       -2.1427886388    0.3663491653    0.1937903317
H       -0.9074977815    2.4695853936   -0.7796001484
C       -0.2979541834   -0.6628706201    0.7753521653
H       -0.5037675525   -1.2159050532    1.6667470018
13   
Frame  35 IRC: Energy =  -286.8423970000 ; +23.1526 kcal/mol
C        1.4746888844    0.4325042469    0.0846718036
C        0.8365101614   -0.8665123261   -0.2316836092
C       -0.5587953676   -0.8907919407   -0.7334248152
C       -1.0751354755    0.3450221522   -0.0195007965
C       -0.3872073056    1.6080003569   -0.3775226706
N        0.9219424750    1.6164721274   -0.1668321845
H        2.3032692396    0.3533026280    0.7812837487
H        1.4082300841   -1.7995061194   -0.2419633369
H       -1.1133780584   -1.7884145187   -0.9534597671
H       -2.1387790112    0.3616903657    0.1949128915
H       -0.9114103548    2.4690366453   -0.7814917064
C       -0.2704454169   -0.6376902263    0.7812331181
H       -0.4894898545   -1.2031133912    1.6637773245
13   
Frame  36 IRC: Energy =  -286.8343150000 ; +28.2241 kcal/mol
C        1.4461394403    0.4231217552    0.1149605378
C        0.8311789217   -0.8803230278   -0.2438787072
C       -0.5534363453   -0.8798534165   -0.7704972711
C       -1.0720541479    0.3439682089   -0.0211317740
C       -0.3923616466    1.6080932406   -0.3760495491
N        0.9176169176    1.6118913032   -0.1712487677
H        2.2938060768    0.3468017228    0.7869926541
H        1.4101167065   -1.8073192709   -0.2461560457
H       -1.1134433269   -1.7885995785   -0.9412712322
H       -2.1365202573    0.3587509915    0.1952922652
H       -0.9133786937    2.4674503878   -0.7823048967
C       -0.2398284066   -0.6118694551    0.7920666501
H       -0.4778352385   -1.1921128611    1.6632261366
13   
Frame  37 IRC: Energy =  -286.8253560000 ; +33.8460 kcal/mol
C        1.4178927443    0.4134176960    0.1459146825
C        0.8240832156   -0.8945601313   -0.2535172650
C       -0.5495234716   -0.8709923476   -0.8104966917
C       -1.0698993459    0.3428627000   -0.0216850570
C       -0.3962809667    1.6067768663   -0.3739916197
N        0.9134000011    1.6086725329   -0.1775045184
H        2.2870184220    0.3424503947    0.7906693858
H        1.4117500501   -1.8129090665   -0.2489845645
H       -1.1138543775   -1.7891372947   -0.9330703968
H       -2.1355149469    0.3568477945    0.1952837516
H       -0.9139495282    2.4653352368   -0.7825281952
C       -0.2074503246   -0.5865112280    0.8055981565
H       -0.4676714717   -1.1822531531    1.6643123320
13   
Frame  38 IRC: Energy =  -286.8174970000 ; +38.7776 kcal/mol
C        1.3913889450    0.4014921594    0.1771762808
C        0.8151846848   -0.9082616237   -0.2605848551
C       -0.5473860095   -0.8641702515   -0.8521328837
C       -1.0690775173    0.3400906957   -0.0211144737
C       -0.3969566764    1.6042466359   -0.3718751472
N        0.9071709407    1.6083099356   -0.1851963329
H        2.2822594618    0.3396884808    0.7928960896
H        1.4129000170   -1.8162436559   -0.2510544175
H       -1.1141972864   -1.7889147289   -0.9280780995
H       -2.1352007975    0.3555322159    0.1950206806
H       -0.9135786839    2.4632554992   -0.7826025468
C       -0.1741245421   -0.5615688445    0.8206160353
H       -0.4583825362   -1.1734565180    1.6669296699
13   