
Running Job 1 of 1 irc_transition.in
qchem irc_transition.in_18547.0 ./irc_transition.d/ 1
/home/leeping/opt/qchem/5.0.2-openmp/exe/qcprog.exe_s irc_transition.in_18547.0 ./irc_transition.d/
Check license passed

                  Welcome to Q-Chem
     A Quantum Leap Into The Future Of Chemistry


 Q-Chem 5.0, Q-Chem, Inc., Pleasanton, CA (2017)

 Yihan Shao,  Zhengting Gan,  E. Epifanovsky,  A. T. B. Gilbert,  M. Wormit,  
 J. Kussmann,  A. W. Lange,  A. Behn,  Jia Deng,  Xintian Feng,  D. Ghosh,  
 M. Goldey,  P. R. Horn,  L. D. Jacobson,  I. Kaliman,  T. Kus,  A. Landau,  
 Jie Liu,  E. I. Proynov,  R. M. Richard,  R. P. Steele,  E. J. Sundstrom,  
 H. L. Woodcock III,  P. M. Zimmerman,  D. Zuev,  B. Albrecht,  E. Alguire,  
 S. A. Baeppler,  D. Barton,  Z. Benda,  Y. A. Bernard,  E. J. Berquist,  
 K. B. Bravaya,  H. Burton,  D. Casanova,  Chun-Min Chang,  Yunqing Chen,  
 A. Chien,  K. D. Closser,  M. P. Coons,  S. Dasgupta,  A. L. Dempwolff,  
 M. Diedenhofen,  Hainam Do,  R. G. Edgar,  Po-Tung Fang,  S. Fatehi,  
 Qingguo Feng,  J. Fosso-Tande,  Qinghui Ge,  A. Ghysels,  G. Gidofalvi,  
 J. Gomes,  J. Gonthier,  A. Gunina,  M. W. D. Hanson-Heine,  
 P. H. P. Harbach,  A. W. Hauser,  J. E. Herr,  E. G. Hohenstein,  
 Z. C. Holden,  Kerwin Hui,  T.-C. Jagau,  Hyunjun Ji,  B. Kaduk,  
 K. Khistyaev,  Jaehoon Kim,  P. Klunzinger,  K. Koh,  D. Kosenkov,  
 L. Koulias,  T. Kowalczyk,  C. M. Krauter,  A. Kunitsa,  Ka Un Lao,  
 A. Laurent,  K. V. Lawler,  Joonho Lee,  D. Lefrancois,  S. Lehtola,  
 D. S. Levine,  Yi-Pei Li,  You-Sheng Lin,  Fenglai Liu,  E. Livshits,  
 A. Luenser,  P. Manohar,  E. Mansoor,  S. F. Manzer,  Shan-Ping Mao,  
 Yuezhi Mao,  N. Mardirossian,  A. V. Marenich,  T. Markovich,  
 L. A. Martinez-Martinez,  S. A. Maurer,  N. J. Mayhall,  S. C. McKenzie,  
 J.-M. Mewes,  A. F. Morrison,  J. W. Mullinax,  K. Nanda,  
 T. S. Nguyen-Beck,  R. Olivares-Amaya,  J. A. Parkhill,  T. M. Perrine,  
 F. Plasser,  S. Prager,  A. Prociuk,  E. Ramos,  D. R. Rehn,  F. Rob,  
 M. Schneider,  N. Sergueev,  S. M. Sharada,  S. Sharma,  D. W. Small,  
 T. Stauch,  T. Stein,  Yu-Chuan Su,  A. J. W. Thom,  A. Tkatchenko,  
 T. Tsuchimochi,  L. Vogt,  O. Vydrov,  M. A. Watson,  J. Wenzel,  
 M. de Wergifosse,  T. A. Wesolowski,  A. White,  J. Witte,  A. Yamada,  
 Jun Yang,  K. Yao,  S. Yeganeh,  S. R. Yost,  Zhi-Qiang You,  A. Zech,  
 Igor Ying Zhang,  Xing Zhang,  Yan Zhao,  Ying Zhu,  B. R. Brooks,  
 G. K. L. Chan,  C. J. Cramer,  M. S. Gordon,  W. J. Hehre,  A. Klamt,  
 M. W. Schmidt,  C. D. Sherrill,  D. G. Truhlar,  A. Aspuru-Guzik,  R. Baer,  
 A. T. Bell,  N. A. Besley,  Jeng-Da Chai,  R. A. DiStasio Jr.,  A. Dreuw,  
 B. D. Dunietz,  T. R. Furlani,  Chao-Ping Hsu,  Yousung Jung,  Jing Kong,  
 D. S. Lambrecht,  WanZhen Liang,  C. Ochsenfeld,  V. A. Rassolov,  
 L. V. Slipchenko,  J. E. Subotnik,  T. Van Voorhis,  J. M. Herbert,  
 A. I. Krylov,  P. M. W. Gill,  M. Head-Gordon

 Contributors to earlier versions of Q-Chem not listed above: 
 R. D. Adamson,  B. Austin,  J. Baker,  G. J. O. Beran,  K. Brandhorst,  
 S. T. Brown,  E. F. C. Byrd,  A. K. Chakraborty,  C.-L. Cheng,  
 Siu Hung Chien,  D. M. Chipman,  D. L. Crittenden,  H. Dachsel,  
 R. J. Doerksen,  A. D. Dutoi,  L. Fusti-Molnar,  W. A. Goddard III,  
 A. Golubeva-Zadorozhnaya,  S. R. Gwaltney,  G. Hawkins,  A. Heyden,  
 S. Hirata,  G. Kedziora,  F. J. Keil,  C. Kelley,  Jihan Kim,  R. A. King,  
 R. Z. Khaliullin,  P. P. Korambath,  W. Kurlancheek,  A. M. Lee,  M. S. Lee,  
 S. V. Levchenko,  Ching Yeh Lin,  D. Liotard,  R. C. Lochan,  I. Lotan,  
 P. E. Maslen,  N. Nair,  D. P. O'Neill,  D. Neuhauser,  E. Neuscamman,  
 C. M. Oana,  R. Olson,  B. Peters,  R. Peverati,  P. A. Pieniazek,  
 Y. M. Rhee,  J. Ritchie,  M. A. Rohrdanz,  E. Rosta,  N. J. Russ,  
 H. F. Schaefer III,  N. E. Schultz,  N. Shenvi,  A. C. Simmonett,  A. Sodt,  
 D. Stuck,  K. S. Thanthiriwatte,  V. Vanovschi,  Tao Wang,  A. Warshel,  
 C. F. Williams,  Q. Wu,  X. Xu,  W. Zhang

 Please cite Q-Chem as follows:
 Y. Shao et al., Mol. Phys. 113, 184-215 (2015)
 DOI: 10.1080/00268976.2014.952696

 Q-Chem 5.0.2 for Intel X86 EM64T Linux

 Parts of Q-Chem use Armadillo 5.200.1 (Boston Tea Smuggler).
 http://arma.sourceforge.net/

 Q-Chem begins on Thu Mar  3 08:53:49 2022  

Host: 
0

     Scratch files written to ./irc_transition.d//
 Dec517 15110_ 26548  26544 5633   
Processing $rem in /home/leeping/opt/qchem/5.0.2-openmp/config/preferences.
 MEM_STATIC 2000
 MEM_TOTAL  8000
 SYMMETRY   OFF
 SYM_IGNORE TRUE 

Checking the input file for inconsistencies... 	...done.

--------------------------------------------------------------
User input:
--------------------------------------------------------------
$molecule
0 2
C        1.3652822579    0.3834213914    0.2014157343
C        0.8003240187   -0.9247048838   -0.2686708013
C       -0.5530188979   -0.8607943198   -0.8904791226
C       -1.0699545957    0.3334589931   -0.0203286709
C       -0.3947767858    1.5993757263   -0.3760626621
N        0.9009006467    1.6053830787   -0.2026901008
H        2.2793846737    0.3335791436    0.7846045511
H        1.4069442906   -1.8234083257   -0.2535264597
H       -1.1227664222   -1.7891339741   -0.9185177125
H       -2.1353459602    0.3579261561    0.1981097026
H       -0.9119552406    2.4595848906   -0.7897892887
C       -0.1420278808   -0.5344485533    0.8375177073
H       -0.4481731133   -1.1602914440    1.6733197437
$end

$rem
method                b3lyp
basis                 6-31+g(d,p)
unrestricted          true
symmetry              off
sym_ignore            true
incdft                false
incfock               0
scf_convergence       6
thresh                14
jobtype               sp
scf_guess             read
scf_algorithm         diis
max_scf_cycles        100
stability_analysis    true
max_cis_cycles        100
cis_n_roots           4
$end

--------------------------------------------------------------
 ----------------------------------------------------------------
             Standard Nuclear Orientation (Angstroms)
    I     Atom           X                Y                Z
 ----------------------------------------------------------------
    1      C       1.3652822579     0.3834213914     0.2014157343
    2      C       0.8003240187    -0.9247048838    -0.2686708013
    3      C      -0.5530188979    -0.8607943198    -0.8904791226
    4      C      -1.0699545957     0.3334589931    -0.0203286709
    5      C      -0.3947767858     1.5993757263    -0.3760626621
    6      N       0.9009006467     1.6053830787    -0.2026901008
    7      H       2.2793846737     0.3335791436     0.7846045511
    8      H       1.4069442906    -1.8234083257    -0.2535264597
    9      H      -1.1227664222    -1.7891339741    -0.9185177125
   10      H      -2.1353459602     0.3579261561     0.1981097026
   11      H      -0.9119552406     2.4595848906    -0.7897892887
   12      C      -0.1420278808    -0.5344485533     0.8375177073
   13      H      -0.4481731133    -1.1602914440     1.6733197437
 ----------------------------------------------------------------
 Nuclear Repulsion Energy =   280.5325914603 hartrees
 There are       25 alpha and       24 beta electrons
 Requested basis set is 6-31+G(d,p)
 There are 53 shells and 163 basis functions

 Total QAlloc Memory Limit   8000 MB
 Mega-Array Size      1956 MB
 MEM_STATIC part      2000 MB

                       Distance Matrix (Angstroms)
             C (  1)   C (  2)   C (  3)   C (  4)   C (  5)   N (  6)
   C (  2)  1.500451
   C (  3)  2.533809  1.490727
   C (  4)  2.445822  2.267728  1.565447
   C (  5)  2.215815  2.794778  2.518353  1.478160
   N (  6)  1.368262  2.532946  2.944311  2.352725  1.307239
   H (  7)  1.085438  2.209137  3.500706  3.444705  3.178133  2.119541
   H (  8)  2.253621  1.084382  2.274597  3.292641  3.869970  3.466306
   H (  9)  3.487784  2.206313  1.089593  2.305414  3.508023  4.016265
   H ( 10)  3.500723  3.237466  2.274657  1.087829  2.213696  3.306899
   H ( 11)  3.237090  3.828431  3.341241  2.266593  1.085635  2.088251
   C ( 12)  1.875925  1.504653  1.805931  1.533040  2.467765  2.597809
   H ( 13)  2.799673  2.320684  2.583361  2.342295  3.437817  3.603938
             H (  7)   H (  8)   H (  9)   H ( 10)   H ( 11)   C ( 12)
   H (  8)  2.547835
   H (  9)  4.356738  2.615879
   H ( 10)  4.453585  4.184497  2.623365
   H ( 11)  4.145270  4.899888  4.255893  2.624805
   C ( 12)  2.572841  2.291530  2.370600  2.275630  3.493587
   H ( 13)  3.234352  2.755707  2.751025  2.706988  4.402897  1.088104

 
 A cutoff of  1.0D-14 yielded   1398 shell pairs
 There are     13494 function pairs
 Smallest overlap matrix eigenvalue = 4.01E-05

 Scale SEOQF with 1.000000e-01/1.000000e-01/1.000000e-01

 Standard Electronic Orientation quadrupole field applied
 Nucleus-field energy     =     0.0000000042 hartrees
 Guess MOs from SCF MO coefficient file
 Reading MOs from coefficient file
 Reading MOs from coefficient file
 An unrestricted hybrid HF-DFT SCF calculation will be
 performed using Pulay DIIS extrapolation
 Exchange:     0.2000 Hartree-Fock + 0.0800 Slater + 0.7200 B88
 Correlation:  0.1900 VWN1RPA + 0.8100 LYP
 Using SG-1 standard quadrature grid
 SCF converges when DIIS error is below 1.0E-06
Using Q-Chem read-in guess as SCF_GUESS READ specified.

 -------------------------------------------------------
 OpenMP BLAS3 based DFT computing Module                
 -------------------------------------------------------
 ---------------------------------------
  Cycle       Energy         DIIS Error
 ---------------------------------------
    1    -286.8141395731      3.42E-09
    2    -286.8141395731      3.83E-09 Convergence criterion met
 ---------------------------------------
 <S^2> = 0.7751
 SCF time:  CPU 6.88 s  wall 7.99 s
 SCF   energy in the final basis set = -286.81413957
 Total energy in the final basis set = -286.81413957
 
 Direct TDDFT/TDA calculation will be performed
 Exchange:     0.2000 Hartree-Fock + 0.0800 Slater + 0.7200 B88
 Correlation:  0.1900 VWN1RPA + 0.8100 LYP
 Using SG-1 standard quadrature grid
 CIS energy converged when residual is below 10e- 6
 ---------------------------------------------------
 Iter    Rts Conv    Rts Left    Ttl Dev     Max Dev
 ---------------------------------------------------
   1         0           4      0.002999    0.001499
   2         0           4      0.000755    0.000280
   3         0           4      0.000381    0.000198
   4         0           4      0.000140    0.000082
   5         0           4      0.000052    0.000030
   6         0           4      0.000018    0.000012
   7         2           2      0.000007    0.000005
   8         3           1      0.000002    0.000001
   9         4           0      0.000001    0.000000    Roots Converged
 ---------------------------------------------------
 
 ---------------------------------------------------
         TDDFT/TDA Excitation Energies              
 ---------------------------------------------------

 Excited state   1: excitation energy (eV) =    1.7192
 Total energy for state  1:                  -286.75095951 au
    <S**2>     :  0.7758
    Trans. Mom.: -0.1212 X  -0.6528 Y  -0.2104 Z
    Strength   :     0.0204344552
    S(  1) --> V(  1) amplitude =  0.9722 alpha
    D( 24) --> S(  1) amplitude = -0.1607 beta

 Excited state   2: excitation energy (eV) =    2.6373
 Total energy for state  2:                  -286.71721982 au
    <S**2>     :  0.7876
    Trans. Mom.:  0.1487 X   0.3058 Y  -0.2099 Z
    Strength   :     0.0103166247
    S(  1) --> V(  2) amplitude =  0.9951 alpha

 Excited state   3: excitation energy (eV) =    3.1229
 Total energy for state  3:                  -286.69937575 au
    <S**2>     :  0.8024
    Trans. Mom.: -0.2548 X   0.1569 Y   0.0280 Z
    Strength   :     0.0069113033
    S(  1) --> V(  3) amplitude =  0.7780 alpha
    S(  1) --> V(  4) amplitude = -0.5520 alpha
    S(  1) --> V(  6) amplitude = -0.1600 alpha

 Excited state   4: excitation energy (eV) =    3.3142
 Total energy for state  4:                  -286.69234652 au
    <S**2>     :  0.7875
    Trans. Mom.: -0.1258 X   0.1296 Y  -0.0259 Z
    Strength   :     0.0027021558
    S(  1) --> V(  3) amplitude =  0.5877 alpha
    S(  1) --> V(  4) amplitude =  0.8043 alpha
 
 ---------------------------------------------------

 Stability analysis will be performed
 ---------------------------------------------------
 Iter    Rts Conv    Rts Left    Ttl Dev     Max Dev
 ---------------------------------------------------
   1         0           8      0.003136    0.000727
   2         0           8      0.001000    0.000331
   3         0           8      0.000621    0.000279
   4         3           5      0.000927    0.000529
   5         4           4      0.000664    0.000355
   6         4           4      0.000268    0.000143
   7         4           4      0.000083    0.000044
   8         6           2      0.000030    0.000016
   9         6           2      0.000011    0.000004
  10         7           1      0.000005    0.000001
  11         8           0      0.000004    0.000001    Roots Converged
 UKS-> UKS   stable,    smallest eigenvalue:      0.0545637
 UKS->CUKS   stable,    smallest eigenvalue:      0.0580135
 ---------------------------------------------------
  SETman timing summary (seconds)
  CPU time               180.94s
  System time              0.00s
  Wall time              184.88s
 
 --------------------------------------------------------------
 
                    Orbital Energies (a.u.)
 --------------------------------------------------------------
 
 Alpha MOs
 -- Occupied --
-14.331 -10.252 -10.246 -10.232 -10.230 -10.228 -10.219  -0.979
 -0.888  -0.767  -0.655  -0.636  -0.613  -0.557  -0.506  -0.461
 -0.450  -0.433  -0.422  -0.380  -0.374  -0.321  -0.280  -0.257
 -0.137
 -- Virtual --
 -0.034  -0.008   0.015   0.016   0.027   0.038   0.052   0.053
  0.065   0.069   0.074   0.096   0.098   0.102   0.109   0.111
  0.120   0.129   0.142   0.149   0.157   0.166   0.172   0.183
  0.187   0.200   0.207   0.217   0.231   0.240   0.244   0.249
  0.253   0.266   0.280   0.284   0.307   0.317   0.325   0.340
  0.360   0.365   0.438   0.461   0.616   0.621   0.638   0.672
  0.692   0.705   0.719   0.740   0.746   0.753   0.770   0.791
  0.808   0.840   0.873   0.890   0.918   0.928   0.960   0.977
  0.997   1.019   1.038   1.070   1.084   1.104   1.135   1.149
  1.178   1.223   1.304   1.339   1.359   1.404   1.444   1.483
  1.520   1.588   1.593   1.679   1.708   1.736   1.808   1.837
  1.861   1.905   1.940   1.982   2.038   2.061   2.100   2.160
  2.176   2.190   2.264   2.266   2.298   2.340   2.363   2.365
  2.415   2.423   2.453   2.491   2.511   2.517   2.537   2.555
  2.576   2.593   2.627   2.649   2.677   2.708   2.713   2.754
  2.824   2.881   2.960   3.081   3.109   3.288   3.312   3.375
  3.446   3.502   3.673   4.193   4.382   4.456   4.531   4.582
  4.654   4.705
 
 Beta MOs
 -- Occupied --
-14.331 -10.253 -10.243 -10.228 -10.227 -10.224 -10.215  -0.974
 -0.883  -0.760  -0.648  -0.627  -0.610  -0.553  -0.501  -0.458
 -0.443  -0.430  -0.412  -0.374  -0.366  -0.303  -0.273  -0.247
 -- Virtual --
 -0.051  -0.019  -0.007   0.015   0.020   0.029   0.040   0.053
  0.060   0.065   0.072   0.076   0.096   0.098   0.103   0.109
  0.112   0.122   0.131   0.143   0.151   0.158   0.167   0.174
  0.184   0.190   0.201   0.211   0.218   0.233   0.245   0.247
  0.251   0.256   0.269   0.282   0.290   0.309   0.320   0.328
  0.343   0.365   0.371   0.442   0.467   0.620   0.626   0.641
  0.669   0.698   0.719   0.731   0.747   0.751   0.758   0.776
  0.797   0.814   0.844   0.881   0.895   0.922   0.931   0.962
  0.979   1.002   1.021   1.039   1.073   1.086   1.109   1.141
  1.155   1.185   1.228   1.310   1.346   1.365   1.406   1.451
  1.488   1.525   1.594   1.601   1.683   1.716   1.745   1.822
  1.841   1.867   1.909   1.944   1.986   2.045   2.065   2.109
  2.168   2.182   2.195   2.268   2.273   2.303   2.343   2.369
  2.373   2.418   2.426   2.457   2.497   2.518   2.520   2.544
  2.568   2.584   2.597   2.634   2.656   2.683   2.711   2.717
  2.759   2.828   2.884   2.964   3.084   3.111   3.290   3.313
  3.381   3.447   3.504   3.676   4.195   4.389   4.471   4.536
  4.590   4.655   4.709
 --------------------------------------------------------------
 
          Ground-State Mulliken Net Atomic Charges

     Atom                 Charge (a.u.)    Spin (a.u.)
  --------------------------------------------------------
      1 C                    -0.246813       0.247696
      2 C                    -0.062269       0.044806
      3 C                    -0.143841       0.605181
      4 C                    -0.264446      -0.043512
      5 C                     0.017895       0.245758
      6 N                    -0.199328      -0.006381
      7 H                     0.142968      -0.009223
      8 H                     0.150879      -0.007303
      9 H                     0.152881      -0.004667
     10 H                     0.139710      -0.002857
     11 H                     0.128425      -0.013487
     12 C                     0.035062      -0.070917
     13 H                     0.148876       0.014906
  --------------------------------------------------------
  Sum of atomic charges =     0.000000
  Sum of spin   charges =     1.000000

 -----------------------------------------------------------------
                    Cartesian Multipole Moments
 -----------------------------------------------------------------
    Charge (ESU x 10^10)
                 0.0000
    Dipole Moment (Debye)
         X      -1.3344      Y      -2.8988      Z       1.3611
       Tot       3.4694
    Quadrupole Moments (Debye-Ang)
        XX     -39.3266     XY      -4.7191     YY     -43.3812
        XZ       0.9515     YZ      -1.2436     ZZ     -44.2845
    Octopole Moments (Debye-Ang^2)
       XXX     -13.4441    XXY     -12.5368    XYY     -13.6100
       YYY     -35.6849    XXZ       6.9229    XYZ       2.6810
       YYZ       1.6575    XZZ      -4.3172    YZZ      -9.2675
       ZZZ      16.9518
    Hexadecapole Moments (Debye-Ang^3)
      XXXX    -249.1098   XXXY     -19.4884   XXYY    -106.9569
      XYYY     -37.0628   YYYY    -355.6028   XXXZ      -4.6498
      XXYZ       5.1763   XYYZ       1.9673   YYYZ       3.9056
      XXZZ     -67.5562   XYZZ      -4.4966   YYZZ     -79.7276
      XZZZ     -15.2538   YZZZ       0.9167   ZZZZ    -143.1321
 -----------------------------------------------------------------
Archival summary:
1\1\c8-73\SP\ProcedureUnspecified\6-31+G**\166(2)\hpark21\ThuMar308:57:032022ThuMar308:57:032022\0\\#,ProcedureUnspecified,6-31+G**,\\0,2\N\C,1,1.30724\H,2,1.08563,1,121.27\C,1,1.36826,2,111.806,3,-173.882,0\H,4,1.08544,1,119.046,2,-153.343,0\C,2,1.47816,1,115.135,3,177.7,0\H,6,1.08783,2,118.451,1,158.705,0\C,4,1.50045,1,123.937,2,35.6244,0\H,8,1.08438,4,120.499,1,155.559,0\C,8,1.49073,4,115.794,1,-17.4733,0\H,10,1.08959,8,116.674,4,-159.26,0\C,8,1.50465,4,77.2536,1,-82.6239,0\H,12,1.0881,8,126.281,4,-129.233,0\\\@

 Total job time:  194.80s(wall), 188.04s(cpu) 
 Thu Mar  3 08:57:03 2022

        *************************************************************
        *                                                           *
        *  Thank you very much for using Q-Chem.  Have a nice day.  *
        *                                                           *
        *************************************************************


