
Running Job 1 of 1 qcts1.in
qchem qcts1.in_1948.0 ./qcts1.d/ 1
/home/leeping/opt/qchem/5.0.2-openmp/exe/qcprog.exe_s qcts1.in_1948.0 ./qcts1.d/
Check license passed

                  Welcome to Q-Chem
     A Quantum Leap Into The Future Of Chemistry


 Q-Chem 5.0, Q-Chem, Inc., Pleasanton, CA (2017)

 Yihan Shao,  Zhengting Gan,  E. Epifanovsky,  A. T. B. Gilbert,  M. Wormit,  
 J. Kussmann,  A. W. Lange,  A. Behn,  Jia Deng,  Xintian Feng,  D. Ghosh,  
 M. Goldey,  P. R. Horn,  L. D. Jacobson,  I. Kaliman,  T. Kus,  A. Landau,  
 Jie Liu,  E. I. Proynov,  R. M. Richard,  R. P. Steele,  E. J. Sundstrom,  
 H. L. Woodcock III,  P. M. Zimmerman,  D. Zuev,  B. Albrecht,  E. Alguire,  
 S. A. Baeppler,  D. Barton,  Z. Benda,  Y. A. Bernard,  E. J. Berquist,  
 K. B. Bravaya,  H. Burton,  D. Casanova,  Chun-Min Chang,  Yunqing Chen,  
 A. Chien,  K. D. Closser,  M. P. Coons,  S. Dasgupta,  A. L. Dempwolff,  
 M. Diedenhofen,  Hainam Do,  R. G. Edgar,  Po-Tung Fang,  S. Fatehi,  
 Qingguo Feng,  J. Fosso-Tande,  Qinghui Ge,  A. Ghysels,  G. Gidofalvi,  
 J. Gomes,  J. Gonthier,  A. Gunina,  M. W. D. Hanson-Heine,  
 P. H. P. Harbach,  A. W. Hauser,  J. E. Herr,  E. G. Hohenstein,  
 Z. C. Holden,  Kerwin Hui,  T.-C. Jagau,  Hyunjun Ji,  B. Kaduk,  
 K. Khistyaev,  Jaehoon Kim,  P. Klunzinger,  K. Koh,  D. Kosenkov,  
 L. Koulias,  T. Kowalczyk,  C. M. Krauter,  A. Kunitsa,  Ka Un Lao,  
 A. Laurent,  K. V. Lawler,  Joonho Lee,  D. Lefrancois,  S. Lehtola,  
 D. S. Levine,  Yi-Pei Li,  You-Sheng Lin,  Fenglai Liu,  E. Livshits,  
 A. Luenser,  P. Manohar,  E. Mansoor,  S. F. Manzer,  Shan-Ping Mao,  
 Yuezhi Mao,  N. Mardirossian,  A. V. Marenich,  T. Markovich,  
 L. A. Martinez-Martinez,  S. A. Maurer,  N. J. Mayhall,  S. C. McKenzie,  
 J.-M. Mewes,  A. F. Morrison,  J. W. Mullinax,  K. Nanda,  
 T. S. Nguyen-Beck,  R. Olivares-Amaya,  J. A. Parkhill,  T. M. Perrine,  
 F. Plasser,  S. Prager,  A. Prociuk,  E. Ramos,  D. R. Rehn,  F. Rob,  
 M. Schneider,  N. Sergueev,  S. M. Sharada,  S. Sharma,  D. W. Small,  
 T. Stauch,  T. Stein,  Yu-Chuan Su,  A. J. W. Thom,  A. Tkatchenko,  
 T. Tsuchimochi,  L. Vogt,  O. Vydrov,  M. A. Watson,  J. Wenzel,  
 M. de Wergifosse,  T. A. Wesolowski,  A. White,  J. Witte,  A. Yamada,  
 Jun Yang,  K. Yao,  S. Yeganeh,  S. R. Yost,  Zhi-Qiang You,  A. Zech,  
 Igor Ying Zhang,  Xing Zhang,  Yan Zhao,  Ying Zhu,  B. R. Brooks,  
 G. K. L. Chan,  C. J. Cramer,  M. S. Gordon,  W. J. Hehre,  A. Klamt,  
 M. W. Schmidt,  C. D. Sherrill,  D. G. Truhlar,  A. Aspuru-Guzik,  R. Baer,  
 A. T. Bell,  N. A. Besley,  Jeng-Da Chai,  R. A. DiStasio Jr.,  A. Dreuw,  
 B. D. Dunietz,  T. R. Furlani,  Chao-Ping Hsu,  Yousung Jung,  Jing Kong,  
 D. S. Lambrecht,  WanZhen Liang,  C. Ochsenfeld,  V. A. Rassolov,  
 L. V. Slipchenko,  J. E. Subotnik,  T. Van Voorhis,  J. M. Herbert,  
 A. I. Krylov,  P. M. W. Gill,  M. Head-Gordon

 Contributors to earlier versions of Q-Chem not listed above: 
 R. D. Adamson,  B. Austin,  J. Baker,  G. J. O. Beran,  K. Brandhorst,  
 S. T. Brown,  E. F. C. Byrd,  A. K. Chakraborty,  C.-L. Cheng,  
 Siu Hung Chien,  D. M. Chipman,  D. L. Crittenden,  H. Dachsel,  
 R. J. Doerksen,  A. D. Dutoi,  L. Fusti-Molnar,  W. A. Goddard III,  
 A. Golubeva-Zadorozhnaya,  S. R. Gwaltney,  G. Hawkins,  A. Heyden,  
 S. Hirata,  G. Kedziora,  F. J. Keil,  C. Kelley,  Jihan Kim,  R. A. King,  
 R. Z. Khaliullin,  P. P. Korambath,  W. Kurlancheek,  A. M. Lee,  M. S. Lee,  
 S. V. Levchenko,  Ching Yeh Lin,  D. Liotard,  R. C. Lochan,  I. Lotan,  
 P. E. Maslen,  N. Nair,  D. P. O'Neill,  D. Neuhauser,  E. Neuscamman,  
 C. M. Oana,  R. Olson,  B. Peters,  R. Peverati,  P. A. Pieniazek,  
 Y. M. Rhee,  J. Ritchie,  M. A. Rohrdanz,  E. Rosta,  N. J. Russ,  
 H. F. Schaefer III,  N. E. Schultz,  N. Shenvi,  A. C. Simmonett,  A. Sodt,  
 D. Stuck,  K. S. Thanthiriwatte,  V. Vanovschi,  Tao Wang,  A. Warshel,  
 C. F. Williams,  Q. Wu,  X. Xu,  W. Zhang

 Please cite Q-Chem as follows:
 Y. Shao et al., Mol. Phys. 113, 184-215 (2015)
 DOI: 10.1080/00268976.2014.952696

 Q-Chem 5.0.2 for Intel X86 EM64T Linux

 Parts of Q-Chem use Armadillo 5.200.1 (Boston Tea Smuggler).
 http://arma.sourceforge.net/

 Q-Chem begins on Thu Mar  3 05:18:42 2022  

Host: 
0

     Scratch files written to ./qcts1.d//
 Dec517 15110_ 26548  26544 5633   
Processing $rem in /home/leeping/opt/qchem/5.0.2-openmp/config/preferences.
 MEM_STATIC 2000
 MEM_TOTAL  8000
 SYMMETRY   OFF
 SYM_IGNORE TRUE 

Checking the input file for inconsistencies... 	...done.

--------------------------------------------------------------
User input:
--------------------------------------------------------------
$molecule
0 2
C        1.3781787822    0.3665340866    0.2096456921
C        0.7440746719   -0.9496988933   -0.1871485365
C       -0.5388534304   -0.8253852666   -0.9275363321
C       -1.0715597868    0.2839708887    0.0302503774
C       -0.4076348478    1.5583758913   -0.3702666285
N        0.8781593919    1.5705533774   -0.2404746576
H        2.3484839628    0.3690791900    0.6963811538
H        1.3646994944   -1.8424852020   -0.1544886028
H       -1.1184544910   -1.6721771973   -1.2692508370
H       -2.1390566551    0.3319241469    0.2475261672
H       -0.9324013946    2.4017897524   -0.8140687906
C       -0.1168865512   -0.5130339190    0.9431450424
H       -0.4139321551   -1.0994989759    1.8111885729
$end

$rem
method                b3lyp
basis                 6-31g(d)
unrestricted          true
symmetry              off
sym_ignore            true
incdft                false
incfock               0
scf_convergence       8
thresh                14
jobtype               freq
scf_guess             read
scf_algorithm         diis
max_scf_cycles        100
$end

--------------------------------------------------------------
 ----------------------------------------------------------------
             Standard Nuclear Orientation (Angstroms)
    I     Atom           X                Y                Z
 ----------------------------------------------------------------
    1      C       1.3781787822     0.3665340866     0.2096456921
    2      C       0.7440746719    -0.9496988933    -0.1871485365
    3      C      -0.5388534304    -0.8253852666    -0.9275363321
    4      C      -1.0715597868     0.2839708887     0.0302503774
    5      C      -0.4076348478     1.5583758913    -0.3702666285
    6      N       0.8781593919     1.5705533774    -0.2404746576
    7      H       2.3484839628     0.3690791900     0.6963811538
    8      H       1.3646994944    -1.8424852020    -0.1544886028
    9      H      -1.1184544910    -1.6721771973    -1.2692508370
   10      H      -2.1390566551     0.3319241469     0.2475261672
   11      H      -0.9324013946     2.4017897524    -0.8140687906
   12      C      -0.1168865512    -0.5130339190     0.9431450424
   13      H      -0.4139321551    -1.0994989759     1.8111885729
 ----------------------------------------------------------------
 Nuclear Repulsion Energy =   280.0921788914 hartrees
 There are       25 alpha and       24 beta electrons
 Requested basis set is 6-31G(d)
 There are 40 shells and 117 basis functions

 Total QAlloc Memory Limit   8000 MB
 Mega-Array Size      1956 MB
 MEM_STATIC part      2000 MB

                       Distance Matrix (Angstroms)
             C (  1)   C (  2)   C (  3)   C (  4)   C (  5)   N (  6)
   C (  2)  1.513936
   C (  3)  2.527621  1.486450
   C (  4)  2.457686  2.205840  1.559424
   C (  5)  2.223941  2.765937  2.451547  1.491750
   N (  6)  1.379235  2.524380  2.867142  2.351593  1.292386
   H (  7)  1.085546  2.256974  3.521444  3.485351  3.185648  2.117332
   H (  8)  2.238871  1.087800  2.292511  3.239028  3.841040  3.448615
   H (  9)  3.546358  2.271989  1.081556  2.348918  3.427814  3.944635
   H ( 10)  3.517610  3.184956  2.297996  1.090439  2.209903  3.297869
   H ( 11)  3.244848  3.799484  3.253062  2.284162  1.087974  2.073185
   C ( 12)  1.883317  1.486437  1.942953  1.542723  2.469883  2.594688
   H ( 13)  2.815289  2.314470  2.755242  2.349086  3.438471  3.606661
             H (  7)   H (  8)   H (  9)   H ( 10)   H ( 11)   C ( 12)
   H (  8)  2.565702
   H (  9)  4.477734  2.727224
   H ( 10)  4.510086  4.143185  2.712686
   H ( 11)  4.144584  4.870892  4.103537  2.620562
   C ( 12)  2.630032  2.273178  2.690994  2.299350  3.499866
   H ( 13)  3.321214  2.753079  3.211451  2.733142  4.406791  1.088888

 
 A cutoff of  1.0D-14 yielded    811 shell pairs
 There are      7083 function pairs
 Smallest overlap matrix eigenvalue = 2.09E-03
 Guess MOs from SCF MO coefficient file
 Reading MOs from coefficient file
 Reading MOs from coefficient file
 An unrestricted hybrid HF-DFT SCF calculation will be
 performed using Pulay DIIS extrapolation
 Exchange:     0.2000 Hartree-Fock + 0.0800 Slater + 0.7200 B88
 Correlation:  0.1900 VWN1RPA + 0.8100 LYP
 Using SG-1 standard quadrature grid
 SCF converges when DIIS error is below 1.0E-08
Using Q-Chem read-in guess as SCF_GUESS READ specified.

 -------------------------------------------------------
 OpenMP BLAS3 based DFT computing Module                
 -------------------------------------------------------
 ---------------------------------------
  Cycle       Energy         DIIS Error
 ---------------------------------------
    1    -286.7925653797      1.25E-09
    2    -286.7925653797      2.40E-09 Convergence criterion met
 ---------------------------------------
 <S^2> = 0.7579
 SCF time:  CPU 3.37 s  wall 5.73 s
 SCF   energy in the final basis set = -286.79256538
 Total energy in the final basis set = -286.79256538
 
 --------------------------------------------------------------
 
                    Orbital Energies (a.u.)
 --------------------------------------------------------------
 
 Alpha MOs
 -- Occupied --
-14.326 -10.237 -10.224 -10.221 -10.209 -10.209 -10.199  -0.963
 -0.865  -0.750  -0.641  -0.623  -0.599  -0.540  -0.493  -0.449
 -0.444  -0.420  -0.409  -0.370  -0.352  -0.301  -0.272  -0.237
 -0.137
 -- Virtual --
 -0.027   0.057   0.088   0.132   0.149   0.151   0.158   0.166
  0.179   0.194   0.210   0.249   0.284   0.304   0.348   0.398
  0.484   0.509   0.525   0.534   0.538   0.567   0.590   0.607
  0.611   0.645   0.657   0.678   0.697   0.746   0.761   0.801
  0.826   0.830   0.851   0.854   0.869   0.876   0.935   0.938
  0.966   1.019   1.082   1.116   1.162   1.181   1.295   1.345
  1.385   1.412   1.455   1.507   1.562   1.623   1.682   1.726
  1.741   1.792   1.850   1.867   1.889   1.976   2.013   2.037
  2.099   2.175   2.184   2.225   2.269   2.322   2.370   2.370
  2.418   2.434   2.473   2.516   2.563   2.575   2.645   2.654
  2.695   2.740   2.821   2.952   3.052   3.988   4.188   4.226
  4.322   4.433   4.521   4.538
 
 Beta MOs
 -- Occupied --
-14.326 -10.235 -10.223 -10.220 -10.209 -10.208 -10.187  -0.960
 -0.858  -0.745  -0.630  -0.613  -0.595  -0.536  -0.489  -0.442
 -0.439  -0.418  -0.402  -0.361  -0.349  -0.289  -0.266  -0.223
 -- Virtual --
 -0.027  -0.009   0.065   0.091   0.137   0.151   0.153   0.162
  0.169   0.183   0.198   0.217   0.251   0.287   0.309   0.357
  0.400   0.497   0.513   0.532   0.537   0.546   0.583   0.595
  0.614   0.618   0.660   0.663   0.686   0.702   0.752   0.763
  0.804   0.828   0.833   0.853   0.857   0.872   0.881   0.936
  0.944   0.969   1.023   1.093   1.121   1.173   1.186   1.301
  1.349   1.388   1.418   1.460   1.512   1.568   1.626   1.689
  1.733   1.747   1.815   1.859   1.871   1.895   1.984   2.019
  2.043   2.108   2.182   2.193   2.245   2.280   2.330   2.375
  2.381   2.430   2.440   2.483   2.523   2.569   2.581   2.652
  2.657   2.701   2.744   2.829   2.954   3.055   3.989   4.191
  4.239   4.335   4.436   4.526   4.540
 --------------------------------------------------------------
 
          Ground-State Mulliken Net Atomic Charges

     Atom                 Charge (a.u.)    Spin (a.u.)
  --------------------------------------------------------
      1 C                     0.001791       0.125015
      2 C                    -0.159972      -0.000645
      3 C                    -0.113833       0.863065
      4 C                    -0.265737      -0.005120
      5 C                     0.119091       0.064625
      6 N                    -0.350221      -0.011436
      7 H                     0.156923      -0.001178
      8 H                     0.148261      -0.003027
      9 H                     0.142076      -0.037815
     10 H                     0.140874       0.000195
     11 H                     0.146278      -0.002387
     12 C                    -0.117802      -0.002033
     13 H                     0.152270       0.010742
  --------------------------------------------------------
  Sum of atomic charges =     0.000000
  Sum of spin   charges =     1.000000

 -----------------------------------------------------------------
                    Cartesian Multipole Moments
 -----------------------------------------------------------------
    Charge (ESU x 10^10)
                 0.0000
    Dipole Moment (Debye)
         X      -1.1771      Y      -1.9871      Z       1.0717
       Tot       2.5461
    Quadrupole Moments (Debye-Ang)
        XX     -37.8420     XY      -3.8186     YY     -41.2486
        XZ       1.2447     YZ      -0.8445     ZZ     -42.3548
    Octopole Moments (Debye-Ang^2)
       XXX     -10.5707    XXY      -9.8536    XYY     -12.1827
       YYY     -28.3451    XXZ       5.2677    XYZ       1.9707
       YYZ       1.1239    XZZ      -5.4250    YZZ      -9.0581
       ZZZ      11.7873
    Hexadecapole Moments (Debye-Ang^3)
      XXXX    -231.5999   XXXY     -12.8786   XXYY     -96.2818
      XYYY     -29.5455   YYYY    -317.7030   XXXZ      -5.6858
      XXYZ       5.5022   XYYZ       2.2571   YYYZ       7.5730
      XXZZ     -63.6568   XYZZ      -2.0574   YYZZ     -71.3292
      XZZZ     -14.2821   YZZZ       4.3313   ZZZZ    -137.7201
 -----------------------------------------------------------------
 Calculating MO derivatives via CPSCF
   1         3          39      0.277275    0.059612
   2         3          39      0.033811    0.006290
   3         3          39      0.006549    0.001662
   4         3          39      0.000844    0.000210
   5        24          18      0.000069    0.000019
   6        41           1      0.000002    0.000002
   7        42           0      0.000000    0.000000    Roots Converged
 Time for AOints: 5.7 s (CPU) 5.8 s (wall)
 ------------------------------------------------------------------------------
                     AOints        : Timing summary (seconds)
 ------------------------------------------------------------------------------
     job step          cpu (% of tot)      sys (% of tot)     wall (% of tot)
 ------------------------------------------------------------------------------
  cpscf_lag         0.5566E+02 (28.3)   0.2700E-04 (35.5)   0.5595E+02 (28.0)
  iterzp            0.1352E+03 (68.7)   0.4800E-04 (63.2)   0.1376E+03 (69.0)
  make_fx           0.0000E+00 ( 0.0)   0.0000E+00 ( 0.0)   0.0000E+00 ( 0.0)
  AOints            0.5743E+01 ( 2.9)   0.1000E-05 ( 1.3)   0.5777E+01 ( 2.9)
 ------------------------------------------------------------------------------
   Grand Totals     0.1968E+03          0.7600E-04          0.1996E+03
 ------------------------------------------------------------------------------
 Calculating analytic Hessian of the SCF energy
 Polarizability Matrix (a.u.)
            1           2           3
    1 -66.3504484  -0.8458059  -4.1230966
    2  -0.8458059 -67.4027036   3.9198063
    3  -4.1230966   3.9198063 -48.3831871
 
 Direct stationary perturbation theory relativistic correction:
 
 rels  =       0.069270688222
 relv  =      -0.340925184673
 rel2e =       0.158777878422
 E_rel =      -0.112876618029
 
 Hessian of the SCF Energy
            1           2           3           4           5           6
    1   0.5438200  -0.0913561   0.2911988  -0.0824354  -0.0647409  -0.0792371
    2  -0.0913561   0.4667390   0.0105687  -0.0312616  -0.1773795  -0.0688089
    3   0.2911988   0.0105687   0.1950750  -0.0327419  -0.0080602  -0.0194009
    4  -0.0824354  -0.0312616  -0.0327419   0.5335780  -0.1876993   0.0418541
    5  -0.0647409  -0.1773795  -0.0080602  -0.1876993   0.5794109   0.0549534
    6  -0.0792371  -0.0688089  -0.0194009   0.0418541   0.0549534   0.3326389
    7  -0.0084872  -0.0171310  -0.0097053  -0.1806000   0.0274992  -0.1012469
    8  -0.0128797   0.0103777  -0.0279819   0.0127929  -0.0773259   0.0012866
    9  -0.0241601  -0.0272746   0.0233464  -0.1100651  -0.0064245  -0.0942040
   10  -0.0298607  -0.0034935   0.0065359  -0.0433332   0.0378310   0.0069332
   11  -0.0091245  -0.0228944   0.0303613   0.0108766  -0.0260135  -0.0062217
   12  -0.0102337  -0.0164534   0.0003671   0.0146203  -0.0115281   0.0043421
   13  -0.0430374   0.0527779  -0.0545870   0.0108772   0.0024571   0.0062801
   14   0.0368084  -0.0282664   0.0139880   0.0108846   0.0000563  -0.0026749
   15  -0.0167838   0.0229216  -0.0085915  -0.0030199   0.0017003   0.0044765
   16  -0.1211513   0.0739931  -0.0103423  -0.0112918  -0.0038443  -0.0072112
   17   0.0750409  -0.2107883   0.0304841  -0.0020010  -0.0325641   0.0221668
   18  -0.0555060   0.0381844  -0.0603896   0.0083277  -0.0131246  -0.0012475
   19  -0.2840294  -0.0038121  -0.1295639  -0.0036242  -0.0015016   0.0007161
   20  -0.0133295  -0.0492713   0.0028251  -0.0225041   0.0002697  -0.0115666
   21  -0.1263577  -0.0009122  -0.0932445  -0.0085465   0.0055708  -0.0076845
   22   0.0112197  -0.0149666   0.0029601  -0.1395816   0.1336794  -0.0065427
   23   0.0138955  -0.0181586   0.0030387   0.1367126  -0.2413710   0.0054366
   24  -0.0017012  -0.0027714  -0.0001660  -0.0141671   0.0097093  -0.0484460
   25  -0.0043947   0.0037016  -0.0030216  -0.0084466  -0.0237672  -0.0011195
   26   0.0021357  -0.0018635  -0.0015755   0.0115776   0.0090269   0.0076255
   27   0.0012445   0.0001617   0.0045974  -0.0118410  -0.0075537  -0.0044885
   28  -0.0000032  -0.0001018   0.0002004  -0.0016454   0.0017542   0.0014156
   29  -0.0010053  -0.0027082   0.0018373   0.0042591  -0.0051512  -0.0022619
   30  -0.0046992   0.0012245  -0.0007683  -0.0013334  -0.0030109  -0.0020045
   31  -0.0039795  -0.0007000  -0.0016663  -0.0001877  -0.0004186   0.0005023
   32   0.0003221   0.0067682   0.0034029  -0.0022430   0.0004830   0.0005779
   33   0.0011547   0.0070885   0.0082637  -0.0034516   0.0019318  -0.0004062
   34   0.0148867   0.0210470  -0.0577665  -0.0716599   0.0886495   0.1250655
   35   0.0567378   0.0227733  -0.0554137   0.0566858  -0.0396092   0.0132537
   36   0.0202905   0.0362986  -0.0474066   0.1169837  -0.0350526  -0.1523393
   37   0.0074525   0.0113030  -0.0015004  -0.0016493  -0.0098985   0.0125904
   38   0.0074957   0.0046720  -0.0034749   0.0019197   0.0101675  -0.0137665
   39   0.0047903  -0.0002275  -0.0016822   0.0033809   0.0108889  -0.0112361
            7           8           9          10          11          12
    1  -0.0084872  -0.0128797  -0.0241601  -0.0298607  -0.0091245  -0.0102337
    2  -0.0171310   0.0103777  -0.0272746  -0.0034935  -0.0228944  -0.0164534
    3  -0.0097053  -0.0279819   0.0233464   0.0065359   0.0303613   0.0003671
    4  -0.1806000   0.0127929  -0.1100651  -0.0433332   0.0108766   0.0146203
    5   0.0274992  -0.0773259  -0.0064245   0.0378310  -0.0260135  -0.0115281
    6  -0.1012469   0.0012866  -0.0942040   0.0069332  -0.0062217   0.0043421
    7   0.4022205   0.1145824   0.1578035  -0.0757920  -0.0135310   0.0181718
    8   0.1145824   0.4166383   0.1932837   0.0224149  -0.0725048  -0.0679093
    9   0.1578035   0.1932837   0.2308900   0.0205653  -0.0880880  -0.0598355
   10  -0.0757920   0.0224149   0.0205653   0.6955968  -0.0147086  -0.0688209
   11  -0.0135310  -0.0725048  -0.0880880  -0.0147086   0.3712855  -0.0405174
   12   0.0181718  -0.0679093  -0.0598355  -0.0688209  -0.0405174   0.2734026
   13   0.0159664  -0.0178501   0.0183869  -0.1110478  -0.0066306   0.0172845
   14   0.0074142  -0.0361889  -0.0044444  -0.0477948  -0.1507077   0.0513245
   15  -0.0113050  -0.0212448  -0.0025850   0.0140345   0.0431511  -0.0774969
   16  -0.0138000   0.0100135  -0.0143057  -0.0430226  -0.0621672  -0.0023064
   17   0.0075651   0.0013171   0.0054699  -0.0282476   0.0078553   0.0192038
   18  -0.0008465   0.0105038  -0.0067163   0.0010522  -0.0117723   0.0134805
   19   0.0004290   0.0020282  -0.0028409  -0.0009037  -0.0028935  -0.0000353
   20   0.0000866  -0.0044549  -0.0002125  -0.0001518   0.0004514   0.0003291
   21  -0.0006887  -0.0049198   0.0016906   0.0028015   0.0029007   0.0006655
   22  -0.0072408   0.0143790   0.0079843  -0.0064839   0.0047306  -0.0006560
   23  -0.0033056   0.0034857   0.0019141  -0.0014402   0.0011636  -0.0025200
   24  -0.0025161   0.0169005  -0.0007669  -0.0010973  -0.0033176  -0.0017148
   25  -0.1370187  -0.1310482  -0.0637999   0.0102018   0.0138412   0.0059482
   26  -0.1365834  -0.2348362  -0.0975141  -0.0107075  -0.0058079   0.0008504
   27  -0.0509007  -0.0801987  -0.0428576  -0.0059470  -0.0154871  -0.0053986
   28  -0.0027533   0.0011586  -0.0007125  -0.3163522   0.0099403   0.0531501
   29   0.0197544   0.0001442   0.0013406   0.0108874  -0.0493440   0.0015773
   30   0.0186725   0.0028848  -0.0018917   0.0550759   0.0036523  -0.0615588
   31  -0.0001514  -0.0002400   0.0008086   0.0095588  -0.0083219   0.0063000
   32   0.0002879   0.0004493  -0.0017435   0.0117470  -0.0100120   0.0120334
   33   0.0014441   0.0023388  -0.0035210  -0.0043240  -0.0048400   0.0075616
   34   0.0054735  -0.0154410   0.0019485  -0.0974320   0.0591293  -0.0193094
   35  -0.0108596  -0.0070775   0.0179658   0.0329801  -0.0467002   0.0530994
   36  -0.0202633  -0.0233348  -0.0458085  -0.0298245   0.0832916  -0.0887443
   37   0.0017542   0.0000894   0.0083871   0.0088706   0.0188594  -0.0141132
   38   0.0042208  -0.0000242   0.0057275  -0.0093162   0.0032286   0.0005103
   39   0.0013806  -0.0016088   0.0022596   0.0030151   0.0068870  -0.0050705
           13          14          15          16          17          18
    1  -0.0430374   0.0368084  -0.0167838  -0.1211513   0.0750409  -0.0555060
    2   0.0527779  -0.0282664   0.0229216   0.0739931  -0.2107883   0.0381844
    3  -0.0545870   0.0139880  -0.0085915  -0.0103423   0.0304841  -0.0603896
    4   0.0108772   0.0108846  -0.0030199  -0.0112918  -0.0020010   0.0083277
    5   0.0024571   0.0000563   0.0017003  -0.0038443  -0.0325641  -0.0131246
    6   0.0062801  -0.0026749   0.0044765  -0.0072112   0.0221668  -0.0012475
    7   0.0159664   0.0074142  -0.0113050  -0.0138000   0.0075651  -0.0008465
    8  -0.0178501  -0.0361889  -0.0212448   0.0100135   0.0013171   0.0105038
    9   0.0183869  -0.0044444  -0.0025850  -0.0143057   0.0054699  -0.0067163
   10  -0.1110478  -0.0477948   0.0140345  -0.0430226  -0.0282476   0.0010522
   11  -0.0066306  -0.1507077   0.0431511  -0.0621672   0.0078553  -0.0117723
   12   0.0172845   0.0513245  -0.0774969  -0.0023064   0.0192038   0.0134805
   13   0.7775308  -0.0901050   0.1073789  -0.5035070   0.0076613  -0.0353268
   14  -0.0901050   0.5590639  -0.1909388  -0.0223099  -0.0854555   0.0154029
   15   0.1073789  -0.1909388   0.2474425  -0.0335001   0.0090308  -0.0675952
   16  -0.5035070  -0.0223099  -0.0335001   0.6965065  -0.0521109   0.0719387
   17   0.0076613  -0.0854555   0.0090308  -0.0521109   0.3660250  -0.0882707
   18  -0.0353268   0.0154029  -0.0675952   0.0719387  -0.0882707   0.1267515
   19   0.0025424   0.0014783  -0.0025674  -0.0073029   0.0032900  -0.0022635
   20   0.0014099  -0.0046734   0.0031104   0.0310482  -0.0020273   0.0131623
   21  -0.0000844   0.0020331   0.0008652  -0.0096136   0.0023414  -0.0060276
   22  -0.0020385  -0.0020595   0.0002297   0.0010304  -0.0017520  -0.0024242
   23  -0.0006232  -0.0008434   0.0000894  -0.0004213  -0.0009388  -0.0036389
   24   0.0020650  -0.0011359   0.0011484  -0.0013337   0.0024806  -0.0019600
   25  -0.0014134  -0.0008123   0.0023882   0.0018016   0.0006420  -0.0005420
   26  -0.0005671   0.0001905  -0.0026079  -0.0001806  -0.0000338   0.0011613
   27   0.0030159   0.0014767  -0.0028004  -0.0033853   0.0012838  -0.0003976
   28  -0.0090502   0.0023598   0.0000878  -0.0014280  -0.0014407   0.0009608
   29  -0.0281061   0.0078531   0.0025711  -0.0050493  -0.0046013   0.0007629
   30   0.0067483  -0.0039292  -0.0009771   0.0013371   0.0036379   0.0013279
   31  -0.1106461   0.0936440  -0.0543194  -0.0224805   0.0283309  -0.0136815
   32   0.1002272  -0.2324701   0.0986662   0.0037846   0.0034203  -0.0031852
   33  -0.0545981   0.1030722  -0.0861799  -0.0003194  -0.0049949  -0.0049750
   34  -0.0180443   0.0145618   0.0002822   0.0183218  -0.0343229   0.0242209
   35  -0.0159913  -0.0230890   0.0316587   0.0221184  -0.0378668   0.0358917
   36  -0.0129172   0.0200096  -0.0069270   0.0068220  -0.0010974   0.0040139
   37  -0.0081320  -0.0040695  -0.0029058   0.0063238  -0.0026552   0.0040903
   38  -0.0046599  -0.0054694   0.0018918   0.0051256  -0.0043417   0.0049224
   39  -0.0036461  -0.0041838  -0.0007797   0.0022197  -0.0017362   0.0037351
           19          20          21          22          23          24
    1  -0.2840294  -0.0133295  -0.1263577   0.0112197   0.0138955  -0.0017012
    2  -0.0038121  -0.0492713  -0.0009122  -0.0149666  -0.0181586  -0.0027714
    3  -0.1295639   0.0028251  -0.0932445   0.0029601   0.0030387  -0.0001660
    4  -0.0036242  -0.0225041  -0.0085465  -0.1395816   0.1367126  -0.0141671
    5  -0.0015016   0.0002697   0.0055708   0.1336794  -0.2413710   0.0097093
    6   0.0007161  -0.0115666  -0.0076845  -0.0065427   0.0054366  -0.0484460
    7   0.0004290   0.0000866  -0.0006887  -0.0072408  -0.0033056  -0.0025161
    8   0.0020282  -0.0044549  -0.0049198   0.0143790   0.0034857   0.0169005
    9  -0.0028409  -0.0002125   0.0016906   0.0079843   0.0019141  -0.0007669
   10  -0.0009037  -0.0001518   0.0028015  -0.0064839  -0.0014402  -0.0010973
   11  -0.0028935   0.0004514   0.0029007   0.0047306   0.0011636  -0.0033176
   12  -0.0000353   0.0003291   0.0006655  -0.0006560  -0.0025200  -0.0017148
   13   0.0025424   0.0014099  -0.0000844  -0.0020385  -0.0006232   0.0020650
   14   0.0014783  -0.0046734   0.0020331  -0.0020595  -0.0008434  -0.0011359
   15  -0.0025674   0.0031104   0.0008652   0.0002297   0.0000894   0.0011484
   16  -0.0073029   0.0310482  -0.0096136   0.0010304  -0.0004213  -0.0013337
   17   0.0032900  -0.0020273   0.0023414  -0.0017520  -0.0009388   0.0024806
   18  -0.0022635   0.0131623  -0.0060276  -0.0024242  -0.0036389  -0.0019600
   19   0.2927386  -0.0002859   0.1388313   0.0003050  -0.0004799  -0.0003214
   20  -0.0002859   0.0581317  -0.0036067   0.0009775   0.0010652  -0.0003940
   21   0.1388313  -0.0036067   0.0954049   0.0004714   0.0003521   0.0008122
   22   0.0003050   0.0009775   0.0004714   0.1491438  -0.1439846   0.0066841
   23  -0.0004799   0.0010652   0.0003521  -0.1439846   0.2547178  -0.0037334
   24  -0.0003214  -0.0003940   0.0008122   0.0066841  -0.0037334   0.0380708
   25  -0.0000323  -0.0016019  -0.0009339   0.0007055   0.0005882   0.0006294
   26   0.0001325   0.0004486   0.0000990  -0.0007968   0.0001541  -0.0005109
   27   0.0006007   0.0001960  -0.0002787   0.0004625   0.0000412   0.0004000
   28   0.0000851   0.0001385   0.0000199  -0.0004092  -0.0005249   0.0001675
   29  -0.0000845   0.0001210  -0.0001174   0.0017608   0.0003043   0.0000710
   30  -0.0002279   0.0000215   0.0008072   0.0001535   0.0002699   0.0009004
   31  -0.0003088   0.0014133  -0.0005379   0.0002395   0.0000940  -0.0001034
   32   0.0001030  -0.0001349  -0.0003810   0.0004233   0.0004175  -0.0001161
   33  -0.0000324  -0.0002524   0.0007788   0.0003568   0.0008996   0.0002787
   34  -0.0007669   0.0027103   0.0058233  -0.0075979  -0.0006035   0.0124316
   35   0.0014370  -0.0004043  -0.0023707   0.0083592  -0.0008078  -0.0189975
   36  -0.0030128  -0.0042325   0.0065928  -0.0090615  -0.0019240   0.0090279
   37   0.0008681   0.0000891  -0.0011848   0.0007081   0.0000928  -0.0007373
   38   0.0005885   0.0004785  -0.0009894  -0.0007503   0.0008112   0.0018156
   39   0.0007173   0.0006204  -0.0003818  -0.0006182  -0.0002253   0.0024152
           25          26          27          28          29          30
    1  -0.0043947   0.0021357   0.0012445  -0.0000032  -0.0010053  -0.0046992
    2   0.0037016  -0.0018635   0.0001617  -0.0001018  -0.0027082   0.0012245
    3  -0.0030216  -0.0015755   0.0045974   0.0002004   0.0018373  -0.0007683
    4  -0.0084466   0.0115776  -0.0118410  -0.0016454   0.0042591  -0.0013334
    5  -0.0237672   0.0090269  -0.0075537   0.0017542  -0.0051512  -0.0030109
    6  -0.0011195   0.0076255  -0.0044885   0.0014156  -0.0022619  -0.0020045
    7  -0.1370187  -0.1365834  -0.0509007  -0.0027533   0.0197544   0.0186725
    8  -0.1310482  -0.2348362  -0.0801987   0.0011586   0.0001442   0.0028848
    9  -0.0637999  -0.0975141  -0.0428576  -0.0007125   0.0013406  -0.0018917
   10   0.0102018  -0.0107075  -0.0059470  -0.3163522   0.0108874   0.0550759
   11   0.0138412  -0.0058079  -0.0154871   0.0099403  -0.0493440   0.0036523
   12   0.0059482   0.0008504  -0.0053986   0.0531501   0.0015773  -0.0615588
   13  -0.0014134  -0.0005671   0.0030159  -0.0090502  -0.0281061   0.0067483
   14  -0.0008123   0.0001905   0.0014767   0.0023598   0.0078531  -0.0039292
   15   0.0023882  -0.0026079  -0.0028004   0.0000878   0.0025711  -0.0009771
   16   0.0018016  -0.0001806  -0.0033853  -0.0014280  -0.0050493   0.0013371
   17   0.0006420  -0.0000338   0.0012838  -0.0014407  -0.0046013   0.0036379
   18  -0.0005420   0.0011613  -0.0003976   0.0009608   0.0007629   0.0013279
   19  -0.0000323   0.0001325   0.0006007   0.0000851  -0.0000845  -0.0002279
   20  -0.0016019   0.0004486   0.0001960   0.0001385   0.0001210   0.0000215
   21  -0.0009339   0.0000990  -0.0002787   0.0000199  -0.0001174   0.0008072
   22   0.0007055  -0.0007968   0.0004625  -0.0004092   0.0017608   0.0001535
   23   0.0005882   0.0001541   0.0000412  -0.0005249   0.0003043   0.0002699
   24   0.0006294  -0.0005109   0.0004000   0.0001675   0.0000710   0.0009004
   25   0.1384830   0.1370035   0.0605097   0.0006255  -0.0010007  -0.0009657
   26   0.1370035   0.2363064   0.0957256   0.0004706   0.0008749   0.0005134
   27   0.0605097   0.0957256   0.0434047  -0.0003702   0.0009844   0.0013896
   28   0.0006255   0.0004706  -0.0003702   0.3368745  -0.0115760  -0.0602378
   29  -0.0010007   0.0008749   0.0009844  -0.0115760   0.0534013  -0.0001260
   30  -0.0009657   0.0005134   0.0013896  -0.0602378  -0.0001260   0.0524836
   31   0.0001409  -0.0002095  -0.0000211   0.0002351   0.0011218  -0.0002238
   32   0.0001374  -0.0003066   0.0001652  -0.0005194   0.0003119  -0.0002239
   33  -0.0002355   0.0005944  -0.0000940   0.0001534  -0.0001320  -0.0002722
   34  -0.0007195  -0.0013744   0.0054713  -0.0067267   0.0095836  -0.0151640
   35   0.0031686  -0.0040383   0.0017764  -0.0019322  -0.0016604  -0.0042825
   36   0.0014947  -0.0043728   0.0062385   0.0052382  -0.0067662   0.0098490
   37   0.0000670  -0.0009006   0.0011607   0.0005480  -0.0005453   0.0008646
   38  -0.0008522  -0.0001152   0.0014285   0.0002731   0.0004543  -0.0006318
   39  -0.0003520   0.0000116   0.0002851  -0.0000732   0.0002590   0.0007148
           31          32          33          34          35          36
    1  -0.0039795   0.0003221   0.0011547   0.0148867   0.0567378   0.0202905
    2  -0.0007000   0.0067682   0.0070885   0.0210470   0.0227733   0.0362986
    3  -0.0016663   0.0034029   0.0082637  -0.0577665  -0.0554137  -0.0474066
    4  -0.0001877  -0.0022430  -0.0034516  -0.0716599   0.0566858   0.1169837
    5  -0.0004186   0.0004830   0.0019318   0.0886495  -0.0396092  -0.0350526
    6   0.0005023   0.0005779  -0.0004062   0.1250655   0.0132537  -0.1523393
    7  -0.0001514   0.0002879   0.0014441   0.0054735  -0.0108596  -0.0202633
    8  -0.0002400   0.0004493   0.0023388  -0.0154410  -0.0070775  -0.0233348
    9   0.0008086  -0.0017435  -0.0035210   0.0019485   0.0179658  -0.0458085
   10   0.0095588   0.0117470  -0.0043240  -0.0974320   0.0329801  -0.0298245
   11  -0.0083219  -0.0100120  -0.0048400   0.0591293  -0.0467002   0.0832916
   12   0.0063000   0.0120334   0.0075616  -0.0193094   0.0530994  -0.0887443
   13  -0.1106461   0.1002272  -0.0545981  -0.0180443  -0.0159913  -0.0129172
   14   0.0936440  -0.2324701   0.1030722   0.0145618  -0.0230890   0.0200096
   15  -0.0543194   0.0986662  -0.0861799   0.0002822   0.0316587  -0.0069270
   16  -0.0224805   0.0037846  -0.0003194   0.0183218   0.0221184   0.0068220
   17   0.0283309   0.0034203  -0.0049949  -0.0343229  -0.0378668  -0.0010974
   18  -0.0136815  -0.0031852  -0.0049750   0.0242209   0.0358917   0.0040139
   19  -0.0003088   0.0001030  -0.0000324  -0.0007669   0.0014370  -0.0030128
   20   0.0014133  -0.0001349  -0.0002524   0.0027103  -0.0004043  -0.0042325
   21  -0.0005379  -0.0003810   0.0007788   0.0058233  -0.0023707   0.0065928
   22   0.0002395   0.0004233   0.0003568  -0.0075979   0.0083592  -0.0090615
   23   0.0000940   0.0004175   0.0008996  -0.0006035  -0.0008078  -0.0019240
   24  -0.0001034  -0.0001161   0.0002787   0.0124316  -0.0189975   0.0090279
   25   0.0001409   0.0001374  -0.0002355  -0.0007195   0.0031686   0.0014947
   26  -0.0002095  -0.0003066   0.0005944  -0.0013744  -0.0040383  -0.0043728
   27  -0.0000211   0.0001652  -0.0000940   0.0054713   0.0017764   0.0062385
   28   0.0002351  -0.0005194   0.0001534  -0.0067267  -0.0019322   0.0052382
   29   0.0011218   0.0003119  -0.0001320   0.0095836  -0.0016604  -0.0067662
   30  -0.0002238  -0.0002239  -0.0002722  -0.0151640  -0.0042825   0.0098490
   31   0.1279949  -0.1110653   0.0634352  -0.0009692  -0.0031236  -0.0006916
   32  -0.1110653   0.2332422  -0.1084811  -0.0042088  -0.0020998  -0.0011549
   33   0.0634352  -0.1084811   0.0781310  -0.0041283   0.0013818  -0.0000664
   34  -0.0009692  -0.0042088  -0.0041283   0.2396873  -0.1018794  -0.1388399
   35  -0.0031236  -0.0020998   0.0013818  -0.1018794   0.2696438  -0.2067469
   36  -0.0006916  -0.0011549  -0.0000664  -0.1388399  -0.2067469   0.5324365
   37   0.0005541   0.0010040   0.0005450  -0.0744528  -0.0477007   0.0637817
   38  -0.0005251  -0.0000689   0.0013934  -0.0378516  -0.1290637   0.1450823
   39   0.0001988   0.0004400   0.0005009   0.0599649   0.1327838  -0.2268665
           37          38          39
    1   0.0074525   0.0074957   0.0047903
    2   0.0113030   0.0046720  -0.0002275
    3  -0.0015004  -0.0034749  -0.0016822
    4  -0.0016493   0.0019197   0.0033809
    5  -0.0098985   0.0101675   0.0108889
    6   0.0125904  -0.0137665  -0.0112361
    7   0.0017542   0.0042208   0.0013806
    8   0.0000894  -0.0000242  -0.0016088
    9   0.0083871   0.0057275   0.0022596
   10   0.0088706  -0.0093162   0.0030151
   11   0.0188594   0.0032286   0.0068870
   12  -0.0141132   0.0005103  -0.0050705
   13  -0.0081320  -0.0046599  -0.0036461
   14  -0.0040695  -0.0054694  -0.0041838
   15  -0.0029058   0.0018918  -0.0007797
   16   0.0063238   0.0051256   0.0022197
   17  -0.0026552  -0.0043417  -0.0017362
   18   0.0040903   0.0049224   0.0037351
   19   0.0008681   0.0005885   0.0007173
   20   0.0000891   0.0004785   0.0006204
   21  -0.0011848  -0.0009894  -0.0003818
   22   0.0007081  -0.0007503  -0.0006182
   23   0.0000928   0.0008112  -0.0002253
   24  -0.0007373   0.0018156   0.0024152
   25   0.0000670  -0.0008522  -0.0003520
   26  -0.0009006  -0.0001152   0.0000116
   27   0.0011607   0.0014285   0.0002851
   28   0.0005480   0.0002731  -0.0000732
   29  -0.0005453   0.0004543   0.0002590
   30   0.0008646  -0.0006318   0.0007148
   31   0.0005541  -0.0005251   0.0001988
   32   0.0010040  -0.0000689   0.0004400
   33   0.0005450   0.0013934   0.0005009
   34  -0.0744528  -0.0378516   0.0599649
   35  -0.0477007  -0.1290637   0.1327838
   36   0.0637817   0.1450823  -0.2268665
   37   0.0570878   0.0343321  -0.0709781
   38   0.0343321   0.1192711  -0.1439090
   39  -0.0709781  -0.1439090   0.2361062
 Gradient time:  CPU 261.35 s  wall 266.43 s
 **********************************************************************
 **                                                                  **
 **                       VIBRATIONAL ANALYSIS                       **
 **                       --------------------                       **
 **                                                                  **
 **        VIBRATIONAL FREQUENCIES (CM**-1) AND NORMAL MODES         **
 **     FORCE CONSTANTS (mDYN/ANGSTROM) AND REDUCED MASSES (AMU)     **
 **                  INFRARED INTENSITIES (KM/MOL)                   **
 **                                                                  **
 **********************************************************************
 

 Mode:                 1                      2                      3
 Frequency:      -700.90                 177.07                 387.33
 Force Cnst:      1.1603                 0.0299                 0.2321
 Red. Mass:       4.0086                 1.6178                 2.6262
 IR Active:          YES                    YES                    YES
 IR Intens:       24.242                 22.425                 10.433
 Raman Active:       YES                    YES                    YES
               X      Y      Z        X      Y      Z        X      Y      Z
 C         -0.202 -0.109  0.214   -0.075 -0.025  0.056   -0.011  0.026  0.133
 C         -0.069 -0.079 -0.099    0.045 -0.009 -0.081    0.019  0.112 -0.045
 C         -0.012  0.055 -0.130   -0.046 -0.101  0.028    0.004  0.184 -0.092
 C          0.019 -0.099 -0.004    0.014  0.044 -0.061   -0.014 -0.001  0.163
 C          0.017 -0.013 -0.020    0.012  0.040  0.007    0.020 -0.105 -0.082
 N         -0.028  0.003 -0.035    0.010  0.036  0.057    0.017 -0.073 -0.092
 H         -0.162 -0.130  0.134   -0.087 -0.069  0.079   -0.056  0.042  0.215
 H         -0.013 -0.040 -0.140    0.042 -0.006 -0.037    0.011  0.103 -0.213
 H         -0.028  0.174 -0.390   -0.116 -0.391  0.849   -0.006 -0.096  0.586
 H          0.028 -0.086  0.045    0.020  0.021 -0.042   -0.010  0.025  0.156
 H          0.003 -0.037 -0.062    0.018  0.098  0.109    0.034 -0.303 -0.473
 C          0.253  0.220  0.092    0.047  0.038 -0.086   -0.036 -0.094  0.012
 H          0.486  0.373  0.267    0.026  0.012 -0.107   -0.015 -0.221 -0.066
 TransDip   0.031  0.154 -0.014    0.015 -0.041  0.145    0.038  0.046  0.084

 Mode:                 4                      5                      6
 Frequency:       466.63                 545.07                 674.55
 Force Cnst:      0.4519                 0.6093                 1.4782
 Red. Mass:       3.5223                 3.4807                 5.5140
 IR Active:          YES                    YES                    YES
 IR Intens:       18.679                  4.399                  2.810
 Raman Active:       YES                    YES                    YES
               X      Y      Z        X      Y      Z        X      Y      Z
 C         -0.041 -0.070 -0.066   -0.134 -0.005  0.166   -0.168  0.121 -0.003
 C          0.015 -0.088  0.121    0.143 -0.048 -0.062   -0.109 -0.077  0.051
 C          0.198  0.113 -0.158    0.017 -0.017  0.224   -0.067 -0.133 -0.096
 C          0.013  0.011 -0.010    0.004  0.114  0.025    0.176 -0.101  0.050
 C         -0.071  0.111  0.208   -0.028  0.101  0.028    0.119  0.109  0.034
 N         -0.036 -0.091 -0.187    0.001 -0.055 -0.202    0.134  0.300 -0.121
 H         -0.090  0.049  0.029   -0.198  0.081  0.295   -0.278 -0.005  0.200
 H         -0.021 -0.113  0.146    0.110 -0.064 -0.032    0.193  0.120 -0.232
 H          0.087 -0.111  0.546    0.052  0.275 -0.515   -0.204 -0.068 -0.042
 H         -0.024 -0.163 -0.162    0.019  0.026  0.105    0.162  0.048 -0.049
 H         -0.095  0.231  0.461   -0.028  0.185  0.182   -0.092 -0.098 -0.123
 C         -0.061  0.018  0.023    0.014 -0.099 -0.121   -0.097 -0.287  0.086
 H         -0.009  0.230  0.183   -0.169 -0.292 -0.307    0.079  0.207  0.478
 TransDip   0.023  0.033  0.133   -0.049 -0.045 -0.009   -0.046  0.019  0.019

 Mode:                 7                      8                      9
 Frequency:       700.83                 717.06                 790.98
 Force Cnst:      0.5485                 0.8601                 0.7750
 Red. Mass:       1.8956                 2.8391                 2.1026
 IR Active:          YES                    YES                    YES
 IR Intens:       11.227                 12.627                  4.235
 Raman Active:       YES                    YES                    YES
               X      Y      Z        X      Y      Z        X      Y      Z
 C          0.010 -0.020 -0.067    0.100  0.039  0.053   -0.023  0.020  0.040
 C          0.060 -0.111  0.015    0.035  0.162 -0.041   -0.026 -0.019 -0.002
 C          0.030  0.036  0.019   -0.096 -0.096 -0.005    0.038 -0.138 -0.135
 C          0.016  0.067  0.088   -0.150 -0.097 -0.019    0.052  0.029  0.149
 C         -0.043  0.040 -0.055    0.063 -0.027  0.159   -0.004  0.001  0.070
 N         -0.055 -0.012  0.094    0.086 -0.057 -0.082    0.013  0.020 -0.016
 H         -0.188  0.044  0.319   -0.054  0.035  0.361    0.134 -0.053 -0.265
 H          0.007 -0.145  0.052   -0.009  0.130 -0.031   -0.017  0.002  0.466
 H         -0.033  0.095 -0.020    0.214 -0.231 -0.194    0.010 -0.113 -0.173
 H          0.033 -0.026  0.185   -0.129  0.014  0.072    0.127  0.057  0.503
 H          0.030 -0.099 -0.404    0.123 -0.021  0.100   -0.027 -0.167 -0.216
 C         -0.019 -0.038 -0.149   -0.093  0.050 -0.105   -0.046  0.115 -0.102
 H          0.255  0.591  0.351    0.359  0.508  0.335   -0.291 -0.091 -0.329
 TransDip  -0.022 -0.034  0.099    0.033  0.030  0.105   -0.033 -0.056 -0.010

 Mode:                10                     11                     12
 Frequency:       815.78                 860.43                 887.12
 Force Cnst:      0.6089                 0.9739                 0.6842
 Red. Mass:       1.5529                 2.2328                 1.4755
 IR Active:          YES                    YES                    YES
 IR Intens:       15.806                  0.695                 11.326
 Raman Active:       YES                    YES                    YES
               X      Y      Z        X      Y      Z        X      Y      Z
 C          0.090  0.052 -0.013   -0.115 -0.073 -0.138    0.019  0.022  0.107
 C         -0.019 -0.069  0.052    0.001  0.074 -0.050    0.025 -0.001  0.018
 C         -0.084  0.045 -0.040    0.117 -0.041  0.008   -0.034  0.022 -0.032
 C          0.026 -0.042 -0.012   -0.012  0.051  0.112    0.047  0.027  0.012
 C         -0.001 -0.084 -0.011    0.040 -0.106 -0.089    0.000 -0.079 -0.100
 N          0.003  0.051 -0.022    0.037  0.020  0.039   -0.026 -0.002 -0.004
 H         -0.251  0.204  0.655   -0.389 -0.175  0.380    0.285  0.042 -0.404
 H         -0.174 -0.174  0.239    0.109  0.148 -0.200    0.000 -0.022 -0.026
 H         -0.215  0.095  0.048    0.332 -0.133 -0.118   -0.054  0.017  0.003
 H          0.051  0.019  0.097    0.003  0.174  0.141    0.083  0.122  0.169
 H         -0.145  0.013  0.347   -0.087  0.130  0.516   -0.186  0.186  0.629
 C          0.053  0.039 -0.046   -0.065  0.061  0.051   -0.036 -0.048 -0.052
 H         -0.088 -0.167 -0.231   -0.071 -0.014 -0.002   -0.033  0.372  0.228
 TransDip  -0.062  0.027  0.108   -0.004  0.016  0.021   -0.068 -0.027  0.080

 Mode:                13                     14                     15
 Frequency:       903.73                 940.53                 989.85
 Force Cnst:      1.2242                 1.0134                 0.9099
 Red. Mass:       2.5439                 1.9444                 1.5761
 IR Active:          YES                    YES                    YES
 IR Intens:       21.065                 25.924                  2.822
 Raman Active:       YES                    YES                    YES
               X      Y      Z        X      Y      Z        X      Y      Z
 C          0.058  0.021  0.018    0.052  0.026  0.001   -0.093  0.001 -0.051
 C         -0.045  0.042  0.054   -0.008  0.036 -0.049    0.042  0.104  0.028
 C         -0.042 -0.096 -0.132   -0.042 -0.048 -0.005   -0.056  0.003 -0.023
 C         -0.041  0.038  0.031    0.189 -0.017 -0.040    0.095  0.022 -0.022
 C         -0.018  0.200 -0.133   -0.039  0.036  0.033    0.016 -0.041  0.022
 N         -0.048 -0.109  0.025   -0.066 -0.120  0.012   -0.015 -0.090  0.021
 H         -0.051  0.160  0.232   -0.082  0.127  0.264   -0.120 -0.063 -0.012
 H          0.013  0.080  0.107    0.200  0.167 -0.525    0.307  0.309  0.590
 H          0.187 -0.284 -0.097   -0.173  0.057 -0.035   -0.390  0.237 -0.027
 H          0.021  0.070  0.358    0.224 -0.076  0.125    0.061  0.088 -0.229
 H          0.227  0.495  0.120    0.008  0.004 -0.079   -0.001 -0.049  0.042
 C          0.083 -0.096  0.070   -0.044  0.063  0.065   -0.003 -0.022 -0.014
 H          0.323 -0.296  0.020   -0.551  0.255  0.030    0.328 -0.079  0.049
 TransDip   0.081  0.121  0.020    0.078  0.138 -0.040    0.013  0.041  0.032

 Mode:                16                     17                     18
 Frequency:      1012.29                1066.93                1098.81
 Force Cnst:      1.3071                 1.2298                 1.2879
 Red. Mass:       2.1649                 1.8337                 1.8105
 IR Active:          YES                    YES                    YES
 IR Intens:        6.310                  4.177                  0.978
 Raman Active:       YES                    YES                    YES
               X      Y      Z        X      Y      Z        X      Y      Z
 C          0.055  0.057  0.039   -0.003 -0.051  0.011   -0.079 -0.010 -0.047
 C         -0.050 -0.041 -0.026   -0.107  0.112 -0.014    0.031 -0.009  0.128
 C          0.044 -0.110 -0.062    0.012  0.035  0.080   -0.056  0.071 -0.009
 C         -0.002  0.221 -0.005    0.175 -0.025 -0.051   -0.038  0.014 -0.139
 C         -0.035 -0.099  0.082   -0.028  0.018  0.011    0.018 -0.050  0.066
 N         -0.043 -0.021 -0.017   -0.041 -0.002 -0.009   -0.002 -0.004  0.004
 H          0.024  0.155  0.109   -0.024 -0.103  0.043   -0.067 -0.002 -0.085
 H         -0.100 -0.083 -0.237   -0.598 -0.212  0.202    0.242  0.130 -0.127
 H         -0.018 -0.062 -0.092    0.484 -0.232 -0.025    0.305 -0.175 -0.024
 H         -0.073  0.632 -0.439    0.207  0.070  0.044    0.128  0.494  0.593
 H         -0.180 -0.271 -0.061   -0.221 -0.132 -0.045    0.023 -0.157 -0.135
 C          0.048 -0.030  0.044   -0.010 -0.032 -0.046    0.091 -0.042 -0.019
 H          0.232 -0.049  0.099    0.244 -0.042  0.018   -0.194  0.066 -0.038
 TransDip  -0.011 -0.072 -0.034    0.001 -0.035  0.055    0.027 -0.017  0.004

 Mode:                19                     20                     21
 Frequency:      1156.53                1175.84                1195.04
 Force Cnst:      2.6284                 1.2367                 1.2267
 Red. Mass:       3.3352                 1.5182                 1.4579
 IR Active:          YES                    YES                    YES
 IR Intens:        5.688                 11.665                  5.197
 Raman Active:       YES                    YES                    YES
               X      Y      Z        X      Y      Z        X      Y      Z
 C          0.082 -0.188  0.010   -0.088  0.099 -0.038   -0.049  0.038 -0.014
 C          0.250 -0.024 -0.138    0.005 -0.044 -0.058    0.051 -0.033 -0.043
 C         -0.133  0.034 -0.062   -0.052  0.037  0.003    0.055 -0.008  0.018
 C          0.004 -0.014 -0.001    0.016 -0.029  0.061    0.008 -0.059 -0.049
 C         -0.054  0.071 -0.013    0.074 -0.022  0.015    0.050 -0.005  0.010
 N         -0.035  0.098 -0.021   -0.004 -0.060  0.028   -0.012 -0.019  0.018
 H          0.047  0.042  0.095   -0.049  0.529 -0.123    0.001  0.465 -0.116
 H          0.068 -0.158  0.510   -0.124 -0.127  0.246   -0.233 -0.238 -0.153
 H          0.196 -0.196 -0.092    0.365 -0.232 -0.047   -0.240  0.177  0.083
 H          0.003  0.465 -0.063   -0.066  0.047 -0.369    0.110  0.283  0.377
 H         -0.294 -0.113 -0.113    0.298  0.112  0.018    0.156  0.048 -0.011
 C         -0.092  0.004  0.187    0.041 -0.012  0.006   -0.120  0.050  0.040
 H         -0.206  0.004  0.165   -0.320  0.171  0.013    0.422 -0.246  0.019
 TransDip   0.042  0.054  0.035    0.028  0.102 -0.029    0.036  0.062  0.014

 Mode:                22                     23                     24
 Frequency:      1245.28                1318.32                1320.88
 Force Cnst:      1.5189                 1.7170                 1.7213
 Red. Mass:       1.6624                 1.6768                 1.6745
 IR Active:          YES                    YES                    YES
 IR Intens:        8.418                  7.222                 15.531
 Raman Active:       YES                    YES                    YES
               X      Y      Z        X      Y      Z        X      Y      Z
 C         -0.007  0.045 -0.006   -0.032 -0.037 -0.017    0.059  0.085  0.022
 C         -0.011  0.066 -0.105    0.105  0.095  0.121   -0.081 -0.085 -0.077
 C          0.090 -0.032  0.002   -0.019 -0.040 -0.041    0.059  0.042  0.060
 C         -0.057  0.039 -0.069    0.015 -0.078  0.074    0.007 -0.120  0.020
 C         -0.024 -0.047  0.018   -0.012  0.012 -0.003   -0.012  0.025 -0.009
 N          0.006  0.007 -0.011   -0.046  0.023 -0.009   -0.054 -0.009 -0.016
 H         -0.062 -0.216  0.091   -0.030 -0.281 -0.036    0.037 -0.483  0.074
 H         -0.359 -0.159  0.385   -0.411 -0.276 -0.313    0.306  0.193  0.185
 H         -0.284  0.204  0.080   -0.234  0.098 -0.048    0.082  0.021  0.111
 H          0.019 -0.059  0.346   -0.044  0.407 -0.306    0.020  0.655 -0.076
 H          0.267  0.102 -0.037    0.325  0.200 -0.056    0.210  0.184  0.018
 C          0.069 -0.091  0.083    0.044  0.004 -0.050   -0.026  0.015 -0.023
 H         -0.362  0.269  0.202   -0.160  0.048 -0.102    0.023 -0.001 -0.019
 TransDip  -0.041 -0.025  0.079   -0.004  0.027 -0.082    0.092  0.080  0.032

 Mode:                25                     26                     27
 Frequency:      1362.40                1394.92                1610.65
 Force Cnst:      1.7782                 2.3557                10.0684
 Red. Mass:       1.6260                 2.0548                 6.5873
 IR Active:          YES                    YES                    YES
 IR Intens:       12.919                  1.347                 31.231
 Raman Active:       YES                    YES                    YES
               X      Y      Z        X      Y      Z        X      Y      Z
 C          0.021 -0.004  0.012    0.053 -0.212  0.025    0.046 -0.004 -0.012
 C          0.028 -0.040  0.008   -0.115  0.067 -0.001    0.019  0.007  0.003
 C         -0.060  0.019 -0.014    0.067 -0.018  0.038    0.017 -0.022  0.004
 C          0.069  0.091 -0.020   -0.007 -0.022  0.016   -0.070  0.045  0.000
 C         -0.031 -0.122  0.040    0.009 -0.024  0.008    0.528  0.059  0.026
 N         -0.070  0.073 -0.037   -0.058  0.095 -0.028   -0.422  0.026 -0.046
 H          0.020 -0.213  0.020    0.063  0.732  0.023   -0.011 -0.360  0.066
 H          0.093 -0.006 -0.032    0.208  0.314  0.091   -0.033 -0.038  0.024
 H          0.202 -0.147 -0.065   -0.135  0.124  0.066   -0.050  0.014  0.020
 H          0.077 -0.337  0.049   -0.008  0.180 -0.035   -0.072 -0.322  0.083
 H          0.738  0.288 -0.055    0.312  0.140 -0.051   -0.268 -0.410  0.125
 C         -0.060  0.017  0.024    0.033 -0.035 -0.058   -0.002 -0.018  0.009
 H          0.229 -0.136  0.018   -0.118  0.104 -0.030   -0.110 -0.030 -0.032
 TransDip   0.055 -0.099  0.021    0.007 -0.024  0.027    0.124  0.127  0.022

 Mode:                28                     29                     30
 Frequency:      3145.68                3169.06                3180.46
 Force Cnst:      6.3458                 6.4379                 6.5319
 Red. Mass:       1.0884                 1.0880                 1.0960
 IR Active:          YES                    YES                    YES
 IR Intens:       17.659                 16.786                 13.879
 Raman Active:       YES                    YES                    YES
               X      Y      Z        X      Y      Z        X      Y      Z
 C         -0.000 -0.000 -0.001   -0.003 -0.001 -0.002   -0.009  0.002 -0.005
 C          0.004 -0.006  0.001    0.033 -0.045  0.003    0.038 -0.053 -0.000
 C          0.002  0.003  0.001    0.001  0.003  0.000    0.002  0.005  0.001
 C         -0.082  0.003  0.016    0.017 -0.002 -0.002   -0.006  0.002 -0.000
 C          0.005 -0.006  0.004   -0.002  0.004 -0.002    0.004 -0.006  0.003
 N          0.000  0.000  0.000   -0.000  0.000  0.000   -0.000  0.000 -0.000
 H          0.011  0.000  0.004    0.043 -0.001  0.022    0.109 -0.004  0.055
 H         -0.046  0.065 -0.002   -0.378  0.542 -0.016   -0.416  0.595 -0.017
 H         -0.026 -0.035 -0.017   -0.023 -0.036 -0.018   -0.034 -0.053 -0.021
 H          0.947 -0.037 -0.192   -0.184  0.009  0.036    0.051 -0.005 -0.008
 H         -0.059  0.089 -0.047    0.034 -0.053  0.028   -0.044  0.069 -0.035
 C          0.005  0.008 -0.012    0.014  0.034 -0.050   -0.015 -0.031  0.049
 H         -0.051 -0.099  0.152   -0.183 -0.383  0.575    0.170  0.353 -0.530
 TransDip  -0.134  0.001  0.011    0.068 -0.076 -0.082    0.062 -0.087  0.054

 Mode:                31                     32                     33
 Frequency:      3195.56                3218.16                3254.08
 Force Cnst:      6.5751                 6.6622                 6.8170
 Red. Mass:       1.0928                 1.0918                 1.0927
 IR Active:          YES                    YES                    YES
 IR Intens:       19.542                 11.075                  7.314
 Raman Active:       YES                    YES                    YES
               X      Y      Z        X      Y      Z        X      Y      Z
 C          0.005  0.002  0.002   -0.077  0.001 -0.040    0.002  0.000  0.001
 C         -0.001  0.001  0.000   -0.006  0.010  0.001    0.007 -0.007  0.003
 C         -0.002 -0.002 -0.001   -0.001 -0.002 -0.001   -0.047 -0.066 -0.032
 C          0.012  0.002 -0.002    0.002 -0.000  0.000   -0.004  0.001  0.002
 C          0.042 -0.067  0.035    0.004 -0.004  0.002   -0.001  0.002 -0.001
 N         -0.002 -0.001  0.000   -0.001 -0.001  0.000    0.000  0.000 -0.000
 H         -0.062 -0.001 -0.033    0.876 -0.003  0.451   -0.014 -0.001 -0.009
 H          0.012 -0.016  0.000    0.066 -0.102  0.003   -0.049  0.067 -0.005
 H          0.017  0.021  0.010    0.016  0.024  0.010    0.536  0.770  0.320
 H         -0.127 -0.001  0.026   -0.016 -0.000  0.005    0.042 -0.003 -0.010
 H         -0.470  0.762 -0.401   -0.029  0.045 -0.024    0.010 -0.017  0.009
 C          0.001  0.004 -0.007    0.002  0.002 -0.004    0.000 -0.000  0.001
 H         -0.021 -0.046  0.068   -0.013 -0.027  0.039   -0.000  0.002 -0.005
 TransDip   0.084 -0.110  0.029   -0.094  0.018 -0.047   -0.033 -0.049 -0.064

 STANDARD THERMODYNAMIC QUANTITIES AT   298.15 K  AND     1.00 ATM

   This Molecule has  1 Imaginary Frequencies
   Zero point vibrational energy:       62.869 kcal/mol

   Atom    1 Element C  Has Mass   12.00000
   Atom    2 Element C  Has Mass   12.00000
   Atom    3 Element C  Has Mass   12.00000
   Atom    4 Element C  Has Mass   12.00000
   Atom    5 Element C  Has Mass   12.00000
   Atom    6 Element N  Has Mass   14.00307
   Atom    7 Element H  Has Mass    1.00783
   Atom    8 Element H  Has Mass    1.00783
   Atom    9 Element H  Has Mass    1.00783
   Atom   10 Element H  Has Mass    1.00783
   Atom   11 Element H  Has Mass    1.00783
   Atom   12 Element C  Has Mass   12.00000
   Atom   13 Element H  Has Mass    1.00783
   Molecular Mass:    92.050050 amu
   Principal axes and moments of inertia in amu*Bohr^2:
                             1           2           3
    Eigenvalues --      359.91355   456.32591   616.24557
          X               0.23568     0.95274    -0.19167
          Y               0.97057    -0.22070     0.09637
          Z              -0.04951     0.20875     0.97672
   Rotational Symmetry Number is   1
   The Molecule is an Asymmetric Top
   Translational Enthalpy:        0.889 kcal/mol
   Rotational Enthalpy:           0.889 kcal/mol
   Vibrational Enthalpy:         64.322 kcal/mol
   gas constant (RT):             0.592 kcal/mol
   Translational Entropy:        39.471  cal/mol.K
   Rotational Entropy:           26.117  cal/mol.K
   Vibrational Entropy:           7.166  cal/mol.K

   Total Enthalpy:               66.692 kcal/mol
   Total Entropy:                72.754  cal/mol.K
Archival summary:
1\1\c8-73\FREQ\ProcedureUnspecified\6-31G*\166(2)\hpark21\ThuMar305:23:162022ThuMar305:23:162022\0\\#,FREQ,ProcedureUnspecified,6-31G*,\\0,2\N\C,1,1.29239\H,2,1.08797,1,120.9\C,1,1.37924,2,112.658,3,-173.589,0\H,4,1.08555,1,117.926,2,-157.615,0\C,2,1.49175,1,115.08,3,175.523,0\H,6,1.09044,2,116.848,1,160.579,0\C,4,1.51394,1,121.438,2,34.0767,0\H,8,1.0878,4,117.821,1,156.061,0\C,8,1.48644,4,77.7544,1,-82.5826,0\H,10,1.08889,8,127.299,4,-130.232,0\C,8,1.48645,4,114.793,1,-7.9203,0\H,12,1.08156,8,123.67,4,-179.284,0\\\@

 Total job time:  274.06s(wall), 264.90s(cpu) 
 Thu Mar  3 05:23:16 2022

        *************************************************************
        *                                                           *
        *  Thank you very much for using Q-Chem.  Have a nice day.  *
        *                                                           *
        *************************************************************


