13
image # 1 Energy = -286.85847
C 1.57548   0.44564   -0.08641  
C 0.82233   -0.81511  0.11690   
C -0.51843  -0.96800  -0.58274  
C -1.11971  0.31637   -0.03592  
C -0.37015  1.57900   -0.23919  
N 0.96094   1.61424   -0.25952  
H 2.66367   0.43912   -0.09786  
H 1.40561   -1.72499  0.24896   
H -0.91992  -1.74389  -1.21964  
H -2.20658  0.37962   -0.03338  
H -0.90387  2.51726   -0.37830  
C -0.50200  -0.74594  0.85908   
H -0.88738  -1.29332  1.70802   
13
image # 2 Energy = -286.85610
C 1.55988   0.44200   -0.07384  
C 0.83922   -0.83206  0.10089   
C -0.53638  -0.98816  -0.61489  
C -1.13146  0.33025   -0.02829  
C -0.36669  1.56795   -0.25180  
N 0.95105   1.61144   -0.25748  
H 2.65906   0.43533   -0.04091  
H 1.39457   -1.73403  0.21779   
H -0.91921  -1.70570  -1.24640  
H -2.20161  0.37005   -0.00654  
H -0.91427  2.51249   -0.41913  
C -0.49773  -0.75420  0.88752   
H -0.84185  -1.25786  1.73002   
13
image # 3 Energy = -286.85636
C 1.56307   0.43544   -0.05609  
C 0.81188   -0.82966  0.07895   
C -0.53094  -0.96266  -0.59558  
C -1.11439  0.31110   -0.01991  
C -0.38688  1.57524   -0.26421  
N 0.95209   1.60484   -0.25820  
H 2.64185   0.43254   0.01021   
H 1.39957   -1.75954  0.19266   
H -0.93295  -1.69758  -1.29412  
H -2.21064  0.36590   0.01772   
H -0.91675  2.49768   -0.45465  
C -0.47650  -0.73867  0.86979   
H -0.80893  -1.23847  1.76804   
13
image # 4 Energy = -286.85414
C 1.56371   0.41542   -0.04307  
C 0.80154   -0.84909  0.05896   
C -0.53878  -0.96817  -0.60883  
C -1.11049  0.30847   -0.00951  
C -0.39848  1.57434   -0.27711  
N 0.94343   1.62038   -0.25940  
H 2.63464   0.43237   0.07477   
H 1.39087   -1.76542  0.15838   
H -0.93771  -1.66505  -1.32150  
H -2.21562  0.36083   0.04701   
H -0.91822  2.48090   -0.49901  
C -0.46251  -0.73991  0.87718   
H -0.76563  -1.21052  1.79294   
13
image # 5 Energy = -286.85297
C 1.55801   0.42851   -0.04363  
C 0.82883   -0.84717  0.03916   
C -0.55992  -0.96931  -0.58478  
C -1.12749  0.31671   0.00795   
C -0.38872  1.55991   -0.29110  
N 0.94078   1.59016   -0.24898  
H 2.61851   0.43152   0.15323   
H 1.37701   -1.77287  0.11679   
H -0.94771  -1.63228  -1.34908  
H -2.19907  0.35376   0.08071   
H -0.93124  2.47508   -0.55644  
C -0.46717  -0.75715  0.84216   
H -0.71705  -1.18302  1.82128   
13
image # 6 Energy = -286.85093
C 1.54112   0.42028   -0.02776  
C 0.81025   -0.85670  0.01651   
C -0.55964  -0.96838  -0.59069  
C -1.11512  0.31467   0.01209   
C -0.39118  1.55950   -0.30426  
N 0.92986   1.59297   -0.24861  
H 2.60931   0.42776   0.21201   
H 1.37525   -1.78656  0.08856   
H -0.95541  -1.60871  -1.37630  
H -2.20551  0.34996   0.10669   
H -0.93298  2.46086   -0.59235  
C -0.44948  -0.75624  0.85428   
H -0.67383  -1.15533  1.83465   
13
image # 7 Energy = -286.84739
C 1.53318   0.42334   -0.00777  
C 0.80313   -0.86798  -0.00830  
C -0.56674  -0.96518  -0.60680  
C -1.11660  0.30659   0.01781   
C -0.39720  1.55840   -0.31532  
N 0.93102   1.58687   -0.24732  
H 2.58386   0.42239   0.26894   
H 1.37429   -1.79921  0.06120   
H -0.96653  -1.59259  -1.39981  
H -2.19940  0.34771   0.12984   
H -0.93568  2.45010   -0.62676  
C -0.42858  -0.74095  0.86601   
H -0.63333  -1.13519  1.85069   
13
image # 8 Energy = -286.84303
C 1.52041   0.41304   0.00689   
C 0.80714   -0.86469  -0.03656  
C -0.57925  -0.96070  -0.62126  
C -1.11067  0.30672   0.02517   
C -0.39530  1.54845   -0.32511  
N 0.92433   1.58606   -0.24404  
H 2.55552   0.41902   0.34978   
H 1.37096   -1.80878  0.02374   
H -0.98784  -1.58242  -1.41621  
H -2.19492  0.34706   0.16051   
H -0.93778  2.43897   -0.67467  
C -0.40674  -0.72823  0.86539   
H -0.58541  -1.12054  1.86651   
13
image # 9 Energy = -286.83745
C 1.50863   0.41321   0.02754   
C 0.80273   -0.88214  -0.06779  
C -0.58157  -0.95490  -0.63444  
C -1.11143  0.30759   0.02869   
C -0.39758  1.55512   -0.33980  
N 0.91676   1.58122   -0.24098  
H 2.52382   0.41233   0.42393   
H 1.36670   -1.81138  -0.00951  
H -1.00927  -1.57745  -1.42820  
H -2.18790  0.34709   0.18738   
H -0.93543  2.42214   -0.71193  
C -0.37727  -0.71485  0.87335   
H -0.53844  -1.10496  1.87026   
13
image # 10 Energy = -286.83038
C 1.49275   0.41061   0.04986   
C 0.79383   -0.89035  -0.09723  
C -0.58495  -0.95033  -0.65454  
C -1.10530  0.30519   0.02935   
C -0.40245  1.55133   -0.34934  
N 0.91651   1.57906   -0.23698  
H 2.48877   0.40417   0.49013   
H 1.36870   -1.81942  -0.03724  
H -1.03019  -1.58055  -1.42524  
H -2.18167  0.34799   0.20856   
H -0.93629  2.41928   -0.74251  
C -0.34294  -0.68856  0.87290   
H -0.49764  -1.09701  1.86946   
13
image # 11 Energy = -286.82138
C 1.47496   0.40010   0.07285   
C 0.79815   -0.89661  -0.12544  
C -0.58473  -0.93266  -0.67933  
C -1.10010  0.30107   0.02751   
C -0.40146  1.55818   -0.36179  
N 0.90448   1.57881   -0.23210  
H 2.44928   0.39330   0.55057   
H 1.37124   -1.82602  -0.06084  
H -1.05854  -1.60416  -1.41262  
H -2.17257  0.34918   0.22317   
H -0.93427  2.41859   -0.76175  
C -0.30598  -0.65650  0.88025   
H -0.46219  -1.09452  1.85557   
13
image # 12 Energy = -286.81213
C 1.45556   0.40059   0.09071   
C 0.79686   -0.90641  -0.14767  
C -0.57508  -0.91374  -0.71796  
C -1.08973  0.31046   0.02186   
C -0.41312  1.56385   -0.37263  
N 0.90154   1.57257   -0.22515  
H 2.41508   0.38201   0.60374   
H 1.37372   -1.83042  -0.08152  
H -1.08684  -1.63859  -1.37318  
H -2.16577  0.34922   0.23023   
H -0.93102  2.42326   -0.77020  
C -0.26486  -0.62361  0.87929   
H -0.43918  -1.10354  1.83770   
13
image # 13 Energy = -286.81162
C 1.46514   0.40582   0.08620   
C 0.79502   -0.89314  -0.17830  
C -0.56693  -0.88410  -0.75453  
C -1.08770  0.31606   0.02652   
C -0.40482  1.57307   -0.38036  
N 0.89882   1.57520   -0.21271  
H 2.37135   0.38330   0.70515   
H 1.37786   -1.82654  -0.12890  
H -1.13612  -1.69318  -1.26736  
H -2.15396  0.35825   0.24754   
H -0.92212  2.42591   -0.80818  
C -0.24859  -0.62667  0.84824   
H -0.41271  -1.13255  1.79140   
13
image # 14 Energy = -286.78903
C 1.42174   0.38820   0.14486   
C 0.77209   -0.93317  -0.15879  
C -0.54680  -0.85918  -0.84117  
C -1.08213  0.29837   0.02265   
C -0.41369  1.56371   -0.36506  
N 0.88589   1.56938   -0.23285  
H 2.40128   0.38294   0.62297   
H 1.37978   -1.83510  -0.09650  
H -1.11115  -1.68630  -1.30017  
H -2.16288  0.35049   0.21922   
H -0.92802  2.43060   -0.76845  
C -0.19040  -0.56228  0.91777   
H -0.45119  -1.12857  1.81057   
13
image # 15 Energy = -286.78642
C 1.39214   0.37045   0.19011   
C 0.74540   -0.94835  -0.16511  
C -0.54145  -0.84502  -0.90334  
C -1.08091  0.28567   0.02961   
C -0.41028  1.55838   -0.36321  
N 0.87483   1.57141   -0.24490  
H 2.39654   0.38849   0.63715   
H 1.38055   -1.83026  -0.10420  
H -1.12022  -1.68965  -1.29835  
H -2.16615  0.35445   0.22101   
H -0.92054  2.42152   -0.77676  
C -0.13196  -0.52915  0.94802   
H -0.44315  -1.12798  1.80486   
13
image # 16 Energy = -286.78997
C 1.36611   0.34769   0.21944   
C 0.73449   -0.96014  -0.17205  
C -0.54014  -0.84755  -0.91527  
C -1.08601  0.26754   0.02673   
C -0.40697  1.56063   -0.36238  
N 0.86966   1.58085   -0.24881  
H 2.39949   0.38419   0.61079   
H 1.38188   -1.83152  -0.08144  
H -1.11702  -1.70049  -1.33628  
H -2.16487  0.35210   0.20856   
H -0.92153  2.43054   -0.75128  
C -0.09653  -0.48842  0.97025   
H -0.44204  -1.11218  1.80650   
13
image # 17 Energy = -286.79032
C 1.34718   0.33810   0.23551   
C 0.72828   -0.97671  -0.16336  
C -0.55455  -0.88952  -0.87182  
C -1.08681  0.25817   0.02101   
C -0.41064  1.55783   -0.36579  
N 0.86726   1.57967   -0.25674  
H 2.40126   0.36610   0.55955   
H 1.37794   -1.84624  -0.05165  
H -1.07742  -1.64745  -1.44220  
H -2.16349  0.33717   0.20544   
H -0.93602  2.43447   -0.72766  
C -0.08294  -0.45905  0.99072   
H -0.43242  -1.06702  1.84156   
13
image # 18 Energy = -286.79706
C 1.31444   0.33275   0.26215   
C 0.72406   -0.99835  -0.16542  
C -0.56204  -0.90537  -0.86366  
C -1.07579  0.24457   0.01466   
C -0.41080  1.55865   -0.36989  
N 0.86274   1.57174   -0.25865  
H 2.38721   0.34818   0.54017   
H 1.37319   -1.85575  -0.03759  
H -1.05969  -1.62466  -1.50561  
H -2.16138  0.32611   0.20606   
H -0.94633  2.43928   -0.71296  
C -0.05374  -0.41837  1.00827   
H -0.41265  -1.03086  1.85675   
13
image # 19 Energy = -286.80392
C 1.29510   0.33254   0.29360   
C 0.70512   -1.01549  -0.16395  
C -0.56761  -0.92193  -0.85021  
C -1.07710  0.23278   0.01348   
C -0.41250  1.54886   -0.37553  
N 0.86253   1.56163   -0.26614  
H 2.36439   0.32990   0.52829   
H 1.37111   -1.87405  -0.03347  
H -1.03457  -1.57466  -1.57721  
H -2.15192  0.31138   0.21641   
H -0.96103  2.43734   -0.71626  
C -0.02931  -0.39183  1.01996   
H -0.38333  -0.98627  1.88534   
13
image # 20 Energy = -286.81097
C 1.27590   0.31916   0.31771   
C 0.70057   -1.03758  -0.15128  
C -0.57985  -0.93045  -0.85002  
C -1.07639  0.22932   0.02236   
C -0.42011  1.53334   -0.38266  
N 0.85574   1.56355   -0.27962  
H 2.35034   0.31629   0.53686   
H 1.36203   -1.88192  -0.04387  
H -1.01208  -1.51586  -1.63819  
H -2.14442  0.29769   0.23296   
H -0.96826  2.42165   -0.73584  
C -0.01089  -0.37715  1.03267   
H -0.34996  -0.94615  1.91345   
13
image # 21 Energy = -286.81802
C 1.24993   0.30584   0.34071   
C 0.68366   -1.04780  -0.14786  
C -0.57917  -0.92511  -0.84896  
C -1.06544  0.21996   0.03133   
C -0.42763  1.52873   -0.39337  
N 0.84516   1.55957   -0.28697  
H 2.33410   0.30382   0.56059   
H 1.35759   -1.89257  -0.05726  
H -1.00513  -1.47877  -1.69111  
H -2.13941  0.28763   0.25014   
H -0.97011  2.40258   -0.75578  
C 0.01539   -0.35736  1.04006   
H -0.31440  -0.91301  1.93363   
13
image # 22 Energy = -286.82336
C 1.23699   0.31783   0.34880   
C 0.67090   -1.05530  -0.14766  
C -0.59106  -0.93382  -0.86349  
C -1.06861  0.21069   0.05098   
C -0.43526  1.52907   -0.40454  
N 0.84485   1.53008   -0.28689  
H 2.31355   0.29131   0.59121   
H 1.35396   -1.91053  -0.07649  
H -0.98280  -1.40919  -1.73311  
H -2.13387  0.27450   0.27235   
H -0.97470  2.37042   -0.78878  
C 0.02644   -0.34595  1.04511   
H -0.27401  -0.87365  1.96883   
13
image # 23 Energy = -286.82897
C 1.24430   0.29733   0.35640   
C 0.66746   -1.07074  -0.14394  
C -0.59548  -0.92359  -0.84529  
C -1.07472  0.20415   0.05921   
C -0.42627  1.50752   -0.40529  
N 0.82615   1.53295   -0.31029  
H 2.29634   0.28441   0.62552   
H 1.34047   -1.91685  -0.10318  
H -0.95446  -1.31808  -1.78695  
H -2.14467  0.25880   0.30519   
H -0.97981  2.33045   -0.83820  
C 0.01713   -0.36955  1.06327   
H -0.22750  -0.82000  2.00235   
13
image # 24 Energy = -286.83216
C 1.23323   0.30115   0.36323   
C 0.65905   -1.08176  -0.15146  
C -0.60153  -0.91988  -0.84720  
C -1.07854  0.19605   0.07709   
C -0.43018  1.48272   -0.40469  
N 0.83012   1.50622   -0.30901  
H 2.27357   0.27533   0.66004   
H 1.33424   -1.92929  -0.12483  
H -0.93613  -1.25311  -1.82640  
H -2.14428  0.24722   0.32737   
H -0.99035  2.31035   -0.88082  
C 0.03331   -0.35162  1.06311   
H -0.19080  -0.78541  2.03642   
13
image # 25 Energy = -286.83558
C 1.22081   0.28614   0.37195   
C 0.65301   -1.08837  -0.15151  
C -0.60833  -0.91609  -0.85503  
C -1.07926  0.18728   0.08350   
C -0.44791  1.48274   -0.41599  
N 0.83790   1.50451   -0.31363  
H 2.25307   0.26471   0.70494   
H 1.32546   -1.93510  -0.14738  
H -0.92411  -1.19955  -1.85191  
H -2.14463  0.23585   0.35337   
H -0.98946  2.27724   -0.91277  
C 0.04216   -0.35584  1.06547   
H -0.14409  -0.74467  2.05684   
13
image # 26 Energy = -286.83708
C 1.20395   0.28339   0.37249   
C 0.64379   -1.08990  -0.14555  
C -0.61423  -0.91388  -0.86487  
C -1.08194  0.18301   0.09267   
C -0.44191  1.47331   -0.42115  
N 0.82970   1.50102   -0.31506  
H 2.23716   0.25186   0.75073   
H 1.32000   -1.94398  -0.16909  
H -0.91512  -1.15322  -1.87237  
H -2.13715  0.22385   0.37664   
H -0.99162  2.25207   -0.94404  
C 0.04310   -0.35756  1.05033   
H -0.09873  -0.71055  2.08204   
13
image # 27 Energy = -286.83833
C 1.20226   0.28778   0.38268   
C 0.63191   -1.10432  -0.15068  
C -0.61798  -0.90751  -0.87249  
C -1.07878  0.17745   0.09831   
C -0.44885  1.46169   -0.42771  
N 0.82897   1.49353   -0.31333  
H 2.20480   0.23702   0.79515   
H 1.31242   -1.94911  -0.19027  
H -0.90973  -1.11127  -1.90010  
H -2.12774  0.21195   0.40069   
H -0.99398  2.22866   -0.97566  
C 0.04503   -0.35431  1.05956   
H -0.04833  -0.67157  2.09384   
