13   
From optimize.out: Frame 1 / 2, Energy=    -286.9243082816
C        0.0350530000   -0.1093830000   -0.0000000000
C       -0.1117980000    0.1002900000   -0.0000000000
C       -0.1106390000    0.0872450000    0.0000000000
C       -0.1320740000    0.3518080000    0.0000000000
C        0.0360650000   -0.1156000000    0.0000000000
N       -0.4235740000    0.3873450000   -0.0000000000
H        0.1426230000    0.0032420000   -0.0000000000
H        0.1419010000   -0.0069460000   -0.0000000000
H        0.1419290000   -0.0063240000    0.0000000000
H        0.1343860000   -0.0185550000    0.0000000000
H        0.1426080000    0.0035500000    0.0000000000
C       -0.1309430000    0.3414070000   -0.0000000000
H        0.1344610000   -0.0180780000   -0.0000000000
