
Running Job 1 of 1 irc_reactant.in
qchem irc_reactant.in_10916.0 ./irc_reactant.d/ 1
/home/leeping/opt/qchem/5.0.2-openmp/exe/qcprog.exe_s irc_reactant.in_10916.0 ./irc_reactant.d/
Check license passed

                  Welcome to Q-Chem
     A Quantum Leap Into The Future Of Chemistry


 Q-Chem 5.0, Q-Chem, Inc., Pleasanton, CA (2017)

 Yihan Shao,  Zhengting Gan,  E. Epifanovsky,  A. T. B. Gilbert,  M. Wormit,  
 J. Kussmann,  A. W. Lange,  A. Behn,  Jia Deng,  Xintian Feng,  D. Ghosh,  
 M. Goldey,  P. R. Horn,  L. D. Jacobson,  I. Kaliman,  T. Kus,  A. Landau,  
 Jie Liu,  E. I. Proynov,  R. M. Richard,  R. P. Steele,  E. J. Sundstrom,  
 H. L. Woodcock III,  P. M. Zimmerman,  D. Zuev,  B. Albrecht,  E. Alguire,  
 S. A. Baeppler,  D. Barton,  Z. Benda,  Y. A. Bernard,  E. J. Berquist,  
 K. B. Bravaya,  H. Burton,  D. Casanova,  Chun-Min Chang,  Yunqing Chen,  
 A. Chien,  K. D. Closser,  M. P. Coons,  S. Dasgupta,  A. L. Dempwolff,  
 M. Diedenhofen,  Hainam Do,  R. G. Edgar,  Po-Tung Fang,  S. Fatehi,  
 Qingguo Feng,  J. Fosso-Tande,  Qinghui Ge,  A. Ghysels,  G. Gidofalvi,  
 J. Gomes,  J. Gonthier,  A. Gunina,  M. W. D. Hanson-Heine,  
 P. H. P. Harbach,  A. W. Hauser,  J. E. Herr,  E. G. Hohenstein,  
 Z. C. Holden,  Kerwin Hui,  T.-C. Jagau,  Hyunjun Ji,  B. Kaduk,  
 K. Khistyaev,  Jaehoon Kim,  P. Klunzinger,  K. Koh,  D. Kosenkov,  
 L. Koulias,  T. Kowalczyk,  C. M. Krauter,  A. Kunitsa,  Ka Un Lao,  
 A. Laurent,  K. V. Lawler,  Joonho Lee,  D. Lefrancois,  S. Lehtola,  
 D. S. Levine,  Yi-Pei Li,  You-Sheng Lin,  Fenglai Liu,  E. Livshits,  
 A. Luenser,  P. Manohar,  E. Mansoor,  S. F. Manzer,  Shan-Ping Mao,  
 Yuezhi Mao,  N. Mardirossian,  A. V. Marenich,  T. Markovich,  
 L. A. Martinez-Martinez,  S. A. Maurer,  N. J. Mayhall,  S. C. McKenzie,  
 J.-M. Mewes,  A. F. Morrison,  J. W. Mullinax,  K. Nanda,  
 T. S. Nguyen-Beck,  R. Olivares-Amaya,  J. A. Parkhill,  T. M. Perrine,  
 F. Plasser,  S. Prager,  A. Prociuk,  E. Ramos,  D. R. Rehn,  F. Rob,  
 M. Schneider,  N. Sergueev,  S. M. Sharada,  S. Sharma,  D. W. Small,  
 T. Stauch,  T. Stein,  Yu-Chuan Su,  A. J. W. Thom,  A. Tkatchenko,  
 T. Tsuchimochi,  L. Vogt,  O. Vydrov,  M. A. Watson,  J. Wenzel,  
 M. de Wergifosse,  T. A. Wesolowski,  A. White,  J. Witte,  A. Yamada,  
 Jun Yang,  K. Yao,  S. Yeganeh,  S. R. Yost,  Zhi-Qiang You,  A. Zech,  
 Igor Ying Zhang,  Xing Zhang,  Yan Zhao,  Ying Zhu,  B. R. Brooks,  
 G. K. L. Chan,  C. J. Cramer,  M. S. Gordon,  W. J. Hehre,  A. Klamt,  
 M. W. Schmidt,  C. D. Sherrill,  D. G. Truhlar,  A. Aspuru-Guzik,  R. Baer,  
 A. T. Bell,  N. A. Besley,  Jeng-Da Chai,  R. A. DiStasio Jr.,  A. Dreuw,  
 B. D. Dunietz,  T. R. Furlani,  Chao-Ping Hsu,  Yousung Jung,  Jing Kong,  
 D. S. Lambrecht,  WanZhen Liang,  C. Ochsenfeld,  V. A. Rassolov,  
 L. V. Slipchenko,  J. E. Subotnik,  T. Van Voorhis,  J. M. Herbert,  
 A. I. Krylov,  P. M. W. Gill,  M. Head-Gordon

 Contributors to earlier versions of Q-Chem not listed above: 
 R. D. Adamson,  B. Austin,  J. Baker,  G. J. O. Beran,  K. Brandhorst,  
 S. T. Brown,  E. F. C. Byrd,  A. K. Chakraborty,  C.-L. Cheng,  
 Siu Hung Chien,  D. M. Chipman,  D. L. Crittenden,  H. Dachsel,  
 R. J. Doerksen,  A. D. Dutoi,  L. Fusti-Molnar,  W. A. Goddard III,  
 A. Golubeva-Zadorozhnaya,  S. R. Gwaltney,  G. Hawkins,  A. Heyden,  
 S. Hirata,  G. Kedziora,  F. J. Keil,  C. Kelley,  Jihan Kim,  R. A. King,  
 R. Z. Khaliullin,  P. P. Korambath,  W. Kurlancheek,  A. M. Lee,  M. S. Lee,  
 S. V. Levchenko,  Ching Yeh Lin,  D. Liotard,  R. C. Lochan,  I. Lotan,  
 P. E. Maslen,  N. Nair,  D. P. O'Neill,  D. Neuhauser,  E. Neuscamman,  
 C. M. Oana,  R. Olson,  B. Peters,  R. Peverati,  P. A. Pieniazek,  
 Y. M. Rhee,  J. Ritchie,  M. A. Rohrdanz,  E. Rosta,  N. J. Russ,  
 H. F. Schaefer III,  N. E. Schultz,  N. Shenvi,  A. C. Simmonett,  A. Sodt,  
 D. Stuck,  K. S. Thanthiriwatte,  V. Vanovschi,  Tao Wang,  A. Warshel,  
 C. F. Williams,  Q. Wu,  X. Xu,  W. Zhang

 Please cite Q-Chem as follows:
 Y. Shao et al., Mol. Phys. 113, 184-215 (2015)
 DOI: 10.1080/00268976.2014.952696

 Q-Chem 5.0.2 for Intel X86 EM64T Linux

 Parts of Q-Chem use Armadillo 5.200.1 (Boston Tea Smuggler).
 http://arma.sourceforge.net/

 Q-Chem begins on Wed Mar  2 16:48:51 2022  

Host: 
0

     Scratch files written to ./irc_reactant.d//
 Dec517 15110_ 26548  26544 5633   
Processing $rem in /home/leeping/opt/qchem/5.0.2-openmp/config/preferences.
 MEM_STATIC 2000
 MEM_TOTAL  8000
 SYMMETRY   OFF
 SYM_IGNORE TRUE 

Checking the input file for inconsistencies... 	...done.

--------------------------------------------------------------
User input:
--------------------------------------------------------------
$molecule
0 2
C        1.5714992977    0.4699354594   -0.0191522498
C        0.8306312997   -0.8057049063    0.1290701805
C       -0.4909292986   -0.9710269034   -0.6014339603
C       -1.1230461811    0.3026544247   -0.0581226763
C       -0.3858008942    1.5717509268   -0.2680501095
N        0.9453517097    1.6276284484   -0.2287936804
H        2.6555285026    0.4878354686    0.0658372362
H        1.4239405009   -1.7079435178    0.2649047123
H       -0.8701056330   -1.7493097681   -1.2479479139
H       -2.2099494708    0.3541980410   -0.0754913401
H       -0.9259538775    2.4906061185   -0.4842228452
C       -0.5119731835   -0.7554550832    0.8444328917
H       -0.9091927723   -1.3151687085    1.6789697544
$end

$rem
method                b3lyp
basis                 6-31+g(d,p)
unrestricted          true
symmetry              off
sym_ignore            true
incdft                false
incfock               0
scf_convergence       8
thresh                14
jobtype               sp
scf_guess             read
scf_algorithm         diis
max_scf_cycles        100
scf_final_print       1
$end

--------------------------------------------------------------
 ----------------------------------------------------------------
             Standard Nuclear Orientation (Angstroms)
    I     Atom           X                Y                Z
 ----------------------------------------------------------------
    1      C       1.5714992977     0.4699354594    -0.0191522498
    2      C       0.8306312997    -0.8057049063     0.1290701805
    3      C      -0.4909292986    -0.9710269034    -0.6014339603
    4      C      -1.1230461811     0.3026544247    -0.0581226763
    5      C      -0.3858008942     1.5717509268    -0.2680501095
    6      N       0.9453517097     1.6276284484    -0.2287936804
    7      H       2.6555285026     0.4878354686     0.0658372362
    8      H       1.4239405009    -1.7079435178     0.2649047123
    9      H      -0.8701056330    -1.7493097681    -1.2479479139
   10      H      -2.2099494708     0.3541980410    -0.0754913401
   11      H      -0.9259538775     2.4906061185    -0.4842228452
   12      C      -0.5119731835    -0.7554550832     0.8444328917
   13      H      -0.9091927723    -1.3151687085     1.6789697544
 ----------------------------------------------------------------
 Nuclear Repulsion Energy =   277.1263009734 hartrees
 There are       25 alpha and       24 beta electrons
 Requested basis set is 6-31+G(d,p)
 There are 53 shells and 163 basis functions

 Total QAlloc Memory Limit   8000 MB
 Mega-Array Size      1956 MB
 MEM_STATIC part      2000 MB

                       Distance Matrix (Angstroms)
             C (  1)   C (  2)   C (  3)   C (  4)   C (  5)   N (  6)
   C (  2)  1.482604
   C (  3)  2.582448  1.519042
   C (  4)  2.700014  2.253965  1.522177
   C (  5)  2.259861  2.699946  2.566694  1.482635
   N (  6)  1.332765  2.462182  2.992453  2.462307  1.332903
   H (  7)  1.087503  2.237743  3.531816  3.785140  3.245926  2.076208
   H (  8)  2.201277  1.088348  2.227176  3.260980  3.783596  3.405705
   H (  9)  3.520855  2.383081  1.080500  2.385418  3.496312  3.967149
   H ( 10)  3.783639  3.260729  2.233353  1.088263  2.201598  3.406032
   H ( 11)  3.246024  3.785153  3.490829  2.237753  1.087562  2.076478
   C ( 12)  2.566753  1.522122  1.462000  1.519083  2.582523  2.992440
   H ( 13)  3.496291  2.385106  2.343847  2.383396  3.521240  3.967235
             H (  7)   H (  8)   H (  9)   H ( 10)   H ( 11)   C ( 12)
   H (  8)  2.525447
   H (  9)  4.377322  2.748287
   H ( 10)  4.869364  4.192070  2.755827
   H ( 11)  4.140130  4.869396  4.308513  2.525855
   C ( 12)  3.490709  2.234021  2.343942  2.227266  3.531801
   H ( 13)  4.308162  2.756331  2.959198  2.748979  4.377626  1.080516

 
 A cutoff of  1.0D-14 yielded   1391 shell pairs
 There are     13471 function pairs
 
 -------------------------------------------------------
 OpenMP Integral Computing Module                       
 Release: version 1.0, May 2013, Q-Chem Inc. Pittsburgh 
 -------------------------------------------------------
 Integral Job Info:
 Integral job number is                      11
 Integral operator is                         1
 short-range coefficients                     0
 long-range coefficients              100000000
 Omega coefficients                           0
 if combine SR and LR in K                    0
 Integral screening is                        0
 Integral computing path is                   2
 max size of driver memory is            800000
 size of driver memory is                593474
 size of scratch memory is              2361544
 max col of scratch BK array               1296
 max len of scratch array in speh3          155
 max len of scratch index in speh4           18
 max int batch size is                      520
 min int batch size is                       52
 fixed nKL is                                52
 max L of basis functions is                  2
 order of int derivative is                   0
 number of shells is                         53
 number of basis is                         163
 number of cartesian basis is               163
 number of contracted shell pairs          1391
 number of primitive shell pairs           4772
 maxK2 (contraction) of shell pair           36
 max number of K2 of shell pair               1
 max number of CS2 of shell pair            126
 max number of PS2 of shell pair            660
 mem total for path MDJ                  535308
 -------------------------------------------------------
 Smallest overlap matrix eigenvalue = 4.90E-05

 Scale SEOQF with 1.000000e-01/1.000000e-01/1.000000e-01

 Standard Electronic Orientation quadrupole field applied
 Nucleus-field energy     =     0.0000000051 hartrees
 Guess MOs from SCF MO coefficient file
 Reading MOs from coefficient file
 Reading MOs from coefficient file
 An unrestricted hybrid HF-DFT SCF calculation will be
 performed using Pulay DIIS extrapolation
 Exchange:     0.2000 Hartree-Fock + 0.0800 Slater + 0.7200 B88
 Correlation:  0.1900 VWN1RPA + 0.8100 LYP
 Using SG-1 standard quadrature grid
 SCF converges when DIIS error is below 1.0E-08
Using Q-Chem read-in guess as SCF_GUESS READ specified.

 using 4 threads for integral computing
 -------------------------------------------------------
 OpenMP Integral computing Module                
 Release: version 1.0, May 2013, Q-Chem Inc. Pittsburgh 
 -------------------------------------------------------
 -------------------------------------------------------
 OpenMP BLAS3 based DFT computing Module                
 Release: version 1.0, May 2013, Q-Chem Inc. Pittsburgh 
 -------------------------------------------------------
 ---------------------------------------
  Cycle       Energy         DIIS Error
 ---------------------------------------
    1    -286.8792598887      8.75E-10
    2    -286.8792598887      1.39E-09 Convergence criterion met
 ---------------------------------------
 One-Electron    Energy =  -934.4862992331
 Total Coulomb   Energy =   412.1402419607
 Alpha Exchange  Energy =    -4.0210179605
 Beta  Exchange  Energy =    -3.9337397535
 DFT   Exchange  Energy =   -31.5917029977
 DFT Correlation Energy =    -2.1130428830
 Nuclear Repu.   Energy =   277.1263009784
 Nuclear Attr.   Energy = -1218.5989604008
 Kinetic         Energy =   284.1126611677
 <S^2> = 0.7726
 SCF time:  CPU 10.21 s  wall 4.70 s
 Final Alpha MO Eigenvalues
            1           2           3           4           5           6
    1 -14.3309527 -10.2258888 -10.2258632 -10.2255452 -10.2254319 -10.2249854
            7           8           9          10          11          12
    1 -10.2247418  -0.9702498  -0.9072320  -0.7598917  -0.6523870  -0.6447127
           13          14          15          16          17          18
    1  -0.5972034  -0.5528721  -0.4895756  -0.4817467  -0.4733203  -0.4169627
           19          20          21          22          23          24
    1  -0.4044616  -0.3734371  -0.3480302  -0.3099708  -0.3084736  -0.2386144
           25          26          27          28          29          30
    1  -0.1835337  -0.0085210  -0.0012358   0.0166000   0.0233518   0.0297226
 Final Beta MO Eigenvalues
            1           2           3           4           5           6
    1 -14.3344529 -10.2261534 -10.2261232 -10.2234563 -10.2231005 -10.2175580
            7           8           9          10          11          12
    1 -10.2175361  -0.9661727  -0.9045182  -0.7481354  -0.6405950  -0.6397880
           13          14          15          16          17          18
    1  -0.5923984  -0.5502143  -0.4835202  -0.4762435  -0.4715787  -0.4133569
           19          20          21          22          23          24
    1  -0.3874449  -0.3700256  -0.3332431  -0.3086486  -0.3045940  -0.2388720
           25          26          27          28          29
    1  -0.0796178  -0.0010022   0.0007220   0.0166411   0.0238282
 SCF   energy in the final basis set = -286.87925989
 Total energy in the final basis set = -286.87925989
 
 --------------------------------------------------------------
 
                    Orbital Energies (a.u.)
 --------------------------------------------------------------
 
 Alpha MOs
 -- Occupied --
-14.331 -10.226 -10.226 -10.226 -10.225 -10.225 -10.225  -0.970
 -0.907  -0.760  -0.652  -0.645  -0.597  -0.553  -0.490  -0.482
 -0.473  -0.417  -0.404  -0.373  -0.348  -0.310  -0.308  -0.239
 -0.184
 -- Virtual --
 -0.009  -0.001   0.017   0.023   0.030   0.044   0.053   0.062
  0.064   0.077   0.087   0.095   0.097   0.115   0.116   0.118
  0.123   0.143   0.147   0.149   0.162   0.173   0.179   0.186
  0.193   0.198   0.211   0.224   0.228   0.236   0.251   0.258
  0.259   0.269   0.309   0.309   0.313   0.317   0.322   0.324
  0.344   0.368   0.455   0.474   0.632   0.638   0.641   0.661
  0.675   0.711   0.736   0.740   0.745   0.751   0.784   0.786
  0.819   0.840   0.860   0.903   0.936   0.954   0.958   0.977
  1.012   1.023   1.044   1.087   1.113   1.136   1.152   1.154
  1.193   1.205   1.326   1.354   1.400   1.401   1.468   1.505
  1.546   1.562   1.594   1.653   1.729   1.775   1.789   1.810
  1.849   1.906   1.941   1.957   1.983   2.078   2.079   2.162
  2.165   2.174   2.197   2.272   2.334   2.347   2.367   2.395
  2.410   2.419   2.436   2.478   2.513   2.531   2.545   2.555
  2.597   2.609   2.613   2.661   2.676   2.705   2.762   2.882
  2.912   2.927   2.962   3.141   3.148   3.277   3.296   3.424
  3.521   3.571   3.684   4.171   4.315   4.400   4.600   4.606
  4.712   4.740
 
 Beta MOs
 -- Occupied --
-14.334 -10.226 -10.226 -10.223 -10.223 -10.218 -10.218  -0.966
 -0.905  -0.748  -0.641  -0.640  -0.592  -0.550  -0.484  -0.476
 -0.472  -0.413  -0.387  -0.370  -0.333  -0.309  -0.305  -0.239
 -- Virtual --
 -0.080  -0.001   0.001   0.017   0.024   0.038   0.045   0.053
  0.062   0.065   0.079   0.087   0.097   0.106   0.115   0.117
  0.118   0.130   0.144   0.148   0.151   0.162   0.173   0.181
  0.192   0.196   0.199   0.211   0.231   0.232   0.238   0.250
  0.264   0.265   0.269   0.310   0.311   0.316   0.318   0.328
  0.329   0.345   0.372   0.459   0.479   0.637   0.643   0.660
  0.662   0.680   0.738   0.745   0.746   0.754   0.756   0.788
  0.788   0.824   0.847   0.862   0.909   0.939   0.955   0.958
  0.979   1.007   1.024   1.044   1.086   1.126   1.143   1.154
  1.155   1.195   1.207   1.339   1.355   1.407   1.417   1.475
  1.508   1.560   1.570   1.595   1.664   1.734   1.776   1.793
  1.813   1.863   1.907   1.950   1.965   1.988   2.080   2.080
  2.167   2.170   2.188   2.211   2.275   2.334   2.354   2.371
  2.398   2.413   2.430   2.436   2.480   2.526   2.537   2.549
  2.566   2.599   2.610   2.625   2.666   2.685   2.713   2.763
  2.883   2.914   2.931   2.967   3.143   3.152   3.278   3.297
  3.426   3.523   3.572   3.686   4.167   4.329   4.409   4.604
  4.611   4.721   4.744
 --------------------------------------------------------------
 
          Ground-State Mulliken Net Atomic Charges

     Atom                 Charge (a.u.)    Spin (a.u.)
  --------------------------------------------------------
      1 C                    -0.102096       0.605304
      2 C                    -0.172537      -0.050673
      3 C                    -0.014634       0.081371
      4 C                    -0.172442      -0.050514
      5 C                    -0.100730       0.605498
      6 N                    -0.216193      -0.201458
      7 H                     0.124253      -0.032264
      8 H                     0.130459       0.000798
      9 H                     0.141359      -0.003998
     10 H                     0.130377       0.000794
     11 H                     0.124263      -0.032280
     12 C                    -0.013514       0.081421
     13 H                     0.141436      -0.003999
  --------------------------------------------------------
  Sum of atomic charges =    -0.000000
  Sum of spin   charges =     1.000000

 -----------------------------------------------------------------
                    Cartesian Multipole Moments
 -----------------------------------------------------------------
    Charge (ESU x 10^10)
                 0.0000
    Dipole Moment (Debye)
         X      -1.6232      Y      -2.7940      Z       0.3921
       Tot       3.2550
    Quadrupole Moments (Debye-Ang)
        XX     -38.6999     XY      -4.0806     YY     -43.5671
        XZ       0.8692     YZ      -0.0303     ZZ     -42.5675
    Octopole Moments (Debye-Ang^2)
       XXX     -11.4961    XXY     -11.3758    XYY     -14.9583
       YYY     -34.7824    XXZ       2.1667    XYZ       1.4658
       YYZ       0.9841    XZZ      -7.1510    YZZ     -11.7052
       ZZZ       4.9684
    Hexadecapole Moments (Debye-Ang^3)
      XXXX    -281.5843   XXXY     -29.2215   XXYY    -117.0219
      XYYY     -50.6077   YYYY    -370.1247   XXXZ       3.2796
      XXYZ       6.9687   XYYZ       5.7494   YYYZ      20.7280
      XXZZ     -72.3200   XYZZ      -4.7823   YYZZ     -75.5762
      XZZZ      -1.3231   YZZZ      18.8781   ZZZZ    -107.5654
 -----------------------------------------------------------------
 Mayer SCF Bond Order, atomic valence on the diagonal:

            1           2           3           4           5           6
    1   3.5212256   0.9074458   0.0499204  -0.0037376   0.1727377   1.3447355
    2   0.9074458   4.0365236   1.1192872  -0.0027420  -0.0040514  -0.0196118
    3   0.0499204   1.1192872   3.8572732   1.1159753   0.0382695   0.0286431
    4  -0.0037376  -0.0027420   1.1159753   4.0389316   0.9072145  -0.0195126
    5   0.1727377  -0.0040514   0.0382695   0.9072145   3.5186606   1.3444835
    6   1.3447355  -0.0196118   0.0286431  -0.0195126   1.3444835   2.6814250
    7   0.9971923  -0.0527743   0.0116076  -0.0002712   0.0082325  -0.0294997
    8   0.0144070   0.8510319   0.0196244   0.0390125  -0.0030364   0.0109084
    9  -0.0037104   0.0430981   0.8426904   0.0412316  -0.0022513   0.0057797
   10  -0.0030302   0.0390374   0.0195816   0.8508458   0.0144117   0.0109125
   11   0.0082713  -0.0002943   0.0095106  -0.0526887   0.9970663  -0.0294510
   12   0.0391261   1.1150978   0.5716660   1.1206196   0.0494963   0.0282441
   13  -0.0021324   0.0409992   0.0304972   0.0429845  -0.0039124   0.0057931
            7           8           9          10          11          12
    1   0.9971923   0.0144070  -0.0037104  -0.0030302   0.0082713   0.0391261
    2  -0.0527743   0.8510319   0.0430981   0.0390374  -0.0002943   1.1150978
    3   0.0116076   0.0196244   0.8426904   0.0195816   0.0095106   0.5716660
    4  -0.0002712   0.0390125   0.0412316   0.8508458  -0.0526887   1.1206196
    5   0.0082325  -0.0030364  -0.0022513   0.0144117   0.9970663   0.0494963
    6  -0.0294997   0.0109084   0.0057797   0.0109125  -0.0294510   0.0282441
    7   0.9460336   0.0001503   0.0002069   0.0000809   0.0014341   0.0095097
    8   0.0001503   0.9559267   0.0001059   0.0039150   0.0000807   0.0195786
    9   0.0002069   0.0001059   0.9590789   0.0001467   0.0001647   0.0303295
   10   0.0000809   0.0039150   0.0001467   0.9559514   0.0001505   0.0197936
   11   0.0014341   0.0000807   0.0001647   0.0001505   0.9460693   0.0116188
   12   0.0095097   0.0195786   0.0303295   0.0197936   0.0116188   3.8579767
   13   0.0001645   0.0001483   0.0012871   0.0001059   0.0002061   0.8428965
           13
    1  -0.0021324
    2   0.0409992
    3   0.0304972
    4   0.0429845
    5  -0.0039124
    6   0.0057931
    7   0.0001645
    8   0.0001483
    9   0.0012871
   10   0.0001059
   11   0.0002061
   12   0.8428965
   13   0.9590376


Archival summary:
1\1\c8-73\SP\ProcedureUnspecified\6-31+G**\166(2)\hpark21\WedMar216:49:002022WedMar216:49:002022\0\\#,ProcedureUnspecified,6-31+G**,\\0,2\N\C,1,1.33277\H,2,1.0875,1,117.795\C,1,1.3329,2,115.939,3,-177.145,0\H,4,1.08756,1,117.804,2,-177.166,0\C,2,1.4826,1,121.893,3,178.532,0\H,6,1.08835,2,116.958,1,178.038,0\C,4,1.48263,1,121.892,2,1.42568,0\H,8,1.08826,4,116.99,1,178.092,0\C,6,1.51904,2,118.705,1,30.2012,0\H,10,1.0805,6,132.178,2,129.426,0\C,10,1.462,6,61.3723,2,-105.777,0\H,12,1.08052,10,133.847,6,-122.132,0\\\@

 Total job time:  8.90s(wall), 12.06s(cpu) 
 Wed Mar  2 16:49:00 2022

        *************************************************************
        *                                                           *
        *  Thank you very much for using Q-Chem.  Have a nice day.  *
        *                                                           *
        *************************************************************


