
Running Job 1 of 1 qcts2.in
qchem qcts2.in_52078.0 ./qcts2.d/ 1
/home/leeping/opt/qchem/5.0.2-openmp/exe/qcprog.exe_s qcts2.in_52078.0 ./qcts2.d/
Check license passed

                  Welcome to Q-Chem
     A Quantum Leap Into The Future Of Chemistry


 Q-Chem 5.0, Q-Chem, Inc., Pleasanton, CA (2017)

 Yihan Shao,  Zhengting Gan,  E. Epifanovsky,  A. T. B. Gilbert,  M. Wormit,  
 J. Kussmann,  A. W. Lange,  A. Behn,  Jia Deng,  Xintian Feng,  D. Ghosh,  
 M. Goldey,  P. R. Horn,  L. D. Jacobson,  I. Kaliman,  T. Kus,  A. Landau,  
 Jie Liu,  E. I. Proynov,  R. M. Richard,  R. P. Steele,  E. J. Sundstrom,  
 H. L. Woodcock III,  P. M. Zimmerman,  D. Zuev,  B. Albrecht,  E. Alguire,  
 S. A. Baeppler,  D. Barton,  Z. Benda,  Y. A. Bernard,  E. J. Berquist,  
 K. B. Bravaya,  H. Burton,  D. Casanova,  Chun-Min Chang,  Yunqing Chen,  
 A. Chien,  K. D. Closser,  M. P. Coons,  S. Dasgupta,  A. L. Dempwolff,  
 M. Diedenhofen,  Hainam Do,  R. G. Edgar,  Po-Tung Fang,  S. Fatehi,  
 Qingguo Feng,  J. Fosso-Tande,  Qinghui Ge,  A. Ghysels,  G. Gidofalvi,  
 J. Gomes,  J. Gonthier,  A. Gunina,  M. W. D. Hanson-Heine,  
 P. H. P. Harbach,  A. W. Hauser,  J. E. Herr,  E. G. Hohenstein,  
 Z. C. Holden,  Kerwin Hui,  T.-C. Jagau,  Hyunjun Ji,  B. Kaduk,  
 K. Khistyaev,  Jaehoon Kim,  P. Klunzinger,  K. Koh,  D. Kosenkov,  
 L. Koulias,  T. Kowalczyk,  C. M. Krauter,  A. Kunitsa,  Ka Un Lao,  
 A. Laurent,  K. V. Lawler,  Joonho Lee,  D. Lefrancois,  S. Lehtola,  
 D. S. Levine,  Yi-Pei Li,  You-Sheng Lin,  Fenglai Liu,  E. Livshits,  
 A. Luenser,  P. Manohar,  E. Mansoor,  S. F. Manzer,  Shan-Ping Mao,  
 Yuezhi Mao,  N. Mardirossian,  A. V. Marenich,  T. Markovich,  
 L. A. Martinez-Martinez,  S. A. Maurer,  N. J. Mayhall,  S. C. McKenzie,  
 J.-M. Mewes,  A. F. Morrison,  J. W. Mullinax,  K. Nanda,  
 T. S. Nguyen-Beck,  R. Olivares-Amaya,  J. A. Parkhill,  T. M. Perrine,  
 F. Plasser,  S. Prager,  A. Prociuk,  E. Ramos,  D. R. Rehn,  F. Rob,  
 M. Schneider,  N. Sergueev,  S. M. Sharada,  S. Sharma,  D. W. Small,  
 T. Stauch,  T. Stein,  Yu-Chuan Su,  A. J. W. Thom,  A. Tkatchenko,  
 T. Tsuchimochi,  L. Vogt,  O. Vydrov,  M. A. Watson,  J. Wenzel,  
 M. de Wergifosse,  T. A. Wesolowski,  A. White,  J. Witte,  A. Yamada,  
 Jun Yang,  K. Yao,  S. Yeganeh,  S. R. Yost,  Zhi-Qiang You,  A. Zech,  
 Igor Ying Zhang,  Xing Zhang,  Yan Zhao,  Ying Zhu,  B. R. Brooks,  
 G. K. L. Chan,  C. J. Cramer,  M. S. Gordon,  W. J. Hehre,  A. Klamt,  
 M. W. Schmidt,  C. D. Sherrill,  D. G. Truhlar,  A. Aspuru-Guzik,  R. Baer,  
 A. T. Bell,  N. A. Besley,  Jeng-Da Chai,  R. A. DiStasio Jr.,  A. Dreuw,  
 B. D. Dunietz,  T. R. Furlani,  Chao-Ping Hsu,  Yousung Jung,  Jing Kong,  
 D. S. Lambrecht,  WanZhen Liang,  C. Ochsenfeld,  V. A. Rassolov,  
 L. V. Slipchenko,  J. E. Subotnik,  T. Van Voorhis,  J. M. Herbert,  
 A. I. Krylov,  P. M. W. Gill,  M. Head-Gordon

 Contributors to earlier versions of Q-Chem not listed above: 
 R. D. Adamson,  B. Austin,  J. Baker,  G. J. O. Beran,  K. Brandhorst,  
 S. T. Brown,  E. F. C. Byrd,  A. K. Chakraborty,  C.-L. Cheng,  
 Siu Hung Chien,  D. M. Chipman,  D. L. Crittenden,  H. Dachsel,  
 R. J. Doerksen,  A. D. Dutoi,  L. Fusti-Molnar,  W. A. Goddard III,  
 A. Golubeva-Zadorozhnaya,  S. R. Gwaltney,  G. Hawkins,  A. Heyden,  
 S. Hirata,  G. Kedziora,  F. J. Keil,  C. Kelley,  Jihan Kim,  R. A. King,  
 R. Z. Khaliullin,  P. P. Korambath,  W. Kurlancheek,  A. M. Lee,  M. S. Lee,  
 S. V. Levchenko,  Ching Yeh Lin,  D. Liotard,  R. C. Lochan,  I. Lotan,  
 P. E. Maslen,  N. Nair,  D. P. O'Neill,  D. Neuhauser,  E. Neuscamman,  
 C. M. Oana,  R. Olson,  B. Peters,  R. Peverati,  P. A. Pieniazek,  
 Y. M. Rhee,  J. Ritchie,  M. A. Rohrdanz,  E. Rosta,  N. J. Russ,  
 H. F. Schaefer III,  N. E. Schultz,  N. Shenvi,  A. C. Simmonett,  A. Sodt,  
 D. Stuck,  K. S. Thanthiriwatte,  V. Vanovschi,  Tao Wang,  A. Warshel,  
 C. F. Williams,  Q. Wu,  X. Xu,  W. Zhang

 Please cite Q-Chem as follows:
 Y. Shao et al., Mol. Phys. 113, 184-215 (2015)
 DOI: 10.1080/00268976.2014.952696

 Q-Chem 5.0.2 for Intel X86 EM64T Linux

 Parts of Q-Chem use Armadillo 5.200.1 (Boston Tea Smuggler).
 http://arma.sourceforge.net/

 Q-Chem begins on Wed Mar  2 11:57:13 2022  

Host: 
0

     Scratch files written to ./qcts2.d//
 Dec517 15110_ 26548  26544 5633   
Processing $rem in /home/leeping/opt/qchem/5.0.2-openmp/config/preferences.
 MEM_STATIC 2000
 MEM_TOTAL  8000
 SYMMETRY   OFF
 SYM_IGNORE TRUE 

Checking the input file for inconsistencies... 	...done.

--------------------------------------------------------------
User input:
--------------------------------------------------------------
$molecule
0 2
C        1.3586352266    0.4036884407    0.2240864355
C        0.8089703589   -0.9180285992   -0.2332450540
C       -0.5244386742   -0.8717108452   -0.9057546372
C       -1.0747660992    0.3169841336   -0.0428655972
C       -0.4047779643    1.5870781442   -0.3957180554
N        0.8856618472    1.6126266754   -0.1978300457
H        2.2611051455    0.3712494226    0.8274358536
H        1.4263197578   -1.8096138920   -0.1941284227
H       -1.0813423222   -1.8088943857   -0.9204125873
H       -2.1460531454    0.3331709506    0.1491896865
H       -0.9225507945    2.4349849892   -0.8355683221
C       -0.1611721598   -0.5332232190    0.8429671317
H       -0.4865033758   -1.1586753625    1.6725487411
$end

$rem
method                b3lyp
basis                 6-31+g(d,p)
unrestricted          true
symmetry              off
sym_ignore            true
incdft                false
incfock               0
scf_convergence       6
thresh                14
jobtype               sp
scf_guess             read
scf_algorithm         diis
max_scf_cycles        100
stability_analysis    true
max_cis_cycles        100
cis_n_roots           4
$end

--------------------------------------------------------------
 ----------------------------------------------------------------
             Standard Nuclear Orientation (Angstroms)
    I     Atom           X                Y                Z
 ----------------------------------------------------------------
    1      C       1.3586352266     0.4036884407     0.2240864355
    2      C       0.8089703589    -0.9180285992    -0.2332450540
    3      C      -0.5244386742    -0.8717108452    -0.9057546372
    4      C      -1.0747660992     0.3169841336    -0.0428655972
    5      C      -0.4047779643     1.5870781442    -0.3957180554
    6      N       0.8856618472     1.6126266754    -0.1978300457
    7      H       2.2611051455     0.3712494226     0.8274358536
    8      H       1.4263197578    -1.8096138920    -0.1941284227
    9      H      -1.0813423222    -1.8088943857    -0.9204125873
   10      H      -2.1460531454     0.3331709506     0.1491896865
   11      H      -0.9225507945     2.4349849892    -0.8355683221
   12      C      -0.1611721598    -0.5332232190     0.8429671317
   13      H      -0.4865033758    -1.1586753625     1.6725487411
 ----------------------------------------------------------------
 Nuclear Repulsion Energy =   280.4484947744 hartrees
 There are       25 alpha and       24 beta electrons
 Requested basis set is 6-31+G(d,p)
 There are 53 shells and 163 basis functions

 Total QAlloc Memory Limit   8000 MB
 Mega-Array Size      1956 MB
 MEM_STATIC part      2000 MB

                       Distance Matrix (Angstroms)
             C (  1)   C (  2)   C (  3)   C (  4)   C (  5)   N (  6)
   C (  2)  1.502737
   C (  3)  2.539518  1.494120
   C (  4)  2.449535  2.260523  1.568577
   C (  5)  2.212283  2.788394  2.513981  1.478691
   N (  6)  1.365009  2.532065  2.943038  2.354991  1.305775
   H (  7)  1.086064  2.212686  3.508298  3.447957  3.175103  2.117553
   H (  8)  2.253484  1.085161  2.278493  3.286446  3.864075  3.464687
   H (  9)  3.486960  2.199801  1.090261  2.299889  3.502238  4.012236
   H ( 10)  3.506198  3.231706  2.279097  1.088487  2.213876  3.308886
   H ( 11)  3.233086  3.821473  3.331315  2.266600  1.086510  2.086292
   C ( 12)  1.889611  1.499161  1.817846  1.530427  2.467663  2.604571
   H ( 13)  2.818432  2.316940  2.594501  2.338006  3.438542  3.614038
             H (  7)   H (  8)   H (  9)   H ( 10)   H ( 11)   C ( 12)
   H (  8)  2.548848
   H (  9)  4.356599  2.610720
   H ( 10)  4.459205  4.179862  2.620325
   H ( 11)  4.142494  4.893389  4.247696  2.623800
   C ( 12)  2.585680  2.285798  2.362955  2.274141  3.493915
   H ( 13)  3.256415  2.750836  2.738625  2.701913  4.403996  1.088686

 
 A cutoff of  1.0D-14 yielded   1398 shell pairs
 There are     13494 function pairs
 Smallest overlap matrix eigenvalue = 4.02E-05

 Scale SEOQF with 1.000000e-01/1.000000e-01/1.000000e-01

 Standard Electronic Orientation quadrupole field applied
 Nucleus-field energy     =     0.0000000042 hartrees
 Guess MOs from SCF MO coefficient file
 Reading MOs from coefficient file
 Reading MOs from coefficient file
 An unrestricted hybrid HF-DFT SCF calculation will be
 performed using Pulay DIIS extrapolation
 Exchange:     0.2000 Hartree-Fock + 0.0800 Slater + 0.7200 B88
 Correlation:  0.1900 VWN1RPA + 0.8100 LYP
 Using SG-1 standard quadrature grid
 SCF converges when DIIS error is below 1.0E-06
Using Q-Chem read-in guess as SCF_GUESS READ specified.

 -------------------------------------------------------
 OpenMP BLAS3 based DFT computing Module                
 -------------------------------------------------------
 ---------------------------------------
  Cycle       Energy         DIIS Error
 ---------------------------------------
    1    -286.8140801615      2.31E-09
    2    -286.8140801615      3.50E-09 Convergence criterion met
 ---------------------------------------
 <S^2> = 0.7774
 SCF time:  CPU 6.94 s  wall 12.94 s
 SCF   energy in the final basis set = -286.81408016
 Total energy in the final basis set = -286.81408016
 
 Direct TDDFT/TDA calculation will be performed
 Exchange:     0.2000 Hartree-Fock + 0.0800 Slater + 0.7200 B88
 Correlation:  0.1900 VWN1RPA + 0.8100 LYP
 Using SG-1 standard quadrature grid
 CIS energy converged when residual is below 10e- 6
 ---------------------------------------------------
 Iter    Rts Conv    Rts Left    Ttl Dev     Max Dev
 ---------------------------------------------------
   1         0           4      0.003000    0.001493
   2         0           4      0.000769    0.000283
   3         0           4      0.000403    0.000215
   4         0           4      0.000147    0.000088
   5         0           4      0.000056    0.000034
   6         0           4      0.000021    0.000015
   7         3           1      0.000008    0.000006
   8         3           1      0.000003    0.000002
   9         4           0      0.000002    0.000001    Roots Converged
 ---------------------------------------------------
 
 ---------------------------------------------------
         TDDFT/TDA Excitation Energies              
 ---------------------------------------------------

 Excited state   1: excitation energy (eV) =    1.7335
 Total energy for state  1:                  -286.75037425 au
    <S**2>     :  0.7799
    Trans. Mom.: -0.1117 X  -0.6360 Y  -0.1951 Z
    Strength   :     0.0193242336
    S(  1) --> V(  1) amplitude =  0.9707 alpha
    D( 24) --> S(  1) amplitude = -0.1727 beta

 Excited state   2: excitation energy (eV) =    2.7224
 Total energy for state  2:                  -286.71403354 au
    <S**2>     :  0.7914
    Trans. Mom.:  0.1350 X   0.3045 Y  -0.2127 Z
    Strength   :     0.0104182386
    S(  1) --> V(  2) amplitude =  0.9951 alpha

 Excited state   3: excitation energy (eV) =    3.1697
 Total energy for state  3:                  -286.69759571 au
    <S**2>     :  0.8117
    Trans. Mom.: -0.2683 X   0.1744 Y   0.0432 Z
    Strength   :     0.0080992276
    S(  1) --> V(  3) amplitude =  0.8542 alpha
    S(  1) --> V(  4) amplitude = -0.4091 alpha
    S(  1) --> V(  6) amplitude = -0.1683 alpha

 Excited state   4: excitation energy (eV) =    3.3955
 Total energy for state  4:                  -286.68929788 au
    <S**2>     :  0.7911
    Trans. Mom.: -0.1371 X   0.1211 Y  -0.0262 Z
    Strength   :     0.0028392066
    S(  1) --> V(  3) amplitude =  0.4417 alpha
    S(  1) --> V(  4) amplitude =  0.8933 alpha
 
 ---------------------------------------------------

 Stability analysis will be performed
 ---------------------------------------------------
 Iter    Rts Conv    Rts Left    Ttl Dev     Max Dev
 ---------------------------------------------------
   1         0           8      0.003150    0.000716
   2         0           8      0.001053    0.000354
   3         0           8      0.000725    0.000328
   4         2           6      0.001185    0.000705
   5         4           4      0.000592    0.000272
   6         4           4      0.000280    0.000133
   7         4           4      0.000082    0.000039
   8         6           2      0.000028    0.000013
   9         6           2      0.000010    0.000004
  10         7           1      0.000005    0.000001
  11         8           0      0.000004    0.000001    Roots Converged
 UKS-> UKS   stable,    smallest eigenvalue:      0.0546864
 UKS->CUKS   stable,    smallest eigenvalue:      0.0588862
 ---------------------------------------------------
  SETman timing summary (seconds)
  CPU time               179.85s
  System time              0.00s
  Wall time              242.36s
 
 --------------------------------------------------------------
 
                    Orbital Energies (a.u.)
 --------------------------------------------------------------
 
 Alpha MOs
 -- Occupied --
-14.332 -10.250 -10.246 -10.232 -10.230 -10.228 -10.220  -0.979
 -0.888  -0.767  -0.655  -0.637  -0.614  -0.556  -0.505  -0.461
 -0.449  -0.433  -0.422  -0.381  -0.374  -0.321  -0.281  -0.256
 -0.140
 -- Virtual --
 -0.036  -0.007   0.014   0.016   0.027   0.037   0.052   0.053
  0.065   0.069   0.074   0.096   0.098   0.102   0.108   0.111
  0.120   0.129   0.142   0.149   0.157   0.166   0.172   0.183
  0.187   0.199   0.208   0.217   0.231   0.240   0.244   0.249
  0.252   0.266   0.280   0.285   0.307   0.317   0.324   0.342
  0.360   0.365   0.438   0.460   0.616   0.622   0.638   0.672
  0.692   0.706   0.719   0.740   0.748   0.754   0.771   0.791
  0.808   0.840   0.873   0.890   0.918   0.927   0.962   0.976
  0.998   1.019   1.037   1.068   1.084   1.102   1.133   1.148
  1.176   1.223   1.306   1.338   1.359   1.404   1.444   1.481
  1.521   1.588   1.596   1.676   1.713   1.735   1.803   1.835
  1.862   1.903   1.945   1.986   2.038   2.062   2.095   2.159
  2.176   2.187   2.260   2.269   2.295   2.341   2.360   2.365
  2.418   2.424   2.456   2.490   2.508   2.514   2.539   2.556
  2.574   2.589   2.628   2.650   2.674   2.707   2.715   2.755
  2.819   2.883   2.963   3.080   3.109   3.290   3.312   3.375
  3.444   3.499   3.670   4.194   4.378   4.453   4.533   4.581
  4.653   4.708
 
 Beta MOs
 -- Occupied --
-14.332 -10.251 -10.243 -10.228 -10.227 -10.224 -10.216  -0.974
 -0.884  -0.759  -0.647  -0.627  -0.610  -0.553  -0.500  -0.458
 -0.443  -0.429  -0.412  -0.374  -0.367  -0.303  -0.275  -0.246
 -- Virtual --
 -0.053  -0.021  -0.007   0.015   0.020   0.029   0.040   0.053
  0.059   0.065   0.072   0.076   0.096   0.098   0.103   0.109
  0.112   0.122   0.131   0.143   0.152   0.158   0.167   0.174
  0.184   0.190   0.201   0.212   0.218   0.232   0.245   0.247
  0.251   0.255   0.269   0.283   0.290   0.309   0.319   0.327
  0.344   0.365   0.371   0.443   0.466   0.620   0.628   0.641
  0.670   0.699   0.720   0.731   0.748   0.752   0.758   0.776
  0.797   0.814   0.844   0.882   0.894   0.922   0.930   0.964
  0.979   1.003   1.021   1.038   1.072   1.085   1.107   1.139
  1.153   1.182   1.228   1.312   1.345   1.366   1.405   1.451
  1.486   1.526   1.593   1.604   1.680   1.721   1.744   1.817
  1.839   1.868   1.907   1.949   1.990   2.045   2.066   2.105
  2.166   2.182   2.192   2.265   2.275   2.301   2.343   2.369
  2.370   2.421   2.427   2.460   2.496   2.515   2.518   2.545
  2.569   2.581   2.594   2.634   2.657   2.679   2.711   2.718
  2.760   2.823   2.886   2.967   3.083   3.112   3.291   3.312
  3.381   3.445   3.502   3.673   4.195   4.385   4.469   4.538
  4.588   4.654   4.712
 --------------------------------------------------------------
 
          Ground-State Mulliken Net Atomic Charges

     Atom                 Charge (a.u.)    Spin (a.u.)
  --------------------------------------------------------
      1 C                    -0.240828       0.259613
      2 C                    -0.064551       0.037157
      3 C                    -0.146185       0.613647
      4 C                    -0.270023      -0.045712
      5 C                     0.021730       0.245152
      6 N                    -0.196743      -0.012622
      7 H                     0.142755      -0.009917
      8 H                     0.150299      -0.007023
      9 H                     0.152428      -0.003579
     10 H                     0.139736      -0.002810
     11 H                     0.128476      -0.013594
     12 C                     0.034920      -0.076154
     13 H                     0.147987       0.015842
  --------------------------------------------------------
  Sum of atomic charges =    -0.000000
  Sum of spin   charges =     1.000000

 -----------------------------------------------------------------
                    Cartesian Multipole Moments
 -----------------------------------------------------------------
    Charge (ESU x 10^10)
                -0.0000
    Dipole Moment (Debye)
         X      -1.3218      Y      -2.8347      Z       1.3732
       Tot       3.4159
    Quadrupole Moments (Debye-Ang)
        XX     -39.2503     XY      -4.5800     YY     -43.4362
        XZ       1.0765     YZ      -1.4006     ZZ     -44.3187
    Octopole Moments (Debye-Ang^2)
       XXX     -13.1626    XXY     -12.2574    XYY     -13.2835
       YYY     -35.7246    XXZ       6.8979    XYZ       2.7770
       YYZ       1.6840    XZZ      -4.2227    YZZ      -8.8780
       ZZZ      16.8610
    Hexadecapole Moments (Debye-Ang^3)
      XXXX    -247.8448   XXXY     -19.1906   XXYY    -106.2589
      XYYY     -36.7411   YYYY    -356.0806   XXXZ      -5.7330
      XXYZ       5.0951   XYYZ       1.6158   YYYZ       4.1295
      XXZZ     -67.2423   XYZZ      -4.4799   YYZZ     -79.7809
      XZZZ     -16.5739   YZZZ       1.2265   ZZZZ    -145.8225
 -----------------------------------------------------------------
Archival summary:
1\1\c8-73\SP\ProcedureUnspecified\6-31+G**\166(2)\hpark21\WedMar212:01:362022WedMar212:01:362022\0\\#,ProcedureUnspecified,6-31+G**,\\0,2\N\C,1,1.30577\H,2,1.08651,1,121.133\C,1,1.36501,2,111.836,3,-173.291,0\H,4,1.08606,1,119.084,2,-153.189,0\C,2,1.47869,1,115.367,3,177.171,0\H,6,1.08849,2,118.377,1,158.958,0\C,4,1.50274,1,123.929,2,34.8042,0\H,8,1.08516,4,120.237,1,155.998,0\C,8,1.49412,4,115.858,1,-15.57,0\H,10,1.09026,8,115.802,4,-159.156,0\C,8,1.49916,4,78.0223,1,-81.938,0\H,12,1.08869,8,126.366,4,-129.945,0\\\@

 Total job time:  263.06s(wall), 187.03s(cpu) 
 Wed Mar  2 12:01:36 2022

        *************************************************************
        *                                                           *
        *  Thank you very much for using Q-Chem.  Have a nice day.  *
        *                                                           *
        *************************************************************


