
Running Job 1 of 1 qcts1.in
qchem qcts1.in_50160.0 ./qcts1.d/ 1
/home/leeping/opt/qchem/5.0.2-openmp/exe/qcprog.exe_s qcts1.in_50160.0 ./qcts1.d/
Check license passed

                  Welcome to Q-Chem
     A Quantum Leap Into The Future Of Chemistry


 Q-Chem 5.0, Q-Chem, Inc., Pleasanton, CA (2017)

 Yihan Shao,  Zhengting Gan,  E. Epifanovsky,  A. T. B. Gilbert,  M. Wormit,  
 J. Kussmann,  A. W. Lange,  A. Behn,  Jia Deng,  Xintian Feng,  D. Ghosh,  
 M. Goldey,  P. R. Horn,  L. D. Jacobson,  I. Kaliman,  T. Kus,  A. Landau,  
 Jie Liu,  E. I. Proynov,  R. M. Richard,  R. P. Steele,  E. J. Sundstrom,  
 H. L. Woodcock III,  P. M. Zimmerman,  D. Zuev,  B. Albrecht,  E. Alguire,  
 S. A. Baeppler,  D. Barton,  Z. Benda,  Y. A. Bernard,  E. J. Berquist,  
 K. B. Bravaya,  H. Burton,  D. Casanova,  Chun-Min Chang,  Yunqing Chen,  
 A. Chien,  K. D. Closser,  M. P. Coons,  S. Dasgupta,  A. L. Dempwolff,  
 M. Diedenhofen,  Hainam Do,  R. G. Edgar,  Po-Tung Fang,  S. Fatehi,  
 Qingguo Feng,  J. Fosso-Tande,  Qinghui Ge,  A. Ghysels,  G. Gidofalvi,  
 J. Gomes,  J. Gonthier,  A. Gunina,  M. W. D. Hanson-Heine,  
 P. H. P. Harbach,  A. W. Hauser,  J. E. Herr,  E. G. Hohenstein,  
 Z. C. Holden,  Kerwin Hui,  T.-C. Jagau,  Hyunjun Ji,  B. Kaduk,  
 K. Khistyaev,  Jaehoon Kim,  P. Klunzinger,  K. Koh,  D. Kosenkov,  
 L. Koulias,  T. Kowalczyk,  C. M. Krauter,  A. Kunitsa,  Ka Un Lao,  
 A. Laurent,  K. V. Lawler,  Joonho Lee,  D. Lefrancois,  S. Lehtola,  
 D. S. Levine,  Yi-Pei Li,  You-Sheng Lin,  Fenglai Liu,  E. Livshits,  
 A. Luenser,  P. Manohar,  E. Mansoor,  S. F. Manzer,  Shan-Ping Mao,  
 Yuezhi Mao,  N. Mardirossian,  A. V. Marenich,  T. Markovich,  
 L. A. Martinez-Martinez,  S. A. Maurer,  N. J. Mayhall,  S. C. McKenzie,  
 J.-M. Mewes,  A. F. Morrison,  J. W. Mullinax,  K. Nanda,  
 T. S. Nguyen-Beck,  R. Olivares-Amaya,  J. A. Parkhill,  T. M. Perrine,  
 F. Plasser,  S. Prager,  A. Prociuk,  E. Ramos,  D. R. Rehn,  F. Rob,  
 M. Schneider,  N. Sergueev,  S. M. Sharada,  S. Sharma,  D. W. Small,  
 T. Stauch,  T. Stein,  Yu-Chuan Su,  A. J. W. Thom,  A. Tkatchenko,  
 T. Tsuchimochi,  L. Vogt,  O. Vydrov,  M. A. Watson,  J. Wenzel,  
 M. de Wergifosse,  T. A. Wesolowski,  A. White,  J. Witte,  A. Yamada,  
 Jun Yang,  K. Yao,  S. Yeganeh,  S. R. Yost,  Zhi-Qiang You,  A. Zech,  
 Igor Ying Zhang,  Xing Zhang,  Yan Zhao,  Ying Zhu,  B. R. Brooks,  
 G. K. L. Chan,  C. J. Cramer,  M. S. Gordon,  W. J. Hehre,  A. Klamt,  
 M. W. Schmidt,  C. D. Sherrill,  D. G. Truhlar,  A. Aspuru-Guzik,  R. Baer,  
 A. T. Bell,  N. A. Besley,  Jeng-Da Chai,  R. A. DiStasio Jr.,  A. Dreuw,  
 B. D. Dunietz,  T. R. Furlani,  Chao-Ping Hsu,  Yousung Jung,  Jing Kong,  
 D. S. Lambrecht,  WanZhen Liang,  C. Ochsenfeld,  V. A. Rassolov,  
 L. V. Slipchenko,  J. E. Subotnik,  T. Van Voorhis,  J. M. Herbert,  
 A. I. Krylov,  P. M. W. Gill,  M. Head-Gordon

 Contributors to earlier versions of Q-Chem not listed above: 
 R. D. Adamson,  B. Austin,  J. Baker,  G. J. O. Beran,  K. Brandhorst,  
 S. T. Brown,  E. F. C. Byrd,  A. K. Chakraborty,  C.-L. Cheng,  
 Siu Hung Chien,  D. M. Chipman,  D. L. Crittenden,  H. Dachsel,  
 R. J. Doerksen,  A. D. Dutoi,  L. Fusti-Molnar,  W. A. Goddard III,  
 A. Golubeva-Zadorozhnaya,  S. R. Gwaltney,  G. Hawkins,  A. Heyden,  
 S. Hirata,  G. Kedziora,  F. J. Keil,  C. Kelley,  Jihan Kim,  R. A. King,  
 R. Z. Khaliullin,  P. P. Korambath,  W. Kurlancheek,  A. M. Lee,  M. S. Lee,  
 S. V. Levchenko,  Ching Yeh Lin,  D. Liotard,  R. C. Lochan,  I. Lotan,  
 P. E. Maslen,  N. Nair,  D. P. O'Neill,  D. Neuhauser,  E. Neuscamman,  
 C. M. Oana,  R. Olson,  B. Peters,  R. Peverati,  P. A. Pieniazek,  
 Y. M. Rhee,  J. Ritchie,  M. A. Rohrdanz,  E. Rosta,  N. J. Russ,  
 H. F. Schaefer III,  N. E. Schultz,  N. Shenvi,  A. C. Simmonett,  A. Sodt,  
 D. Stuck,  K. S. Thanthiriwatte,  V. Vanovschi,  Tao Wang,  A. Warshel,  
 C. F. Williams,  Q. Wu,  X. Xu,  W. Zhang

 Please cite Q-Chem as follows:
 Y. Shao et al., Mol. Phys. 113, 184-215 (2015)
 DOI: 10.1080/00268976.2014.952696

 Q-Chem 5.0.2 for Intel X86 EM64T Linux

 Parts of Q-Chem use Armadillo 5.200.1 (Boston Tea Smuggler).
 http://arma.sourceforge.net/

 Q-Chem begins on Wed Mar  2 11:29:28 2022  

Host: 
0

     Scratch files written to ./qcts1.d//
 Dec517 15110_ 26548  26544 5633   
Processing $rem in /home/leeping/opt/qchem/5.0.2-openmp/config/preferences.
 MEM_STATIC 2000
 MEM_TOTAL  8000
 SYMMETRY   OFF
 SYM_IGNORE TRUE 

Checking the input file for inconsistencies... 	...done.

--------------------------------------------------------------
User input:
--------------------------------------------------------------
$molecule
0 2
C        1.3711856768    0.3868602538    0.2355029499
C        0.8002638969   -0.9477703272   -0.1724502981
C       -0.4941735811   -0.9013843347   -0.8609604505
C       -1.0666074416    0.2769533464   -0.0362311649
C       -0.4034644894    1.5669372487   -0.3780924200
N        0.8795386605    1.5940359911   -0.1992350254
H        2.4038512620    0.3831752873    0.5840751396
H        1.5155450733   -1.7656944508   -0.2283480979
H       -1.0360638277   -1.8251249241   -1.0486958219
H       -2.1610363870    0.3270009432    0.0389772020
H       -0.9334835374    2.4530820122   -0.7141074034
C       -0.2122962373   -0.5028562398    0.9852215075
H       -0.7241712676   -1.0855783533    1.7850490099
$end

$rem
method                b3lyp
basis                 6-31g(d)
unrestricted          true
symmetry              off
sym_ignore            true
incdft                false
incfock               0
scf_convergence       6
thresh                14
jobtype               sp
scf_guess             read
scf_algorithm         diis
max_scf_cycles        100
stability_analysis    true
max_cis_cycles        100
cis_n_roots           4
$end

--------------------------------------------------------------
 ----------------------------------------------------------------
             Standard Nuclear Orientation (Angstroms)
    I     Atom           X                Y                Z
 ----------------------------------------------------------------
    1      C       1.3711856768     0.3868602538     0.2355029499
    2      C       0.8002638969    -0.9477703272    -0.1724502981
    3      C      -0.4941735811    -0.9013843347    -0.8609604505
    4      C      -1.0666074416     0.2769533464    -0.0362311649
    5      C      -0.4034644894     1.5669372487    -0.3780924200
    6      N       0.8795386605     1.5940359911    -0.1992350254
    7      H       2.4038512620     0.3831752873     0.5840751396
    8      H       1.5155450733    -1.7656944508    -0.2283480979
    9      H      -1.0360638277    -1.8251249241    -1.0486958219
   10      H      -2.1610363870     0.3270009432     0.0389772020
   11      H      -0.9334835374     2.4530820122    -0.7141074034
   12      C      -0.2122962373    -0.5028562398     0.9852215075
   13      H      -0.7241712676    -1.0855783533     1.7850490099
 ----------------------------------------------------------------
 Nuclear Repulsion Energy =   278.1738542082 hartrees
 There are       25 alpha and       24 beta electrons
 Requested basis set is 6-31G(d)
 There are 40 shells and 117 basis functions

 Total QAlloc Memory Limit   8000 MB
 Mega-Array Size      1956 MB
 MEM_STATIC part      2000 MB

                       Distance Matrix (Angstroms)
             C (  1)   C (  2)   C (  3)   C (  4)   C (  5)   N (  6)
   C (  2)  1.507852
   C (  3)  2.518208  1.466890
   C (  4)  2.455352  2.236898  1.548011
   C (  5)  2.217761  2.795533  2.516744  1.490197
   N (  6)  1.374040  2.543183  2.924395  2.355581  1.295693
   H (  7)  1.089915  2.217034  3.483787  3.527059  3.195009  2.098401
   H (  8)  2.206692  1.088003  2.277323  3.298004  3.848565  3.419523
   H (  9)  3.512392  2.215775  1.087284  2.333399  3.515107  4.010209
   H ( 10)  3.538191  3.230951  2.257709  1.098151  2.190992  3.302608
   H ( 11)  3.237674  3.855525  3.386296  2.283150  1.085854  2.071256
   C ( 12)  1.964965  1.601072  1.909625  1.543151  2.485803  2.644239
   H ( 13)  2.993274  2.484894  2.662366  2.300178  3.437713  3.699946
             H (  7)   H (  8)   H (  9)   H ( 10)   H ( 11)   C ( 12)
   H (  8)  2.463079
   H (  9)  4.401766  2.680897
   H ( 10)  4.597661  4.238878  2.660872
   H ( 11)  4.136133  4.902222  4.292497  2.567926
   C ( 12)  2.791093  2.460274  2.561993  2.319834  3.485025
   H ( 13)  3.658429  3.087500  2.945219  2.666220  4.337247  1.114139

 
 A cutoff of  1.0D-14 yielded    810 shell pairs
 There are      7082 function pairs
 Smallest overlap matrix eigenvalue = 2.23E-03

 Scale SEOQF with 1.000000e-01/1.000000e-01/1.000000e-01

 Standard Electronic Orientation quadrupole field applied
 Nucleus-field energy     =     0.0000000040 hartrees
 Guess MOs from SCF MO coefficient file
 Reading MOs from coefficient file
 Reading MOs from coefficient file
 An unrestricted hybrid HF-DFT SCF calculation will be
 performed using Pulay DIIS extrapolation
 Exchange:     0.2000 Hartree-Fock + 0.0800 Slater + 0.7200 B88
 Correlation:  0.1900 VWN1RPA + 0.8100 LYP
 Using SG-1 standard quadrature grid
 SCF converges when DIIS error is below 1.0E-06
Using Q-Chem read-in guess as SCF_GUESS READ specified.

 -------------------------------------------------------
 OpenMP BLAS3 based DFT computing Module                
 -------------------------------------------------------
 ---------------------------------------
  Cycle       Energy         DIIS Error
 ---------------------------------------
    1    -286.7779100148      2.18E-09
    2    -286.7779100148      3.03E-09 Convergence criterion met
 ---------------------------------------
 <S^2> = 0.8070
 SCF time:  CPU 3.43 s  wall 10.31 s
 SCF   energy in the final basis set = -286.77791001
 Total energy in the final basis set = -286.77791001
 
 Direct TDDFT/TDA calculation will be performed
 Exchange:     0.2000 Hartree-Fock + 0.0800 Slater + 0.7200 B88
 Correlation:  0.1900 VWN1RPA + 0.8100 LYP
 Using SG-1 standard quadrature grid
 CIS energy converged when residual is below 10e- 6
 ---------------------------------------------------
 Iter    Rts Conv    Rts Left    Ttl Dev     Max Dev
 ---------------------------------------------------
   1         0           4      0.007448    0.002490
   2         0           4      0.001875    0.000577
   3         0           4      0.000855    0.000390
   4         0           4      0.000346    0.000198
   5         0           4      0.000164    0.000112
   6         1           3      0.000056    0.000041
   7         1           3      0.000017    0.000013
   8         3           1      0.000008    0.000007
   9         3           1      0.000003    0.000002
  10         4           0      0.000001    0.000001    Roots Converged
 ---------------------------------------------------
 
 ---------------------------------------------------
         TDDFT/TDA Excitation Energies              
 ---------------------------------------------------

 Excited state   1: excitation energy (eV) =    1.4566
 Total energy for state  1:                  -286.72438102 au
    <S**2>     :  0.7748
    Trans. Mom.: -0.1997 X  -0.5930 Y  -0.1918 Z
    Strength   :     0.0152844540
    S(  1) --> V(  1) amplitude =  0.9728 alpha
    D( 24) --> S(  1) amplitude = -0.1520 beta

 Excited state   2: excitation energy (eV) =    3.2566
 Total energy for state  2:                  -286.65823298 au
    <S**2>     :  0.9669
    Trans. Mom.: -0.2560 X   0.3000 Y  -0.1054 Z
    Strength   :     0.0132929843
    D( 24) --> V(  1) amplitude = -0.2486 alpha
    S(  1) --> V(  2) amplitude =  0.9259 alpha
    D( 24) --> S(  1) amplitude = -0.1769 beta

 Excited state   3: excitation energy (eV) =    3.3951
 Total energy for state  3:                  -286.65314098 au
    <S**2>     :  2.2194
    Trans. Mom.: -0.1339 X  -0.1195 Y  -0.0899 Z
    Strength   :     0.0033520652
    D( 24) --> V(  1) amplitude =  0.5845 alpha
    S(  1) --> V(  2) amplitude =  0.2776 alpha
    D( 24) --> S(  1) amplitude =  0.6185 beta
    D( 24) --> V(  1) amplitude =  0.3689 beta

 Excited state   4: excitation energy (eV) =    4.0174
 Total energy for state  4:                  -286.63027440 au
    <S**2>     :  1.2410
    Trans. Mom.: -0.0596 X  -0.3303 Y  -0.0111 Z
    Strength   :     0.0111007689
    D( 23) --> V(  1) amplitude =  0.2137 alpha
    D( 24) --> V(  1) amplitude = -0.3921 alpha
    D( 23) --> S(  1) amplitude = -0.2234 beta
    D( 23) --> V(  1) amplitude = -0.1509 beta
    D( 24) --> S(  1) amplitude =  0.6723 beta
    D( 24) --> V(  1) amplitude = -0.4614 beta
 
 ---------------------------------------------------

 Stability analysis will be performed
 ---------------------------------------------------
 Iter    Rts Conv    Rts Left    Ttl Dev     Max Dev
 ---------------------------------------------------
   1         0           8      0.006875    0.000993
   2         0           8      0.002454    0.000681
   3         0           8      0.001276    0.000586
   4         1           7      0.000627    0.000339
   5         2           6      0.000348    0.000221
   6         3           5      0.000116    0.000079
   7         4           4      0.000042    0.000031
   8         6           2      0.000014    0.000010
   9         7           1      0.000006    0.000003
  10         7           1      0.000003    0.000001
  11         8           0      0.000002    0.000000    Roots Converged
 UKS-> UKS   stable,    smallest eigenvalue:      0.0440112
 UKS->CUKS   stable,    smallest eigenvalue:      0.0477424
 ---------------------------------------------------
  SETman timing summary (seconds)
  CPU time                83.35s
  System time              0.00s
  Wall time              132.69s
 
 --------------------------------------------------------------
 
                    Orbital Energies (a.u.)
 --------------------------------------------------------------
 
 Alpha MOs
 -- Occupied --
-14.315 -10.244 -10.230 -10.223 -10.217 -10.217 -10.205  -0.955
 -0.863  -0.748  -0.645  -0.619  -0.604  -0.540  -0.491  -0.446
 -0.439  -0.415  -0.412  -0.364  -0.360  -0.312  -0.264  -0.235
 -0.128
 -- Virtual --
 -0.032   0.038   0.080   0.107   0.145   0.151   0.159   0.166
  0.173   0.178   0.215   0.249   0.285   0.303   0.334   0.405
  0.481   0.512   0.519   0.540   0.550   0.569   0.572   0.599
  0.604   0.646   0.659   0.665   0.682   0.736   0.777   0.803
  0.809   0.833   0.850   0.857   0.865   0.884   0.920   0.931
  0.969   1.038   1.064   1.119   1.135   1.177   1.258   1.337
  1.409   1.438   1.475   1.507   1.557   1.612   1.663   1.675
  1.713   1.776   1.836   1.846   1.900   1.944   2.014   2.067
  2.123   2.145   2.177   2.227   2.231   2.313   2.334   2.361
  2.389   2.416   2.456   2.509   2.554   2.583   2.614   2.640
  2.677   2.737   2.804   2.960   3.063   3.993   4.178   4.206
  4.326   4.416   4.471   4.525
 
 Beta MOs
 -- Occupied --
-14.315 -10.245 -10.224 -10.222 -10.217 -10.208 -10.201  -0.950
 -0.859  -0.740  -0.636  -0.609  -0.600  -0.537  -0.486  -0.442
 -0.432  -0.410  -0.403  -0.357  -0.354  -0.296  -0.258  -0.226
 -- Virtual --
 -0.036  -0.010   0.055   0.082   0.112   0.148   0.155   0.162
  0.171   0.177   0.182   0.221   0.253   0.289   0.309   0.342
  0.409   0.490   0.516   0.527   0.542   0.553   0.578   0.587
  0.607   0.613   0.662   0.669   0.672   0.686   0.740   0.779
  0.806   0.811   0.838   0.852   0.862   0.868   0.888   0.927
  0.933   0.974   1.043   1.071   1.126   1.139   1.183   1.263
  1.342   1.413   1.445   1.485   1.515   1.564   1.617   1.669
  1.685   1.716   1.788   1.845   1.853   1.903   1.950   2.021
  2.075   2.129   2.154   2.194   2.235   2.244   2.322   2.342
  2.368   2.397   2.425   2.467   2.520   2.563   2.587   2.620
  2.646   2.681   2.743   2.811   2.964   3.068   3.996   4.187
  4.213   4.336   4.424   4.477   4.527
 --------------------------------------------------------------
 
          Ground-State Mulliken Net Atomic Charges

     Atom                 Charge (a.u.)    Spin (a.u.)
  --------------------------------------------------------
      1 C                     0.016102       0.340557
      2 C                    -0.164551       0.010071
      3 C                    -0.087790       0.603055
      4 C                    -0.264980      -0.019238
      5 C                     0.102551       0.291923
      6 N                    -0.359525      -0.052239
      7 H                     0.144311      -0.008118
      8 H                     0.154465      -0.003533
      9 H                     0.150699      -0.017985
     10 H                     0.144974      -0.000546
     11 H                     0.136432      -0.014672
     12 C                    -0.127644      -0.154566
     13 H                     0.154957       0.025291
  --------------------------------------------------------
  Sum of atomic charges =    -0.000000
  Sum of spin   charges =     1.000000

 -----------------------------------------------------------------
                    Cartesian Multipole Moments
 -----------------------------------------------------------------
    Charge (ESU x 10^10)
                -0.0000
    Dipole Moment (Debye)
         X      -1.3078      Y      -2.6053      Z       0.6959
       Tot       2.9970
    Quadrupole Moments (Debye-Ang)
        XX     -37.6534     XY      -3.9501     YY     -42.1080
        XZ       0.3588     YZ      -0.4977     ZZ     -42.4730
    Octopole Moments (Debye-Ang^2)
       XXX     -10.4494    XXY     -11.1448    XYY     -12.4750
       YYY     -29.8461    XXZ       3.5920    XYZ       2.2734
       YYZ      -0.1892    XZZ      -5.6709    YZZ      -8.8774
       ZZZ       9.3500
    Hexadecapole Moments (Debye-Ang^3)
      XXXX    -235.7364   XXXY     -16.5676   XXYY     -99.0311
      XYYY     -31.0359   YYYY    -330.8452   XXXZ      -5.2214
      XXYZ       4.8150   XYYZ       0.9077   YYYZ       8.9707
      XXZZ     -64.6029   XYZZ      -2.1507   YYZZ     -74.2270
      XZZZ     -13.8756   YZZZ       4.5255   ZZZZ    -131.2207
 -----------------------------------------------------------------
Archival summary:
1\1\c8-73\SP\ProcedureUnspecified\6-31G*\166(2)\hpark21\WedMar211:31:592022WedMar211:31:592022\0\\#,ProcedureUnspecified,6-31G*,\\0,2\N\C,1,1.29569\H,2,1.08585,1,120.596\C,1,1.37404,2,112.309,3,179.549,0\H,4,1.08991,1,116.307,2,-168.978,0\C,2,1.4902,1,115.283,3,-177.51,0\H,6,1.09815,2,114.819,1,166.248,0\C,4,1.50785,1,123.818,2,33.3501,0\H,8,1.088,4,115.492,1,148.573,0\C,8,1.46689,4,115.666,1,-11.775,0\H,10,1.08728,8,119.602,4,-170.73,0\C,6,1.54315,2,110.056,1,24.0815,0\H,12,1.11414,6,119.022,2,142.944,0\\\@

 Total job time:  151.04s(wall), 86.97s(cpu) 
 Wed Mar  2 11:31:59 2022

        *************************************************************
        *                                                           *
        *  Thank you very much for using Q-Chem.  Have a nice day.  *
        *                                                           *
        *************************************************************


