
Running Job 1 of 1 qcts1.in
qchem qcts1.in_50690.0 ./qcts1.d/ 1
/home/leeping/opt/qchem/5.0.2-openmp/exe/qcprog.exe_s qcts1.in_50690.0 ./qcts1.d/
Check license passed

                  Welcome to Q-Chem
     A Quantum Leap Into The Future Of Chemistry


 Q-Chem 5.0, Q-Chem, Inc., Pleasanton, CA (2017)

 Yihan Shao,  Zhengting Gan,  E. Epifanovsky,  A. T. B. Gilbert,  M. Wormit,  
 J. Kussmann,  A. W. Lange,  A. Behn,  Jia Deng,  Xintian Feng,  D. Ghosh,  
 M. Goldey,  P. R. Horn,  L. D. Jacobson,  I. Kaliman,  T. Kus,  A. Landau,  
 Jie Liu,  E. I. Proynov,  R. M. Richard,  R. P. Steele,  E. J. Sundstrom,  
 H. L. Woodcock III,  P. M. Zimmerman,  D. Zuev,  B. Albrecht,  E. Alguire,  
 S. A. Baeppler,  D. Barton,  Z. Benda,  Y. A. Bernard,  E. J. Berquist,  
 K. B. Bravaya,  H. Burton,  D. Casanova,  Chun-Min Chang,  Yunqing Chen,  
 A. Chien,  K. D. Closser,  M. P. Coons,  S. Dasgupta,  A. L. Dempwolff,  
 M. Diedenhofen,  Hainam Do,  R. G. Edgar,  Po-Tung Fang,  S. Fatehi,  
 Qingguo Feng,  J. Fosso-Tande,  Qinghui Ge,  A. Ghysels,  G. Gidofalvi,  
 J. Gomes,  J. Gonthier,  A. Gunina,  M. W. D. Hanson-Heine,  
 P. H. P. Harbach,  A. W. Hauser,  J. E. Herr,  E. G. Hohenstein,  
 Z. C. Holden,  Kerwin Hui,  T.-C. Jagau,  Hyunjun Ji,  B. Kaduk,  
 K. Khistyaev,  Jaehoon Kim,  P. Klunzinger,  K. Koh,  D. Kosenkov,  
 L. Koulias,  T. Kowalczyk,  C. M. Krauter,  A. Kunitsa,  Ka Un Lao,  
 A. Laurent,  K. V. Lawler,  Joonho Lee,  D. Lefrancois,  S. Lehtola,  
 D. S. Levine,  Yi-Pei Li,  You-Sheng Lin,  Fenglai Liu,  E. Livshits,  
 A. Luenser,  P. Manohar,  E. Mansoor,  S. F. Manzer,  Shan-Ping Mao,  
 Yuezhi Mao,  N. Mardirossian,  A. V. Marenich,  T. Markovich,  
 L. A. Martinez-Martinez,  S. A. Maurer,  N. J. Mayhall,  S. C. McKenzie,  
 J.-M. Mewes,  A. F. Morrison,  J. W. Mullinax,  K. Nanda,  
 T. S. Nguyen-Beck,  R. Olivares-Amaya,  J. A. Parkhill,  T. M. Perrine,  
 F. Plasser,  S. Prager,  A. Prociuk,  E. Ramos,  D. R. Rehn,  F. Rob,  
 M. Schneider,  N. Sergueev,  S. M. Sharada,  S. Sharma,  D. W. Small,  
 T. Stauch,  T. Stein,  Yu-Chuan Su,  A. J. W. Thom,  A. Tkatchenko,  
 T. Tsuchimochi,  L. Vogt,  O. Vydrov,  M. A. Watson,  J. Wenzel,  
 M. de Wergifosse,  T. A. Wesolowski,  A. White,  J. Witte,  A. Yamada,  
 Jun Yang,  K. Yao,  S. Yeganeh,  S. R. Yost,  Zhi-Qiang You,  A. Zech,  
 Igor Ying Zhang,  Xing Zhang,  Yan Zhao,  Ying Zhu,  B. R. Brooks,  
 G. K. L. Chan,  C. J. Cramer,  M. S. Gordon,  W. J. Hehre,  A. Klamt,  
 M. W. Schmidt,  C. D. Sherrill,  D. G. Truhlar,  A. Aspuru-Guzik,  R. Baer,  
 A. T. Bell,  N. A. Besley,  Jeng-Da Chai,  R. A. DiStasio Jr.,  A. Dreuw,  
 B. D. Dunietz,  T. R. Furlani,  Chao-Ping Hsu,  Yousung Jung,  Jing Kong,  
 D. S. Lambrecht,  WanZhen Liang,  C. Ochsenfeld,  V. A. Rassolov,  
 L. V. Slipchenko,  J. E. Subotnik,  T. Van Voorhis,  J. M. Herbert,  
 A. I. Krylov,  P. M. W. Gill,  M. Head-Gordon

 Contributors to earlier versions of Q-Chem not listed above: 
 R. D. Adamson,  B. Austin,  J. Baker,  G. J. O. Beran,  K. Brandhorst,  
 S. T. Brown,  E. F. C. Byrd,  A. K. Chakraborty,  C.-L. Cheng,  
 Siu Hung Chien,  D. M. Chipman,  D. L. Crittenden,  H. Dachsel,  
 R. J. Doerksen,  A. D. Dutoi,  L. Fusti-Molnar,  W. A. Goddard III,  
 A. Golubeva-Zadorozhnaya,  S. R. Gwaltney,  G. Hawkins,  A. Heyden,  
 S. Hirata,  G. Kedziora,  F. J. Keil,  C. Kelley,  Jihan Kim,  R. A. King,  
 R. Z. Khaliullin,  P. P. Korambath,  W. Kurlancheek,  A. M. Lee,  M. S. Lee,  
 S. V. Levchenko,  Ching Yeh Lin,  D. Liotard,  R. C. Lochan,  I. Lotan,  
 P. E. Maslen,  N. Nair,  D. P. O'Neill,  D. Neuhauser,  E. Neuscamman,  
 C. M. Oana,  R. Olson,  B. Peters,  R. Peverati,  P. A. Pieniazek,  
 Y. M. Rhee,  J. Ritchie,  M. A. Rohrdanz,  E. Rosta,  N. J. Russ,  
 H. F. Schaefer III,  N. E. Schultz,  N. Shenvi,  A. C. Simmonett,  A. Sodt,  
 D. Stuck,  K. S. Thanthiriwatte,  V. Vanovschi,  Tao Wang,  A. Warshel,  
 C. F. Williams,  Q. Wu,  X. Xu,  W. Zhang

 Please cite Q-Chem as follows:
 Y. Shao et al., Mol. Phys. 113, 184-215 (2015)
 DOI: 10.1080/00268976.2014.952696

 Q-Chem 5.0.2 for Intel X86 EM64T Linux

 Parts of Q-Chem use Armadillo 5.200.1 (Boston Tea Smuggler).
 http://arma.sourceforge.net/

 Q-Chem begins on Wed Mar  2 11:38:57 2022  

Host: 
0

     Scratch files written to ./qcts1.d//
 Dec517 15110_ 26548  26544 5633   
Processing $rem in /home/leeping/opt/qchem/5.0.2-openmp/config/preferences.
 MEM_STATIC 2000
 MEM_TOTAL  8000
 SYMMETRY   OFF
 SYM_IGNORE TRUE 

Checking the input file for inconsistencies... 	...done.

--------------------------------------------------------------
User input:
--------------------------------------------------------------
$molecule
0 2
C        1.3711856768    0.3868602538    0.2355029499
C        0.8002638969   -0.9477703272   -0.1724502981
C       -0.4941735811   -0.9013843347   -0.8609604505
C       -1.0666074416    0.2769533464   -0.0362311649
C       -0.4034644894    1.5669372487   -0.3780924200
N        0.8795386605    1.5940359911   -0.1992350254
H        2.4038512620    0.3831752873    0.5840751396
H        1.5155450733   -1.7656944508   -0.2283480979
H       -1.0360638277   -1.8251249241   -1.0486958219
H       -2.1610363870    0.3270009432    0.0389772020
H       -0.9334835374    2.4530820122   -0.7141074034
C       -0.2122962373   -0.5028562398    0.9852215075
H       -0.7241712676   -1.0855783533    1.7850490099
$end

$rem
method                b3lyp
basis                 6-31g(d)
unrestricted          true
symmetry              off
sym_ignore            true
incdft                false
incfock               0
scf_convergence       8
thresh                14
jobtype               ts
scf_guess             read
scf_algorithm         diis
max_scf_cycles        100
geom_opt_max_cycles   500
geom_opt_dmax         100
geom_opt_tol_gradient 10
geom_opt_hessian      read
$end

--------------------------------------------------------------
 ----------------------------------------------------------------
             Standard Nuclear Orientation (Angstroms)
    I     Atom           X                Y                Z
 ----------------------------------------------------------------
    1      C       1.3711856768     0.3868602538     0.2355029499
    2      C       0.8002638969    -0.9477703272    -0.1724502981
    3      C      -0.4941735811    -0.9013843347    -0.8609604505
    4      C      -1.0666074416     0.2769533464    -0.0362311649
    5      C      -0.4034644894     1.5669372487    -0.3780924200
    6      N       0.8795386605     1.5940359911    -0.1992350254
    7      H       2.4038512620     0.3831752873     0.5840751396
    8      H       1.5155450733    -1.7656944508    -0.2283480979
    9      H      -1.0360638277    -1.8251249241    -1.0486958219
   10      H      -2.1610363870     0.3270009432     0.0389772020
   11      H      -0.9334835374     2.4530820122    -0.7141074034
   12      C      -0.2122962373    -0.5028562398     0.9852215075
   13      H      -0.7241712676    -1.0855783533     1.7850490099
 ----------------------------------------------------------------
 Nuclear Repulsion Energy =   278.1738542082 hartrees
 There are       25 alpha and       24 beta electrons
 Requested basis set is 6-31G(d)
 There are 40 shells and 117 basis functions

 Total QAlloc Memory Limit   8000 MB
 Mega-Array Size      1956 MB
 MEM_STATIC part      2000 MB
 A cutoff of  1.0D-14 yielded    810 shell pairs
 There are      7082 function pairs
 
 -------------------------------------------------------
 OpenMP Integral Computing Module                       
 Release: version 1.0, May 2013, Q-Chem Inc. Pittsburgh 
 -------------------------------------------------------
 Integral Job Info:
 Integral job number is                      11
 Integral operator is                         1
 short-range coefficients                     0
 long-range coefficients              100000000
 Omega coefficients                           0
 if combine SR and LR in K                    0
 Integral screening is                        0
 Integral computing path is                   2
 max size of driver memory is            800000
 size of driver memory is                593474
 size of scratch memory is              2361544
 max col of scratch BK array               1296
 max len of scratch array in speh3          155
 max len of scratch index in speh4           18
 max int batch size is                      520
 min int batch size is                       52
 fixed nKL is                                52
 max L of basis functions is                  2
 order of int derivative is                   0
 number of shells is                         40
 number of basis is                         117
 number of cartesian basis is               117
 number of contracted shell pairs           810
 number of primitive shell pairs           3575
 maxK2 (contraction) of shell pair           36
 max number of K2 of shell pair               1
 max number of CS2 of shell pair             84
 max number of PS2 of shell pair            408
 mem total for path MDJ                  535308
 -------------------------------------------------------
 Smallest overlap matrix eigenvalue = 2.23E-03

 Scale SEOQF with 1.000000e-01/1.000000e-01/1.000000e-01

 Standard Electronic Orientation quadrupole field applied
 Nucleus-field energy     =     0.0000000040 hartrees
 Guess MOs from SCF MO coefficient file
 Reading MOs from coefficient file
 Reading MOs from coefficient file
 An unrestricted hybrid HF-DFT SCF calculation will be
 performed using Pulay DIIS extrapolation
 Exchange:     0.2000 Hartree-Fock + 0.0800 Slater + 0.7200 B88
 Correlation:  0.1900 VWN1RPA + 0.8100 LYP
 Using SG-1 standard quadrature grid
 SCF converges when DIIS error is below 1.0E-08
Using Q-Chem read-in guess as SCF_GUESS READ specified.

 using 4 threads for integral computing
 -------------------------------------------------------
 OpenMP Integral computing Module                
 Release: version 1.0, May 2013, Q-Chem Inc. Pittsburgh 
 -------------------------------------------------------
 -------------------------------------------------------
 OpenMP BLAS3 based DFT computing Module                
 Release: version 1.0, May 2013, Q-Chem Inc. Pittsburgh 
 -------------------------------------------------------
 ---------------------------------------
  Cycle       Energy         DIIS Error
 ---------------------------------------
    1    -286.7779100149      6.47E-10
    2    -286.7779100149      9.37E-10 Convergence criterion met
 ---------------------------------------
 <S^2> = 0.8070
 SCF time:  CPU 5.29 s  wall 5.57 s
 SCF   energy in the final basis set = -286.77791001
 Total energy in the final basis set = -286.77791001
 
 --------------------------------------------------------------
 
                    Orbital Energies (a.u.)
 --------------------------------------------------------------
 
 Alpha MOs
 -- Occupied --
-14.315 -10.244 -10.230 -10.223 -10.217 -10.217 -10.205  -0.955
 -0.863  -0.748  -0.645  -0.619  -0.604  -0.540  -0.491  -0.446
 -0.439  -0.415  -0.412  -0.364  -0.360  -0.312  -0.264  -0.235
 -0.128
 -- Virtual --
 -0.032   0.038   0.080   0.107   0.145   0.151   0.159   0.166
  0.173   0.178   0.215   0.249   0.285   0.303   0.334   0.405
  0.481   0.512   0.519   0.540   0.550   0.569   0.572   0.599
  0.604   0.646   0.659   0.665   0.682   0.736   0.777   0.803
  0.809   0.833   0.850   0.857   0.865   0.884   0.920   0.931
  0.969   1.038   1.064   1.119   1.135   1.177   1.258   1.337
  1.409   1.438   1.475   1.507   1.557   1.612   1.663   1.675
  1.713   1.776   1.836   1.846   1.900   1.944   2.014   2.067
  2.123   2.145   2.177   2.227   2.231   2.313   2.334   2.361
  2.389   2.416   2.456   2.509   2.554   2.583   2.614   2.640
  2.677   2.737   2.804   2.960   3.063   3.993   4.178   4.206
  4.326   4.416   4.471   4.525
 
 Beta MOs
 -- Occupied --
-14.315 -10.245 -10.224 -10.222 -10.217 -10.208 -10.201  -0.950
 -0.859  -0.740  -0.636  -0.609  -0.600  -0.537  -0.486  -0.442
 -0.432  -0.410  -0.403  -0.357  -0.354  -0.296  -0.258  -0.226
 -- Virtual --
 -0.036  -0.010   0.055   0.082   0.112   0.148   0.155   0.162
  0.171   0.177   0.182   0.221   0.253   0.289   0.309   0.342
  0.409   0.490   0.516   0.527   0.542   0.553   0.578   0.587
  0.607   0.613   0.662   0.669   0.672   0.686   0.740   0.779
  0.806   0.811   0.838   0.852   0.862   0.868   0.888   0.927
  0.933   0.974   1.043   1.071   1.126   1.139   1.183   1.263
  1.342   1.413   1.445   1.485   1.515   1.564   1.617   1.669
  1.685   1.716   1.788   1.845   1.853   1.903   1.950   2.021
  2.075   2.129   2.154   2.194   2.235   2.244   2.322   2.342
  2.368   2.397   2.425   2.467   2.520   2.563   2.587   2.620
  2.646   2.681   2.743   2.811   2.964   3.068   3.996   4.187
  4.213   4.336   4.424   4.477   4.527
 --------------------------------------------------------------
 
          Ground-State Mulliken Net Atomic Charges

     Atom                 Charge (a.u.)    Spin (a.u.)
  --------------------------------------------------------
      1 C                     0.016102       0.340556
      2 C                    -0.164551       0.010071
      3 C                    -0.087790       0.603054
      4 C                    -0.264980      -0.019238
      5 C                     0.102551       0.291922
      6 N                    -0.359525      -0.052239
      7 H                     0.144311      -0.008118
      8 H                     0.154465      -0.003533
      9 H                     0.150699      -0.017985
     10 H                     0.144974      -0.000546
     11 H                     0.136432      -0.014672
     12 C                    -0.127645      -0.154564
     13 H                     0.154957       0.025291
  --------------------------------------------------------
  Sum of atomic charges =    -0.000000
  Sum of spin   charges =     1.000000

 -----------------------------------------------------------------
                    Cartesian Multipole Moments
 -----------------------------------------------------------------
    Charge (ESU x 10^10)
                 0.0000
    Dipole Moment (Debye)
         X      -1.3078      Y      -2.6053      Z       0.6959
       Tot       2.9970
    Quadrupole Moments (Debye-Ang)
        XX     -37.6534     XY      -3.9501     YY     -42.1080
        XZ       0.3588     YZ      -0.4977     ZZ     -42.4730
    Octopole Moments (Debye-Ang^2)
       XXX     -10.4494    XXY     -11.1448    XYY     -12.4750
       YYY     -29.8461    XXZ       3.5920    XYZ       2.2734
       YYZ      -0.1892    XZZ      -5.6709    YZZ      -8.8774
       ZZZ       9.3500
    Hexadecapole Moments (Debye-Ang^3)
      XXXX    -235.7364   XXXY     -16.5676   XXYY     -99.0311
      XYYY     -31.0359   YYYY    -330.8452   XXXZ      -5.2214
      XXYZ       4.8150   XYYZ       0.9077   YYYZ       8.9707
      XXZZ     -64.6029   XYZZ      -2.1507   YYZZ     -74.2270
      XZZZ     -13.8756   YZZZ       4.5255   ZZZZ    -131.2207
 -----------------------------------------------------------------
 Calculating analytic gradient of the SCF energy
 Gradient of SCF Energy
            1           2           3           4           5           6
    1  -0.0065085   0.0082944  -0.0009623   0.0076252   0.0074513  -0.0092385
    2  -0.0099907  -0.0134678  -0.0025908  -0.0131742   0.0032539   0.0031472
    3   0.0143033  -0.0222899  -0.0019011   0.0047097   0.0000247  -0.0047512
            7           8           9          10          11          12
    1   0.0040148   0.0071439   0.0021253  -0.0052867   0.0012856  -0.0018234
    2   0.0012170   0.0051978  -0.0011044   0.0027969   0.0010583   0.0238813
    3  -0.0084194  -0.0060669  -0.0047171  -0.0057331   0.0035129   0.0222155
           13
    1  -0.0141210
    2  -0.0002245
    3   0.0091127
 Max gradient component =       2.388E-02
 RMS gradient           =       9.069E-03
 Gradient time:  CPU 7.87 s  wall 2.41 s
 Geometry Optimization Parameters
   NAtoms,    NIC,     NZ,  NCons,   NDum,   NFix, NCnnct, MaxDiis
       13     157       0       0       0       0       0       0

 Cartesian Hessian read from HESS file


** GEOMETRY OPTIMIZATION IN DELOCALIZED INTERNAL COORDINATES **
   Searching for a Transition State

   Optimization Cycle:   1

                       Coordinates (Angstroms)
     ATOM                X               Y               Z
      1  C         1.3711856768    0.3868602538    0.2355029499
      2  C         0.8002638969   -0.9477703272   -0.1724502981
      3  C        -0.4941735811   -0.9013843347   -0.8609604505
      4  C        -1.0666074416    0.2769533464   -0.0362311649
      5  C        -0.4034644894    1.5669372487   -0.3780924200
      6  N         0.8795386605    1.5940359911   -0.1992350254
      7  H         2.4038512620    0.3831752873    0.5840751396
      8  H         1.5155450733   -1.7656944508   -0.2283480979
      9  H        -1.0360638277   -1.8251249241   -1.0486958219
     10  H        -2.1610363870    0.3270009432    0.0389772020
     11  H        -0.9334835374    2.4530820122   -0.7141074034
     12  C        -0.2122962373   -0.5028562398    0.9852215075
     13  H        -0.7241712676   -1.0855783533    1.7850490099
   Point Group: c1    Number of degrees of freedom:    33


   Energy is   -286.777910015


 Attempting to Generate Delocalized Internal Coordinates

 Transforming Cartesian Hessian to Internal Coordinates
 Hessian Transformation does not Include Derivative of B-matrix

 33 Hessian modes will be used to form the next step
  Hessian Eigenvalues:
    -0.110665    0.003791    0.005237    0.007270    0.010219    0.011589
     0.012835    0.016488    0.018671    0.019763    0.025757    0.029059
     0.031721    0.034591    0.042322    0.051710    0.072347    0.076691
     0.105828    0.115806    0.122229    0.167246    0.196255    0.221617
     0.244372    0.302083    0.334936    0.339629    0.357613    0.358231
     0.360561    0.364071    0.490337

 Transition State Search - Taking P-RFO Step
 Searching for Lamda that Maximizes Along the Lowest mode
 Value Taken    Lamda =   0.00013673
 Searching for Lamda that Minimizes Along All other modes
 Value Taken    Lamda =  -0.01834224
 Calculated Step too Large.  Step scaled by  0.160385
 Step Taken.  Stepsize is  0.100000

                             Maximum     Tolerance    Cnvgd?
         Gradient           0.015902      0.000010      NO
         Displacement       0.034612      0.001200      NO
         Energy change     *********      0.000001      NO


 New Cartesian Coordinates Obtained by Inverse Iteration

 Displacement from previous Coordinates is:  0.084937
 ----------------------------------------------------------------
             Standard Nuclear Orientation (Angstroms)
    I     Atom           X                Y                Z
 ----------------------------------------------------------------
    1      C       1.3705024557     0.3900259216     0.2336768346
    2      C       0.7978253739    -0.9450724327    -0.1714808475
    3      C      -0.4967899317    -0.8983334258    -0.8655128670
    4      C      -1.0670187638     0.2807347445    -0.0376868008
    5      C      -0.4041200146     1.5686035785    -0.3808192279
    6      N       0.8801582434     1.5961161627    -0.2003724172
    7      H       2.3958972236     0.3821172011     0.6008133739
    8      H       1.5059321761    -1.7691492069    -0.2159393934
    9      H      -1.0415454593    -1.8230082478    -1.0399330395
   10      H      -2.1592654999     0.3272733979     0.0489171151
   11      H      -0.9345269404     2.4528090463    -0.7215492942
   12      C      -0.2048469746    -0.5075179259     0.9707507355
   13      H      -0.7031140880    -1.0949623608     1.7698409552
 ----------------------------------------------------------------
 Nuclear Repulsion Energy =   278.4820032654 hartrees
 There are       25 alpha and       24 beta electrons
 Applying Cartesian multipole field
    Component          Value
    ---------          -----
     (2,0,0)        1.00000E-11
     (0,2,0)        2.00000E-11
     (0,0,2)       -3.00000E-11
 Nucleus-field energy     =     0.0000000041 hartrees
 Requested basis set is 6-31G(d)
 There are 40 shells and 117 basis functions
 A cutoff of  1.0D-14 yielded    810 shell pairs
 There are      7082 function pairs
 Smallest overlap matrix eigenvalue = 2.22E-03
 Guess MOs from SCF MO coefficient file
 Reading MOs from coefficient file
 Reading MOs from coefficient file
 An unrestricted hybrid HF-DFT SCF calculation will be
 performed using Pulay DIIS extrapolation
 Exchange:     0.2000 Hartree-Fock + 0.0800 Slater + 0.7200 B88
 Correlation:  0.1900 VWN1RPA + 0.8100 LYP
 Using SG-1 standard quadrature grid
 SCF converges when DIIS error is below 1.0E-08
 Geometry optimization detected.  Setting ReadMinima to 0
 Setting SaveMinima to 0
Using Q-Chem read-in guess as SCF_GUESS READ specified.

 using 4 threads for integral computing
 -------------------------------------------------------
 OpenMP Integral computing Module                
 Release: version 1.0, May 2013, Q-Chem Inc. Pittsburgh 
 -------------------------------------------------------
 -------------------------------------------------------
 OpenMP BLAS3 based DFT computing Module                
 Release: version 1.0, May 2013, Q-Chem Inc. Pittsburgh 
 -------------------------------------------------------
 ---------------------------------------
  Cycle       Energy         DIIS Error
 ---------------------------------------
    1    -286.7880483129      6.07E-04
    2    -286.7805776161      2.23E-04
    3    -286.7804091863      3.72E-04
    4    -286.7806785000      4.24E-05
    5    -286.7806818269      1.25E-05
    6    -286.7806822485      4.82E-06
    7    -286.7806824562      2.11E-06
    8    -286.7806825332      1.91E-06
    9    -286.7806825705      8.86E-07
   10    -286.7806825962      5.19E-07
   11    -286.7806826023      2.40E-07
   12    -286.7806826034      9.83E-08
   13    -286.7806826037      4.11E-08
   14    -286.7806826038      1.26E-08
   15    -286.7806826038      5.08E-09 Convergence criterion met
 ---------------------------------------
 <S^2> = 0.8041
 SCF time:  CPU 39.32 s  wall 41.42 s
 SCF   energy in the final basis set = -286.78068260
 Total energy in the final basis set = -286.78068260
 
 --------------------------------------------------------------
 
                    Orbital Energies (a.u.)
 --------------------------------------------------------------
 
 Alpha MOs
 -- Occupied --
-14.315 -10.243 -10.230 -10.222 -10.217 -10.216 -10.206  -0.956
 -0.865  -0.749  -0.644  -0.620  -0.605  -0.541  -0.491  -0.446
 -0.439  -0.415  -0.413  -0.365  -0.360  -0.312  -0.265  -0.235
 -0.129
 -- Virtual --
 -0.030   0.040   0.080   0.112   0.145   0.151   0.159   0.165
  0.176   0.178   0.214   0.249   0.286   0.303   0.334   0.405
  0.482   0.512   0.519   0.538   0.550   0.569   0.573   0.599
  0.604   0.646   0.659   0.665   0.684   0.737   0.776   0.803
  0.811   0.833   0.850   0.858   0.865   0.884   0.922   0.932
  0.969   1.039   1.068   1.119   1.133   1.181   1.261   1.337
  1.408   1.439   1.472   1.507   1.557   1.612   1.666   1.686
  1.713   1.776   1.837   1.848   1.898   1.947   2.013   2.065
  2.123   2.148   2.177   2.228   2.235   2.317   2.338   2.361
  2.390   2.421   2.458   2.508   2.555   2.584   2.619   2.640
  2.677   2.736   2.806   2.961   3.064   3.995   4.178   4.209
  4.331   4.415   4.477   4.524
 
 Beta MOs
 -- Occupied --
-14.316 -10.244 -10.225 -10.221 -10.216 -10.208 -10.201  -0.951
 -0.860  -0.741  -0.636  -0.610  -0.601  -0.538  -0.486  -0.442
 -0.432  -0.411  -0.403  -0.357  -0.355  -0.296  -0.259  -0.226
 -- Virtual --
 -0.037  -0.009   0.056   0.083   0.117   0.149   0.155   0.162
  0.170   0.179   0.182   0.220   0.252   0.290   0.309   0.342
  0.409   0.491   0.516   0.528   0.541   0.553   0.578   0.587
  0.606   0.613   0.661   0.668   0.672   0.688   0.741   0.778
  0.806   0.812   0.838   0.852   0.863   0.867   0.888   0.928
  0.934   0.974   1.044   1.074   1.126   1.137   1.187   1.266
  1.341   1.412   1.446   1.482   1.515   1.564   1.617   1.674
  1.695   1.716   1.789   1.848   1.854   1.902   1.953   2.020
  2.073   2.129   2.158   2.193   2.240   2.244   2.326   2.347
  2.368   2.398   2.430   2.470   2.520   2.564   2.588   2.624
  2.646   2.682   2.742   2.812   2.964   3.069   3.997   4.187
  4.217   4.340   4.422   4.483   4.526
 --------------------------------------------------------------
 
          Ground-State Mulliken Net Atomic Charges

     Atom                 Charge (a.u.)    Spin (a.u.)
  --------------------------------------------------------
      1 C                     0.016601       0.331224
      2 C                    -0.165329       0.015242
      3 C                    -0.089785       0.607088
      4 C                    -0.264302      -0.016188
      5 C                     0.102531       0.288434
      6 N                    -0.360867      -0.049497
      7 H                     0.145106      -0.008184
      8 H                     0.154409      -0.003901
      9 H                     0.150197      -0.017384
     10 H                     0.145141      -0.000844
     11 H                     0.136744      -0.014476
     12 C                    -0.125750      -0.155793
     13 H                     0.155305       0.024279
  --------------------------------------------------------
  Sum of atomic charges =    -0.000000
  Sum of spin   charges =     1.000000

 -----------------------------------------------------------------
                    Cartesian Multipole Moments
 -----------------------------------------------------------------
    Charge (ESU x 10^10)
                -0.0000
    Dipole Moment (Debye)
         X      -1.3015      Y      -2.6028      Z       0.7544
       Tot       3.0063
    Quadrupole Moments (Debye-Ang)
        XX     -37.6688     XY      -3.9394     YY     -42.0589
        XZ       0.4343     YZ      -0.5815     ZZ     -42.4963
    Octopole Moments (Debye-Ang^2)
       XXX     -10.5511    XXY     -11.1450    XYY     -12.5062
       YYY     -30.1023    XXZ       3.8531    XYZ       2.2608
       YYZ       0.0467    XZZ      -5.5497    YZZ      -8.8665
       ZZZ       9.8328
    Hexadecapole Moments (Debye-Ang^3)
      XXXX    -235.3067   XXXY     -16.5303   XXYY     -99.0142
      XYYY     -31.1322   YYYY    -331.0879   XXXZ      -5.4499
      XXYZ       4.8324   XYYZ       0.8514   YYYZ       8.7714
      XXZZ     -64.3465   XYZZ      -2.2523   YYZZ     -74.1343
      XZZZ     -14.1473   YZZZ       4.5540   ZZZZ    -130.5525
 -----------------------------------------------------------------
 Calculating analytic gradient of the SCF energy
 Gradient of SCF Energy
            1           2           3           4           5           6
    1  -0.0059786   0.0062615  -0.0009932   0.0067583   0.0061498  -0.0076235
    2  -0.0084591  -0.0121348  -0.0025028  -0.0117639   0.0027642   0.0027220
    3   0.0132402  -0.0192459  -0.0011573   0.0038847  -0.0002857  -0.0042181
            7           8           9          10          11          12
    1   0.0036884   0.0065467   0.0019626  -0.0045019   0.0010503  -0.0006142
    2   0.0009187   0.0048695  -0.0009109   0.0024573   0.0010379   0.0208697
    3  -0.0079903  -0.0054331  -0.0045434  -0.0052585   0.0033994   0.0201616
           13
    1  -0.0127062
    2   0.0001321
    3   0.0074465
 Max gradient component =       2.087E-02
 RMS gradient           =       8.011E-03
 Gradient time:  CPU 8.05 s  wall 2.80 s
 Geometry Optimization Parameters
   NAtoms,    NIC,     NZ,  NCons,   NDum,   NFix, NCnnct, MaxDiis
       13     157       0       0       0       0       0       0

 Cartesian Hessian Update
 Hessian Updated using Powell/Murtagh-Sargent Update
  Mixing factors:     0.894813 Powell
                      0.105187 Murtagh-Sargent


** GEOMETRY OPTIMIZATION IN DELOCALIZED INTERNAL COORDINATES **
   Searching for a Transition State

   Optimization Cycle:   2

                       Coordinates (Angstroms)
     ATOM                X               Y               Z
      1  C         1.3705024557    0.3900259216    0.2336768346
      2  C         0.7978253739   -0.9450724327   -0.1714808475
      3  C        -0.4967899317   -0.8983334258   -0.8655128670
      4  C        -1.0670187638    0.2807347445   -0.0376868008
      5  C        -0.4041200146    1.5686035785   -0.3808192279
      6  N         0.8801582434    1.5961161627   -0.2003724172
      7  H         2.3958972236    0.3821172011    0.6008133739
      8  H         1.5059321761   -1.7691492069   -0.2159393934
      9  H        -1.0415454593   -1.8230082478   -1.0399330395
     10  H        -2.1592654999    0.3272733979    0.0489171151
     11  H        -0.9345269404    2.4528090463   -0.7215492942
     12  C        -0.2048469746   -0.5075179259    0.9707507355
     13  H        -0.7031140880   -1.0949623608    1.7698409552
   Point Group: c1    Number of degrees of freedom:    33


   Energy is   -286.780682604

 Hessian Updated using Powell/Murtagh-Sargent Update
  Mixing factors:     0.888558 Powell
                      0.111442 Murtagh-Sargent

 33 Hessian modes will be used to form the next step
  Hessian Eigenvalues:
    -0.110540    0.003796    0.005285    0.007160    0.009903    0.011323
     0.012561    0.016520    0.018689    0.019663    0.025757    0.029067
     0.031940    0.034899    0.042345    0.052289    0.073750    0.076754
     0.105777    0.115809    0.122229    0.167329    0.196388    0.221675
     0.244372    0.302530    0.335037    0.339627    0.357715    0.358231
     0.360700    0.364331    0.490328

 Transition State Search - Taking P-RFO Step
 Searching for Lamda that Maximizes Along the Lowest mode
 Value Taken    Lamda =   0.00011167
 Searching for Lamda that Minimizes Along All other modes
 Value Taken    Lamda =  -0.01538868
 Calculated Step too Large.  Step scaled by  0.162600
 Step Taken.  Stepsize is  0.100000

                             Maximum     Tolerance    Cnvgd?
         Gradient           0.013715      0.000010      NO
         Displacement       0.035084      0.001200      NO
         Energy change     -0.002773      0.000001      NO


 New Cartesian Coordinates Obtained by Inverse Iteration

 Displacement from previous Coordinates is:  0.082445
 ----------------------------------------------------------------
             Standard Nuclear Orientation (Angstroms)
    I     Atom           X                Y                Z
 ----------------------------------------------------------------
    1      C       1.3699472094     0.3930563716     0.2316515328
    2      C       0.7960259231    -0.9423059823    -0.1715785446
    3      C      -0.4991661283    -0.8950005904    -0.8704269381
    4      C      -1.0676070764     0.2844763977    -0.0389549655
    5      C      -0.4046987261     1.5703305484    -0.3832506106
    6      N       0.8806843689     1.5981254362    -0.2013402728
    7      H       2.3876832266     0.3809866787     0.6181572472
    8      H       1.4965385015    -1.7729402237    -0.2052092627
    9      H      -1.0464603261    -1.8208970708    -1.0308194578
   10      H      -2.1578655165     0.3274468175     0.0586754443
   11      H      -0.9351923346     2.4523480875    -0.7297163719
   12      C      -0.1984709091    -0.5116613170     0.9571171246
   13      H      -0.6823304122    -1.1043287006     1.7564002019
 ----------------------------------------------------------------
 Nuclear Repulsion Energy =   278.7500348417 hartrees
 There are       25 alpha and       24 beta electrons
 Applying Cartesian multipole field
    Component          Value
    ---------          -----
     (2,0,0)        1.00000E-11
     (0,2,0)        2.00000E-11
     (0,0,2)       -3.00000E-11
 Nucleus-field energy     =     0.0000000041 hartrees
 Requested basis set is 6-31G(d)
 There are 40 shells and 117 basis functions
 A cutoff of  1.0D-14 yielded    810 shell pairs
 There are      7082 function pairs
 Smallest overlap matrix eigenvalue = 2.21E-03
 Guess MOs from SCF MO coefficient file
 Reading MOs from coefficient file
 Reading MOs from coefficient file
 An unrestricted hybrid HF-DFT SCF calculation will be
 performed using Pulay DIIS extrapolation
 Exchange:     0.2000 Hartree-Fock + 0.0800 Slater + 0.7200 B88
 Correlation:  0.1900 VWN1RPA + 0.8100 LYP
 Using SG-1 standard quadrature grid
 SCF converges when DIIS error is below 1.0E-08
 Geometry optimization detected.  Setting ReadMinima to 0
 Setting SaveMinima to 0
Using Q-Chem read-in guess as SCF_GUESS READ specified.

 using 4 threads for integral computing
 -------------------------------------------------------
 OpenMP Integral computing Module                
 Release: version 1.0, May 2013, Q-Chem Inc. Pittsburgh 
 -------------------------------------------------------
 -------------------------------------------------------
 OpenMP BLAS3 based DFT computing Module                
 Release: version 1.0, May 2013, Q-Chem Inc. Pittsburgh 
 -------------------------------------------------------
 ---------------------------------------
  Cycle       Energy         DIIS Error
 ---------------------------------------
    1    -286.7892238600      5.51E-04
    2    -286.7829471527      1.96E-04
    3    -286.7828140314      3.29E-04
    4    -286.7830253650      3.62E-05
    5    -286.7830278112      1.04E-05
    6    -286.7830280940      4.12E-06
    7    -286.7830282368      1.91E-06
    8    -286.7830282881      1.50E-06
    9    -286.7830283141      6.62E-07
   10    -286.7830283324      3.92E-07
   11    -286.7830283372      1.56E-07
   12    -286.7830283380      7.76E-08
   13    -286.7830283381      3.81E-08
   14    -286.7830283382      1.11E-08
   15    -286.7830283382      4.74E-09 Convergence criterion met
 ---------------------------------------
 <S^2> = 0.8015
 SCF time:  CPU 39.76 s  wall 42.33 s
 SCF   energy in the final basis set = -286.78302834
 Total energy in the final basis set = -286.78302834
 
 --------------------------------------------------------------
 
                    Orbital Energies (a.u.)
 --------------------------------------------------------------
 
 Alpha MOs
 -- Occupied --
-14.315 -10.242 -10.230 -10.221 -10.217 -10.216 -10.206  -0.957
 -0.866  -0.749  -0.643  -0.621  -0.605  -0.542  -0.492  -0.446
 -0.439  -0.416  -0.413  -0.366  -0.360  -0.312  -0.265  -0.236
 -0.129
 -- Virtual --
 -0.029   0.041   0.081   0.117   0.146   0.151   0.159   0.164
  0.177   0.178   0.213   0.248   0.286   0.303   0.334   0.405
  0.482   0.511   0.519   0.537   0.550   0.568   0.574   0.598
  0.604   0.646   0.659   0.665   0.685   0.738   0.776   0.803
  0.812   0.833   0.850   0.859   0.865   0.884   0.924   0.932
  0.968   1.039   1.071   1.118   1.131   1.186   1.265   1.337
  1.406   1.440   1.469   1.506   1.558   1.612   1.664   1.698
  1.714   1.777   1.838   1.852   1.897   1.950   2.012   2.062
  2.123   2.151   2.177   2.227   2.241   2.320   2.342   2.361
  2.391   2.426   2.460   2.508   2.556   2.584   2.624   2.640
  2.678   2.736   2.806   2.961   3.066   3.996   4.178   4.212
  4.335   4.414   4.482   4.522
 
 Beta MOs
 -- Occupied --
-14.316 -10.243 -10.225 -10.220 -10.216 -10.208 -10.202  -0.952
 -0.862  -0.741  -0.635  -0.611  -0.602  -0.539  -0.487  -0.443
 -0.433  -0.412  -0.403  -0.358  -0.355  -0.296  -0.259  -0.227
 -- Virtual --
 -0.037  -0.007   0.057   0.083   0.121   0.149   0.155   0.162
  0.169   0.181   0.182   0.219   0.252   0.290   0.309   0.342
  0.409   0.491   0.516   0.528   0.540   0.553   0.579   0.587
  0.605   0.614   0.661   0.667   0.672   0.689   0.742   0.778
  0.806   0.814   0.838   0.852   0.864   0.867   0.887   0.929
  0.935   0.973   1.044   1.078   1.126   1.134   1.191   1.270
  1.341   1.411   1.447   1.478   1.514   1.565   1.617   1.673
  1.706   1.717   1.791   1.850   1.856   1.900   1.956   2.019
  2.070   2.129   2.160   2.193   2.241   2.249   2.329   2.351
  2.368   2.400   2.435   2.472   2.519   2.565   2.588   2.629
  2.646   2.683   2.741   2.813   2.964   3.070   3.999   4.187
  4.220   4.344   4.421   4.488   4.525
 --------------------------------------------------------------
 
          Ground-State Mulliken Net Atomic Charges

     Atom                 Charge (a.u.)    Spin (a.u.)
  --------------------------------------------------------
      1 C                     0.017239       0.322922
      2 C                    -0.166072       0.019635
      3 C                    -0.091762       0.609392
      4 C                    -0.263498      -0.013194
      5 C                     0.102406       0.285484
      6 N                    -0.362106      -0.046956
      7 H                     0.145829      -0.008322
      8 H                     0.154441      -0.004229
      9 H                     0.149706      -0.016626
     10 H                     0.145346      -0.001122
     11 H                     0.137044      -0.014351
     12 C                    -0.124137      -0.156076
     13 H                     0.155564       0.023442
  --------------------------------------------------------
  Sum of atomic charges =    -0.000000
  Sum of spin   charges =     1.000000

 -----------------------------------------------------------------
                    Cartesian Multipole Moments
 -----------------------------------------------------------------
    Charge (ESU x 10^10)
                -0.0000
    Dipole Moment (Debye)
         X      -1.2951      Y      -2.6008      Z       0.8103
       Tot       3.0162
    Quadrupole Moments (Debye-Ang)
        XX     -37.6927     XY      -3.9315     YY     -42.0125
        XZ       0.5058     YZ      -0.6630     ZZ     -42.5187
    Octopole Moments (Debye-Ang^2)
       XXX     -10.6614    XXY     -11.1490    XYY     -12.5231
       YYY     -30.3677    XXZ       4.1119    XYZ       2.2534
       YYZ       0.2742    XZZ      -5.4254    YZZ      -8.8526
       ZZZ      10.3181
    Hexadecapole Moments (Debye-Ang^3)
      XXXX    -235.0104   XXXY     -16.4898   XXYY     -99.0129
      XYYY     -31.2138   YYYY    -331.3113   XXXZ      -5.6326
      XXYZ       4.8446   XYYZ       0.8068   YYYZ       8.5441
      XXZZ     -64.1253   XYZZ      -2.3536   YYZZ     -74.0582
      XZZZ     -14.3715   YZZZ       4.5519   ZZZZ    -130.0164
 -----------------------------------------------------------------
 Calculating analytic gradient of the SCF energy
 Gradient of SCF Energy
            1           2           3           4           5           6
    1  -0.0057272   0.0043372  -0.0010172   0.0059819   0.0050936  -0.0062708
    2  -0.0069486  -0.0107950  -0.0022713  -0.0103313   0.0022917   0.0023301
    3   0.0120889  -0.0161234  -0.0007330   0.0031028  -0.0005250  -0.0037174
            7           8           9          10          11          12
    1   0.0035082   0.0059908   0.0017756  -0.0038745   0.0008384   0.0006757
    2   0.0005961   0.0043912  -0.0007983   0.0021151   0.0010129   0.0181150
    3  -0.0074355  -0.0048001  -0.0043074  -0.0047534   0.0032439   0.0178504
           13
    1  -0.0113118
    2   0.0002922
    3   0.0061092
 Max gradient component =       1.812E-02
 RMS gradient           =       6.992E-03
 Gradient time:  CPU 7.62 s  wall 2.70 s
 Geometry Optimization Parameters
   NAtoms,    NIC,     NZ,  NCons,   NDum,   NFix, NCnnct, MaxDiis
       13     157       0       0       0       0       0       0

 Cartesian Hessian Update
 Hessian Updated using Powell/Murtagh-Sargent Update
  Mixing factors:     0.915594 Powell
                      0.084406 Murtagh-Sargent


** GEOMETRY OPTIMIZATION IN DELOCALIZED INTERNAL COORDINATES **
   Searching for a Transition State

   Optimization Cycle:   3

                       Coordinates (Angstroms)
     ATOM                X               Y               Z
      1  C         1.3699472094    0.3930563716    0.2316515328
      2  C         0.7960259231   -0.9423059823   -0.1715785446
      3  C        -0.4991661283   -0.8950005904   -0.8704269381
      4  C        -1.0676070764    0.2844763977   -0.0389549655
      5  C        -0.4046987261    1.5703305484   -0.3832506106
      6  N         0.8806843689    1.5981254362   -0.2013402728
      7  H         2.3876832266    0.3809866787    0.6181572472
      8  H         1.4965385015   -1.7729402237   -0.2052092627
      9  H        -1.0464603261   -1.8208970708   -1.0308194578
     10  H        -2.1578655165    0.3274468175    0.0586754443
     11  H        -0.9351923346    2.4523480875   -0.7297163719
     12  C        -0.1984709091   -0.5116613170    0.9571171246
     13  H        -0.6823304122   -1.1043287006    1.7564002019
   Point Group: c1    Number of degrees of freedom:    33


   Energy is   -286.783028338

 Hessian Updated using Powell/Murtagh-Sargent Update
  Mixing factors:     0.689282 Powell
                      0.310718 Murtagh-Sargent

 33 Hessian modes will be used to form the next step
  Hessian Eigenvalues:
    -0.109997    0.003734    0.005279    0.006980    0.009601    0.011169
     0.012560    0.016516    0.018683    0.019617    0.025723    0.029070
     0.031973    0.035248    0.043167    0.052876    0.075750    0.077866
     0.105801    0.115817    0.122231    0.167400    0.196526    0.221714
     0.244373    0.302697    0.335040    0.339658    0.357717    0.358232
     0.360712    0.364386    0.490323

 Transition State Search - Taking P-RFO Step
 Searching for Lamda that Maximizes Along the Lowest mode
 Value Taken    Lamda =   0.00011117
 Searching for Lamda that Minimizes Along All other modes
 Value Taken    Lamda =  -0.01232384
 Calculated Step too Large.  Step scaled by  0.167193
 Step Taken.  Stepsize is  0.100000

                             Maximum     Tolerance    Cnvgd?
         Gradient           0.011728      0.000010      NO
         Displacement       0.037274      0.001200      NO
         Energy change     -0.002346      0.000001      NO


 New Cartesian Coordinates Obtained by Inverse Iteration

 Displacement from previous Coordinates is:  0.080273
 ----------------------------------------------------------------
             Standard Nuclear Orientation (Angstroms)
    I     Atom           X                Y                Z
 ----------------------------------------------------------------
    1      C       1.3693484067     0.3956196097     0.2298187849
    2      C       0.7951653340    -0.9395681528    -0.1735217579
    3      C      -0.5013256458    -0.8916112007    -0.8755199375
    4      C      -1.0682738260     0.2880840360    -0.0398311610
    5      C      -0.4051572985     1.5719734762    -0.3854058458
    6      N       0.8811344882     1.5999464454    -0.2019227392
    7      H       2.3785773401     0.3798397341     0.6367533946
    8      H       1.4877436264    -1.7768086595    -0.1972895495
    9      H      -1.0509402514    -1.8188409944    -1.0209441350
   10      H      -2.1565797819     0.3275738775     0.0685197517
   11      H      -0.9353826354     2.4514277700    -0.7389131354
   12      C      -0.1930819096    -0.5151534222     0.9443314743
   13      H      -0.6621400465    -1.1128460665     1.7446299826
 ----------------------------------------------------------------
 Nuclear Repulsion Energy =   278.9832011250 hartrees
 There are       25 alpha and       24 beta electrons
 Applying Cartesian multipole field
    Component          Value
    ---------          -----
     (2,0,0)        1.00000E-11
     (0,2,0)        2.00000E-11
     (0,0,2)       -3.00000E-11
 Nucleus-field energy     =     0.0000000041 hartrees
 Requested basis set is 6-31G(d)
 There are 40 shells and 117 basis functions
 A cutoff of  1.0D-14 yielded    810 shell pairs
 There are      7082 function pairs
 Smallest overlap matrix eigenvalue = 2.20E-03
 Guess MOs from SCF MO coefficient file
 Reading MOs from coefficient file
 Reading MOs from coefficient file
 An unrestricted hybrid HF-DFT SCF calculation will be
 performed using Pulay DIIS extrapolation
 Exchange:     0.2000 Hartree-Fock + 0.0800 Slater + 0.7200 B88
 Correlation:  0.1900 VWN1RPA + 0.8100 LYP
 Using SG-1 standard quadrature grid
 SCF converges when DIIS error is below 1.0E-08
 Geometry optimization detected.  Setting ReadMinima to 0
 Setting SaveMinima to 0
Using Q-Chem read-in guess as SCF_GUESS READ specified.

 using 4 threads for integral computing
 -------------------------------------------------------
 OpenMP Integral computing Module                
 Release: version 1.0, May 2013, Q-Chem Inc. Pittsburgh 
 -------------------------------------------------------
 -------------------------------------------------------
 OpenMP BLAS3 based DFT computing Module                
 Release: version 1.0, May 2013, Q-Chem Inc. Pittsburgh 
 -------------------------------------------------------
 ---------------------------------------
  Cycle       Energy         DIIS Error
 ---------------------------------------
    1    -286.7901549040      4.76E-04
    2    -286.7848931675      1.67E-04
    3    -286.7847950892      2.82E-04
    4    -286.7849502277      2.95E-05
    5    -286.7849519078      9.33E-06
    6    -286.7849521407      3.66E-06
    7    -286.7849522686      1.80E-06
    8    -286.7849523133      1.33E-06
    9    -286.7849523383      5.49E-07
   10    -286.7849523545      3.29E-07
   11    -286.7849523586      9.74E-08
   12    -286.7849523593      4.68E-08
   13    -286.7849523594      2.38E-08
   14    -286.7849523594      1.06E-08
   15    -286.7849523594      5.80E-09 Convergence criterion met
 ---------------------------------------
 <S^2> = 0.7990
 SCF time:  CPU 39.35 s  wall 36.14 s
 SCF   energy in the final basis set = -286.78495236
 Total energy in the final basis set = -286.78495236
 
 --------------------------------------------------------------
 
                    Orbital Energies (a.u.)
 --------------------------------------------------------------
 
 Alpha MOs
 -- Occupied --
-14.316 -10.241 -10.231 -10.220 -10.216 -10.216 -10.206  -0.958
 -0.868  -0.750  -0.643  -0.621  -0.605  -0.542  -0.492  -0.446
 -0.439  -0.416  -0.414  -0.367  -0.360  -0.312  -0.266  -0.236
 -0.130
 -- Virtual --
 -0.027   0.042   0.081   0.120   0.146   0.150   0.159   0.164
  0.178   0.180   0.212   0.248   0.287   0.303   0.334   0.405
  0.483   0.511   0.518   0.535   0.551   0.567   0.575   0.598
  0.604   0.646   0.658   0.665   0.686   0.738   0.775   0.803
  0.813   0.833   0.850   0.859   0.865   0.883   0.925   0.933
  0.967   1.039   1.076   1.117   1.128   1.190   1.269   1.337
  1.405   1.440   1.467   1.505   1.558   1.613   1.662   1.704
  1.717   1.777   1.839   1.855   1.895   1.953   2.010   2.059
  2.122   2.152   2.178   2.227   2.246   2.323   2.346   2.361
  2.393   2.430   2.461   2.509   2.557   2.584   2.628   2.640
  2.679   2.735   2.806   2.961   3.066   3.998   4.179   4.214
  4.338   4.413   4.487   4.521
 
 Beta MOs
 -- Occupied --
-14.316 -10.242 -10.226 -10.219 -10.216 -10.208 -10.202  -0.953
 -0.863  -0.742  -0.635  -0.612  -0.602  -0.539  -0.487  -0.443
 -0.433  -0.413  -0.403  -0.358  -0.356  -0.295  -0.259  -0.227
 -- Virtual --
 -0.037  -0.006   0.058   0.083   0.125   0.150   0.155   0.162
  0.169   0.182   0.183   0.218   0.252   0.291   0.309   0.342
  0.409   0.492   0.515   0.527   0.539   0.553   0.579   0.588
  0.604   0.614   0.661   0.667   0.673   0.690   0.743   0.777
  0.806   0.815   0.838   0.852   0.864   0.867   0.887   0.931
  0.936   0.972   1.044   1.082   1.125   1.132   1.195   1.274
  1.342   1.409   1.447   1.475   1.513   1.565   1.617   1.671
  1.711   1.722   1.792   1.850   1.860   1.898   1.959   2.017
  2.066   2.128   2.161   2.193   2.241   2.254   2.331   2.354
  2.368   2.401   2.439   2.473   2.519   2.565   2.588   2.633
  2.646   2.684   2.740   2.813   2.965   3.071   4.000   4.188
  4.223   4.348   4.420   4.492   4.524
 --------------------------------------------------------------
 
          Ground-State Mulliken Net Atomic Charges

     Atom                 Charge (a.u.)    Spin (a.u.)
  --------------------------------------------------------
      1 C                     0.018011       0.314634
      2 C                    -0.166791       0.023731
      3 C                    -0.093684       0.610597
      4 C                    -0.262624      -0.010207
      5 C                     0.102255       0.282313
      6 N                    -0.363298      -0.044255
      7 H                     0.146551      -0.008505
      8 H                     0.154585      -0.004542
      9 H                     0.149187      -0.015717
     10 H                     0.145595      -0.001386
     11 H                     0.137336      -0.014255
     12 C                    -0.122934      -0.155147
     13 H                     0.155810       0.022738
  --------------------------------------------------------
  Sum of atomic charges =    -0.000000
  Sum of spin   charges =     1.000000

 -----------------------------------------------------------------
                    Cartesian Multipole Moments
 -----------------------------------------------------------------
    Charge (ESU x 10^10)
                -0.0000
    Dipole Moment (Debye)
         X      -1.2872      Y      -2.5981      Z       0.8652
       Tot       3.0258
    Quadrupole Moments (Debye-Ang)
        XX     -37.7207     XY      -3.9271     YY     -41.9717
        XZ       0.5698     YZ      -0.7424     ZZ     -42.5392
    Octopole Moments (Debye-Ang^2)
       XXX     -10.7788    XXY     -11.1542    XYY     -12.5269
       YYY     -30.6264    XXZ       4.3717    XYZ       2.2577
       YYZ       0.4882    XZZ      -5.2980    YZZ      -8.8275
       ZZZ      10.8101
    Hexadecapole Moments (Debye-Ang^3)
      XXXX    -234.8019   XXXY     -16.4366   XXYY     -99.0118
      XYYY     -31.2728   YYYY    -331.4899   XXXZ      -5.7688
      XXYZ       4.8451   XYYZ       0.7702   YYYZ       8.2630
      XXZZ     -63.9252   XYZZ      -2.4532   YYZZ     -73.9923
      XZZZ     -14.5517   YZZZ       4.4868   ZZZZ    -129.6108
 -----------------------------------------------------------------
 Calculating analytic gradient of the SCF energy
 Gradient of SCF Energy
            1           2           3           4           5           6
    1  -0.0053799   0.0028625  -0.0009673   0.0052165   0.0042084  -0.0051430
    2  -0.0055862  -0.0095124  -0.0020058  -0.0089457   0.0018611   0.0019635
    3   0.0108307  -0.0133485  -0.0004272   0.0024557  -0.0007258  -0.0032086
            7           8           9          10          11          12
    1   0.0032987   0.0054035   0.0015768  -0.0033119   0.0006558   0.0015628
    2   0.0003130   0.0038928  -0.0006965   0.0017919   0.0009687   0.0155869
    3  -0.0068193  -0.0041826  -0.0040051  -0.0042273   0.0030442   0.0156228
           13
    1  -0.0099830
    2   0.0003685
    3   0.0049910
 Max gradient component =       1.562E-02
 RMS gradient           =       6.056E-03
 Gradient time:  CPU 8.09 s  wall 7.68 s
 Geometry Optimization Parameters
   NAtoms,    NIC,     NZ,  NCons,   NDum,   NFix, NCnnct, MaxDiis
       13     157       0       0       0       0       0       0

 Cartesian Hessian Update
 Hessian Updated using Powell/Murtagh-Sargent Update
  Mixing factors:     0.936411 Powell
                      0.063589 Murtagh-Sargent


** GEOMETRY OPTIMIZATION IN DELOCALIZED INTERNAL COORDINATES **
   Searching for a Transition State

   Optimization Cycle:   4

                       Coordinates (Angstroms)
     ATOM                X               Y               Z
      1  C         1.3693484067    0.3956196097    0.2298187849
      2  C         0.7951653340   -0.9395681528   -0.1735217579
      3  C        -0.5013256458   -0.8916112007   -0.8755199375
      4  C        -1.0682738260    0.2880840360   -0.0398311610
      5  C        -0.4051572985    1.5719734762   -0.3854058458
      6  N         0.8811344882    1.5999464454   -0.2019227392
      7  H         2.3785773401    0.3798397341    0.6367533946
      8  H         1.4877436264   -1.7768086595   -0.1972895495
      9  H        -1.0509402514   -1.8188409944   -1.0209441350
     10  H        -2.1565797819    0.3275738775    0.0685197517
     11  H        -0.9353826354    2.4514277700   -0.7389131354
     12  C        -0.1930819096   -0.5151534222    0.9443314743
     13  H        -0.6621400465   -1.1128460665    1.7446299826
   Point Group: c1    Number of degrees of freedom:    33


   Energy is   -286.784952359

 Hessian Updated using Powell/Murtagh-Sargent Update
  Mixing factors:     0.687684 Powell
                      0.312316 Murtagh-Sargent

 33 Hessian modes will be used to form the next step
  Hessian Eigenvalues:
    -0.109529    0.003663    0.005280    0.007028    0.009438    0.011119
     0.012582    0.016514    0.018681    0.019597    0.025709    0.029072
     0.031985    0.035432    0.043692    0.053183    0.076047    0.079389
     0.105826    0.115825    0.122233    0.167435    0.196626    0.221725
     0.244373    0.302802    0.335043    0.339682    0.357718    0.358233
     0.360731    0.364456    0.490323

 Transition State Search - Taking P-RFO Step
 Searching for Lamda that Maximizes Along the Lowest mode
 Value Taken    Lamda =   0.00009916
 Searching for Lamda that Minimizes Along All other modes
 Value Taken    Lamda =  -0.00985417
 Calculated Step too Large.  Step scaled by  0.172549
 Step Taken.  Stepsize is  0.100000

                             Maximum     Tolerance    Cnvgd?
         Gradient           0.009971      0.000010      NO
         Displacement       0.038526      0.001200      NO
         Energy change     -0.001924      0.000001      NO


 New Cartesian Coordinates Obtained by Inverse Iteration

 Displacement from previous Coordinates is:  0.078591
 ----------------------------------------------------------------
             Standard Nuclear Orientation (Angstroms)
    I     Atom           X                Y                Z
 ----------------------------------------------------------------
    1      C       1.3687062002     0.3977316838     0.2281877473
    2      C       0.7950327962    -0.9368777906    -0.1768899843
    3      C      -0.5033912427    -0.8883187642    -0.8805402309
    4      C      -1.0689810318     0.2915363990    -0.0404176124
    5      C      -0.4054820379     1.5735525570    -0.3872740775
    6      N       0.8815602205     1.6015991326    -0.2021807956
    7      H       2.3687132196     0.3787886304     0.6561641914
    8      H       1.4795250394    -1.7806352787    -0.1917746911
    9      H      -1.0550341545    -1.8169287169    -1.0104464168
   10      H      -2.1553828915     0.3277603627     0.0782126689
   11      H      -0.9351397027     2.4501548671    -0.7487778805
   12      C      -0.1884833218    -0.5181241638     0.9322730292
   13      H      -0.6425552926    -1.1206024655     1.7341691791
 ----------------------------------------------------------------
 Nuclear Repulsion Energy =   279.1888325640 hartrees
 There are       25 alpha and       24 beta electrons
 Applying Cartesian multipole field
    Component          Value
    ---------          -----
     (2,0,0)        1.00000E-11
     (0,2,0)        2.00000E-11
     (0,0,2)       -3.00000E-11
 Nucleus-field energy     =     0.0000000041 hartrees
 Requested basis set is 6-31G(d)
 There are 40 shells and 117 basis functions
 A cutoff of  1.0D-14 yielded    810 shell pairs
 There are      7082 function pairs
 Smallest overlap matrix eigenvalue = 2.19E-03
 Guess MOs from SCF MO coefficient file
 Reading MOs from coefficient file
 Reading MOs from coefficient file
 An unrestricted hybrid HF-DFT SCF calculation will be
 performed using Pulay DIIS extrapolation
 Exchange:     0.2000 Hartree-Fock + 0.0800 Slater + 0.7200 B88
 Correlation:  0.1900 VWN1RPA + 0.8100 LYP
 Using SG-1 standard quadrature grid
 SCF converges when DIIS error is below 1.0E-08
 Geometry optimization detected.  Setting ReadMinima to 0
 Setting SaveMinima to 0
Using Q-Chem read-in guess as SCF_GUESS READ specified.

 using 4 threads for integral computing
 -------------------------------------------------------
 OpenMP Integral computing Module                
 Release: version 1.0, May 2013, Q-Chem Inc. Pittsburgh 
 -------------------------------------------------------
 -------------------------------------------------------
 OpenMP BLAS3 based DFT computing Module                
 Release: version 1.0, May 2013, Q-Chem Inc. Pittsburgh 
 -------------------------------------------------------
 ---------------------------------------
  Cycle       Energy         DIIS Error
 ---------------------------------------
    1    -286.7909288957      4.17E-04
    2    -286.7864900966      1.42E-04
    3    -286.7864172977      2.42E-04
    4    -286.7865320707      2.47E-05
    5    -286.7865332838      8.74E-06
    6    -286.7865334900      3.33E-06
    7    -286.7865336036      1.69E-06
    8    -286.7865336423      1.16E-06
    9    -286.7865336656      4.63E-07
   10    -286.7865336795      3.03E-07
   11    -286.7865336831      8.28E-08
   12    -286.7865336838      6.81E-08
   13    -286.7865336839      1.77E-08
   14    -286.7865336839      1.31E-08
   15    -286.7865336839      3.71E-09 Convergence criterion met
 ---------------------------------------
 <S^2> = 0.7966
 SCF time:  CPU 39.39 s  wall 31.10 s
 SCF   energy in the final basis set = -286.78653368
 Total energy in the final basis set = -286.78653368
 
 --------------------------------------------------------------
 
                    Orbital Energies (a.u.)
 --------------------------------------------------------------
 
 Alpha MOs
 -- Occupied --
-14.316 -10.240 -10.231 -10.219 -10.216 -10.216 -10.207  -0.959
 -0.869  -0.751  -0.643  -0.622  -0.605  -0.543  -0.493  -0.447
 -0.439  -0.416  -0.414  -0.368  -0.360  -0.312  -0.266  -0.237
 -0.130
 -- Virtual --
 -0.026   0.043   0.081   0.123   0.146   0.150   0.159   0.163
  0.178   0.181   0.211   0.248   0.287   0.303   0.334   0.405
  0.483   0.511   0.518   0.534   0.551   0.565   0.577   0.597
  0.604   0.646   0.658   0.665   0.688   0.739   0.774   0.803
  0.815   0.833   0.850   0.859   0.865   0.882   0.927   0.934
  0.966   1.039   1.080   1.116   1.126   1.194   1.274   1.338
  1.404   1.438   1.465   1.504   1.558   1.614   1.660   1.706
  1.723   1.778   1.839   1.860   1.893   1.956   2.009   2.056
  2.121   2.152   2.178   2.227   2.250   2.325   2.349   2.361
  2.394   2.434   2.462   2.509   2.558   2.584   2.631   2.640
  2.680   2.734   2.806   2.962   3.067   3.999   4.179   4.215
  4.341   4.412   4.491   4.520
 
 Beta MOs
 -- Occupied --
-14.317 -10.242 -10.226 -10.218 -10.216 -10.208 -10.203  -0.954
 -0.864  -0.743  -0.634  -0.612  -0.602  -0.540  -0.487  -0.443
 -0.433  -0.413  -0.403  -0.359  -0.356  -0.295  -0.260  -0.227
 -- Virtual --
 -0.037  -0.005   0.059   0.083   0.127   0.150   0.154   0.162
  0.168   0.182   0.185   0.218   0.251   0.291   0.309   0.341
  0.409   0.492   0.515   0.527   0.538   0.554   0.578   0.588
  0.603   0.614   0.661   0.667   0.673   0.692   0.743   0.776
  0.806   0.816   0.837   0.852   0.864   0.868   0.886   0.932
  0.937   0.971   1.045   1.086   1.124   1.129   1.199   1.278
  1.343   1.408   1.445   1.473   1.512   1.565   1.618   1.669
  1.712   1.730   1.793   1.851   1.864   1.897   1.961   2.015
  2.063   2.127   2.162   2.193   2.242   2.258   2.333   2.357
  2.368   2.402   2.443   2.474   2.519   2.566   2.588   2.636
  2.646   2.685   2.740   2.813   2.965   3.072   4.001   4.188
  4.225   4.351   4.418   4.496   4.522
 --------------------------------------------------------------
 
          Ground-State Mulliken Net Atomic Charges

     Atom                 Charge (a.u.)    Spin (a.u.)
  --------------------------------------------------------
      1 C                     0.018876       0.306566
      2 C                    -0.167502       0.027695
      3 C                    -0.095501       0.610710
      4 C                    -0.261678      -0.007269
      5 C                     0.102053       0.279087
      6 N                    -0.364452      -0.041437
      7 H                     0.147263      -0.008722
      8 H                     0.154820      -0.004845
      9 H                     0.148669      -0.014692
     10 H                     0.145875      -0.001632
     11 H                     0.137610      -0.014184
     12 C                    -0.122100      -0.153411
     13 H                     0.156066       0.022133
  --------------------------------------------------------
  Sum of atomic charges =     0.000000
  Sum of spin   charges =     1.000000

 -----------------------------------------------------------------
                    Cartesian Multipole Moments
 -----------------------------------------------------------------
    Charge (ESU x 10^10)
                 0.0000
    Dipole Moment (Debye)
         X      -1.2786      Y      -2.5955      Z       0.9184
       Tot       3.0356
    Quadrupole Moments (Debye-Ang)
        XX     -37.7532     XY      -3.9256     YY     -41.9364
        XZ       0.6272     YZ      -0.8184     ZZ     -42.5568
    Octopole Moments (Debye-Ang^2)
       XXX     -10.9039    XXY     -11.1600    XYY     -12.5214
       YYY     -30.8774    XXZ       4.6278    XYZ       2.2710
       YYZ       0.6883    XZZ      -5.1688    YZZ      -8.7937
       ZZZ      11.2984
    Hexadecapole Moments (Debye-Ang^3)
      XXXX    -234.6726   XXXY     -16.3779   XXYY     -99.0144
      XYYY     -31.3151   YYYY    -331.6444   XXXZ      -5.8718
      XXYZ       4.8367   XYYZ       0.7394   YYYZ       7.9444
      XXZZ     -63.7402   XYZZ      -2.5512   YYZZ     -73.9335
      XZZZ     -14.6950   YZZZ       4.3738   ZZZZ    -129.2912
 -----------------------------------------------------------------
 Calculating analytic gradient of the SCF energy
 Gradient of SCF Energy
            1           2           3           4           5           6
    1  -0.0049715   0.0017775  -0.0008625   0.0044871   0.0034668  -0.0041982
    2  -0.0044198  -0.0082859  -0.0017282  -0.0076527   0.0014806   0.0016285
    3   0.0095228  -0.0109399  -0.0002249   0.0019285  -0.0008722  -0.0027135
            7           8           9          10          11          12
    1   0.0030657   0.0048034   0.0013725  -0.0028102   0.0005004   0.0020922
    2   0.0000879   0.0033958  -0.0006053   0.0014967   0.0009093   0.0133082
    3  -0.0061553  -0.0035996  -0.0036470  -0.0037024   0.0028066   0.0135408
           13
    1  -0.0087232
    2   0.0003849
    3   0.0040560
 Max gradient component =       1.354E-02
 RMS gradient           =       5.203E-03
 Gradient time:  CPU 8.18 s  wall 2.68 s
 Geometry Optimization Parameters
   NAtoms,    NIC,     NZ,  NCons,   NDum,   NFix, NCnnct, MaxDiis
       13     157       0       0       0       0       0       0

 Cartesian Hessian Update
 Hessian Updated using Powell/Murtagh-Sargent Update
  Mixing factors:     0.960444 Powell
                      0.039556 Murtagh-Sargent


** GEOMETRY OPTIMIZATION IN DELOCALIZED INTERNAL COORDINATES **
   Searching for a Transition State

   Optimization Cycle:   5

                       Coordinates (Angstroms)
     ATOM                X               Y               Z
      1  C         1.3687062002    0.3977316838    0.2281877473
      2  C         0.7950327962   -0.9368777906   -0.1768899843
      3  C        -0.5033912427   -0.8883187642   -0.8805402309
      4  C        -1.0689810318    0.2915363990   -0.0404176124
      5  C        -0.4054820379    1.5735525570   -0.3872740775
      6  N         0.8815602205    1.6015991326   -0.2021807956
      7  H         2.3687132196    0.3787886304    0.6561641914
      8  H         1.4795250394   -1.7806352787   -0.1917746911
      9  H        -1.0550341545   -1.8169287169   -1.0104464168
     10  H        -2.1553828915    0.3277603627    0.0782126689
     11  H        -0.9351397027    2.4501548671   -0.7487778805
     12  C        -0.1884833218   -0.5181241638    0.9322730292
     13  H        -0.6425552926   -1.1206024655    1.7341691791
   Point Group: c1    Number of degrees of freedom:    33


   Energy is   -286.786533684

 Hessian Updated using Powell/Murtagh-Sargent Update
  Mixing factors:     0.670317 Powell
                      0.329683 Murtagh-Sargent

 33 Hessian modes will be used to form the next step
  Hessian Eigenvalues:
    -0.109131    0.003641    0.005289    0.007259    0.009364    0.011102
     0.012614    0.016514    0.018678    0.019590    0.025707    0.029077
     0.031985    0.035539    0.044006    0.053325    0.076091    0.080197
     0.105843    0.115829    0.122235    0.167458    0.196705    0.221725
     0.244376    0.302869    0.335045    0.339706    0.357718    0.358233
     0.360752    0.364541    0.490329

 Transition State Search - Taking P-RFO Step
 Searching for Lamda that Maximizes Along the Lowest mode
 Value Taken    Lamda =   0.00008166
 Searching for Lamda that Minimizes Along All other modes
 Value Taken    Lamda =  -0.00783008
 Calculated Step too Large.  Step scaled by  0.180120
 Step Taken.  Stepsize is  0.100000

                             Maximum     Tolerance    Cnvgd?
         Gradient           0.008426      0.000010      NO
         Displacement       0.039159      0.001200      NO
         Energy change     -0.001581      0.000001      NO


 New Cartesian Coordinates Obtained by Inverse Iteration

 Displacement from previous Coordinates is:  0.077438
 ----------------------------------------------------------------
             Standard Nuclear Orientation (Angstroms)
    I     Atom           X                Y                Z
 ----------------------------------------------------------------
    1      C       1.3680277041     0.3994566512     0.2267508629
    2      C       0.7954401047    -0.9342484100    -0.1813105464
    3      C      -0.5054559220    -0.8851963293    -0.8853420066
    4      C      -1.0697052119     0.2948419367    -0.0407842703
    5      C      -0.4056807347     1.5750877162    -0.3888748152
    6      N       0.8819875071     1.6031161488    -0.2021978460
    7      H       2.3581768309     0.3778740658     0.6760911440
    8      H       1.4717947756    -1.7843731284    -0.1881763927
    9      H      -1.0587988582    -1.8151722567    -0.9995419480
   10      H      -2.1542479898     0.3280661627     0.0876714222
   11      H      -0.9345227289     2.4486021562    -0.7590751383
   12      C      -0.1844723664    -0.5207077808     0.9207884618
   13      H      -0.6234553103    -1.1277104797     1.7247061995
 ----------------------------------------------------------------
 Nuclear Repulsion Energy =   279.3736184119 hartrees
 There are       25 alpha and       24 beta electrons
 Applying Cartesian multipole field
    Component          Value
    ---------          -----
     (2,0,0)        1.00000E-11
     (0,2,0)        2.00000E-11
     (0,0,2)       -3.00000E-11
 Nucleus-field energy     =     0.0000000041 hartrees
 Requested basis set is 6-31G(d)
 There are 40 shells and 117 basis functions
 A cutoff of  1.0D-14 yielded    810 shell pairs
 There are      7082 function pairs
 Smallest overlap matrix eigenvalue = 2.17E-03
 Guess MOs from SCF MO coefficient file
 Reading MOs from coefficient file
 Reading MOs from coefficient file
 An unrestricted hybrid HF-DFT SCF calculation will be
 performed using Pulay DIIS extrapolation
 Exchange:     0.2000 Hartree-Fock + 0.0800 Slater + 0.7200 B88
 Correlation:  0.1900 VWN1RPA + 0.8100 LYP
 Using SG-1 standard quadrature grid
 SCF converges when DIIS error is below 1.0E-08
 Geometry optimization detected.  Setting ReadMinima to 0
 Setting SaveMinima to 0
Using Q-Chem read-in guess as SCF_GUESS READ specified.

 using 4 threads for integral computing
 -------------------------------------------------------
 OpenMP Integral computing Module                
 Release: version 1.0, May 2013, Q-Chem Inc. Pittsburgh 
 -------------------------------------------------------
 -------------------------------------------------------
 OpenMP BLAS3 based DFT computing Module                
 Release: version 1.0, May 2013, Q-Chem Inc. Pittsburgh 
 -------------------------------------------------------
 ---------------------------------------
  Cycle       Energy         DIIS Error
 ---------------------------------------
    1    -286.7916057509      3.75E-04
    2    -286.7878054731      1.22E-04
    3    -286.7877502619      2.10E-04
    4    -286.7878371503      2.15E-05
    5    -286.7878380866      8.32E-06
    6    -286.7878382746      3.13E-06
    7    -286.7878383747      1.59E-06
    8    -286.7878384085      1.01E-06
    9    -286.7878384298      3.99E-07
   10    -286.7878384415      2.86E-07
   11    -286.7878384449      8.31E-08
   12    -286.7878384457      7.64E-08
   13    -286.7878384458      1.90E-08
   14    -286.7878384458      1.09E-08
   15    -286.7878384458      3.95E-09 Convergence criterion met
 ---------------------------------------
 <S^2> = 0.7944
 SCF time:  CPU 39.23 s  wall 36.69 s
 SCF   energy in the final basis set = -286.78783845
 Total energy in the final basis set = -286.78783845
 
 --------------------------------------------------------------
 
                    Orbital Energies (a.u.)
 --------------------------------------------------------------
 
 Alpha MOs
 -- Occupied --
-14.316 -10.240 -10.232 -10.219 -10.216 -10.216 -10.207  -0.960
 -0.870  -0.751  -0.643  -0.623  -0.605  -0.543  -0.493  -0.447
 -0.439  -0.417  -0.415  -0.368  -0.361  -0.311  -0.266  -0.238
 -0.130
 -- Virtual --
 -0.024   0.044   0.081   0.125   0.146   0.150   0.159   0.162
  0.178   0.183   0.211   0.248   0.288   0.303   0.333   0.405
  0.483   0.510   0.518   0.533   0.552   0.564   0.578   0.597
  0.604   0.646   0.658   0.665   0.689   0.739   0.773   0.803
  0.816   0.832   0.849   0.859   0.866   0.882   0.929   0.934
  0.964   1.040   1.084   1.115   1.123   1.197   1.278   1.339
  1.403   1.434   1.464   1.503   1.558   1.615   1.658   1.707
  1.728   1.778   1.839   1.864   1.892   1.958   2.007   2.052
  2.120   2.152   2.178   2.228   2.254   2.327   2.352   2.361
  2.395   2.437   2.462   2.509   2.558   2.583   2.634   2.641
  2.680   2.734   2.806   2.962   3.068   4.000   4.179   4.217
  4.344   4.411   4.494   4.519
 
 Beta MOs
 -- Occupied --
-14.317 -10.241 -10.227 -10.218 -10.216 -10.208 -10.203  -0.955
 -0.865  -0.743  -0.634  -0.613  -0.602  -0.540  -0.488  -0.443
 -0.433  -0.414  -0.403  -0.360  -0.356  -0.294  -0.260  -0.228
 -- Virtual --
 -0.036  -0.003   0.060   0.083   0.128   0.150   0.154   0.162
  0.167   0.182   0.186   0.217   0.251   0.292   0.309   0.341
  0.409   0.492   0.514   0.527   0.537   0.554   0.577   0.589
  0.602   0.614   0.660   0.666   0.673   0.694   0.743   0.775
  0.806   0.818   0.837   0.851   0.863   0.868   0.886   0.933
  0.938   0.970   1.045   1.090   1.123   1.127   1.202   1.283
  1.344   1.408   1.441   1.472   1.511   1.565   1.619   1.667
  1.712   1.736   1.794   1.851   1.869   1.895   1.964   2.014
  2.059   2.126   2.162   2.193   2.243   2.262   2.335   2.360
  2.368   2.404   2.446   2.475   2.519   2.566   2.588   2.638
  2.647   2.686   2.739   2.812   2.965   3.072   4.003   4.188
  4.226   4.353   4.416   4.500   4.521
 --------------------------------------------------------------
 
          Ground-State Mulliken Net Atomic Charges

     Atom                 Charge (a.u.)    Spin (a.u.)
  --------------------------------------------------------
      1 C                     0.019792       0.298839
      2 C                    -0.168208       0.031614
      3 C                    -0.097200       0.609835
      4 C                    -0.260654      -0.004391
      5 C                     0.101787       0.275884
      6 N                    -0.365574      -0.038535
      7 H                     0.147960      -0.008960
      8 H                     0.155123      -0.005141
      9 H                     0.148172      -0.013585
     10 H                     0.146174      -0.001862
     11 H                     0.137865      -0.014133
     12 C                    -0.121576      -0.151165
     13 H                     0.156338       0.021600
  --------------------------------------------------------
  Sum of atomic charges =    -0.000000
  Sum of spin   charges =     1.000000

 -----------------------------------------------------------------
                    Cartesian Multipole Moments
 -----------------------------------------------------------------
    Charge (ESU x 10^10)
                -0.0000
    Dipole Moment (Debye)
         X      -1.2699      Y      -2.5934      Z       0.9696
       Tot       3.0461
    Quadrupole Moments (Debye-Ang)
        XX     -37.7904     XY      -3.9262     YY     -41.9059
        XZ       0.6795     YZ      -0.8908     ZZ     -42.5709
    Octopole Moments (Debye-Ang^2)
       XXX     -11.0375    XXY     -11.1656    XYY     -12.5089
       YYY     -31.1213    XXZ       4.8780    XYZ       2.2906
       YYZ       0.8750    XZZ      -5.0388    YZZ      -8.7533
       ZZZ      11.7775
    Hexadecapole Moments (Debye-Ang^3)
      XXXX    -234.6127   XXXY     -16.3182   XXYY     -99.0226
      XYYY     -31.3449   YYYY    -331.7906   XXXZ      -5.9531
      XXYZ       4.8223   XYYZ       0.7134   YYYZ       7.6022
      XXZZ     -63.5657   XYZZ      -2.6476   YYZZ     -73.8790
      XZZZ     -14.8078   YZZZ       4.2272   ZZZZ    -129.0245
 -----------------------------------------------------------------
 Calculating analytic gradient of the SCF energy
 Gradient of SCF Energy
            1           2           3           4           5           6
    1  -0.0045170   0.0009979  -0.0007274   0.0038028   0.0028412  -0.0034014
    2  -0.0034432  -0.0071182  -0.0014516  -0.0064628   0.0011507   0.0013273
    3   0.0082091  -0.0088549  -0.0001097   0.0015026  -0.0009586  -0.0022466
            7           8           9          10          11          12
    1   0.0028060   0.0042005   0.0011703  -0.0023606   0.0003701   0.0023427
    2  -0.0000777   0.0029117  -0.0005220   0.0012325   0.0008364   0.0112593
    3  -0.0054561  -0.0030561  -0.0032440  -0.0031910   0.0025376   0.0115997
           13
    1  -0.0075251
    2   0.0003577
    3   0.0032681
 Max gradient component =       1.160E-02
 RMS gradient           =       4.425E-03
 Gradient time:  CPU 7.58 s  wall 2.21 s
 Geometry Optimization Parameters
   NAtoms,    NIC,     NZ,  NCons,   NDum,   NFix, NCnnct, MaxDiis
       13     157       0       0       0       0       0       0

 Cartesian Hessian Update
 Hessian Updated using Powell/Murtagh-Sargent Update
  Mixing factors:     0.977423 Powell
                      0.022577 Murtagh-Sargent


** GEOMETRY OPTIMIZATION IN DELOCALIZED INTERNAL COORDINATES **
   Searching for a Transition State

   Optimization Cycle:   6

                       Coordinates (Angstroms)
     ATOM                X               Y               Z
      1  C         1.3680277041    0.3994566512    0.2267508629
      2  C         0.7954401047   -0.9342484100   -0.1813105464
      3  C        -0.5054559220   -0.8851963293   -0.8853420066
      4  C        -1.0697052119    0.2948419367   -0.0407842703
      5  C        -0.4056807347    1.5750877162   -0.3888748152
      6  N         0.8819875071    1.6031161488   -0.2021978460
      7  H         2.3581768309    0.3778740658    0.6760911440
      8  H         1.4717947756   -1.7843731284   -0.1881763927
      9  H        -1.0587988582   -1.8151722567   -0.9995419480
     10  H        -2.1542479898    0.3280661627    0.0876714222
     11  H        -0.9345227289    2.4486021562   -0.7590751383
     12  C        -0.1844723664   -0.5207077808    0.9207884618
     13  H        -0.6234553103   -1.1277104797    1.7247061995
   Point Group: c1    Number of degrees of freedom:    33


   Energy is   -286.787838446

 Hessian Updated using Powell/Murtagh-Sargent Update
  Mixing factors:     0.667812 Powell
                      0.332188 Murtagh-Sargent

 33 Hessian modes will be used to form the next step
  Hessian Eigenvalues:
    -0.108805    0.003666    0.005299    0.007575    0.009334    0.011094
     0.012653    0.016515    0.018676    0.019588    0.025710    0.029084
     0.031981    0.035609    0.044198    0.053389    0.076093    0.080520
     0.105852    0.115831    0.122236    0.167476    0.196771    0.221727
     0.244383    0.302908    0.335046    0.339732    0.357718    0.358233
     0.360775    0.364639    0.490344

 Transition State Search - Taking P-RFO Step
 Searching for Lamda that Maximizes Along the Lowest mode
 Value Taken    Lamda =   0.00006335
 Searching for Lamda that Minimizes Along All other modes
 Value Taken    Lamda =  -0.00612046
 Calculated Step too Large.  Step scaled by  0.191044
 Step Taken.  Stepsize is  0.100000

                             Maximum     Tolerance    Cnvgd?
         Gradient           0.007053      0.000010      NO
         Displacement       0.039438      0.001200      NO
         Energy change     -0.001305      0.000001      NO


 New Cartesian Coordinates Obtained by Inverse Iteration

 Displacement from previous Coordinates is:  0.076676
 ----------------------------------------------------------------
             Standard Nuclear Orientation (Angstroms)
    I     Atom           X                Y                Z
 ----------------------------------------------------------------
    1      C       1.3673127990     0.4008518457     0.2255006255
    2      C       0.7962599033    -0.9316856995    -0.1865315050
    3      C      -0.5075814185    -0.8822797024    -0.8898364627
    4      C      -1.0704324626     0.2980171851    -0.0409772326
    5      C      -0.4057667567     1.5765941470    -0.3902346179
    6      N       0.8824305449     1.6045224635    -0.2020395061
    7      H       2.3470049368     0.3770979445     0.6963695849
    8      H       1.4644718045    -1.7880098545    -0.1861200453
    9      H      -1.0622851500    -1.8135647165    -0.9884420801
   10      H      -2.1531527608     0.3285139517     0.0968932649
   11      H      -0.9335806693     2.4468134053    -0.7696697929
   12      C      -0.1808920355    -0.5230060327     0.9097540344
   13      H      -0.6047009345    -1.1342284844     1.7160388596
 ----------------------------------------------------------------
 Nuclear Repulsion Energy =   279.5424736618 hartrees
 There are       25 alpha and       24 beta electrons
 Applying Cartesian multipole field
    Component          Value
    ---------          -----
     (2,0,0)        1.00000E-11
     (0,2,0)        2.00000E-11
     (0,0,2)       -3.00000E-11
 Nucleus-field energy     =     0.0000000041 hartrees
 Requested basis set is 6-31G(d)
 There are 40 shells and 117 basis functions
 A cutoff of  1.0D-14 yielded    810 shell pairs
 There are      7082 function pairs
 Smallest overlap matrix eigenvalue = 2.16E-03
 Guess MOs from SCF MO coefficient file
 Reading MOs from coefficient file
 Reading MOs from coefficient file
 An unrestricted hybrid HF-DFT SCF calculation will be
 performed using Pulay DIIS extrapolation
 Exchange:     0.2000 Hartree-Fock + 0.0800 Slater + 0.7200 B88
 Correlation:  0.1900 VWN1RPA + 0.8100 LYP
 Using SG-1 standard quadrature grid
 SCF converges when DIIS error is below 1.0E-08
 Geometry optimization detected.  Setting ReadMinima to 0
 Setting SaveMinima to 0
Using Q-Chem read-in guess as SCF_GUESS READ specified.

 using 4 threads for integral computing
 -------------------------------------------------------
 OpenMP Integral computing Module                
[...]
 Value Taken    Lamda =   0.00000000
 Step Taken.  Stepsize is  0.004513

                             Maximum     Tolerance    Cnvgd?
         Gradient           0.000014      0.000010      NO
         Displacement       0.003203      0.001200      NO
         Energy change     -0.000000      0.000001     YES


 New Cartesian Coordinates Obtained by Inverse Iteration

 Displacement from previous Coordinates is:  0.002431
 ----------------------------------------------------------------
             Standard Nuclear Orientation (Angstroms)
    I     Atom           X                Y                Z
 ----------------------------------------------------------------
    1      C       1.3586352266     0.4036884407     0.2240864355
    2      C       0.8089703589    -0.9180285992    -0.2332450540
    3      C      -0.5244386742    -0.8717108452    -0.9057546372
    4      C      -1.0747660992     0.3169841336    -0.0428655972
    5      C      -0.4047779643     1.5870781442    -0.3957180554
    6      N       0.8856618472     1.6126266754    -0.1978300457
    7      H       2.2611051455     0.3712494226     0.8274358536
    8      H       1.4263197578    -1.8096138920    -0.1941284227
    9      H      -1.0813423222    -1.8088943857    -0.9204125873
   10      H      -2.1460531454     0.3331709506     0.1491896865
   11      H      -0.9225507945     2.4349849892    -0.8355683221
   12      C      -0.1611721598    -0.5332232190     0.8429671317
   13      H      -0.4865033758    -1.1586753625     1.6725487411
 ----------------------------------------------------------------
 Nuclear Repulsion Energy =   280.4484947786 hartrees
 There are       25 alpha and       24 beta electrons
 Applying Cartesian multipole field
    Component          Value
    ---------          -----
     (2,0,0)        1.00000E-11
     (0,2,0)        2.00000E-11
     (0,0,2)       -3.00000E-11
 Nucleus-field energy     =     0.0000000042 hartrees
 Requested basis set is 6-31G(d)
 There are 40 shells and 117 basis functions
 A cutoff of  1.0D-14 yielded    810 shell pairs
 There are      7082 function pairs
 Smallest overlap matrix eigenvalue = 2.06E-03
 Guess MOs from SCF MO coefficient file
 Reading MOs from coefficient file
 Reading MOs from coefficient file
 An unrestricted hybrid HF-DFT SCF calculation will be
 performed using Pulay DIIS extrapolation
 Exchange:     0.2000 Hartree-Fock + 0.0800 Slater + 0.7200 B88
 Correlation:  0.1900 VWN1RPA + 0.8100 LYP
 Using SG-1 standard quadrature grid
 SCF converges when DIIS error is below 1.0E-08
 Geometry optimization detected.  Setting ReadMinima to 0
 Setting SaveMinima to 0
Using Q-Chem read-in guess as SCF_GUESS READ specified.

 using 4 threads for integral computing
 -------------------------------------------------------
 OpenMP Integral computing Module                
 Release: version 1.0, May 2013, Q-Chem Inc. Pittsburgh 
 -------------------------------------------------------
 -------------------------------------------------------
 OpenMP BLAS3 based DFT computing Module                
 Release: version 1.0, May 2013, Q-Chem Inc. Pittsburgh 
 -------------------------------------------------------
 ---------------------------------------
  Cycle       Energy         DIIS Error
 ---------------------------------------
    1    -286.7918968939      2.31E-05
    2    -286.7917375484      5.58E-06
    3    -286.7917374189      1.00E-05
    4    -286.7917376215      1.20E-06
    5    -286.7917376248      6.61E-07
    6    -286.7917376262      2.49E-07
    7    -286.7917376269      1.61E-07
    8    -286.7917376270      6.34E-08
    9    -286.7917376271      2.47E-08
   10    -286.7917376271      1.25E-08
   11    -286.7917376271      2.89E-09 Convergence criterion met
 ---------------------------------------
 <S^2> = 0.7801
 SCF time:  CPU 28.83 s  wall 20.92 s
 SCF   energy in the final basis set = -286.79173763
 Total energy in the final basis set = -286.79173763
 
 --------------------------------------------------------------
 
                    Orbital Energies (a.u.)
 --------------------------------------------------------------
 
 Alpha MOs
 -- Occupied --
-14.316 -10.239 -10.234 -10.218 -10.218 -10.216 -10.208  -0.966
 -0.875  -0.755  -0.644  -0.625  -0.603  -0.547  -0.497  -0.450
 -0.439  -0.423  -0.412  -0.370  -0.363  -0.310  -0.268  -0.244
 -0.126
 -- Virtual --
 -0.015   0.053   0.081   0.127   0.144   0.147   0.158   0.159
  0.180   0.186   0.207   0.248   0.287   0.307   0.333   0.407
  0.483   0.510   0.516   0.527   0.554   0.556   0.583   0.595
  0.605   0.645   0.655   0.667   0.700   0.738   0.764   0.803
  0.822   0.831   0.845   0.851   0.867   0.878   0.934   0.941
  0.954   1.041   1.091   1.108   1.137   1.216   1.311   1.345
  1.378   1.404   1.474   1.499   1.556   1.626   1.651   1.716
  1.745   1.787   1.838   1.881   1.893   1.965   1.994   2.025
  2.103   2.148   2.175   2.238   2.279   2.334   2.358   2.371
  2.409   2.455   2.475   2.505   2.561   2.577   2.630   2.651
  2.690   2.735   2.799   2.964   3.064   4.005   4.184   4.217
  4.356   4.405   4.502   4.517
 
 Beta MOs
 -- Occupied --
-14.316 -10.240 -10.231 -10.216 -10.216 -10.210 -10.204  -0.961
 -0.871  -0.748  -0.636  -0.616  -0.600  -0.543  -0.492  -0.446
 -0.432  -0.419  -0.401  -0.363  -0.355  -0.290  -0.261  -0.234
 -- Virtual --
 -0.033   0.007   0.065   0.083   0.131   0.148   0.152   0.161
  0.164   0.185   0.190   0.213   0.251   0.291   0.314   0.342
  0.411   0.493   0.513   0.523   0.531   0.559   0.571   0.593
  0.598   0.614   0.657   0.664   0.675   0.705   0.743   0.766
  0.805   0.825   0.834   0.847   0.853   0.871   0.884   0.936
  0.947   0.961   1.045   1.095   1.115   1.143   1.220   1.317
  1.351   1.384   1.409   1.481   1.505   1.563   1.630   1.660
  1.719   1.755   1.803   1.850   1.886   1.899   1.972   1.999
  2.031   2.112   2.159   2.188   2.252   2.288   2.342   2.364
  2.379   2.418   2.460   2.490   2.514   2.567   2.581   2.635
  2.656   2.696   2.741   2.807   2.967   3.068   4.007   4.193
  4.227   4.366   4.409   4.509   4.519
 --------------------------------------------------------------
 
          Ground-State Mulliken Net Atomic Charges

     Atom                 Charge (a.u.)    Spin (a.u.)
  --------------------------------------------------------
      1 C                     0.025795       0.248606
      2 C                    -0.172149       0.064495
      3 C                    -0.105953       0.578891
      4 C                    -0.250404       0.015692
      5 C                     0.096698       0.255066
      6 N                    -0.373612      -0.013102
      7 H                     0.152465      -0.010439
      8 H                     0.158554      -0.007332
      9 H                     0.146090      -0.004913
     10 H                     0.148687      -0.003155
     11 H                     0.138934      -0.013945
     12 C                    -0.124653      -0.128145
     13 H                     0.159549       0.018282
  --------------------------------------------------------
  Sum of atomic charges =    -0.000000
  Sum of spin   charges =     1.000000

 -----------------------------------------------------------------
                    Cartesian Multipole Moments
 -----------------------------------------------------------------
    Charge (ESU x 10^10)
                -0.0000
    Dipole Moment (Debye)
         X      -1.2360      Y      -2.6324      Z       1.2934
       Tot       3.1828
    Quadrupole Moments (Debye-Ang)
        XX     -38.2033     XY      -3.9749     YY     -41.8123
        XZ       0.9888     YZ      -1.2944     ZZ     -42.5215
    Octopole Moments (Debye-Ang^2)
       XXX     -12.3168    XXY     -11.2679    XYY     -12.3520
       YYY     -32.8543    XXZ       6.4765    XYZ       2.4522
       YYZ       1.9098    XZZ      -4.1273    YZZ      -8.4091
       ZZZ      14.9258
    Hexadecapole Moments (Debye-Ang^3)
      XXXX    -235.4575   XXXY     -15.8950   XXYY     -99.3421
      XYYY     -31.2894   YYYY    -333.6035   XXXZ      -6.5314
      XXYZ       4.6103   XYYZ       0.6227   YYYZ       4.9084
      XXZZ     -62.3316   XYZZ      -3.2159   YYZZ     -73.5547
      XZZZ     -15.0678   YZZZ       2.6973   ZZZZ    -126.8636
 -----------------------------------------------------------------
 Calculating analytic gradient of the SCF energy
 Gradient of SCF Energy
            1           2           3           4           5           6
    1   0.0000022  -0.0000066   0.0000047   0.0000004   0.0000064   0.0000026
    2  -0.0000040   0.0000072  -0.0000053   0.0000001   0.0000002  -0.0000016
    3   0.0000059   0.0000170   0.0000130  -0.0000072  -0.0000101  -0.0000059
            7           8           9          10          11          12
    1  -0.0000018  -0.0000061  -0.0000021  -0.0000001   0.0000082   0.0000007
    2   0.0000007  -0.0000037  -0.0000043   0.0000044  -0.0000028  -0.0000004
    3   0.0000080   0.0000163  -0.0000006  -0.0000123  -0.0000167  -0.0000090
           13
    1  -0.0000085
    2   0.0000094
    3   0.0000017
 Max gradient component =       1.702E-05
 RMS gradient           =       7.298E-06
 Gradient time:  CPU 8.09 s  wall 5.11 s
 Geometry Optimization Parameters
   NAtoms,    NIC,     NZ,  NCons,   NDum,   NFix, NCnnct, MaxDiis
       13     157       0       0       0       0       0       0

 Cartesian Hessian Update
 Hessian Updated using Powell/Murtagh-Sargent Update
**WARNING** Small Scalar Product
 Hessian Update Skipped this cycle


** GEOMETRY OPTIMIZATION IN DELOCALIZED INTERNAL COORDINATES **
   Searching for a Transition State

   Optimization Cycle:  16

                       Coordinates (Angstroms)
     ATOM                X               Y               Z
      1  C         1.3586352266    0.4036884407    0.2240864355
      2  C         0.8089703589   -0.9180285992   -0.2332450540
      3  C        -0.5244386742   -0.8717108452   -0.9057546372
      4  C        -1.0747660992    0.3169841336   -0.0428655972
      5  C        -0.4047779643    1.5870781442   -0.3957180554
      6  N         0.8856618472    1.6126266754   -0.1978300457
      7  H         2.2611051455    0.3712494226    0.8274358536
      8  H         1.4263197578   -1.8096138920   -0.1941284227
      9  H        -1.0813423222   -1.8088943857   -0.9204125873
     10  H        -2.1460531454    0.3331709506    0.1491896865
     11  H        -0.9225507945    2.4349849892   -0.8355683221
     12  C        -0.1611721598   -0.5332232190    0.8429671317
     13  H        -0.4865033758   -1.1586753625    1.6725487411
   Point Group: c1    Number of degrees of freedom:    33


   Energy is   -286.791737627

 Hessian Updated using Powell/Murtagh-Sargent Update
**WARNING** Small Scalar Product
 Hessian Update Skipped this cycle

 33 Hessian modes will be used to form the next step
  Hessian Eigenvalues:
    -0.108352    0.002394    0.005216    0.008476    0.010211    0.011128
     0.012717    0.016539    0.018525    0.019611    0.025649    0.029153
     0.031595    0.035714    0.044648    0.052944    0.076047    0.080399
     0.105844    0.115741    0.122182    0.167532    0.196751    0.221747
     0.244338    0.302920    0.335046    0.339829    0.357650    0.358151
     0.360836    0.365110    0.490562

 Transition State Search - Taking P-RFO Step
 Searching for Lamda that Maximizes Along the Lowest mode
 Value Taken    Lamda =   0.00000000
 Searching for Lamda that Minimizes Along All other modes
 Value Taken    Lamda =   0.00000000
 Step Taken.  Stepsize is  0.000557

                             Maximum     Tolerance    Cnvgd?
         Gradient           0.000006      0.000010     YES
         Displacement       0.000254      0.001200     YES
         Energy change     -0.000000      0.000001     YES


                       Distance Matrix (Angstroms)
             C (  1)   C (  2)   C (  3)   C (  4)   C (  5)   N (  6)
   C (  2)  1.502737
   C (  3)  2.539518  1.494120
   C (  4)  2.449535  2.260523  1.568577
   C (  5)  2.212283  2.788394  2.513981  1.478691
   N (  6)  1.365009  2.532065  2.943038  2.354991  1.305775
   H (  7)  1.086064  2.212686  3.508298  3.447957  3.175103  2.117553
   H (  8)  2.253484  1.085161  2.278493  3.286446  3.864075  3.464687
   H (  9)  3.486960  2.199801  1.090261  2.299889  3.502238  4.012236
   H ( 10)  3.506198  3.231706  2.279097  1.088487  2.213876  3.308886
   H ( 11)  3.233086  3.821473  3.331315  2.266600  1.086510  2.086292
   C ( 12)  1.889611  1.499161  1.817846  1.530427  2.467663  2.604571
   H ( 13)  2.818432  2.316940  2.594501  2.338006  3.438542  3.614038
             H (  7)   H (  8)   H (  9)   H ( 10)   H ( 11)   C ( 12)
   H (  8)  2.548848
   H (  9)  4.356599  2.610720
   H ( 10)  4.459205  4.179862  2.620325
   H ( 11)  4.142494  4.893389  4.247696  2.623800
   C ( 12)  2.585680  2.285798  2.362955  2.274141  3.493915
   H ( 13)  3.256415  2.750836  2.738625  2.701913  4.403996  1.088686

 
 Final energy is   -286.791737627117     


 ******************************
 **  OPTIMIZATION CONVERGED  **
 ******************************

                       Coordinates (Angstroms)
     ATOM                X               Y               Z
      1  C         1.3586352266    0.4036884407    0.2240864355
      2  C         0.8089703589   -0.9180285992   -0.2332450540
      3  C        -0.5244386742   -0.8717108452   -0.9057546372
      4  C        -1.0747660992    0.3169841336   -0.0428655972
      5  C        -0.4047779643    1.5870781442   -0.3957180554
      6  N         0.8856618472    1.6126266754   -0.1978300457
      7  H         2.2611051455    0.3712494226    0.8274358536
      8  H         1.4263197578   -1.8096138920   -0.1941284227
      9  H        -1.0813423222   -1.8088943857   -0.9204125873
     10  H        -2.1460531454    0.3331709506    0.1491896865
     11  H        -0.9225507945    2.4349849892   -0.8355683221
     12  C        -0.1611721598   -0.5332232190    0.8429671317
     13  H        -0.4865033758   -1.1586753625    1.6725487411

Z-matrix Print:
$molecule
0 2
N 
C  1 1.305775
H  2 1.086510 1 121.133411
C  1 1.365009 2 111.835511 3 -173.290807 0
H  4 1.086064 1 119.084004 2 -153.188997 0
C  2 1.478691 1 115.367126 3 177.171271 0
H  6 1.088487 2 118.376688 1 158.958447 0
C  4 1.502737 1 123.929190 2 34.804159 0
H  8 1.085161 4 120.237334 1 155.997910 0
C  8 1.494120 4 115.858339 1 -15.569952 0
H  10 1.090261 8 115.801819 4 -159.156173 0
C  8 1.499161 4 78.022272 1 -81.938038 0
H  12 1.088686 8 126.365905 4 -129.944935 0
$end

 
 --------------------------------------------------------------
 
                    Orbital Energies (a.u.)
 --------------------------------------------------------------
 
 Alpha MOs
 -- Occupied --
-14.316 -10.239 -10.234 -10.218 -10.218 -10.216 -10.208  -0.966
 -0.875  -0.755  -0.644  -0.625  -0.603  -0.547  -0.497  -0.450
 -0.439  -0.423  -0.412  -0.370  -0.363  -0.310  -0.268  -0.244
 -0.126
 -- Virtual --
 -0.015   0.053   0.081   0.127   0.144   0.147   0.158   0.159
  0.180   0.186   0.207   0.248   0.287   0.307   0.333   0.407
  0.483   0.510   0.516   0.527   0.554   0.556   0.583   0.595
  0.605   0.645   0.655   0.667   0.700   0.738   0.764   0.803
  0.822   0.831   0.845   0.851   0.867   0.878   0.934   0.941
  0.954   1.041   1.091   1.108   1.137   1.216   1.311   1.345
  1.378   1.404   1.474   1.499   1.556   1.626   1.651   1.716
  1.745   1.787   1.838   1.881   1.893   1.965   1.994   2.025
  2.103   2.148   2.175   2.238   2.279   2.334   2.358   2.371
  2.409   2.455   2.475   2.505   2.561   2.577   2.630   2.651
  2.690   2.735   2.799   2.964   3.064   4.005   4.184   4.217
  4.356   4.405   4.502   4.517
 
 Beta MOs
 -- Occupied --
-14.316 -10.240 -10.231 -10.216 -10.216 -10.210 -10.204  -0.961
 -0.871  -0.748  -0.636  -0.616  -0.600  -0.543  -0.492  -0.446
 -0.432  -0.419  -0.401  -0.363  -0.355  -0.290  -0.261  -0.234
 -- Virtual --
 -0.033   0.007   0.065   0.083   0.131   0.148   0.152   0.161
  0.164   0.185   0.190   0.213   0.251   0.291   0.314   0.342
  0.411   0.493   0.513   0.523   0.531   0.559   0.571   0.593
  0.598   0.614   0.657   0.664   0.675   0.705   0.743   0.766
  0.805   0.825   0.834   0.847   0.853   0.871   0.884   0.936
  0.947   0.961   1.045   1.095   1.115   1.143   1.220   1.317
  1.351   1.384   1.409   1.481   1.505   1.563   1.630   1.660
  1.719   1.755   1.803   1.850   1.886   1.899   1.972   1.999
  2.031   2.112   2.159   2.188   2.252   2.288   2.342   2.364
  2.379   2.418   2.460   2.490   2.514   2.567   2.581   2.635
  2.656   2.696   2.741   2.807   2.967   3.068   4.007   4.193
  4.227   4.366   4.409   4.509   4.519
 --------------------------------------------------------------
 
          Ground-State Mulliken Net Atomic Charges

     Atom                 Charge (a.u.)    Spin (a.u.)
  --------------------------------------------------------
      1 C                     0.025795       0.248606
      2 C                    -0.172149       0.064495
      3 C                    -0.105953       0.578891
      4 C                    -0.250404       0.015692
      5 C                     0.096698       0.255066
      6 N                    -0.373612      -0.013102
      7 H                     0.152465      -0.010439
      8 H                     0.158554      -0.007332
      9 H                     0.146090      -0.004913
     10 H                     0.148687      -0.003155
     11 H                     0.138934      -0.013945
     12 C                    -0.124653      -0.128145
     13 H                     0.159549       0.018282
  --------------------------------------------------------
  Sum of atomic charges =    -0.000000
  Sum of spin   charges =     1.000000

 -----------------------------------------------------------------
                    Cartesian Multipole Moments
 -----------------------------------------------------------------
    Charge (ESU x 10^10)
                -0.0000
    Dipole Moment (Debye)
         X      -1.2360      Y      -2.6324      Z       1.2934
       Tot       3.1828
    Quadrupole Moments (Debye-Ang)
        XX     -38.2033     XY      -3.9749     YY     -41.8123
        XZ       0.9888     YZ      -1.2944     ZZ     -42.5215
    Octopole Moments (Debye-Ang^2)
       XXX     -12.3168    XXY     -11.2679    XYY     -12.3520
       YYY     -32.8543    XXZ       6.4765    XYZ       2.4522
       YYZ       1.9098    XZZ      -4.1273    YZZ      -8.4091
       ZZZ      14.9258
    Hexadecapole Moments (Debye-Ang^3)
      XXXX    -235.4575   XXXY     -15.8950   XXYY     -99.3421
      XYYY     -31.2894   YYYY    -333.6035   XXXZ      -6.5314
      XXYZ       4.6103   XYYZ       0.6227   YYYZ       4.9084
      XXZZ     -62.3316   XYZZ      -3.2159   YYZZ     -73.5547
      XZZZ     -15.0678   YZZZ       2.6973   ZZZZ    -126.8636
 -----------------------------------------------------------------
Archival summary:
1\1\c8-73\TS\ProcedureUnspecified\6-31G*\166(2)\hpark21\WedMar211:49:302022WedMar211:49:302022\0\\#,TS,ProcedureUnspecified,6-31G*,\\0,2\N\C,1,1.30577\H,2,1.08651,1,121.133\C,1,1.36501,2,111.836,3,-173.291,0\H,4,1.08606,1,119.084,2,-153.189,0\C,2,1.47869,1,115.367,3,177.171,0\H,6,1.08849,2,118.377,1,158.958,0\C,4,1.50274,1,123.929,2,34.8042,0\H,8,1.08516,4,120.237,1,155.998,0\C,8,1.49412,4,115.858,1,-15.57,0\H,10,1.09026,8,115.802,4,-159.156,0\C,8,1.49916,4,78.0223,1,-81.938,0\H,12,1.08869,8,126.366,4,-129.945,0\\\@

 Total job time:  633.12s(wall), 711.86s(cpu) 
 Wed Mar  2 11:49:30 2022

        *************************************************************
        *                                                           *
        *  Thank you very much for using Q-Chem.  Have a nice day.  *
        *                                                           *
        *************************************************************


