13
image # 1 Energy = -286.85491
C 1.68031   0.39455   -0.17907  
C 1.12635   -0.83480  -0.26739  
C -0.31642  -1.06216  -0.08275  
C -1.15599  0.32831   0.04768   
C -0.32704  1.53238   -0.14909  
N 0.95988   1.58970   -0.16653  
H 2.75718   0.52306   -0.25093  
H 1.74816   -1.69800  -0.49194  
H -0.75807  -1.90171  -0.62277  
H -2.16299  0.39242   -0.36922  
H -0.86699  2.46042   -0.35274  
C -0.95817  -0.61450  1.15131   
H -1.72621  -1.10966  1.73344   
13
image # 2 Energy = -286.85147
C 1.67897   0.41504   -0.15078  
C 1.10262   -0.87029  -0.27503  
C -0.32628  -1.07130  -0.14202  
C -1.16316  0.33750   0.03691   
C -0.32628  1.52988   -0.16824  
N 0.94506   1.58546   -0.17189  
H 2.74063   0.51178   -0.18510  
H 1.73540   -1.70210  -0.46831  
H -0.77682  -1.87260  -0.68792  
H -2.17071  0.38537   -0.32957  
H -0.87859  2.45931   -0.39294  
C -0.93048  -0.62420  1.16182   
H -1.64391  -1.08872  1.77484   
13
image # 3 Energy = -286.85249
C 1.64715   0.38120   -0.12447  
C 1.10085   -0.84601  -0.27084  
C -0.34589  -1.05726  -0.17237  
C -1.15025  0.32312   0.04864   
C -0.34296  1.53533   -0.18678  
N 0.94145   1.59069   -0.17900  
H 2.73262   0.50417   -0.12603  
H 1.73188   -1.72060  -0.45299  
H -0.80177  -1.86387  -0.76177  
H -2.18941  0.38152   -0.29999  
H -0.88394  2.45189   -0.42902  
C -0.87642  -0.60561  1.13681   
H -1.58615  -1.08271  1.82166   
13
image # 4 Energy = -286.84951
C 1.63828   0.37776   -0.09861  
C 1.09593   -0.84587  -0.28618  
C -0.37927  -1.05043  -0.19425  
C -1.14532  0.33100   0.04203   
C -0.36708  1.53788   -0.21128  
N 0.94692   1.57326   -0.18523  
H 2.70653   0.49123   -0.05022  
H 1.71528   -1.72524  -0.42618  
H -0.82026  -1.82735  -0.82787  
H -2.19227  0.37220   -0.25292  
H -0.89516  2.44647   -0.47389  
C -0.85205  -0.63729  1.11501   
H -1.48408  -1.05591  1.85342   
13
image # 5 Energy = -286.84822
C 1.63118   0.36999   -0.08100  
C 1.07610   -0.86081  -0.29287  
C -0.36743  -1.04188  -0.24619  
C -1.13957  0.32034   0.05459   
C -0.37582  1.54591   -0.22860  
N 0.93690   1.58512   -0.19420  
H 2.69020   0.48042   0.01745   
H 1.70166   -1.72987  -0.40628  
H -0.84691  -1.81038  -0.88970  
H -2.21094  0.36966   -0.22159  
H -0.89559  2.43479   -0.51259  
C -0.82580  -0.62586  1.10934   
H -1.41336  -1.05215  1.89291   
13
image # 6 Energy = -286.84616
C 1.61009   0.36026   -0.06679  
C 1.05754   -0.85158  -0.30606  
C -0.38502  -1.04116  -0.27796  
C -1.14330  0.32742   0.05562   
C -0.36397  1.54309   -0.24455  
N 0.91686   1.58039   -0.20605  
H 2.68004   0.47097   0.10057   
H 1.69060   -1.73848  -0.38351  
H -0.86879  -1.77175  -0.93772  
H -2.21599  0.36547   -0.18175  
H -0.90245  2.43072   -0.56154  
C -0.79648  -0.64373  1.08049   
H -1.32411  -1.04873  1.92950   
13
image # 7 Energy = -286.84183
C 1.58331   0.35930   -0.03688  
C 1.05626   -0.85847  -0.30572  
C -0.41124  -1.03378  -0.32290  
C -1.14336  0.32336   0.05468   
C -0.36694  1.53624   -0.26096  
N 0.91367   1.57511   -0.21362  
H 2.65084   0.45703   0.17037   
H 1.67100   -1.74315  -0.36320  
H -0.88872  -1.74927  -1.00129  
H -2.21642  0.35911   -0.14355  
H -0.91170  2.42861   -0.60170  
C -0.74953  -0.63532  1.07221   
H -1.23726  -1.03792  1.95089   
13
image # 8 Energy = -286.83744
C 1.57602   0.36177   -0.01818  
C 1.02991   -0.83667  -0.32113  
C -0.42487  -1.02429  -0.35488  
C -1.14672  0.32900   0.05304   
C -0.37184  1.53690   -0.27948  
N 0.91199   1.56232   -0.22301  
H 2.61463   0.44176   0.26053   
H 1.65940   -1.75950  -0.33780  
H -0.91611  -1.72007  -1.04783  
H -2.21470  0.35412   -0.10062  
H -0.91543  2.42089   -0.65094  
C -0.72449  -0.64854  1.04810   
H -1.13134  -1.03832  1.96877   
13
image # 9 Energy = -286.83284
C 1.54915   0.35867   0.00665   
C 1.01997   -0.85731  -0.32842  
C -0.44468  -1.01035  -0.40053  
C -1.12921  0.32487   0.05197   
C -0.38052  1.54940   -0.30191  
N 0.90418   1.57068   -0.22748  
H 2.58670   0.42756   0.34638   
H 1.63166   -1.74846  -0.31485  
H -0.94482  -1.71550  -1.07633  
H -2.22469  0.35358   -0.06806  
H -0.91039  2.41293   -0.68379  
C -0.68072  -0.64384  1.02373   
H -1.03325  -1.04603  1.96659   
13
image # 10 Energy = -286.82640
C 1.53168   0.35379   0.03238   
C 0.99547   -0.85923  -0.31932  
C -0.45829  -0.99417  -0.44919  
C -1.13787  0.32192   0.04126   
C -0.38398  1.54523   -0.31568  
N 0.90620   1.57845   -0.22808  
H 2.54285   0.41437   0.41934   
H 1.61031   -1.74939  -0.29546  
H -0.97314  -1.72498  -1.09862  
H -2.21730  0.35363   -0.03988  
H -0.91244  2.42032   -0.71281  
C -0.62169  -0.63248  1.00919   
H -0.94136  -1.05532  1.94892   
13
image # 11 Energy = -286.81991
C 1.51390   0.36710   0.05081   
C 0.96829   -0.85252  -0.30236  
C -0.48047  -0.98264  -0.51459  
C -1.12534  0.31927   0.02769   
C -0.38020  1.55712   -0.33035  
N 0.90067   1.57474   -0.22101  
H 2.50511   0.40249   0.48333   
H 1.59219   -1.75368  -0.27799  
H -1.00069  -1.75488  -1.08204  
H -2.21897  0.35519   -0.02330  
H -0.90873  2.42840   -0.72461  
C -0.56602  -0.62094  0.98687   
H -0.86317  -1.07576  1.91668   
13
image # 12 Energy = -286.82354
C 1.51420   0.39781   0.03359   
C 0.91804   -0.84818  -0.24291  
C -0.50688  -0.96613  -0.55197  
C -1.12445  0.33412   0.00225   
C -0.38120  1.56533   -0.34969  
N 0.91065   1.58707   -0.21046  
H 2.47103   0.39674   0.56728   
H 1.54075   -1.74681  -0.24507  
H -1.02869  -1.78132  -1.03381  
H -2.21561  0.36098   -0.00323  
H -0.89905  2.43803   -0.74339  
C -0.51947  -0.65342  0.91158   
H -0.74543  -1.12879  1.85508   
13
image # 13 Energy = -286.83244
C 1.50770   0.42703   0.03382   
C 0.86264   -0.85077  -0.16229  
C -0.53012  -0.95082  -0.61518  
C -1.11500  0.32933   -0.01966  
C -0.37970  1.57353   -0.35899  
N 0.92097   1.59626   -0.19682  
H 2.45481   0.40013   0.59266   
H 1.50203   -1.74268  -0.21936  
H -1.04306  -1.81844  -0.98971  
H -2.20728  0.36083   0.00093   
H -0.89785  2.45297   -0.73622  
C -0.44796  -0.67477  0.86998   
H -0.69662  -1.15795  1.79193   
13
image # 14 Energy = -286.83279
C 1.50330   0.44107   0.04778   
C 0.81290   -0.85667  -0.09572  
C -0.54316  -0.93598  -0.71095  
C -1.10278  0.32329   -0.04966  
C -0.38511  1.58192   -0.36808  
N 0.92264   1.61366   -0.18201  
H 2.43185   0.40444   0.61494   
H 1.45249   -1.73636  -0.18172  
H -1.05590  -1.85656  -0.91221  
H -2.18691  0.35682   0.01237   
H -0.89792  2.46970   -0.71671  
C -0.36156  -0.67490  0.82051   
H -0.66215  -1.19352  1.71528   
13
image # 15 Energy = -286.79920
C 1.43411   0.41637   0.13477   
C 0.80177   -0.89391  -0.13053  
C -0.51168  -0.90172  -0.85536  
C -1.08356  0.29783   -0.05785  
C -0.39300  1.58249   -0.36232  
N 0.90103   1.60173   -0.17945  
H 2.41211   0.38909   0.61612   
H 1.47637   -1.74217  -0.20899  
H -1.04437  -1.86653  -0.84577  
H -2.16817  0.33846   0.00371   
H -0.90813  2.48032   -0.68331  
C -0.28565  -0.60599  0.85693   
H -0.70024  -1.15288  1.70556   
13
image # 16 Energy = -286.78804
C 1.40526   0.38665   0.18170   
C 0.81434   -0.91810  -0.15942  
C -0.49895  -0.91066  -0.84131  
C -1.08405  0.28539   -0.04107  
C -0.39822  1.56920   -0.35563  
N 0.88607   1.58689   -0.19185  
H 2.42437   0.38252   0.56437   
H 1.53076   -1.74360  -0.25136  
H -1.02323  -1.84641  -0.96589  
H -2.17536  0.33263   -0.00799  
H -0.91337  2.46499   -0.68040  
C -0.27175  -0.54887  0.95151   
H -0.76131  -1.08853  1.78907   
13
image # 17 Energy = -286.76779
C 1.36836   0.37620   0.23840   
C 0.81000   -0.95296  -0.17788  
C -0.49129  -0.91866  -0.85788  
C -1.07224  0.26651   -0.03726  
C -0.40164  1.56153   -0.35888  
N 0.87616   1.58196   -0.19726  
H 2.41576   0.37402   0.53974   
H 1.55532   -1.74319  -0.26284  
H -1.02023  -1.84949  -1.06196  
H -2.17927  0.33036   -0.00124  
H -0.91859  2.45906   -0.67471  
C -0.22666  -0.48018  1.00803   
H -0.77657  -1.04553  1.83445   
13
image # 18 Energy = -286.76890
C 1.32452   0.34522   0.29134   
C 0.79365   -0.95719  -0.19181  
C -0.48225  -0.93053  -0.85140  
C -1.06884  0.24094   -0.03509  
C -0.40143  1.55687   -0.36569  
N 0.87118   1.58550   -0.20183  
H 2.39793   0.36284   0.52673   
H 1.57341   -1.74737  -0.26458  
H -1.02288  -1.85270  -1.16835  
H -2.17063  0.32622   0.01279   
H -0.92595  2.45517   -0.67425  
C -0.18382  -0.42036  1.06147   
H -0.75885  -0.99449  1.84882   
13
image # 19 Energy = -286.76895
C 1.29974   0.33302   0.32907   
C 0.78182   -0.97338  -0.17878  
C -0.49680  -0.95371  -0.82448  
C -1.06623  0.22620   -0.01950  
C -0.40331  1.54612   -0.37338  
N 0.86276   1.57697   -0.21633  
H 2.38120   0.35533   0.52533   
H 1.56772   -1.75819  -0.26186  
H -0.99990  -1.79382  -1.30037  
H -2.16735  0.31466   0.03929   
H -0.93789  2.43317   -0.69758  
C -0.14663  -0.38228  1.08804   
H -0.72375  -0.94854  1.87707   
13
image # 20 Energy = -286.78280
C 1.27661   0.33001   0.35553   
C 0.77199   -0.99605  -0.16058  
C -0.50691  -0.96431  -0.79365  
C -1.07109  0.21804   -0.00393  
C -0.40802  1.52769   -0.38154  
N 0.85772   1.56551   -0.23179  
H 2.36718   0.34890   0.53666   
H 1.54982   -1.76846  -0.25553  
H -0.97608  -1.71889  -1.43082  
H -2.16218  0.29992   0.07109   
H -0.95165  2.40789   -0.73223  
C -0.11390  -0.36445  1.09830   
H -0.67636  -0.90501  1.91344   
13
image # 21 Energy = -286.78669
C 1.26933   0.32302   0.36384   
C 0.77530   -1.00989  -0.14838  
C -0.52618  -0.97281  -0.77383  
C -1.07863  0.21123   0.01456   
C -0.41466  1.50972   -0.39064  
N 0.84456   1.55045   -0.25458  
H 2.35461   0.34510   0.56326   
H 1.52703   -1.79700  -0.24611  
H -0.93606  -1.59897  -1.54933  
H -2.16753  0.28080   0.11084   
H -0.96525  2.36870   -0.78281  
C -0.10531  -0.36545  1.10811   
H -0.61546  -0.86159  1.96859   
13
image # 22 Energy = -286.80068
C 1.25487   0.31983   0.38396   
C 0.75244   -1.02462  -0.14045  
C -0.53145  -0.96188  -0.77889  
C -1.07193  0.19806   0.02598   
C -0.43339  1.50076   -0.40492  
N 0.83968   1.53837   -0.26606  
H 2.32616   0.33653   0.60466   
H 1.50405   -1.81928  -0.23170  
H -0.91498  -1.51989  -1.63605  
H -2.16890  0.26398   0.14675   
H -0.97188  2.33755   -0.82127  
C -0.07631  -0.35584  1.10121   
H -0.54077  -0.82707  1.99962   
13
image # 23 Energy = -286.81342
C 1.23518   0.31933   0.39664   
C 0.72906   -1.03966  -0.13576  
C -0.53431  -0.95593  -0.79648  
C -1.07695  0.18933   0.03966   
C -0.43061  1.48314   -0.41286  
N 0.82192   1.52686   -0.27687  
H 2.29879   0.32748   0.65280   
H 1.47778   -1.84348  -0.21477  
H -0.89089  -1.43378  -1.71161  
H -2.16596  0.24495   0.18322   
H -0.98255  2.31128   -0.86516  
C -0.04829  -0.34850  1.09582   
H -0.45940  -0.79101  2.02859   
13
image # 24 Energy = -286.82428
C 1.21544   0.31838   0.40078   
C 0.72052   -1.05589  -0.13157  
C -0.54793  -0.95416  -0.82882  
C -1.08674  0.18017   0.05073   
C -0.45053  1.47111   -0.42332  
N 0.82900   1.51725   -0.28323  
H 2.27133   0.31912   0.70644   
H 1.44603   -1.86565  -0.19564  
H -0.86469  -1.34238  -1.77155  
H -2.16372  0.22566   0.22028   
H -0.99103  2.28155   -0.91036  
C -0.02491  -0.34676  1.09549   
H -0.37299  -0.75528  2.05496   
13
image # 25 Energy = -286.83134
C 1.21174   0.30978   0.40384   
C 0.70910   -1.06543  -0.13380  
C -0.55546  -0.94302  -0.83883  
C -1.08860  0.16771   0.05260   
C -0.45346  1.46571   -0.43246  
N 0.81715   1.51403   -0.29184  
H 2.23645   0.31048   0.76184   
H 1.41560   -1.89020  -0.17407  
H -0.84291  -1.25737  -1.83386  
H -2.16746  0.20577   0.26026   
H -0.99888  2.25026   -0.95524  
C -0.01426  -0.35258  1.08869   
H -0.28231  -0.71938  2.08051   
13
image # 26 Energy = -286.83642
C 1.19552   0.30889   0.41459   
C 0.68834   -1.07608  -0.12727  
C -0.56291  -0.93462  -0.86355  
C -1.08774  0.16045   0.05594   
C -0.45858  1.45891   -0.44196  
N 0.81121   1.51191   -0.29365  
H 2.20501   0.30037   0.81239   
H 1.38961   -1.90441  -0.15540  
H -0.83140  -1.20155  -1.87762  
H -2.15789  0.18835   0.29164   
H -1.00342  2.22729   -0.98724  
C 0.00532   -0.35012  1.07649   
H -0.19998  -0.69136  2.08814   
13
image # 27 Energy = -286.83833
C 1.18183   0.31598   0.42227   
C 0.66060   -1.09104  -0.12241  
C -0.56732  -0.92524  -0.88801  
C -1.08516  0.15425   0.06002   
C -0.46544  1.44932   -0.45143  
N 0.80667   1.50983   -0.29311  
H 2.17025   0.28915   0.86951   
H 1.36015   -1.92100  -0.13356  
H -0.81894  -1.14057  -1.92385  
H -2.14444  0.16727   0.32579   
H -1.00782  2.20128   -1.02244  
C 0.01595   -0.34768  1.06247   
H -0.10632  -0.66156  2.09475   
