
Running Job 1 of 1 optimize.in
qchem optimize.in_39075.0 ./optimize.d/ 1
/home/leeping/opt/qchem/5.0.2-openmp/exe/qcprog.exe_s optimize.in_39075.0 ./optimize.d/
Check license passed

                  Welcome to Q-Chem
     A Quantum Leap Into The Future Of Chemistry


 Q-Chem 5.0, Q-Chem, Inc., Pleasanton, CA (2017)

 Yihan Shao,  Zhengting Gan,  E. Epifanovsky,  A. T. B. Gilbert,  M. Wormit,  
 J. Kussmann,  A. W. Lange,  A. Behn,  Jia Deng,  Xintian Feng,  D. Ghosh,  
 M. Goldey,  P. R. Horn,  L. D. Jacobson,  I. Kaliman,  T. Kus,  A. Landau,  
 Jie Liu,  E. I. Proynov,  R. M. Richard,  R. P. Steele,  E. J. Sundstrom,  
 H. L. Woodcock III,  P. M. Zimmerman,  D. Zuev,  B. Albrecht,  E. Alguire,  
 S. A. Baeppler,  D. Barton,  Z. Benda,  Y. A. Bernard,  E. J. Berquist,  
 K. B. Bravaya,  H. Burton,  D. Casanova,  Chun-Min Chang,  Yunqing Chen,  
 A. Chien,  K. D. Closser,  M. P. Coons,  S. Dasgupta,  A. L. Dempwolff,  
 M. Diedenhofen,  Hainam Do,  R. G. Edgar,  Po-Tung Fang,  S. Fatehi,  
 Qingguo Feng,  J. Fosso-Tande,  Qinghui Ge,  A. Ghysels,  G. Gidofalvi,  
 J. Gomes,  J. Gonthier,  A. Gunina,  M. W. D. Hanson-Heine,  
 P. H. P. Harbach,  A. W. Hauser,  J. E. Herr,  E. G. Hohenstein,  
 Z. C. Holden,  Kerwin Hui,  T.-C. Jagau,  Hyunjun Ji,  B. Kaduk,  
 K. Khistyaev,  Jaehoon Kim,  P. Klunzinger,  K. Koh,  D. Kosenkov,  
 L. Koulias,  T. Kowalczyk,  C. M. Krauter,  A. Kunitsa,  Ka Un Lao,  
 A. Laurent,  K. V. Lawler,  Joonho Lee,  D. Lefrancois,  S. Lehtola,  
 D. S. Levine,  Yi-Pei Li,  You-Sheng Lin,  Fenglai Liu,  E. Livshits,  
 A. Luenser,  P. Manohar,  E. Mansoor,  S. F. Manzer,  Shan-Ping Mao,  
 Yuezhi Mao,  N. Mardirossian,  A. V. Marenich,  T. Markovich,  
 L. A. Martinez-Martinez,  S. A. Maurer,  N. J. Mayhall,  S. C. McKenzie,  
 J.-M. Mewes,  A. F. Morrison,  J. W. Mullinax,  K. Nanda,  
 T. S. Nguyen-Beck,  R. Olivares-Amaya,  J. A. Parkhill,  T. M. Perrine,  
 F. Plasser,  S. Prager,  A. Prociuk,  E. Ramos,  D. R. Rehn,  F. Rob,  
 M. Schneider,  N. Sergueev,  S. M. Sharada,  S. Sharma,  D. W. Small,  
 T. Stauch,  T. Stein,  Yu-Chuan Su,  A. J. W. Thom,  A. Tkatchenko,  
 T. Tsuchimochi,  L. Vogt,  O. Vydrov,  M. A. Watson,  J. Wenzel,  
 M. de Wergifosse,  T. A. Wesolowski,  A. White,  J. Witte,  A. Yamada,  
 Jun Yang,  K. Yao,  S. Yeganeh,  S. R. Yost,  Zhi-Qiang You,  A. Zech,  
 Igor Ying Zhang,  Xing Zhang,  Yan Zhao,  Ying Zhu,  B. R. Brooks,  
 G. K. L. Chan,  C. J. Cramer,  M. S. Gordon,  W. J. Hehre,  A. Klamt,  
 M. W. Schmidt,  C. D. Sherrill,  D. G. Truhlar,  A. Aspuru-Guzik,  R. Baer,  
 A. T. Bell,  N. A. Besley,  Jeng-Da Chai,  R. A. DiStasio Jr.,  A. Dreuw,  
 B. D. Dunietz,  T. R. Furlani,  Chao-Ping Hsu,  Yousung Jung,  Jing Kong,  
 D. S. Lambrecht,  WanZhen Liang,  C. Ochsenfeld,  V. A. Rassolov,  
 L. V. Slipchenko,  J. E. Subotnik,  T. Van Voorhis,  J. M. Herbert,  
 A. I. Krylov,  P. M. W. Gill,  M. Head-Gordon

 Contributors to earlier versions of Q-Chem not listed above: 
 R. D. Adamson,  B. Austin,  J. Baker,  G. J. O. Beran,  K. Brandhorst,  
 S. T. Brown,  E. F. C. Byrd,  A. K. Chakraborty,  C.-L. Cheng,  
 Siu Hung Chien,  D. M. Chipman,  D. L. Crittenden,  H. Dachsel,  
 R. J. Doerksen,  A. D. Dutoi,  L. Fusti-Molnar,  W. A. Goddard III,  
 A. Golubeva-Zadorozhnaya,  S. R. Gwaltney,  G. Hawkins,  A. Heyden,  
 S. Hirata,  G. Kedziora,  F. J. Keil,  C. Kelley,  Jihan Kim,  R. A. King,  
 R. Z. Khaliullin,  P. P. Korambath,  W. Kurlancheek,  A. M. Lee,  M. S. Lee,  
 S. V. Levchenko,  Ching Yeh Lin,  D. Liotard,  R. C. Lochan,  I. Lotan,  
 P. E. Maslen,  N. Nair,  D. P. O'Neill,  D. Neuhauser,  E. Neuscamman,  
 C. M. Oana,  R. Olson,  B. Peters,  R. Peverati,  P. A. Pieniazek,  
 Y. M. Rhee,  J. Ritchie,  M. A. Rohrdanz,  E. Rosta,  N. J. Russ,  
 H. F. Schaefer III,  N. E. Schultz,  N. Shenvi,  A. C. Simmonett,  A. Sodt,  
 D. Stuck,  K. S. Thanthiriwatte,  V. Vanovschi,  Tao Wang,  A. Warshel,  
 C. F. Williams,  Q. Wu,  X. Xu,  W. Zhang

 Please cite Q-Chem as follows:
 Y. Shao et al., Mol. Phys. 113, 184-215 (2015)
 DOI: 10.1080/00268976.2014.952696

 Q-Chem 5.0.2 for Intel X86 EM64T Linux

 Parts of Q-Chem use Armadillo 5.200.1 (Boston Tea Smuggler).
 http://arma.sourceforge.net/

 Q-Chem begins on Tue Mar  1 12:19:10 2022  

Host: 
0

     Scratch files written to ./optimize.d//
 Dec517 15110_ 26548  26544 5633   
Processing $rem in /home/leeping/opt/qchem/5.0.2-openmp/config/preferences.
 MEM_STATIC 2000
 MEM_TOTAL  8000
 SYMMETRY   OFF
 SYM_IGNORE TRUE 

Checking the input file for inconsistencies... 	...done.

--------------------------------------------------------------
User input:
--------------------------------------------------------------
$molecule
0 2
C        1.4287593682    0.8425195606   -0.3250872097
C        0.2766459415   -1.4163105594   -0.2011434153
C       -0.9821599900   -1.0609185183    0.1815044956
C       -1.4663085310    0.2730374794    0.4321864887
C       -0.7711985315    1.4644581620    0.3445855300
N        0.5055704975    1.7716839771    0.0152833887
H        2.3961927978    1.2938132753   -0.5562728852
H        0.4722278096   -2.4767490943   -0.3472949383
H       -1.7075845728   -1.8610258723    0.3144518885
H       -2.5090420399    0.3578883204    0.7286078105
H       -1.3559728150    2.3548527029    0.5861931606
C        1.3907341015   -0.5349550234   -0.4358252828
H        2.3221359647   -1.0082944096   -0.7371890318
$end

$rem
method                b3lyp
basis                 6-31g(d)
unrestricted          true
symmetry              off
sym_ignore            true
incdft                false
incfock               0
scf_convergence       8
thresh                14
jobtype               opt
scf_guess             read
scf_algorithm         diis
max_scf_cycles        100
geom_opt_tol_gradient 600
geom_opt_tol_displacement 2400
geom_opt_tol_energy   200
geom_opt_max_cycles   100
$end

--------------------------------------------------------------
 ----------------------------------------------------------------
             Standard Nuclear Orientation (Angstroms)
    I     Atom           X                Y                Z
 ----------------------------------------------------------------
    1      C       1.4287593682     0.8425195606    -0.3250872097
    2      C       0.2766459415    -1.4163105594    -0.2011434153
    3      C      -0.9821599900    -1.0609185183     0.1815044956
    4      C      -1.4663085310     0.2730374794     0.4321864887
    5      C      -0.7711985315     1.4644581620     0.3445855300
    6      N       0.5055704975     1.7716839771     0.0152833887
    7      H       2.3961927978     1.2938132753    -0.5562728852
    8      H       0.4722278096    -2.4767490943    -0.3472949383
    9      H      -1.7075845728    -1.8610258723     0.3144518885
   10      H      -2.5090420399     0.3578883204     0.7286078105
   11      H      -1.3559728150     2.3548527029     0.5861931606
   12      C       1.3907341015    -0.5349550234    -0.4358252828
   13      H       2.3221359647    -1.0082944096    -0.7371890318
 ----------------------------------------------------------------
 Nuclear Repulsion Energy =   260.7432000593 hartrees
 There are       25 alpha and       24 beta electrons
 Requested basis set is 6-31G(d)
 There are 40 shells and 117 basis functions

 Total QAlloc Memory Limit   8000 MB
 Mega-Array Size      1956 MB
 MEM_STATIC part      2000 MB
 A cutoff of  1.0D-14 yielded    791 shell pairs
 There are      7063 function pairs
 
 -------------------------------------------------------
 OpenMP Integral Computing Module                       
 Release: version 1.0, May 2013, Q-Chem Inc. Pittsburgh 
 -------------------------------------------------------
 Integral Job Info:
 Integral job number is                      11
 Integral operator is                         1
 short-range coefficients                     0
 long-range coefficients              100000000
 Omega coefficients                           0
 if combine SR and LR in K                    0
 Integral screening is                        0
 Integral computing path is                   2
 max size of driver memory is            800000
 size of driver memory is                593474
 size of scratch memory is              2361544
 max col of scratch BK array               1296
 max len of scratch array in speh3          155
 max len of scratch index in speh4           18
 max int batch size is                      520
 min int batch size is                       52
 fixed nKL is                                52
 max L of basis functions is                  2
 order of int derivative is                   0
 number of shells is                         40
 number of basis is                         117
 number of cartesian basis is               117
 number of contracted shell pairs           791
 number of primitive shell pairs           3395
 maxK2 (contraction) of shell pair           36
 max number of K2 of shell pair               1
 max number of CS2 of shell pair             94
 max number of PS2 of shell pair            402
 mem total for path MDJ                  535308
 -------------------------------------------------------
 Smallest overlap matrix eigenvalue = 1.33E-03

 Scale SEOQF with 1.000000e-01/1.000000e-01/1.000000e+00

 Standard Electronic Orientation quadrupole field applied
 Nucleus-field energy     =     0.0000000017 hartrees
 Guess MOs from SCF MO coefficient file
 Reading MOs from coefficient file
 Reading MOs from coefficient file
 An unrestricted hybrid HF-DFT SCF calculation will be
 performed using Pulay DIIS extrapolation
 Exchange:     0.2000 Hartree-Fock + 0.0800 Slater + 0.7200 B88
 Correlation:  0.1900 VWN1RPA + 0.8100 LYP
 Using SG-1 standard quadrature grid
 SCF converges when DIIS error is below 1.0E-08
Using Q-Chem read-in guess as SCF_GUESS READ specified.

 using 4 threads for integral computing
 -------------------------------------------------------
 OpenMP Integral computing Module                
 Release: version 1.0, May 2013, Q-Chem Inc. Pittsburgh 
 -------------------------------------------------------
 -------------------------------------------------------
 OpenMP BLAS3 based DFT computing Module                
 Release: version 1.0, May 2013, Q-Chem Inc. Pittsburgh 
 -------------------------------------------------------
 ---------------------------------------
  Cycle       Energy         DIIS Error
 ---------------------------------------
    1    -286.9243179979      5.65E-10
    2    -286.9243179979      1.10E-09 Convergence criterion met
 ---------------------------------------
 <S^2> = 0.7683
 SCF time:  CPU 5.18 s  wall 3.44 s
 SCF   energy in the final basis set = -286.92431800
 Total energy in the final basis set = -286.92431800
 
 --------------------------------------------------------------
 
                    Orbital Energies (a.u.)
 --------------------------------------------------------------
 
 Alpha MOs
 -- Occupied --
-14.322 -10.232 -10.232 -10.212 -10.211 -10.201 -10.200  -0.922
 -0.818  -0.784  -0.693  -0.667  -0.551  -0.537  -0.518  -0.449
 -0.439  -0.414  -0.394  -0.386  -0.349  -0.322  -0.299  -0.251
 -0.161
 -- Virtual --
 -0.072   0.077   0.097   0.101   0.117   0.142   0.181   0.184
  0.193   0.214   0.266   0.320   0.357   0.390   0.412   0.483
  0.497   0.521   0.547   0.576   0.584   0.587   0.591   0.610
  0.619   0.624   0.646   0.658   0.714   0.718   0.833   0.840
  0.847   0.854   0.868   0.872   0.885   0.922   0.965   0.975
  1.024   1.027   1.043   1.127   1.177   1.185   1.300   1.303
  1.326   1.401   1.429   1.480   1.482   1.546   1.574   1.586
  1.682   1.733   1.769   1.829   1.850   1.919   1.925   2.030
  2.046   2.048   2.100   2.141   2.142   2.191   2.247   2.391
  2.410   2.415   2.446   2.546   2.577   2.601   2.614   2.739
  2.749   2.808   3.052   3.250   3.251   4.018   4.046   4.102
  4.196   4.239   4.532   4.595
 
 Beta MOs
 -- Occupied --
-14.314 -10.233 -10.233 -10.210 -10.210 -10.196 -10.196  -0.911
 -0.809  -0.777  -0.681  -0.665  -0.546  -0.535  -0.514  -0.447
 -0.438  -0.411  -0.383  -0.373  -0.348  -0.295  -0.276  -0.241
 -- Virtual --
 -0.078  -0.070   0.078   0.118   0.124   0.125   0.142   0.182
  0.187   0.196   0.219   0.268   0.324   0.360   0.393   0.415
  0.486   0.505   0.525   0.551   0.587   0.588   0.592   0.596
  0.614   0.624   0.629   0.649   0.676   0.716   0.729   0.834
  0.843   0.846   0.869   0.875   0.880   0.887   0.925   0.967
  0.979   1.026   1.030   1.045   1.133   1.180   1.189   1.311
  1.315   1.333   1.411   1.429   1.489   1.492   1.560   1.582
  1.597   1.685   1.737   1.781   1.831   1.853   1.922   1.933
  2.036   2.058   2.061   2.110   2.142   2.147   2.203   2.259
  2.399   2.422   2.426   2.448   2.558   2.579   2.611   2.624
  2.743   2.761   2.810   3.054   3.252   3.254   4.030   4.053
  4.109   4.200   4.239   4.537   4.601
 --------------------------------------------------------------
 
          Ground-State Mulliken Net Atomic Charges

     Atom                 Charge (a.u.)    Spin (a.u.)
  --------------------------------------------------------
      1 C                     0.035889      -0.113415
      2 C                    -0.110867       0.091524
      3 C                    -0.111523       0.096054
      4 C                    -0.131437       0.345608
      5 C                     0.035293      -0.111654
      6 N                    -0.423413       0.386832
      7 H                     0.142602       0.003442
      8 H                     0.141926      -0.006529
      9 H                     0.141883      -0.006749
     10 H                     0.134407      -0.018272
     11 H                     0.142648       0.003354
     12 C                    -0.131726       0.348193
     13 H                     0.134318      -0.018388
  --------------------------------------------------------
  Sum of atomic charges =     0.000000
  Sum of spin   charges =     1.000000

 -----------------------------------------------------------------
                    Cartesian Multipole Moments
 -----------------------------------------------------------------
    Charge (ESU x 10^10)
                 0.0000
    Dipole Moment (Debye)
         X      -0.6147      Y      -2.1570      Z      -0.0181
       Tot       2.2429
    Quadrupole Moments (Debye-Ang)
        XX     -35.5412     XY      -1.9282     YY     -41.8130
        XZ      -2.3507     YZ       0.6673     ZZ     -42.6455
    Octopole Moments (Debye-Ang^2)
       XXX      -3.9753    XXY      -5.9769    XYY      -8.2378
       YYY     -36.8297    XXZ      -0.3521    XYZ      -0.5352
       YYZ       0.0863    XZZ      -1.6113    YZZ      -5.6432
       ZZZ      -0.1492
    Hexadecapole Moments (Debye-Ang^3)
      XXXX    -352.1499   XXXY      -1.4180   XXYY    -122.9842
      XYYY     -22.7344   YYYY    -428.0192   XXXZ      34.0573
      XXYZ      -4.5024   XYYZ      10.0306   YYYZ     -10.0090
      XXZZ     -76.8955   XYZZ      -2.3309   YYZZ     -83.4872
      XZZZ      50.1368   YZZZ     -15.7722   ZZZZ     -74.7467
 -----------------------------------------------------------------
 Calculating analytic gradient of the SCF energy
 Gradient of SCF Energy
            1           2           3           4           5           6
    1   0.0000034   0.0003011   0.0001838  -0.0000691   0.0000817  -0.0001009
    2   0.0000579   0.0003229  -0.0000853   0.0000392   0.0000114  -0.0000417
    3  -0.0000089  -0.0001313   0.0000792  -0.0000836   0.0001115  -0.0000655
            7           8           9          10          11          12
    1  -0.0000072   0.0000239  -0.0000016  -0.0000045  -0.0000116  -0.0003823
    2  -0.0000186   0.0000118  -0.0000038  -0.0000049  -0.0000000  -0.0002312
    3   0.0000092   0.0000334  -0.0000231  -0.0000206   0.0000133   0.0000613
           13
    1  -0.0000168
    2  -0.0000577
    3   0.0000252
 Max gradient component =       3.823E-04
 RMS gradient           =       1.158E-04
 Gradient time:  CPU 7.54 s  wall 2.13 s
 Geometry Optimization Parameters
   NAtoms,    NIC,     NZ,  NCons,   NDum,   NFix, NCnnct, MaxDiis
       13      82       0       0       0       0       0       0


** GEOMETRY OPTIMIZATION IN DELOCALIZED INTERNAL COORDINATES **
   Searching for a Minimum

   Optimization Cycle:   1

                       Coordinates (Angstroms)
     ATOM                X               Y               Z
      1  C         1.4287593682    0.8425195606   -0.3250872097
      2  C         0.2766459415   -1.4163105594   -0.2011434153
      3  C        -0.9821599900   -1.0609185183    0.1815044956
      4  C        -1.4663085310    0.2730374794    0.4321864887
      5  C        -0.7711985315    1.4644581620    0.3445855300
      6  N         0.5055704975    1.7716839771    0.0152833887
      7  H         2.3961927978    1.2938132753   -0.5562728852
      8  H         0.4722278096   -2.4767490943   -0.3472949383
      9  H        -1.7075845728   -1.8610258723    0.3144518885
     10  H        -2.5090420399    0.3578883204    0.7286078105
     11  H        -1.3559728150    2.3548527029    0.5861931606
     12  C         1.3907341015   -0.5349550234   -0.4358252828
     13  H         2.3221359647   -1.0082944096   -0.7371890318
   Point Group: c1    Number of degrees of freedom:    33


   Energy is   -286.924317998


 Attempting to Generate Delocalized Internal Coordinates

 33 Hessian modes will be used to form the next step
  Hessian Eigenvalues:
     0.018587    0.019912    0.020899    0.021867    0.022041    0.022711
     0.023111    0.023788    0.024007    0.025350    0.160000    0.160000
     0.160000    0.160000    0.160000    0.160000    0.220000    0.220000
     0.220000    0.233946    0.345472    0.345523    0.350235    0.350264
     0.351180    0.351192    0.382884    0.390174    0.467030    0.484470
     0.507242    0.534262    0.538548

 Minimum Search - Taking Simple RFO Step
 Searching for Lamda that Minimizes Along All modes
 Value Taken    Lamda =  -0.00000121
 Step Taken.  Stepsize is  0.004414

                             Maximum     Tolerance    Cnvgd?
         Gradient           0.000242      0.000600     YES
         Displacement       0.002197      0.002400     YES
         Energy change     *********      0.000002      NO


                       Distance Matrix (Angstroms)
             C (  1)   C (  2)   C (  3)   C (  4)   C (  5)   N (  6)
   C (  2)  2.538709
   C (  3)  3.113237  1.362834
   C (  4)  3.046177  2.508564  1.441069
   C (  5)  2.382243  3.113620  2.539415  1.382149
   N (  6)  1.353320  3.203522  3.203843  2.511584  1.353871
   H (  7)  1.092264  3.458810  4.183580  4.115574  3.297428  2.032115
   H (  8)  3.454416  1.088183  2.097486  3.453526  4.190217  4.264007
   H (  9)  4.189847  2.097804  1.088158  2.150884  3.454934  4.264286
   H ( 10)  4.105048  3.431075  2.154925  1.087363  2.095727  3.405222
   H ( 11)  3.297320  4.184139  3.459914  2.090418  1.092308  2.032577
   C ( 12)  1.382442  1.439811  2.507660  3.093378  3.046415  2.511493
   H ( 13)  2.096059  2.153567  3.430035  4.166721  4.105297  3.405056
             H (  7)   H (  8)   H (  9)   H ( 10)   H ( 11)   C ( 12)
   H (  8)  4.238213
   H (  9)  5.249015  2.359789
   H ( 10)  5.156375  4.252141  2.395295
   H ( 11)  4.063223  5.249580  4.239234  2.310350
   C ( 12)  2.090418  2.149897  3.452674  4.166693  4.115812
   H ( 13)  2.310393  2.393854  4.251088  5.230229  5.156606  1.087373

 
 Final energy is   -286.924317997874     


 ******************************
 **  OPTIMIZATION CONVERGED  **
 ******************************

                       Coordinates (Angstroms)
     ATOM                X               Y               Z
      1  C         1.4287593682    0.8425195606   -0.3250872097
      2  C         0.2766459415   -1.4163105594   -0.2011434153
      3  C        -0.9821599900   -1.0609185183    0.1815044956
      4  C        -1.4663085310    0.2730374794    0.4321864887
      5  C        -0.7711985315    1.4644581620    0.3445855300
      6  N         0.5055704975    1.7716839771    0.0152833887
      7  H         2.3961927978    1.2938132753   -0.5562728852
      8  H         0.4722278096   -2.4767490943   -0.3472949383
      9  H        -1.7075845728   -1.8610258723    0.3144518885
     10  H        -2.5090420399    0.3578883204    0.7286078105
     11  H        -1.3559728150    2.3548527029    0.5861931606
     12  C         1.3907341015   -0.5349550234   -0.4358252828
     13  H         2.3221359647   -1.0082944096   -0.7371890318

Z-matrix Print:
$molecule
0 2
N 
C  1 1.353320
H  2 1.092264 1 111.947729
C  1 1.353871 2 123.277146 3 179.941657 0
H  4 1.092308 1 111.943451 2 -179.956428 0
C  4 1.382149 1 133.259580 2 -0.038859 0
H  6 1.087363 4 115.613006 1 -179.855593 0
C  2 1.382442 1 133.274733 3 -179.995948 0
H  8 1.087373 2 115.618789 1 -179.936163 0
C  8 1.439811 2 128.181916 1 -0.019696 0
H  10 1.088183 8 115.821056 2 -179.879786 0
C  10 1.362834 8 126.930545 2 0.081000 0
H  12 1.088158 10 117.279210 8 179.988968 0
$end

 
 --------------------------------------------------------------
 
                    Orbital Energies (a.u.)
 --------------------------------------------------------------
 
 Alpha MOs
 -- Occupied --
-14.322 -10.232 -10.232 -10.212 -10.211 -10.201 -10.200  -0.922
 -0.818  -0.784  -0.693  -0.667  -0.551  -0.537  -0.518  -0.449
 -0.439  -0.414  -0.394  -0.386  -0.349  -0.322  -0.299  -0.251
 -0.161
 -- Virtual --
 -0.072   0.077   0.097   0.101   0.117   0.142   0.181   0.184
  0.193   0.214   0.266   0.320   0.357   0.390   0.412   0.483
  0.497   0.521   0.547   0.576   0.584   0.587   0.591   0.610
  0.619   0.624   0.646   0.658   0.714   0.718   0.833   0.840
  0.847   0.854   0.868   0.872   0.885   0.922   0.965   0.975
  1.024   1.027   1.043   1.127   1.177   1.185   1.300   1.303
  1.326   1.401   1.429   1.480   1.482   1.546   1.574   1.586
  1.682   1.733   1.769   1.829   1.850   1.919   1.925   2.030
  2.046   2.048   2.100   2.141   2.142   2.191   2.247   2.391
  2.410   2.415   2.446   2.546   2.577   2.601   2.614   2.739
  2.749   2.808   3.052   3.250   3.251   4.018   4.046   4.102
  4.196   4.239   4.532   4.595
 
 Beta MOs
 -- Occupied --
-14.314 -10.233 -10.233 -10.210 -10.210 -10.196 -10.196  -0.911
 -0.809  -0.777  -0.681  -0.665  -0.546  -0.535  -0.514  -0.447
 -0.438  -0.411  -0.383  -0.373  -0.348  -0.295  -0.276  -0.241
 -- Virtual --
 -0.078  -0.070   0.078   0.118   0.124   0.125   0.142   0.182
  0.187   0.196   0.219   0.268   0.324   0.360   0.393   0.415
  0.486   0.505   0.525   0.551   0.587   0.588   0.592   0.596
  0.614   0.624   0.629   0.649   0.676   0.716   0.729   0.834
  0.843   0.846   0.869   0.875   0.880   0.887   0.925   0.967
  0.979   1.026   1.030   1.045   1.133   1.180   1.189   1.311
  1.315   1.333   1.411   1.429   1.489   1.492   1.560   1.582
  1.597   1.685   1.737   1.781   1.831   1.853   1.922   1.933
  2.036   2.058   2.061   2.110   2.142   2.147   2.203   2.259
  2.399   2.422   2.426   2.448   2.558   2.579   2.611   2.624
  2.743   2.761   2.810   3.054   3.252   3.254   4.030   4.053
  4.109   4.200   4.239   4.537   4.601
 --------------------------------------------------------------
 
          Ground-State Mulliken Net Atomic Charges

     Atom                 Charge (a.u.)    Spin (a.u.)
  --------------------------------------------------------
      1 C                     0.035889      -0.113415
      2 C                    -0.110867       0.091524
      3 C                    -0.111523       0.096054
      4 C                    -0.131437       0.345608
      5 C                     0.035293      -0.111654
      6 N                    -0.423413       0.386832
      7 H                     0.142602       0.003442
      8 H                     0.141926      -0.006529
      9 H                     0.141883      -0.006749
     10 H                     0.134407      -0.018272
     11 H                     0.142648       0.003354
     12 C                    -0.131726       0.348193
     13 H                     0.134318      -0.018388
  --------------------------------------------------------
  Sum of atomic charges =     0.000000
  Sum of spin   charges =     1.000000

 -----------------------------------------------------------------
                    Cartesian Multipole Moments
 -----------------------------------------------------------------
    Charge (ESU x 10^10)
                 0.0000
    Dipole Moment (Debye)
         X      -0.6147      Y      -2.1570      Z      -0.0181
       Tot       2.2429
    Quadrupole Moments (Debye-Ang)
        XX     -35.5412     XY      -1.9282     YY     -41.8130
        XZ      -2.3507     YZ       0.6673     ZZ     -42.6455
    Octopole Moments (Debye-Ang^2)
       XXX      -3.9753    XXY      -5.9769    XYY      -8.2378
       YYY     -36.8297    XXZ      -0.3521    XYZ      -0.5352
       YYZ       0.0863    XZZ      -1.6113    YZZ      -5.6432
       ZZZ      -0.1492
    Hexadecapole Moments (Debye-Ang^3)
      XXXX    -352.1499   XXXY      -1.4180   XXYY    -122.9842
      XYYY     -22.7344   YYYY    -428.0192   XXXZ      34.0573
      XXYZ      -4.5024   XYYZ      10.0306   YYYZ     -10.0090
      XXZZ     -76.8955   XYZZ      -2.3309   YYZZ     -83.4872
      XZZZ      50.1368   YZZZ     -15.7722   ZZZZ     -74.7467
 -----------------------------------------------------------------
Archival summary:
1\1\c8-68\OPT\ProcedureUnspecified\6-31G*\166(2)\hpark21\TueMar112:19:262022TueMar112:19:262022\0\\#,OPT,ProcedureUnspecified,6-31G*,\\0,2\N\C,1,1.35332\H,2,1.09226,1,111.948\C,1,1.35387,2,123.277,3,179.942,0\H,4,1.09231,1,111.943,2,-179.956,0\C,4,1.38215,1,133.26,2,-0.0388594,0\H,6,1.08736,4,115.613,1,-179.856,0\C,2,1.38244,1,133.275,3,-179.996,0\H,8,1.08737,2,115.619,1,-179.936,0\C,8,1.43981,2,128.182,1,-0.0196963,0\H,10,1.08818,8,115.821,2,-179.88,0\C,10,1.36283,8,126.931,2,0.081,0\H,12,1.08816,10,117.279,8,179.989,0\\\@

 Total job time:  15.74s(wall), 14.77s(cpu) 
 Tue Mar  1 12:19:26 2022

        *************************************************************
        *                                                           *
        *  Thank you very much for using Q-Chem.  Have a nice day.  *
        *                                                           *
        *************************************************************


