13   
From optimize.out: Frame 1 / 1, Energy=    -286.9243179979
C        1.4287593682    0.8425195606   -0.3250872097
C        0.2766459415   -1.4163105594   -0.2011434153
C       -0.9821599900   -1.0609185183    0.1815044956
C       -1.4663085310    0.2730374794    0.4321864887
C       -0.7711985315    1.4644581620    0.3445855300
N        0.5055704975    1.7716839771    0.0152833887
H        2.3961927978    1.2938132753   -0.5562728852
H        0.4722278096   -2.4767490943   -0.3472949383
H       -1.7075845728   -1.8610258723    0.3144518885
H       -2.5090420399    0.3578883204    0.7286078105
H       -1.3559728150    2.3548527029    0.5861931606
C        1.3907341015   -0.5349550234   -0.4358252828
H        2.3221359647   -1.0082944096   -0.7371890318
