13   
From optimize.out: Frame 1 / 1, Energy=    -286.9243179979
C        0.0358890000   -0.1134150000   -0.0000000000
C       -0.1108670000    0.0915240000   -0.0000000000
C       -0.1115230000    0.0960540000    0.0000000000
C       -0.1314370000    0.3456080000    0.0000000000
C        0.0352930000   -0.1116540000    0.0000000000
N       -0.4234130000    0.3868320000    0.0000000000
H        0.1426020000    0.0034420000   -0.0000000000
H        0.1419260000   -0.0065290000   -0.0000000000
H        0.1418830000   -0.0067490000    0.0000000000
H        0.1344070000   -0.0182720000    0.0000000000
H        0.1426480000    0.0033540000    0.0000000000
C       -0.1317260000    0.3481930000   -0.0000000000
H        0.1343180000   -0.0183880000   -0.0000000000
