
Running Job 1 of 1 optimize.in
qchem optimize.in_20877.0 ./optimize.d/ 1
/home/leeping/opt/qchem/5.0.2-openmp/exe/qcprog.exe_s optimize.in_20877.0 ./optimize.d/
Check license passed

                  Welcome to Q-Chem
     A Quantum Leap Into The Future Of Chemistry


 Q-Chem 5.0, Q-Chem, Inc., Pleasanton, CA (2017)

 Yihan Shao,  Zhengting Gan,  E. Epifanovsky,  A. T. B. Gilbert,  M. Wormit,  
 J. Kussmann,  A. W. Lange,  A. Behn,  Jia Deng,  Xintian Feng,  D. Ghosh,  
 M. Goldey,  P. R. Horn,  L. D. Jacobson,  I. Kaliman,  T. Kus,  A. Landau,  
 Jie Liu,  E. I. Proynov,  R. M. Richard,  R. P. Steele,  E. J. Sundstrom,  
 H. L. Woodcock III,  P. M. Zimmerman,  D. Zuev,  B. Albrecht,  E. Alguire,  
 S. A. Baeppler,  D. Barton,  Z. Benda,  Y. A. Bernard,  E. J. Berquist,  
 K. B. Bravaya,  H. Burton,  D. Casanova,  Chun-Min Chang,  Yunqing Chen,  
 A. Chien,  K. D. Closser,  M. P. Coons,  S. Dasgupta,  A. L. Dempwolff,  
 M. Diedenhofen,  Hainam Do,  R. G. Edgar,  Po-Tung Fang,  S. Fatehi,  
 Qingguo Feng,  J. Fosso-Tande,  Qinghui Ge,  A. Ghysels,  G. Gidofalvi,  
 J. Gomes,  J. Gonthier,  A. Gunina,  M. W. D. Hanson-Heine,  
 P. H. P. Harbach,  A. W. Hauser,  J. E. Herr,  E. G. Hohenstein,  
 Z. C. Holden,  Kerwin Hui,  T.-C. Jagau,  Hyunjun Ji,  B. Kaduk,  
 K. Khistyaev,  Jaehoon Kim,  P. Klunzinger,  K. Koh,  D. Kosenkov,  
 L. Koulias,  T. Kowalczyk,  C. M. Krauter,  A. Kunitsa,  Ka Un Lao,  
 A. Laurent,  K. V. Lawler,  Joonho Lee,  D. Lefrancois,  S. Lehtola,  
 D. S. Levine,  Yi-Pei Li,  You-Sheng Lin,  Fenglai Liu,  E. Livshits,  
 A. Luenser,  P. Manohar,  E. Mansoor,  S. F. Manzer,  Shan-Ping Mao,  
 Yuezhi Mao,  N. Mardirossian,  A. V. Marenich,  T. Markovich,  
 L. A. Martinez-Martinez,  S. A. Maurer,  N. J. Mayhall,  S. C. McKenzie,  
 J.-M. Mewes,  A. F. Morrison,  J. W. Mullinax,  K. Nanda,  
 T. S. Nguyen-Beck,  R. Olivares-Amaya,  J. A. Parkhill,  T. M. Perrine,  
 F. Plasser,  S. Prager,  A. Prociuk,  E. Ramos,  D. R. Rehn,  F. Rob,  
 M. Schneider,  N. Sergueev,  S. M. Sharada,  S. Sharma,  D. W. Small,  
 T. Stauch,  T. Stein,  Yu-Chuan Su,  A. J. W. Thom,  A. Tkatchenko,  
 T. Tsuchimochi,  L. Vogt,  O. Vydrov,  M. A. Watson,  J. Wenzel,  
 M. de Wergifosse,  T. A. Wesolowski,  A. White,  J. Witte,  A. Yamada,  
 Jun Yang,  K. Yao,  S. Yeganeh,  S. R. Yost,  Zhi-Qiang You,  A. Zech,  
 Igor Ying Zhang,  Xing Zhang,  Yan Zhao,  Ying Zhu,  B. R. Brooks,  
 G. K. L. Chan,  C. J. Cramer,  M. S. Gordon,  W. J. Hehre,  A. Klamt,  
 M. W. Schmidt,  C. D. Sherrill,  D. G. Truhlar,  A. Aspuru-Guzik,  R. Baer,  
 A. T. Bell,  N. A. Besley,  Jeng-Da Chai,  R. A. DiStasio Jr.,  A. Dreuw,  
 B. D. Dunietz,  T. R. Furlani,  Chao-Ping Hsu,  Yousung Jung,  Jing Kong,  
 D. S. Lambrecht,  WanZhen Liang,  C. Ochsenfeld,  V. A. Rassolov,  
 L. V. Slipchenko,  J. E. Subotnik,  T. Van Voorhis,  J. M. Herbert,  
 A. I. Krylov,  P. M. W. Gill,  M. Head-Gordon

 Contributors to earlier versions of Q-Chem not listed above: 
 R. D. Adamson,  B. Austin,  J. Baker,  G. J. O. Beran,  K. Brandhorst,  
 S. T. Brown,  E. F. C. Byrd,  A. K. Chakraborty,  C.-L. Cheng,  
 Siu Hung Chien,  D. M. Chipman,  D. L. Crittenden,  H. Dachsel,  
 R. J. Doerksen,  A. D. Dutoi,  L. Fusti-Molnar,  W. A. Goddard III,  
 A. Golubeva-Zadorozhnaya,  S. R. Gwaltney,  G. Hawkins,  A. Heyden,  
 S. Hirata,  G. Kedziora,  F. J. Keil,  C. Kelley,  Jihan Kim,  R. A. King,  
 R. Z. Khaliullin,  P. P. Korambath,  W. Kurlancheek,  A. M. Lee,  M. S. Lee,  
 S. V. Levchenko,  Ching Yeh Lin,  D. Liotard,  R. C. Lochan,  I. Lotan,  
 P. E. Maslen,  N. Nair,  D. P. O'Neill,  D. Neuhauser,  E. Neuscamman,  
 C. M. Oana,  R. Olson,  B. Peters,  R. Peverati,  P. A. Pieniazek,  
 Y. M. Rhee,  J. Ritchie,  M. A. Rohrdanz,  E. Rosta,  N. J. Russ,  
 H. F. Schaefer III,  N. E. Schultz,  N. Shenvi,  A. C. Simmonett,  A. Sodt,  
 D. Stuck,  K. S. Thanthiriwatte,  V. Vanovschi,  Tao Wang,  A. Warshel,  
 C. F. Williams,  Q. Wu,  X. Xu,  W. Zhang

 Please cite Q-Chem as follows:
 Y. Shao et al., Mol. Phys. 113, 184-215 (2015)
 DOI: 10.1080/00268976.2014.952696

 Q-Chem 5.0.2 for Intel X86 EM64T Linux

 Parts of Q-Chem use Armadillo 5.200.1 (Boston Tea Smuggler).
 http://arma.sourceforge.net/

 Q-Chem begins on Wed Mar  2 12:32:08 2022  

Host: 
0

     Scratch files written to ./optimize.d//
 Dec517 15110_ 26548  26544 5633   
Processing $rem in /home/leeping/opt/qchem/5.0.2-openmp/config/preferences.
 MEM_STATIC 2000
 MEM_TOTAL  8000
 SYMMETRY   OFF
 SYM_IGNORE TRUE 

Checking the input file for inconsistencies... 	...done.

--------------------------------------------------------------
User input:
--------------------------------------------------------------
$molecule
0 2
C        0.0323354011   -0.5318852731   -0.1425790934
C        1.5581502613   -0.4987224907   -0.0361758984
C        2.3714477397   -1.3318815971   -0.6397513775
C       -1.3602315908    1.2889386344    0.1048715793
C       -1.3435322768    0.4249103373    1.2951205846
N       -0.5751515175   -0.6071782017    1.1970260081
H       -0.2672893449   -1.4309651605   -0.6982099671
H        1.9490515043    0.3013655335    0.5947974000
H        2.3009105776   -2.1896444090   -1.2979591369
H       -1.9383258056    2.1987825375   -0.0102784924
H       -1.9221201643    0.6059336445    2.1999768231
C       -0.5304462436    0.7146612875   -0.7851427860
H       -0.2747985402    1.0556851571   -1.7816956437
$end

$rem
method                b3lyp
basis                 6-31g(d)
unrestricted          true
symmetry              off
sym_ignore            true
incdft                false
incfock               0
scf_convergence       8
thresh                14
jobtype               opt
scf_guess             read
scf_algorithm         diis
max_scf_cycles        100
geom_opt_tol_gradient 600
geom_opt_tol_displacement 2400
geom_opt_tol_energy   200
geom_opt_max_cycles   100
$end

--------------------------------------------------------------
 ----------------------------------------------------------------
             Standard Nuclear Orientation (Angstroms)
    I     Atom           X                Y                Z
 ----------------------------------------------------------------
    1      C       0.0323354011    -0.5318852731    -0.1425790934
    2      C       1.5581502613    -0.4987224907    -0.0361758984
    3      C       2.3714477397    -1.3318815971    -0.6397513775
    4      C      -1.3602315908     1.2889386344     0.1048715793
    5      C      -1.3435322768     0.4249103373     1.2951205846
    6      N      -0.5751515175    -0.6071782017     1.1970260081
    7      H      -0.2672893449    -1.4309651605    -0.6982099671
    8      H       1.9490515043     0.3013655335     0.5947974000
    9      H       2.3009105776    -2.1896444090    -1.2979591369
   10      H      -1.9383258056     2.1987825375    -0.0102784924
   11      H      -1.9221201643     0.6059336445     2.1999768231
   12      C      -0.5304462436     0.7146612875    -0.7851427860
   13      H      -0.2747985402     1.0556851571    -1.7816956437
 ----------------------------------------------------------------
 Nuclear Repulsion Energy =   258.3605635635 hartrees
 There are       25 alpha and       24 beta electrons
 Requested basis set is 6-31G(d)
 There are 40 shells and 117 basis functions

 Total QAlloc Memory Limit   8000 MB
 Mega-Array Size      1956 MB
 MEM_STATIC part      2000 MB
 A cutoff of  1.0D-14 yielded    785 shell pairs
 There are      6999 function pairs
 
 -------------------------------------------------------
 OpenMP Integral Computing Module                       
 Release: version 1.0, May 2013, Q-Chem Inc. Pittsburgh 
 -------------------------------------------------------
 Integral Job Info:
 Integral job number is                      11
 Integral operator is                         1
 short-range coefficients                     0
 long-range coefficients              100000000
 Omega coefficients                           0
 if combine SR and LR in K                    0
 Integral screening is                        0
 Integral computing path is                   2
 max size of driver memory is            800000
 size of driver memory is                593474
 size of scratch memory is              2361544
 max col of scratch BK array               1296
 max len of scratch array in speh3          155
 max len of scratch index in speh4           18
 max int batch size is                      520
 min int batch size is                       52
 fixed nKL is                                52
 max L of basis functions is                  2
 order of int derivative is                   0
 number of shells is                         40
 number of basis is                         117
 number of cartesian basis is               117
 number of contracted shell pairs           785
 number of primitive shell pairs           3347
 maxK2 (contraction) of shell pair           36
 max number of K2 of shell pair               1
 max number of CS2 of shell pair             86
 max number of PS2 of shell pair            372
 mem total for path MDJ                  530316
 -------------------------------------------------------
 Smallest overlap matrix eigenvalue = 1.56E-03

 Scale SEOQF with 1.000000e-01/1.000000e-01/1.000000e-01

 Standard Electronic Orientation quadrupole field applied
 Nucleus-field energy     =     0.0000000024 hartrees
 Guess MOs from SCF MO coefficient file
 Reading MOs from coefficient file
 Reading MOs from coefficient file
 An unrestricted hybrid HF-DFT SCF calculation will be
 performed using Pulay DIIS extrapolation
 Exchange:     0.2000 Hartree-Fock + 0.0800 Slater + 0.7200 B88
 Correlation:  0.1900 VWN1RPA + 0.8100 LYP
 Using SG-1 standard quadrature grid
 SCF converges when DIIS error is below 1.0E-08
Using Q-Chem read-in guess as SCF_GUESS READ specified.

 using 4 threads for integral computing
 -------------------------------------------------------
 OpenMP Integral computing Module                
 Release: version 1.0, May 2013, Q-Chem Inc. Pittsburgh 
 -------------------------------------------------------
 -------------------------------------------------------
 OpenMP BLAS3 based DFT computing Module                
 Release: version 1.0, May 2013, Q-Chem Inc. Pittsburgh 
 -------------------------------------------------------
 ---------------------------------------
  Cycle       Energy         DIIS Error
 ---------------------------------------
    1    -286.8505782439      1.56E-09
    2    -286.8505782439      2.46E-09 Convergence criterion met
 ---------------------------------------
 <S^2> = 0.7610
 SCF time:  CPU 4.68 s  wall 2.93 s
 SCF   energy in the final basis set = -286.85057824
 Total energy in the final basis set = -286.85057824
 
 --------------------------------------------------------------
 
                    Orbital Energies (a.u.)
 --------------------------------------------------------------
 
 Alpha MOs
 -- Occupied --
-14.323 -10.230 -10.227 -10.209 -10.205 -10.202 -10.201  -0.946
 -0.791  -0.769  -0.704  -0.587  -0.563  -0.555  -0.514  -0.469
 -0.425  -0.411  -0.404  -0.374  -0.332  -0.283  -0.265  -0.252
 -0.234
 -- Virtual --
 -0.038   0.012   0.075   0.116   0.122   0.146   0.152   0.157
  0.167   0.202   0.233   0.267   0.285   0.362   0.381   0.439
  0.487   0.530   0.536   0.541   0.568   0.573   0.579   0.595
  0.621   0.632   0.649   0.672   0.684   0.715   0.723   0.797
  0.822   0.833   0.847   0.851   0.877   0.894   0.904   0.915
  0.942   0.952   1.003   1.101   1.146   1.182   1.252   1.311
  1.339   1.398   1.418   1.471   1.529   1.567   1.596   1.633
  1.666   1.718   1.792   1.814   1.830   1.926   1.938   1.981
  1.991   2.066   2.135   2.165   2.186   2.270   2.280   2.308
  2.326   2.421   2.446   2.546   2.582   2.592   2.636   2.725
  2.759   2.832   2.900   2.956   3.003   3.928   4.059   4.085
  4.178   4.324   4.418   4.535
 
 Beta MOs
 -- Occupied --
-14.323 -10.229 -10.227 -10.205 -10.204 -10.201 -10.194  -0.945
 -0.783  -0.767  -0.692  -0.577  -0.558  -0.551  -0.513  -0.462
 -0.416  -0.409  -0.401  -0.370  -0.328  -0.278  -0.264  -0.248
 -- Virtual --
 -0.074  -0.035   0.023   0.076   0.117   0.130   0.151   0.153
  0.158   0.170   0.203   0.234   0.270   0.289   0.362   0.399
  0.440   0.494   0.532   0.538   0.547   0.572   0.579   0.599
  0.623   0.633   0.640   0.650   0.673   0.685   0.717   0.726
  0.797   0.824   0.834   0.850   0.853   0.886   0.895   0.909
  0.917   0.947   0.958   1.010   1.103   1.146   1.190   1.254
  1.312   1.341   1.399   1.422   1.473   1.530   1.573   1.598
  1.658   1.683   1.776   1.799   1.827   1.841   1.929   1.942
  1.992   1.998   2.067   2.139   2.169   2.193   2.272   2.289
  2.312   2.328   2.430   2.453   2.550   2.584   2.594   2.637
  2.729   2.770   2.838   2.912   2.956   3.005   3.928   4.074
  4.101   4.181   4.328   4.418   4.537
 --------------------------------------------------------------
 
          Ground-State Mulliken Net Atomic Charges

     Atom                 Charge (a.u.)    Spin (a.u.)
  --------------------------------------------------------
      1 C                    -0.095289       0.072562
      2 C                    -0.076343      -0.164109
      3 C                    -0.194200       1.044764
      4 C                    -0.141154       0.003154
      5 C                     0.051950       0.008414
      6 N                    -0.364019      -0.003090
      7 H                     0.173680      -0.003393
      8 H                     0.157879       0.037469
      9 H                     0.160521       0.001690
     10 H                     0.142846       0.000373
     11 H                     0.145183       0.000643
     12 C                    -0.113562       0.001733
     13 H                     0.152507      -0.000210
  --------------------------------------------------------
  Sum of atomic charges =    -0.000000
  Sum of spin   charges =     1.000000

 -----------------------------------------------------------------
                    Cartesian Multipole Moments
 -----------------------------------------------------------------
    Charge (ESU x 10^10)
                -0.0000
    Dipole Moment (Debye)
         X      -0.9592      Y       1.3943      Z      -1.6082
       Tot       2.3346
    Quadrupole Moments (Debye-Ang)
        XX     -41.2060     XY      -2.3657     YY     -38.9365
        XZ      -1.3363     YZ       4.3476     ZZ     -40.6073
    Octopole Moments (Debye-Ang^2)
       XXX     -14.3804    XXY       8.3000    XYY      -1.8355
       YYY       7.8067    XXZ       0.3542    XYZ       1.2221
       YYZ     -12.4215    XZZ      -3.6503    YZZ       7.1982
       ZZZ     -17.2857
    Hexadecapole Moments (Debye-Ang^3)
      XXXX    -528.9389   XXXY     119.4317   XXYY    -114.2323
      XYYY     102.0597   YYYY    -239.4476   XXXZ      65.1253
      XXYZ       7.8992   XYYZ      15.8758   YYYZ       0.5881
      XXZZ    -112.5356   XYZZ      32.2525   YYZZ     -75.9163
      XZZZ      61.0941   YZZZ      -3.5549   ZZZZ    -210.9260
 -----------------------------------------------------------------
 Calculating analytic gradient of the SCF energy
 Gradient of SCF Energy
            1           2           3           4           5           6
    1   0.0000353  -0.0004001   0.0001376  -0.0001776  -0.0000184   0.0001096
    2   0.0001639   0.0001713  -0.0001396   0.0002285   0.0000578  -0.0000087
    3   0.0000218  -0.0000063   0.0003640   0.0002766  -0.0000084  -0.0000035
            7           8           9          10          11          12
    1  -0.0000036   0.0001859   0.0001312   0.0000905  -0.0000080  -0.0001368
    2  -0.0000819  -0.0000046  -0.0001072  -0.0000576  -0.0001656   0.0000488
    3   0.0000949  -0.0000515  -0.0003192  -0.0000478  -0.0001886  -0.0000404
           13
    1   0.0000543
    2  -0.0001051
    3  -0.0000916
 Max gradient component =       4.001E-04
 RMS gradient           =       1.494E-04
 Gradient time:  CPU 7.36 s  wall 3.21 s
 Geometry Optimization Parameters
   NAtoms,    NIC,     NZ,  NCons,   NDum,   NFix, NCnnct, MaxDiis
       13      86       0       0       0       0       0       0


** GEOMETRY OPTIMIZATION IN DELOCALIZED INTERNAL COORDINATES **
   Searching for a Minimum

   Optimization Cycle:   1

                       Coordinates (Angstroms)
     ATOM                X               Y               Z
      1  C         0.0323354011   -0.5318852731   -0.1425790934
      2  C         1.5581502613   -0.4987224907   -0.0361758984
      3  C         2.3714477397   -1.3318815971   -0.6397513775
      4  C        -1.3602315908    1.2889386344    0.1048715793
      5  C        -1.3435322768    0.4249103373    1.2951205846
      6  N        -0.5751515175   -0.6071782017    1.1970260081
      7  H        -0.2672893449   -1.4309651605   -0.6982099671
      8  H         1.9490515043    0.3013655335    0.5947974000
      9  H         2.3009105776   -2.1896444090   -1.2979591369
     10  H        -1.9383258056    2.1987825375   -0.0102784924
     11  H        -1.9221201643    0.6059336445    2.1999768231
     12  C        -0.5304462436    0.7146612875   -0.7851427860
     13  H        -0.2747985402    1.0556851571   -1.7816956437
   Point Group: c1    Number of degrees of freedom:    33


   Energy is   -286.850578244


 Attempting to Generate Delocalized Internal Coordinates

 33 Hessian modes will be used to form the next step
  Hessian Eigenvalues:
     0.005226    0.009748    0.013083    0.015748    0.018357    0.019235
     0.023668    0.034120    0.058336    0.064016    0.084229    0.159936
     0.159996    0.159998    0.159998    0.160000    0.162205    0.206611
     0.220001    0.224064    0.294345    0.296732    0.333914    0.338413
     0.346557    0.349084    0.352587    0.355037    0.355310    0.355749
     0.532961    0.641101    0.664383

 Minimum Search - Taking Simple RFO Step
 Searching for Lamda that Minimizes Along All modes
 Value Taken    Lamda =  -0.00000658
 Step Taken.  Stepsize is  0.013757

                             Maximum     Tolerance    Cnvgd?
         Gradient           0.000331      0.000600     YES
         Displacement       0.006531      0.002400      NO
         Energy change     *********      0.000002      NO


 New Cartesian Coordinates Obtained by Inverse Iteration

 Displacement from previous Coordinates is:  0.015552
 ----------------------------------------------------------------
             Standard Nuclear Orientation (Angstroms)
    I     Atom           X                Y                Z
 ----------------------------------------------------------------
    1      C       0.0319714848    -0.5333175667    -0.1427400561
    2      C       1.5576113711    -0.4988355063    -0.0351273078
    3      C       2.3711780219    -1.3299123757    -0.6406536961
    4      C      -1.3603029260     1.2874427662     0.1039385723
    5      C      -1.3430895248     0.4247886342     1.2952133943
    6      N      -0.5766590089    -0.6087100396     1.1965567815
    7      H      -0.2668709717    -1.4316102531    -0.6999986983
    8      H       1.9464765813     0.3017313693     0.5964272419
    9      H       2.2991653582    -2.1878093685    -1.2978372333
   10      H      -1.9380964353     2.1976527738    -0.0111081502
   11      H      -1.9187150676     0.6090736045     2.2016245916
   12      C      -0.5296299095     0.7136112444    -0.7852588237
   13      H      -0.2730389731     1.0558947172    -1.7810366164
 ----------------------------------------------------------------
 Nuclear Repulsion Energy =   258.3886848012 hartrees
 There are       25 alpha and       24 beta electrons
 Applying Cartesian multipole field
    Component          Value
    ---------          -----
     (2,0,0)        1.00000E-11
     (0,2,0)        2.00000E-11
     (0,0,2)       -3.00000E-11
 Nucleus-field energy     =     0.0000000024 hartrees
 Requested basis set is 6-31G(d)
 There are 40 shells and 117 basis functions
 A cutoff of  1.0D-14 yielded    785 shell pairs
 There are      6999 function pairs
 Smallest overlap matrix eigenvalue = 1.56E-03
 Guess MOs from SCF MO coefficient file
 Reading MOs from coefficient file
 Reading MOs from coefficient file
 An unrestricted hybrid HF-DFT SCF calculation will be
 performed using Pulay DIIS extrapolation
 Exchange:     0.2000 Hartree-Fock + 0.0800 Slater + 0.7200 B88
 Correlation:  0.1900 VWN1RPA + 0.8100 LYP
 Using SG-1 standard quadrature grid
 SCF converges when DIIS error is below 1.0E-08
 Geometry optimization detected.  Setting ReadMinima to 0
 Setting SaveMinima to 0
Using Q-Chem read-in guess as SCF_GUESS READ specified.

 using 4 threads for integral computing
 -------------------------------------------------------
 OpenMP Integral computing Module                
 Release: version 1.0, May 2013, Q-Chem Inc. Pittsburgh 
 -------------------------------------------------------
 -------------------------------------------------------
 OpenMP BLAS3 based DFT computing Module                
 Release: version 1.0, May 2013, Q-Chem Inc. Pittsburgh 
 -------------------------------------------------------
 ---------------------------------------
  Cycle       Energy         DIIS Error
 ---------------------------------------
    1    -286.8509321128      8.58E-05
    2    -286.8505813960      8.80E-06
    3    -286.8505814059      1.13E-05
    4    -286.8505816401      3.02E-06
    5    -286.8505816554      8.59E-07
    6    -286.8505816566      5.93E-07
    7    -286.8505816573      1.73E-07
    8    -286.8505816574      5.61E-08
    9    -286.8505816574      3.06E-08
   10    -286.8505816574      1.76E-08
   11    -286.8505816574      3.73E-09 Convergence criterion met
 ---------------------------------------
 <S^2> = 0.7609
 SCF time:  CPU 27.32 s  wall 15.58 s
 SCF   energy in the final basis set = -286.85058166
 Total energy in the final basis set = -286.85058166
 
 --------------------------------------------------------------
 
                    Orbital Energies (a.u.)
 --------------------------------------------------------------
 
 Alpha MOs
 -- Occupied --
-14.323 -10.230 -10.227 -10.209 -10.205 -10.202 -10.201  -0.946
 -0.791  -0.769  -0.704  -0.587  -0.563  -0.555  -0.514  -0.469
 -0.425  -0.411  -0.404  -0.374  -0.332  -0.283  -0.265  -0.252
 -0.234
 -- Virtual --
 -0.038   0.012   0.075   0.116   0.122   0.146   0.152   0.157
  0.167   0.202   0.233   0.267   0.285   0.362   0.381   0.439
  0.487   0.530   0.536   0.541   0.568   0.573   0.580   0.595
  0.621   0.632   0.649   0.672   0.683   0.715   0.723   0.797
  0.822   0.833   0.847   0.851   0.877   0.894   0.904   0.916
  0.941   0.952   1.003   1.101   1.146   1.182   1.252   1.311
  1.339   1.398   1.418   1.472   1.529   1.567   1.597   1.633
  1.666   1.718   1.792   1.814   1.830   1.927   1.937   1.981
  1.991   2.066   2.135   2.165   2.187   2.270   2.280   2.309
  2.326   2.421   2.446   2.546   2.583   2.592   2.636   2.725
  2.760   2.832   2.899   2.956   3.003   3.928   4.059   4.085
  4.179   4.324   4.418   4.535
 
 Beta MOs
 -- Occupied --
-14.323 -10.229 -10.227 -10.205 -10.204 -10.201 -10.194  -0.945
 -0.783  -0.767  -0.692  -0.577  -0.558  -0.551  -0.513  -0.462
 -0.416  -0.409  -0.401  -0.370  -0.328  -0.279  -0.264  -0.248
 -- Virtual --
 -0.074  -0.035   0.023   0.076   0.117   0.130   0.151   0.153
  0.158   0.170   0.203   0.234   0.270   0.289   0.362   0.399
  0.440   0.494   0.532   0.538   0.547   0.572   0.579   0.599
  0.623   0.634   0.640   0.650   0.673   0.685   0.717   0.726
  0.797   0.824   0.834   0.850   0.853   0.886   0.895   0.910
  0.918   0.947   0.958   1.010   1.103   1.146   1.190   1.254
  1.312   1.341   1.400   1.421   1.473   1.531   1.573   1.599
  1.658   1.683   1.776   1.799   1.827   1.841   1.929   1.942
  1.992   1.998   2.067   2.139   2.170   2.193   2.272   2.288
  2.312   2.328   2.431   2.453   2.549   2.584   2.594   2.638
  2.729   2.770   2.838   2.912   2.956   3.005   3.928   4.074
  4.101   4.181   4.328   4.418   4.537
 --------------------------------------------------------------
 
          Ground-State Mulliken Net Atomic Charges

     Atom                 Charge (a.u.)    Spin (a.u.)
  --------------------------------------------------------
      1 C                    -0.095459       0.072618
      2 C                    -0.075958      -0.163915
      3 C                    -0.194341       1.044480
      4 C                    -0.141120       0.003082
      5 C                     0.052006       0.008503
      6 N                    -0.364052      -0.003082
      7 H                     0.173546      -0.003395
      8 H                     0.157857       0.037438
      9 H                     0.160505       0.001707
     10 H                     0.142784       0.000379
     11 H                     0.145212       0.000642
     12 C                    -0.113511       0.001754
     13 H                     0.152531      -0.000211
  --------------------------------------------------------
  Sum of atomic charges =    -0.000000
  Sum of spin   charges =     1.000000

 -----------------------------------------------------------------
                    Cartesian Multipole Moments
 -----------------------------------------------------------------
    Charge (ESU x 10^10)
                 0.0000
    Dipole Moment (Debye)
         X      -0.9556      Y       1.3976      Z      -1.6049
       Tot       2.3328
    Quadrupole Moments (Debye-Ang)
        XX     -41.2242     XY      -2.3682     YY     -38.9391
        XZ      -1.3279     YZ       4.3534     ZZ     -40.6003
    Octopole Moments (Debye-Ang^2)
       XXX     -14.3489    XXY       8.3212    XYY      -1.8247
       YYY       7.8646    XXZ       0.3570    XYZ       1.1989
       YYZ     -12.4112    XZZ      -3.6372    YZZ       7.2355
       ZZZ     -17.2373
    Hexadecapole Moments (Debye-Ang^3)
      XXXX    -528.8210   XXXY     119.2541   XXYY    -114.1866
      XYYY     101.9127   YYYY    -239.2388   XXXZ      65.2198
      XXYZ       7.8849   XYYZ      15.9053   YYYZ       0.5987
      XXZZ    -112.5532   XYZZ      32.1802   YYZZ     -75.8783
      XZZZ      61.0946   YZZZ      -3.4882   ZZZZ    -210.9247
 -----------------------------------------------------------------
 Calculating analytic gradient of the SCF energy
 Gradient of SCF Energy
            1           2           3           4           5           6
    1   0.0002009  -0.0001519  -0.0000357  -0.0001612   0.0000783  -0.0001523
    2   0.0001632  -0.0000505  -0.0001068  -0.0001584   0.0000898  -0.0000891
    3   0.0000471  -0.0001237   0.0001925  -0.0000208   0.0000485  -0.0000646
            7           8           9          10          11          12
    1  -0.0000185   0.0000755   0.0000722   0.0000257   0.0000144   0.0000140
    2  -0.0000209   0.0000292   0.0001030   0.0000029   0.0000097   0.0000562
    3   0.0000213  -0.0000462  -0.0000707  -0.0000229   0.0000181   0.0000217
           13
    1   0.0000386
    2  -0.0000282
    3  -0.0000003
 Max gradient component =       2.009E-04
 RMS gradient           =       8.799E-05
 Gradient time:  CPU 7.02 s  wall 2.49 s
 Geometry Optimization Parameters
   NAtoms,    NIC,     NZ,  NCons,   NDum,   NFix, NCnnct, MaxDiis
       13      86       0       0       0       0       0       0

 Cartesian Hessian Update
 Hessian Updated using BFGS Update


** GEOMETRY OPTIMIZATION IN DELOCALIZED INTERNAL COORDINATES **
   Searching for a Minimum

   Optimization Cycle:   2

                       Coordinates (Angstroms)
     ATOM                X               Y               Z
      1  C         0.0319714848   -0.5333175667   -0.1427400561
      2  C         1.5576113711   -0.4988355063   -0.0351273078
      3  C         2.3711780219   -1.3299123757   -0.6406536961
      4  C        -1.3603029260    1.2874427662    0.1039385723
      5  C        -1.3430895248    0.4247886342    1.2952133943
      6  N        -0.5766590089   -0.6087100396    1.1965567815
      7  H        -0.2668709717   -1.4316102531   -0.6999986983
      8  H         1.9464765813    0.3017313693    0.5964272419
      9  H         2.2991653582   -2.1878093685   -1.2978372333
     10  H        -1.9380964353    2.1976527738   -0.0111081502
     11  H        -1.9187150676    0.6090736045    2.2016245916
     12  C        -0.5296299095    0.7136112444   -0.7852588237
     13  H        -0.2730389731    1.0558947172   -1.7810366164
   Point Group: c1    Number of degrees of freedom:    33


   Energy is   -286.850581657

 Hessian Updated using BFGS Update

 33 Hessian modes will be used to form the next step
  Hessian Eigenvalues:
     0.005169    0.009698    0.012904    0.015729    0.016895    0.022788
     0.027099    0.031485    0.056475    0.063497    0.084284    0.140400
     0.159956    0.159996    0.159999    0.160155    0.162286    0.205466
     0.215547    0.226946    0.294978    0.297713    0.335438    0.338353
     0.346452    0.349801    0.352714    0.354908    0.355311    0.361712
     0.532458    0.644784    0.664407

 Minimum Search - Taking Simple RFO Step
 Searching for Lamda that Minimizes Along All modes
 Value Taken    Lamda =  -0.00000226
 Step Taken.  Stepsize is  0.009505

                             Maximum     Tolerance    Cnvgd?
         Gradient           0.000127      0.000600     YES
         Displacement       0.003934      0.002400      NO
         Energy change     -0.000003      0.000002      NO


 New Cartesian Coordinates Obtained by Inverse Iteration

 Displacement from previous Coordinates is:  0.008737
 ----------------------------------------------------------------
             Standard Nuclear Orientation (Angstroms)
    I     Atom           X                Y                Z
 ----------------------------------------------------------------
    1      C       0.0318207406    -0.5342777268    -0.1426373513
    2      C       1.5575050788    -0.4984218890    -0.0347654295
    3      C       2.3711287285    -1.3282267293    -0.6418153066
    4      C      -1.3588880983     1.2876466662     0.1040270435
    5      C      -1.3433600761     0.4243104766     1.2948691793
    6      N      -0.5764124795    -0.6088763175     1.1969118674
    7      H      -0.2664804173    -1.4325666778    -0.7001309565
    8      H       1.9449509581     0.3021943430     0.5975351171
    9      H       2.2976947565    -2.1869175101    -1.2976496591
   10      H      -1.9363828191     2.1981366472    -0.0108701429
   11      H      -1.9188173089     0.6093783980     2.2013186123
   12      C      -0.5295229346     0.7126181481    -0.7855017089
   13      H      -0.2732361285     1.0550021713    -1.7812912650
 ----------------------------------------------------------------
 Nuclear Repulsion Energy =   258.4050165637 hartrees
 There are       25 alpha and       24 beta electrons
 Applying Cartesian multipole field
    Component          Value
    ---------          -----
     (2,0,0)        1.00000E-11
     (0,2,0)        2.00000E-11
     (0,0,2)       -3.00000E-11
 Nucleus-field energy     =     0.0000000024 hartrees
 Requested basis set is 6-31G(d)
 There are 40 shells and 117 basis functions
 A cutoff of  1.0D-14 yielded    785 shell pairs
 There are      6999 function pairs
 Smallest overlap matrix eigenvalue = 1.56E-03
 Guess MOs from SCF MO coefficient file
 Reading MOs from coefficient file
 Reading MOs from coefficient file
 An unrestricted hybrid HF-DFT SCF calculation will be
 performed using Pulay DIIS extrapolation
 Exchange:     0.2000 Hartree-Fock + 0.0800 Slater + 0.7200 B88
 Correlation:  0.1900 VWN1RPA + 0.8100 LYP
 Using SG-1 standard quadrature grid
 SCF converges when DIIS error is below 1.0E-08
 Geometry optimization detected.  Setting ReadMinima to 0
 Setting SaveMinima to 0
Using Q-Chem read-in guess as SCF_GUESS READ specified.

 using 4 threads for integral computing
 -------------------------------------------------------
 OpenMP Integral computing Module                
 Release: version 1.0, May 2013, Q-Chem Inc. Pittsburgh 
 -------------------------------------------------------
 -------------------------------------------------------
 OpenMP BLAS3 based DFT computing Module                
 Release: version 1.0, May 2013, Q-Chem Inc. Pittsburgh 
 -------------------------------------------------------
 ---------------------------------------
  Cycle       Energy         DIIS Error
 ---------------------------------------
    1    -286.8506293430      5.67E-05
    2    -286.8505825050      4.39E-06
    3    -286.8505825175      6.23E-06
    4    -286.8505825818      1.55E-06
    5    -286.8505825852      7.29E-07
    6    -286.8505825861      2.92E-07
    7    -286.8505825863      1.30E-07
    8    -286.8505825863      1.96E-08
    9    -286.8505825863      1.84E-08
   10    -286.8505825863      4.56E-09 Convergence criterion met
 ---------------------------------------
 <S^2> = 0.7609
 SCF time:  CPU 24.82 s  wall 12.85 s
 SCF   energy in the final basis set = -286.85058259
 Total energy in the final basis set = -286.85058259
 
 --------------------------------------------------------------
 
                    Orbital Energies (a.u.)
 --------------------------------------------------------------
 
 Alpha MOs
 -- Occupied --
-14.323 -10.230 -10.227 -10.209 -10.205 -10.202 -10.201  -0.946
 -0.791  -0.769  -0.704  -0.587  -0.563  -0.555  -0.514  -0.469
 -0.425  -0.411  -0.404  -0.374  -0.332  -0.283  -0.265  -0.252
 -0.234
 -- Virtual --
 -0.038   0.012   0.075   0.116   0.122   0.147   0.152   0.157
  0.167   0.202   0.233   0.267   0.285   0.361   0.381   0.439
  0.487   0.530   0.536   0.541   0.568   0.573   0.580   0.595
  0.621   0.632   0.649   0.671   0.683   0.715   0.724   0.797
  0.822   0.833   0.847   0.851   0.876   0.894   0.904   0.916
  0.941   0.951   1.003   1.101   1.146   1.183   1.251   1.311
  1.339   1.398   1.417   1.472   1.529   1.567   1.597   1.633
  1.666   1.718   1.792   1.814   1.830   1.927   1.937   1.982
  1.991   2.066   2.135   2.165   2.187   2.270   2.279   2.309
  2.326   2.421   2.446   2.546   2.582   2.592   2.636   2.725
  2.760   2.832   2.899   2.956   3.003   3.928   4.059   4.085
  4.179   4.324   4.418   4.535
 
 Beta MOs
 -- Occupied --
-14.323 -10.229 -10.227 -10.205 -10.204 -10.201 -10.194  -0.945
 -0.783  -0.767  -0.692  -0.577  -0.558  -0.551  -0.513  -0.462
 -0.416  -0.409  -0.401  -0.370  -0.328  -0.279  -0.264  -0.248
 -- Virtual --
 -0.074  -0.035   0.023   0.077   0.117   0.130   0.151   0.153
  0.158   0.170   0.203   0.234   0.270   0.289   0.362   0.399
  0.440   0.494   0.532   0.538   0.546   0.572   0.579   0.599
  0.623   0.634   0.640   0.650   0.673   0.685   0.717   0.726
  0.797   0.824   0.834   0.850   0.853   0.886   0.895   0.910
  0.917   0.947   0.957   1.010   1.103   1.146   1.190   1.254
  1.312   1.341   1.399   1.421   1.473   1.531   1.574   1.599
  1.658   1.683   1.776   1.799   1.827   1.841   1.929   1.942
  1.992   1.999   2.067   2.139   2.169   2.194   2.272   2.288
  2.312   2.328   2.431   2.453   2.549   2.584   2.594   2.638
  2.729   2.771   2.838   2.912   2.956   3.005   3.929   4.074
  4.101   4.181   4.328   4.418   4.537
 --------------------------------------------------------------
 
          Ground-State Mulliken Net Atomic Charges

     Atom                 Charge (a.u.)    Spin (a.u.)
  --------------------------------------------------------
      1 C                    -0.095534       0.072679
      2 C                    -0.075769      -0.163803
      3 C                    -0.194481       1.044300
      4 C                    -0.140970       0.003049
      5 C                     0.051980       0.008554
      6 N                    -0.364049      -0.003084
      7 H                     0.173512      -0.003397
      8 H                     0.157883       0.037383
      9 H                     0.160471       0.001740
     10 H                     0.142771       0.000374
     11 H                     0.145219       0.000651
     12 C                    -0.113571       0.001766
     13 H                     0.152538      -0.000210
  --------------------------------------------------------
  Sum of atomic charges =    -0.000000
  Sum of spin   charges =     1.000000

 -----------------------------------------------------------------
                    Cartesian Multipole Moments
 -----------------------------------------------------------------
    Charge (ESU x 10^10)
                -0.0000
    Dipole Moment (Debye)
         X      -0.9578      Y       1.3968      Z      -1.6030
       Tot       2.3320
    Quadrupole Moments (Debye-Ang)
        XX     -41.2337     XY      -2.3673     YY     -38.9362
        XZ      -1.3201     YZ       4.3534     ZZ     -40.6036
    Octopole Moments (Debye-Ang^2)
       XXX     -14.3854    XXY       8.3218    XYY      -1.8319
       YYY       7.8689    XXZ       0.3826    XYZ       1.1875
       YYZ     -12.4000    XZZ      -3.6502    YZZ       7.2426
       ZZZ     -17.2276
    Hexadecapole Moments (Debye-Ang^3)
      XXXX    -528.6962   XXXY     119.1499   XXYY    -114.1516
      XYYY     101.7871   YYYY    -239.0578   XXXZ      65.3046
      XXYZ       7.8536   XYYZ      15.9373   YYYZ       0.5841
      XXZZ    -112.5582   XYZZ      32.1486   YYZZ     -75.8739
      XZZZ      61.1497   YZZZ      -3.4928   ZZZZ    -211.0116
 -----------------------------------------------------------------
 Calculating analytic gradient of the SCF energy
 Gradient of SCF Energy
            1           2           3           4           5           6
    1   0.0001159  -0.0000131  -0.0000826   0.0001515  -0.0001763   0.0000692
    2   0.0000140  -0.0000851  -0.0000512  -0.0000428  -0.0001283   0.0000738
    3   0.0000216  -0.0000894   0.0000564  -0.0000210  -0.0000989   0.0000722
            7           8           9          10          11          12
    1  -0.0000095  -0.0000036   0.0000242  -0.0000200  -0.0000005  -0.0000448
    2   0.0000182   0.0000324   0.0001212   0.0000254   0.0000538  -0.0000373
    3  -0.0000572  -0.0000042   0.0000456  -0.0000080   0.0000591   0.0000014
           13
    1  -0.0000102
    2   0.0000059
    3   0.0000225
 Max gradient component =       1.763E-04
 RMS gradient           =       6.675E-05
 Gradient time:  CPU 7.00 s  wall 2.91 s
 Geometry Optimization Parameters
   NAtoms,    NIC,     NZ,  NCons,   NDum,   NFix, NCnnct, MaxDiis
       13      86       0       0       0       0       0       0

 Cartesian Hessian Update
 Hessian Updated using BFGS Update


** GEOMETRY OPTIMIZATION IN DELOCALIZED INTERNAL COORDINATES **
   Searching for a Minimum

   Optimization Cycle:   3

                       Coordinates (Angstroms)
     ATOM                X               Y               Z
      1  C         0.0318207406   -0.5342777268   -0.1426373513
      2  C         1.5575050788   -0.4984218890   -0.0347654295
      3  C         2.3711287285   -1.3282267293   -0.6418153066
      4  C        -1.3588880983    1.2876466662    0.1040270435
      5  C        -1.3433600761    0.4243104766    1.2948691793
      6  N        -0.5764124795   -0.6088763175    1.1969118674
      7  H        -0.2664804173   -1.4325666778   -0.7001309565
      8  H         1.9449509581    0.3021943430    0.5975351171
      9  H         2.2976947565   -2.1869175101   -1.2976496591
     10  H        -1.9363828191    2.1981366472   -0.0108701429
     11  H        -1.9188173089    0.6093783980    2.2013186123
     12  C        -0.5295229346    0.7126181481   -0.7855017089
     13  H        -0.2732361285    1.0550021713   -1.7812912650
   Point Group: c1    Number of degrees of freedom:    33


   Energy is   -286.850582586

 Hessian Updated using BFGS Update

 33 Hessian modes will be used to form the next step
  Hessian Eigenvalues:
     0.004958    0.009105    0.013021    0.015807    0.019653    0.020775
     0.024881    0.040089    0.059077    0.063355    0.084531    0.139463
     0.159966    0.159996    0.160014    0.160470    0.162471    0.205355
     0.214135    0.225616    0.294616    0.297340    0.334678    0.338342
     0.346421    0.349883    0.352823    0.355083    0.355325    0.364143
     0.534800    0.647920    0.664404

 Minimum Search - Taking Simple RFO Step
 Searching for Lamda that Minimizes Along All modes
 Value Taken    Lamda =   0.00000000
 Step Taken.  Stepsize is  0.006464

                             Maximum     Tolerance    Cnvgd?
         Gradient           0.000101      0.000600     YES
         Displacement       0.003406      0.002400      NO
         Energy change     -0.000001      0.000002     YES


                       Distance Matrix (Angstroms)
             C (  1)   C (  2)   C (  3)   C (  4)   C (  5)   N (  6)
   C (  2)  1.529913
   C (  3)  2.520297  1.311133
   C (  4)  2.305282  3.422668  4.616503
   C (  5)  2.208266  3.321804  4.540877  1.470951
   N (  6)  1.473060  2.466340  3.547729  2.324535  1.290457
   H (  7)  1.098502  2.154591  2.640316  3.039669  2.930476  2.091242
   H (  8)  2.215312  1.091286  2.091863  3.482818  3.363655  2.747103
   H (  9)  3.033061  2.234676  1.082987  5.235255  5.176577  4.119896
   H ( 10)  3.370056  4.413531  5.602498  1.084294  2.281028  3.344784
   H ( 11)  3.256849  4.279265  5.499215  2.274247  1.089519  2.072445
   C ( 12)  1.511003  2.527036  3.549574  1.345275  2.252420  2.382962
   H ( 13)  2.303054  2.969022  3.737760  2.187965  3.317484  3.424924
             H (  7)   H (  8)   H (  9)   H ( 10)   H ( 11)   C ( 12)
   H (  8)  3.095765
   H (  9)  2.738808  3.148306
   H ( 10)  4.055325  4.362282  6.229921
   H ( 11)  3.913843  4.194662  6.151506  2.723645
   C ( 12)  2.162937  2.864308  4.082005  2.187710  3.295739
   H ( 13)  2.712370  3.338546  4.165770  2.684624  4.332170  1.083747

 
 Final energy is   -286.850582586326     


 ******************************
 **  OPTIMIZATION CONVERGED  **
 ******************************

                       Coordinates (Angstroms)
     ATOM                X               Y               Z
      1  C         0.0318207406   -0.5342777268   -0.1426373513
      2  C         1.5575050788   -0.4984218890   -0.0347654295
      3  C         2.3711287285   -1.3282267293   -0.6418153066
      4  C        -1.3588880983    1.2876466662    0.1040270435
      5  C        -1.3433600761    0.4243104766    1.2948691793
      6  N        -0.5764124795   -0.6088763175    1.1969118674
      7  H        -0.2664804173   -1.4325666778   -0.7001309565
      8  H         1.9449509581    0.3021943430    0.5975351171
      9  H         2.2976947565   -2.1869175101   -1.2976496591
     10  H        -1.9363828191    2.1981366472   -0.0108701429
     11  H        -1.9188173089    0.6093783980    2.2013186123
     12  C        -0.5295229346    0.7126181481   -0.7855017089
     13  H        -0.2732361285    1.0550021713   -1.7812912650

Z-matrix Print:
$molecule
0 2
N 
C  1 1.290457
H  2 1.089519 1 120.867768
C  2 1.470951 1 114.502488 3 -179.938540 0
H  4 1.084294 2 125.750260 1 179.975393 0
C  4 1.345275 2 106.136392 1 0.262152 0
H  6 1.083747 4 128.192870 2 -179.607780 0
C  1 1.473060 2 105.895386 3 179.998510 0
H  8 1.098502 1 107.936866 2 -119.278880 0
C  8 1.529913 1 110.415905 2 121.654470 0
H  10 1.091286 8 114.336953 1 -55.235589 0
C  10 1.311133 8 124.844900 1 125.431867 0
H  12 1.082987 10 137.741424 8 -1.252062 0
$end

 
 --------------------------------------------------------------
 
                    Orbital Energies (a.u.)
 --------------------------------------------------------------
 
 Alpha MOs
 -- Occupied --
-14.323 -10.230 -10.227 -10.209 -10.205 -10.202 -10.201  -0.946
 -0.791  -0.769  -0.704  -0.587  -0.563  -0.555  -0.514  -0.469
 -0.425  -0.411  -0.404  -0.374  -0.332  -0.283  -0.265  -0.252
 -0.234
 -- Virtual --
 -0.038   0.012   0.075   0.116   0.122   0.147   0.152   0.157
  0.167   0.202   0.233   0.267   0.285   0.361   0.381   0.439
  0.487   0.530   0.536   0.541   0.568   0.573   0.580   0.595
  0.621   0.632   0.649   0.671   0.683   0.715   0.724   0.797
  0.822   0.833   0.847   0.851   0.876   0.894   0.904   0.916
  0.941   0.951   1.003   1.101   1.146   1.183   1.251   1.311
  1.339   1.398   1.417   1.472   1.529   1.567   1.597   1.633
  1.666   1.718   1.792   1.814   1.830   1.927   1.937   1.982
  1.991   2.066   2.135   2.165   2.187   2.270   2.279   2.309
  2.326   2.421   2.446   2.546   2.582   2.592   2.636   2.725
  2.760   2.832   2.899   2.956   3.003   3.928   4.059   4.085
  4.179   4.324   4.418   4.535
 
 Beta MOs
 -- Occupied --
-14.323 -10.229 -10.227 -10.205 -10.204 -10.201 -10.194  -0.945
 -0.783  -0.767  -0.692  -0.577  -0.558  -0.551  -0.513  -0.462
 -0.416  -0.409  -0.401  -0.370  -0.328  -0.279  -0.264  -0.248
 -- Virtual --
 -0.074  -0.035   0.023   0.077   0.117   0.130   0.151   0.153
  0.158   0.170   0.203   0.234   0.270   0.289   0.362   0.399
  0.440   0.494   0.532   0.538   0.546   0.572   0.579   0.599
  0.623   0.634   0.640   0.650   0.673   0.685   0.717   0.726
  0.797   0.824   0.834   0.850   0.853   0.886   0.895   0.910
  0.917   0.947   0.957   1.010   1.103   1.146   1.190   1.254
  1.312   1.341   1.399   1.421   1.473   1.531   1.574   1.599
  1.658   1.683   1.776   1.799   1.827   1.841   1.929   1.942
  1.992   1.999   2.067   2.139   2.169   2.194   2.272   2.288
  2.312   2.328   2.431   2.453   2.549   2.584   2.594   2.638
  2.729   2.771   2.838   2.912   2.956   3.005   3.929   4.074
  4.101   4.181   4.328   4.418   4.537
 --------------------------------------------------------------
 
          Ground-State Mulliken Net Atomic Charges

     Atom                 Charge (a.u.)    Spin (a.u.)
  --------------------------------------------------------
      1 C                    -0.095534       0.072679
      2 C                    -0.075769      -0.163803
      3 C                    -0.194481       1.044300
      4 C                    -0.140970       0.003049
      5 C                     0.051980       0.008554
      6 N                    -0.364049      -0.003084
      7 H                     0.173512      -0.003397
      8 H                     0.157883       0.037383
      9 H                     0.160471       0.001740
     10 H                     0.142771       0.000374
     11 H                     0.145219       0.000651
     12 C                    -0.113571       0.001766
     13 H                     0.152538      -0.000210
  --------------------------------------------------------
  Sum of atomic charges =    -0.000000
  Sum of spin   charges =     1.000000

 -----------------------------------------------------------------
                    Cartesian Multipole Moments
 -----------------------------------------------------------------
    Charge (ESU x 10^10)
                -0.0000
    Dipole Moment (Debye)
         X      -0.9578      Y       1.3968      Z      -1.6030
       Tot       2.3320
    Quadrupole Moments (Debye-Ang)
        XX     -41.2337     XY      -2.3673     YY     -38.9362
        XZ      -1.3201     YZ       4.3534     ZZ     -40.6036
    Octopole Moments (Debye-Ang^2)
       XXX     -14.3854    XXY       8.3218    XYY      -1.8319
       YYY       7.8689    XXZ       0.3826    XYZ       1.1875
       YYZ     -12.4000    XZZ      -3.6502    YZZ       7.2426
       ZZZ     -17.2276
    Hexadecapole Moments (Debye-Ang^3)
      XXXX    -528.6962   XXXY     119.1499   XXYY    -114.1516
      XYYY     101.7871   YYYY    -239.0578   XXXZ      65.3046
      XXYZ       7.8536   XYYZ      15.9373   YYYZ       0.5841
      XXZZ    -112.5582   XYZZ      32.1486   YYZZ     -75.8739
      XZZZ      61.1497   YZZZ      -3.4928   ZZZZ    -211.0116
 -----------------------------------------------------------------
Archival summary:
1\1\c8-66\OPT\ProcedureUnspecified\6-31G*\166(2)\hpark21\WedMar212:33:042022WedMar212:33:042022\0\\#,OPT,ProcedureUnspecified,6-31G*,\\0,2\N\C,1,1.29046\H,2,1.08952,1,120.868\C,2,1.47095,1,114.502,3,-179.939,0\H,4,1.08429,2,125.75,1,179.975,0\C,4,1.34528,2,106.136,1,0.262152,0\H,6,1.08375,4,128.193,2,-179.608,0\C,1,1.47306,2,105.895,3,179.999,0\H,8,1.0985,1,107.937,2,-119.279,0\C,8,1.52991,1,110.416,2,121.654,0\H,10,1.09129,8,114.337,1,-55.2356,0\C,10,1.31113,8,124.845,1,125.432,0\H,12,1.08299,10,137.741,8,-1.25206,0\\\@

 Total job time:  56.50s(wall), 83.15s(cpu) 
 Wed Mar  2 12:33:04 2022

        *************************************************************
        *                                                           *
        *  Thank you very much for using Q-Chem.  Have a nice day.  *
        *                                                           *
        *************************************************************


