13   
From optimize.out: Frame 1 / 3, Energy=    -286.8505782439
C       -0.0952890000    0.0725620000   -0.0000000000
C       -0.0763430000   -0.1641090000   -0.0000000000
C       -0.1942000000    1.0447640000   -0.0000000000
C       -0.1411540000    0.0031540000    0.0000000000
C        0.0519500000    0.0084140000    0.0000000000
N       -0.3640190000   -0.0030900000    0.0000000000
H        0.1736800000   -0.0033930000   -0.0000000000
H        0.1578790000    0.0374690000    0.0000000000
H        0.1605210000    0.0016900000   -0.0000000000
H        0.1428460000    0.0003730000   -0.0000000000
H        0.1451830000    0.0006430000    0.0000000000
C       -0.1135620000    0.0017330000   -0.0000000000
H        0.1525070000   -0.0002100000   -0.0000000000
13   
From optimize.out: Frame 2 / 3, Energy=    -286.8505816574
C       -0.0954590000    0.0726180000   -0.0000000000
C       -0.0759580000   -0.1639150000   -0.0000000000
C       -0.1943410000    1.0444800000   -0.0000000000
C       -0.1411200000    0.0030820000    0.0000000000
C        0.0520060000    0.0085030000    0.0000000000
N       -0.3640520000   -0.0030820000    0.0000000000
H        0.1735460000   -0.0033950000   -0.0000000000
H        0.1578570000    0.0374380000    0.0000000000
H        0.1605050000    0.0017070000   -0.0000000000
H        0.1427840000    0.0003790000   -0.0000000000
H        0.1452120000    0.0006420000    0.0000000000
C       -0.1135110000    0.0017540000   -0.0000000000
H        0.1525310000   -0.0002110000   -0.0000000000
