
Running Job 1 of 1 optimize.in
qchem optimize.in_53005.0 ./optimize.d/ 1
/home/leeping/opt/qchem/5.0.2-openmp/exe/qcprog.exe_s optimize.in_53005.0 ./optimize.d/
Check license passed

                  Welcome to Q-Chem
     A Quantum Leap Into The Future Of Chemistry


 Q-Chem 5.0, Q-Chem, Inc., Pleasanton, CA (2017)

 Yihan Shao,  Zhengting Gan,  E. Epifanovsky,  A. T. B. Gilbert,  M. Wormit,  
 J. Kussmann,  A. W. Lange,  A. Behn,  Jia Deng,  Xintian Feng,  D. Ghosh,  
 M. Goldey,  P. R. Horn,  L. D. Jacobson,  I. Kaliman,  T. Kus,  A. Landau,  
 Jie Liu,  E. I. Proynov,  R. M. Richard,  R. P. Steele,  E. J. Sundstrom,  
 H. L. Woodcock III,  P. M. Zimmerman,  D. Zuev,  B. Albrecht,  E. Alguire,  
 S. A. Baeppler,  D. Barton,  Z. Benda,  Y. A. Bernard,  E. J. Berquist,  
 K. B. Bravaya,  H. Burton,  D. Casanova,  Chun-Min Chang,  Yunqing Chen,  
 A. Chien,  K. D. Closser,  M. P. Coons,  S. Dasgupta,  A. L. Dempwolff,  
 M. Diedenhofen,  Hainam Do,  R. G. Edgar,  Po-Tung Fang,  S. Fatehi,  
 Qingguo Feng,  J. Fosso-Tande,  Qinghui Ge,  A. Ghysels,  G. Gidofalvi,  
 J. Gomes,  J. Gonthier,  A. Gunina,  M. W. D. Hanson-Heine,  
 P. H. P. Harbach,  A. W. Hauser,  J. E. Herr,  E. G. Hohenstein,  
 Z. C. Holden,  Kerwin Hui,  T.-C. Jagau,  Hyunjun Ji,  B. Kaduk,  
 K. Khistyaev,  Jaehoon Kim,  P. Klunzinger,  K. Koh,  D. Kosenkov,  
 L. Koulias,  T. Kowalczyk,  C. M. Krauter,  A. Kunitsa,  Ka Un Lao,  
 A. Laurent,  K. V. Lawler,  Joonho Lee,  D. Lefrancois,  S. Lehtola,  
 D. S. Levine,  Yi-Pei Li,  You-Sheng Lin,  Fenglai Liu,  E. Livshits,  
 A. Luenser,  P. Manohar,  E. Mansoor,  S. F. Manzer,  Shan-Ping Mao,  
 Yuezhi Mao,  N. Mardirossian,  A. V. Marenich,  T. Markovich,  
 L. A. Martinez-Martinez,  S. A. Maurer,  N. J. Mayhall,  S. C. McKenzie,  
 J.-M. Mewes,  A. F. Morrison,  J. W. Mullinax,  K. Nanda,  
 T. S. Nguyen-Beck,  R. Olivares-Amaya,  J. A. Parkhill,  T. M. Perrine,  
 F. Plasser,  S. Prager,  A. Prociuk,  E. Ramos,  D. R. Rehn,  F. Rob,  
 M. Schneider,  N. Sergueev,  S. M. Sharada,  S. Sharma,  D. W. Small,  
 T. Stauch,  T. Stein,  Yu-Chuan Su,  A. J. W. Thom,  A. Tkatchenko,  
 T. Tsuchimochi,  L. Vogt,  O. Vydrov,  M. A. Watson,  J. Wenzel,  
 M. de Wergifosse,  T. A. Wesolowski,  A. White,  J. Witte,  A. Yamada,  
 Jun Yang,  K. Yao,  S. Yeganeh,  S. R. Yost,  Zhi-Qiang You,  A. Zech,  
 Igor Ying Zhang,  Xing Zhang,  Yan Zhao,  Ying Zhu,  B. R. Brooks,  
 G. K. L. Chan,  C. J. Cramer,  M. S. Gordon,  W. J. Hehre,  A. Klamt,  
 M. W. Schmidt,  C. D. Sherrill,  D. G. Truhlar,  A. Aspuru-Guzik,  R. Baer,  
 A. T. Bell,  N. A. Besley,  Jeng-Da Chai,  R. A. DiStasio Jr.,  A. Dreuw,  
 B. D. Dunietz,  T. R. Furlani,  Chao-Ping Hsu,  Yousung Jung,  Jing Kong,  
 D. S. Lambrecht,  WanZhen Liang,  C. Ochsenfeld,  V. A. Rassolov,  
 L. V. Slipchenko,  J. E. Subotnik,  T. Van Voorhis,  J. M. Herbert,  
 A. I. Krylov,  P. M. W. Gill,  M. Head-Gordon

 Contributors to earlier versions of Q-Chem not listed above: 
 R. D. Adamson,  B. Austin,  J. Baker,  G. J. O. Beran,  K. Brandhorst,  
 S. T. Brown,  E. F. C. Byrd,  A. K. Chakraborty,  C.-L. Cheng,  
 Siu Hung Chien,  D. M. Chipman,  D. L. Crittenden,  H. Dachsel,  
 R. J. Doerksen,  A. D. Dutoi,  L. Fusti-Molnar,  W. A. Goddard III,  
 A. Golubeva-Zadorozhnaya,  S. R. Gwaltney,  G. Hawkins,  A. Heyden,  
 S. Hirata,  G. Kedziora,  F. J. Keil,  C. Kelley,  Jihan Kim,  R. A. King,  
 R. Z. Khaliullin,  P. P. Korambath,  W. Kurlancheek,  A. M. Lee,  M. S. Lee,  
 S. V. Levchenko,  Ching Yeh Lin,  D. Liotard,  R. C. Lochan,  I. Lotan,  
 P. E. Maslen,  N. Nair,  D. P. O'Neill,  D. Neuhauser,  E. Neuscamman,  
 C. M. Oana,  R. Olson,  B. Peters,  R. Peverati,  P. A. Pieniazek,  
 Y. M. Rhee,  J. Ritchie,  M. A. Rohrdanz,  E. Rosta,  N. J. Russ,  
 H. F. Schaefer III,  N. E. Schultz,  N. Shenvi,  A. C. Simmonett,  A. Sodt,  
 D. Stuck,  K. S. Thanthiriwatte,  V. Vanovschi,  Tao Wang,  A. Warshel,  
 C. F. Williams,  Q. Wu,  X. Xu,  W. Zhang

 Please cite Q-Chem as follows:
 Y. Shao et al., Mol. Phys. 113, 184-215 (2015)
 DOI: 10.1080/00268976.2014.952696

 Q-Chem 5.0.2 for Intel X86 EM64T Linux

 Parts of Q-Chem use Armadillo 5.200.1 (Boston Tea Smuggler).
 http://arma.sourceforge.net/

 Q-Chem begins on Wed Mar  2 18:11:40 2022  

Host: 
0

     Scratch files written to ./optimize.d//
 Dec517 15110_ 26548  26544 5633   
Processing $rem in /home/leeping/opt/qchem/5.0.2-openmp/config/preferences.
 MEM_STATIC 2000
 MEM_TOTAL  8000
 SYMMETRY   OFF
 SYM_IGNORE TRUE 

Checking the input file for inconsistencies... 	...done.

--------------------------------------------------------------
User input:
--------------------------------------------------------------
$molecule
0 2
C        1.6735000166    0.3587863601   -0.4781759604
C        1.0562543561   -0.9021594529   -0.4898471847
C       -0.4209526040   -0.6978737049   -0.4124752053
C       -1.0943234380    0.7175745219    1.0190393938
C       -0.4966139934    0.8810209707   -0.3785878236
N        0.8626322681    1.4103482637   -0.4169895676
H        2.7510503826    0.5171868986   -0.4912018976
H        1.5701101273   -1.8571569663   -0.5079844591
H       -1.0045977010   -1.2411191742   -1.1673871682
H       -1.4021509037    1.4514269838    1.7577571094
H       -1.1333373380    1.3803184550   -1.1194073427
C       -1.0445534415   -0.6187088584    0.9901890645
H       -1.3170177311   -1.3996442970    1.6950710414
$end

$rem
method                b3lyp
basis                 6-31g(d)
unrestricted          true
symmetry              off
sym_ignore            true
incdft                false
incfock               0
scf_convergence       8
thresh                14
jobtype               opt
scf_guess             read
scf_algorithm         diis
max_scf_cycles        100
geom_opt_tol_gradient 600
geom_opt_tol_displacement 2400
geom_opt_tol_energy   200
geom_opt_max_cycles   100
$end

--------------------------------------------------------------
 ----------------------------------------------------------------
             Standard Nuclear Orientation (Angstroms)
    I     Atom           X                Y                Z
 ----------------------------------------------------------------
    1      C       1.6735000166     0.3587863601    -0.4781759604
    2      C       1.0562543561    -0.9021594529    -0.4898471847
    3      C      -0.4209526040    -0.6978737049    -0.4124752053
    4      C      -1.0943234380     0.7175745219     1.0190393938
    5      C      -0.4966139934     0.8810209707    -0.3785878236
    6      N       0.8626322681     1.4103482637    -0.4169895676
    7      H       2.7510503826     0.5171868986    -0.4912018976
    8      H       1.5701101273    -1.8571569663    -0.5079844591
    9      H      -1.0045977010    -1.2411191742    -1.1673871682
   10      H      -1.4021509037     1.4514269838     1.7577571094
   11      H      -1.1333373380     1.3803184550    -1.1194073427
   12      C      -1.0445534415    -0.6187088584     0.9901890645
   13      H      -1.3170177311    -1.3996442970     1.6950710414
 ----------------------------------------------------------------
 Nuclear Repulsion Energy =   273.0246405455 hartrees
 There are       25 alpha and       24 beta electrons
 Requested basis set is 6-31G(d)
 There are 40 shells and 117 basis functions

 Total QAlloc Memory Limit   8000 MB
 Mega-Array Size      1956 MB
 MEM_STATIC part      2000 MB
 A cutoff of  1.0D-14 yielded    806 shell pairs
 There are      7078 function pairs
 
 -------------------------------------------------------
 OpenMP Integral Computing Module                       
 Release: version 1.0, May 2013, Q-Chem Inc. Pittsburgh 
 -------------------------------------------------------
 Integral Job Info:
 Integral job number is                      11
 Integral operator is                         1
 short-range coefficients                     0
 long-range coefficients              100000000
 Omega coefficients                           0
 if combine SR and LR in K                    0
 Integral screening is                        0
 Integral computing path is                   2
 max size of driver memory is            800000
 size of driver memory is                593474
 size of scratch memory is              2361544
 max col of scratch BK array               1296
 max len of scratch array in speh3          155
 max len of scratch index in speh4           18
 max int batch size is                      520
 min int batch size is                       52
 fixed nKL is                                52
 max L of basis functions is                  2
 order of int derivative is                   0
 number of shells is                         40
 number of basis is                         117
 number of cartesian basis is               117
 number of contracted shell pairs           806
 number of primitive shell pairs           3534
 maxK2 (contraction) of shell pair           36
 max number of K2 of shell pair               1
 max number of CS2 of shell pair             89
 max number of PS2 of shell pair            396
 mem total for path MDJ                  535308
 -------------------------------------------------------
 Smallest overlap matrix eigenvalue = 9.72E-04

 Scale SEOQF with 1.000000e-01/1.000000e-01/1.000000e-01

 Standard Electronic Orientation quadrupole field applied
 Nucleus-field energy     =     0.0000000024 hartrees
 Guess MOs from SCF MO coefficient file
 Reading MOs from coefficient file
 Reading MOs from coefficient file
 An unrestricted hybrid HF-DFT SCF calculation will be
 performed using Pulay DIIS extrapolation
 Exchange:     0.2000 Hartree-Fock + 0.0800 Slater + 0.7200 B88
 Correlation:  0.1900 VWN1RPA + 0.8100 LYP
 Using SG-1 standard quadrature grid
 SCF converges when DIIS error is below 1.0E-08
Using Q-Chem read-in guess as SCF_GUESS READ specified.

 using 4 threads for integral computing
 -------------------------------------------------------
 OpenMP Integral computing Module                
 Release: version 1.0, May 2013, Q-Chem Inc. Pittsburgh 
 -------------------------------------------------------
 -------------------------------------------------------
 OpenMP BLAS3 based DFT computing Module                
 Release: version 1.0, May 2013, Q-Chem Inc. Pittsburgh 
 -------------------------------------------------------
 ---------------------------------------
  Cycle       Energy         DIIS Error
 ---------------------------------------
    1    -286.8754955387      1.16E-09
    2    -286.8754955387      2.05E-09 Convergence criterion met
 ---------------------------------------
 <S^2> = 0.7770
 SCF time:  CPU 4.82 s  wall 1.31 s
 SCF   energy in the final basis set = -286.87549554
 Total energy in the final basis set = -286.87549554
 
 --------------------------------------------------------------
 
                    Orbital Energies (a.u.)
 --------------------------------------------------------------
 
 Alpha MOs
 -- Occupied --
-14.328 -10.217 -10.216 -10.207 -10.202 -10.200 -10.195  -0.944
 -0.838  -0.752  -0.665  -0.618  -0.554  -0.523  -0.515  -0.481
 -0.428  -0.402  -0.386  -0.355  -0.341  -0.322  -0.270  -0.253
 -0.203
 -- Virtual --
  0.012   0.030   0.114   0.130   0.143   0.147   0.160   0.166
  0.186   0.188   0.216   0.266   0.295   0.363   0.409   0.452
  0.486   0.502   0.531   0.544   0.575   0.593   0.597   0.618
  0.624   0.634   0.654   0.680   0.694   0.747   0.774   0.786
  0.813   0.825   0.839   0.855   0.860   0.876   0.909   0.928
  0.956   0.970   1.018   1.064   1.090   1.170   1.234   1.411
  1.420   1.436   1.471   1.496   1.520   1.572   1.637   1.693
  1.761   1.820   1.882   1.887   1.934   1.948   1.977   2.028
  2.051   2.143   2.174   2.211   2.222   2.265   2.309   2.353
  2.412   2.425   2.521   2.561   2.573   2.606   2.618   2.674
  2.693   2.863   2.907   2.916   2.993   3.909   4.085   4.196
  4.295   4.372   4.448   4.716
 
 Beta MOs
 -- Occupied --
-14.318 -10.219 -10.218 -10.203 -10.199 -10.198 -10.194  -0.932
 -0.831  -0.734  -0.665  -0.610  -0.549  -0.520  -0.512  -0.475
 -0.420  -0.396  -0.381  -0.343  -0.334  -0.301  -0.264  -0.246
 -- Virtual --
 -0.087   0.016   0.054   0.116   0.132   0.147   0.149   0.162
  0.168   0.190   0.193   0.222   0.270   0.297   0.368   0.414
  0.455   0.491   0.509   0.535   0.548   0.579   0.598   0.613
  0.618   0.629   0.634   0.661   0.684   0.707   0.751   0.776
  0.794   0.821   0.831   0.845   0.859   0.863   0.884   0.913
  0.931   0.962   0.975   1.025   1.070   1.094   1.176   1.238
  1.418   1.436   1.441   1.478   1.504   1.524   1.579   1.640
  1.698   1.773   1.828   1.898   1.900   1.938   1.954   1.979
  2.031   2.054   2.148   2.185   2.224   2.234   2.269   2.321
  2.357   2.417   2.431   2.534   2.570   2.584   2.616   2.626
  2.678   2.697   2.866   2.909   2.919   2.996   3.924   4.094
  4.195   4.300   4.375   4.457   4.716
 --------------------------------------------------------------
 
          Ground-State Mulliken Net Atomic Charges

     Atom                 Charge (a.u.)    Spin (a.u.)
  --------------------------------------------------------
      1 C                     0.048026      -0.230986
      2 C                    -0.114528       0.693650
      3 C                    -0.193457      -0.054043
      4 C                    -0.075621       0.031510
      5 C                    -0.062266      -0.027548
      6 N                    -0.351324       0.517067
      7 H                     0.140499       0.007446
      8 H                     0.143433      -0.032157
      9 H                     0.148105       0.025243
     10 H                     0.137415       0.003571
     11 H                     0.151541       0.025402
     12 C                    -0.105069       0.033945
     13 H                     0.133245       0.006900
  --------------------------------------------------------
  Sum of atomic charges =     0.000000
  Sum of spin   charges =     1.000000

 -----------------------------------------------------------------
                    Cartesian Multipole Moments
 -----------------------------------------------------------------
    Charge (ESU x 10^10)
                 0.0000
    Dipole Moment (Debye)
         X      -0.5896      Y      -2.0658      Z       0.1408
       Tot       2.1529
    Quadrupole Moments (Debye-Ang)
        XX     -38.3940     XY      -3.0261     YY     -42.1877
        XZ      -0.5472     YZ       0.9274     ZZ     -39.8247
    Octopole Moments (Debye-Ang^2)
       XXX       2.6393    XXY      -6.9266    XYY      -9.0575
       YYY     -28.3885    XXZ      -0.3156    XYZ       0.9698
       YYZ       3.9793    XZZ      -7.2951    YZZ      -5.1970
       ZZZ       5.1708
    Hexadecapole Moments (Debye-Ang^3)
      XXXX    -320.7706   XXXY      -5.4129   XXYY     -95.5264
      XYYY     -22.9889   YYYY    -264.2120   XXXZ      60.4265
      XXYZ       1.8042   XYYZ      19.0932   YYYZ       7.9656
      XXZZ     -82.6525   XYZZ      -3.0168   YYZZ     -64.8090
      XZZZ      60.9436   YZZZ       2.8756   ZZZZ    -169.7112
 -----------------------------------------------------------------
 Calculating analytic gradient of the SCF energy
 Gradient of SCF Energy
            1           2           3           4           5           6
    1  -0.0000850   0.0000700  -0.0000403  -0.0000178   0.0001234  -0.0000550
    2  -0.0002005  -0.0002742  -0.0003237   0.0003140  -0.0000700   0.0004739
    3  -0.0000466  -0.0002941   0.0004849   0.0002014   0.0003461  -0.0000451
            7           8           9          10          11          12
    1  -0.0000035   0.0000898  -0.0001040  -0.0000363  -0.0000566   0.0000301
    2   0.0001120  -0.0000566  -0.0000300  -0.0000308   0.0000241  -0.0000242
    3   0.0000347  -0.0000250   0.0000158   0.0000047  -0.0000534  -0.0004289
           13
    1   0.0000851
    2   0.0000859
    3  -0.0001945
 Max gradient component =       4.849E-04
 RMS gradient           =       1.861E-04
 Gradient time:  CPU 7.38 s  wall 2.12 s
 Geometry Optimization Parameters
   NAtoms,    NIC,     NZ,  NCons,   NDum,   NFix, NCnnct, MaxDiis
       13     105       0       0       0       0       0       0


** GEOMETRY OPTIMIZATION IN DELOCALIZED INTERNAL COORDINATES **
   Searching for a Minimum

   Optimization Cycle:   1

                       Coordinates (Angstroms)
     ATOM                X               Y               Z
      1  C         1.6735000166    0.3587863601   -0.4781759604
      2  C         1.0562543561   -0.9021594529   -0.4898471847
      3  C        -0.4209526040   -0.6978737049   -0.4124752053
      4  C        -1.0943234380    0.7175745219    1.0190393938
      5  C        -0.4966139934    0.8810209707   -0.3785878236
      6  N         0.8626322681    1.4103482637   -0.4169895676
      7  H         2.7510503826    0.5171868986   -0.4912018976
      8  H         1.5701101273   -1.8571569663   -0.5079844591
      9  H        -1.0045977010   -1.2411191742   -1.1673871682
     10  H        -1.4021509037    1.4514269838    1.7577571094
     11  H        -1.1333373380    1.3803184550   -1.1194073427
     12  C        -1.0445534415   -0.6187088584    0.9901890645
     13  H        -1.3170177311   -1.3996442970    1.6950710414
   Point Group: c1    Number of degrees of freedom:    33


   Energy is   -286.875495539


 Attempting to Generate Delocalized Internal Coordinates

 33 Hessian modes will be used to form the next step
  Hessian Eigenvalues:
     0.006733    0.011666    0.014284    0.017005    0.018261    0.022867
     0.035953    0.041048    0.045177    0.059626    0.065083    0.095579
     0.105545    0.159604    0.159728    0.159903    0.159960    0.172943
     0.190473    0.228915    0.261883    0.291574    0.318729    0.339020
     0.340100    0.349043    0.351947    0.353004    0.354420    0.356160
     0.418737    0.513279    0.556237

 Minimum Search - Taking Simple RFO Step
 Searching for Lamda that Minimizes Along All modes
 Value Taken    Lamda =  -0.00000497
 Step Taken.  Stepsize is  0.009321

                             Maximum     Tolerance    Cnvgd?
         Gradient           0.000582      0.000600     YES
         Displacement       0.004482      0.002400      NO
         Energy change     *********      0.000002      NO


 New Cartesian Coordinates Obtained by Inverse Iteration

 Displacement from previous Coordinates is:  0.009039
 ----------------------------------------------------------------
             Standard Nuclear Orientation (Angstroms)
    I     Atom           X                Y                Z
 ----------------------------------------------------------------
    1      C       1.6736499292     0.3589960974    -0.4779344817
    2      C       1.0558765808    -0.9014237382    -0.4881087997
    3      C      -0.4212086177    -0.6971996202    -0.4131771915
    4      C      -1.0941991015     0.7168467885     1.0186936790
    5      C      -0.4970803625     0.8811985174    -0.3792762365
    6      N       0.8624235110     1.4100407732    -0.4175720974
    7      H       2.7512603609     0.5166867413    -0.4922677878
    8      H       1.5691163399    -1.8565885151    -0.5059644597
    9      H      -1.0035524492    -1.2405120611    -1.1689128194
   10      H      -1.4005261068     1.4506854403     1.7580713883
   11      H      -1.1339596805     1.3808724903    -1.1195144171
   12      C      -1.0450041003    -0.6193309237     0.9901611004
   13      H      -1.3167963033    -1.4002719899     1.6958021230
 ----------------------------------------------------------------
 Nuclear Repulsion Energy =   273.0429193613 hartrees
 There are       25 alpha and       24 beta electrons
 Applying Cartesian multipole field
    Component          Value
    ---------          -----
     (2,0,0)        1.00000E-11
     (0,2,0)        2.00000E-11
     (0,0,2)       -3.00000E-11
 Nucleus-field energy     =     0.0000000024 hartrees
 Requested basis set is 6-31G(d)
 There are 40 shells and 117 basis functions
 A cutoff of  1.0D-14 yielded    806 shell pairs
 There are      7078 function pairs
 Smallest overlap matrix eigenvalue = 9.72E-04
 Guess MOs from SCF MO coefficient file
 Reading MOs from coefficient file
 Reading MOs from coefficient file
 An unrestricted hybrid HF-DFT SCF calculation will be
 performed using Pulay DIIS extrapolation
 Exchange:     0.2000 Hartree-Fock + 0.0800 Slater + 0.7200 B88
 Correlation:  0.1900 VWN1RPA + 0.8100 LYP
 Using SG-1 standard quadrature grid
 SCF converges when DIIS error is below 1.0E-08
 Geometry optimization detected.  Setting ReadMinima to 0
 Setting SaveMinima to 0
Using Q-Chem read-in guess as SCF_GUESS READ specified.

 using 4 threads for integral computing
 -------------------------------------------------------
 OpenMP Integral computing Module                
 Release: version 1.0, May 2013, Q-Chem Inc. Pittsburgh 
 -------------------------------------------------------
 -------------------------------------------------------
 OpenMP BLAS3 based DFT computing Module                
 Release: version 1.0, May 2013, Q-Chem Inc. Pittsburgh 
 -------------------------------------------------------
 ---------------------------------------
  Cycle       Energy         DIIS Error
 ---------------------------------------
    1    -286.8758200992      5.63E-05
    2    -286.8754979846      9.77E-06
    3    -286.8754979709      1.20E-05
    4    -286.8754982068      2.68E-06
    5    -286.8754982174      1.33E-06
    6    -286.8754982214      3.31E-07
    7    -286.8754982220      1.66E-07
    8    -286.8754982221      4.92E-08
    9    -286.8754982222      2.72E-08
   10    -286.8754982222      1.54E-08
   11    -286.8754982222      3.90E-09 Convergence criterion met
 ---------------------------------------
 <S^2> = 0.7770
 SCF time:  CPU 27.23 s  wall 9.34 s
 SCF   energy in the final basis set = -286.87549822
 Total energy in the final basis set = -286.87549822
 
 --------------------------------------------------------------
 
                    Orbital Energies (a.u.)
 --------------------------------------------------------------
 
 Alpha MOs
 -- Occupied --
-14.328 -10.217 -10.216 -10.207 -10.202 -10.200 -10.195  -0.944
 -0.837  -0.752  -0.665  -0.618  -0.554  -0.523  -0.515  -0.481
 -0.428  -0.403  -0.386  -0.355  -0.341  -0.322  -0.270  -0.253
 -0.203
 -- Virtual --
  0.012   0.031   0.114   0.130   0.143   0.147   0.160   0.166
  0.186   0.188   0.216   0.266   0.295   0.363   0.409   0.452
  0.486   0.502   0.531   0.544   0.575   0.593   0.597   0.618
  0.624   0.634   0.654   0.680   0.695   0.747   0.774   0.786
  0.813   0.825   0.839   0.855   0.860   0.876   0.909   0.928
  0.956   0.970   1.018   1.064   1.090   1.170   1.234   1.412
  1.420   1.436   1.472   1.495   1.519   1.571   1.637   1.694
  1.761   1.821   1.882   1.887   1.935   1.948   1.977   2.028
  2.051   2.143   2.175   2.211   2.222   2.265   2.309   2.353
  2.412   2.425   2.522   2.560   2.573   2.606   2.618   2.674
  2.693   2.864   2.907   2.917   2.993   3.909   4.085   4.197
  4.295   4.372   4.448   4.716
 
 Beta MOs
 -- Occupied --
-14.318 -10.219 -10.218 -10.203 -10.199 -10.198 -10.194  -0.932
 -0.831  -0.734  -0.665  -0.610  -0.549  -0.520  -0.512  -0.475
 -0.420  -0.396  -0.381  -0.343  -0.334  -0.301  -0.264  -0.246
 -- Virtual --
 -0.087   0.016   0.054   0.116   0.132   0.147   0.149   0.162
  0.168   0.190   0.193   0.222   0.270   0.297   0.368   0.414
  0.455   0.491   0.509   0.534   0.548   0.579   0.598   0.613
  0.617   0.629   0.634   0.661   0.684   0.707   0.751   0.776
  0.794   0.821   0.831   0.845   0.859   0.863   0.884   0.913
  0.931   0.962   0.975   1.025   1.070   1.094   1.177   1.238
  1.418   1.436   1.441   1.478   1.504   1.524   1.579   1.640
  1.699   1.773   1.828   1.898   1.900   1.938   1.954   1.979
  2.031   2.053   2.148   2.185   2.225   2.234   2.269   2.321
  2.357   2.417   2.432   2.534   2.569   2.584   2.616   2.627
  2.678   2.697   2.867   2.908   2.920   2.996   3.924   4.094
  4.195   4.301   4.375   4.457   4.716
 --------------------------------------------------------------
 
          Ground-State Mulliken Net Atomic Charges

     Atom                 Charge (a.u.)    Spin (a.u.)
  --------------------------------------------------------
      1 C                     0.048237      -0.230810
      2 C                    -0.114541       0.693400
      3 C                    -0.193553      -0.054002
      4 C                    -0.075783       0.031827
      5 C                    -0.062088      -0.027661
      6 N                    -0.351515       0.517050
      7 H                     0.140563       0.007437
      8 H                     0.143337      -0.032146
      9 H                     0.148110       0.025271
     10 H                     0.137341       0.003598
     11 H                     0.151606       0.025344
     12 C                    -0.105053       0.033817
     13 H                     0.133339       0.006875
  --------------------------------------------------------
  Sum of atomic charges =     0.000000
  Sum of spin   charges =     1.000000

 -----------------------------------------------------------------
                    Cartesian Multipole Moments
 -----------------------------------------------------------------
    Charge (ESU x 10^10)
                -0.0000
    Dipole Moment (Debye)
         X      -0.5877      Y      -2.0668      Z       0.1403
       Tot       2.1533
    Quadrupole Moments (Debye-Ang)
        XX     -38.3952     XY      -3.0229     YY     -42.1919
        XZ      -0.5444     YZ       0.9235     ZZ     -39.8177
    Octopole Moments (Debye-Ang^2)
       XXX       2.6870    XXY      -6.9240    XYY      -9.0525
       YYY     -28.3921    XXZ      -0.3300    XYZ       0.9799
       YYZ       3.9871    XZZ      -7.2872    YZZ      -5.2081
       ZZZ       5.1720
    Hexadecapole Moments (Debye-Ang^3)
      XXXX    -320.7294   XXXY      -5.4344   XXYY     -95.5310
      XYYY     -23.0083   YYYY    -264.1290   XXXZ      60.3688
      XXYZ       1.8042   XYYZ      19.0978   YYYZ       8.0379
      XXZZ     -82.6462   XYZZ      -3.0107   YYZZ     -64.7886
      XZZZ      60.8887   YZZZ       2.9511   ZZZZ    -169.6662
 -----------------------------------------------------------------
 Calculating analytic gradient of the SCF energy
 Gradient of SCF Energy
            1           2           3           4           5           6
    1   0.0000625  -0.0000215   0.0000418   0.0000419  -0.0000372  -0.0000218
    2  -0.0000462  -0.0000069  -0.0000265  -0.0000138   0.0000985  -0.0000381
    3  -0.0000336  -0.0000202   0.0002138   0.0000625   0.0000053   0.0000217
            7           8           9          10          11          12
    1   0.0000074   0.0000261  -0.0000530   0.0000042  -0.0000474  -0.0000199
    2   0.0000222   0.0000454   0.0000244  -0.0000482  -0.0000069   0.0000652
    3  -0.0000572  -0.0000517   0.0000159   0.0000059  -0.0000153  -0.0001572
           13
    1   0.0000169
    2  -0.0000690
    3   0.0000103
 Max gradient component =       2.138E-04
 RMS gradient           =       5.728E-05
 Gradient time:  CPU 7.70 s  wall 1.97 s
 Geometry Optimization Parameters
   NAtoms,    NIC,     NZ,  NCons,   NDum,   NFix, NCnnct, MaxDiis
       13     105       0       0       0       0       0       0

 Cartesian Hessian Update
 Hessian Updated using BFGS Update


** GEOMETRY OPTIMIZATION IN DELOCALIZED INTERNAL COORDINATES **
   Searching for a Minimum

   Optimization Cycle:   2

                       Coordinates (Angstroms)
     ATOM                X               Y               Z
      1  C         1.6736499292    0.3589960974   -0.4779344817
      2  C         1.0558765808   -0.9014237382   -0.4881087997
      3  C        -0.4212086177   -0.6971996202   -0.4131771915
      4  C        -1.0941991015    0.7168467885    1.0186936790
      5  C        -0.4970803625    0.8811985174   -0.3792762365
      6  N         0.8624235110    1.4100407732   -0.4175720974
      7  H         2.7512603609    0.5166867413   -0.4922677878
      8  H         1.5691163399   -1.8565885151   -0.5059644597
      9  H        -1.0035524492   -1.2405120611   -1.1689128194
     10  H        -1.4005261068    1.4506854403    1.7580713883
     11  H        -1.1339596805    1.3808724903   -1.1195144171
     12  C        -1.0450041003   -0.6193309237    0.9901611004
     13  H        -1.3167963033   -1.4002719899    1.6958021230
   Point Group: c1    Number of degrees of freedom:    33


   Energy is   -286.875498222

 Hessian Updated using BFGS Update

 33 Hessian modes will be used to form the next step
  Hessian Eigenvalues:
     0.006825    0.011400    0.014470    0.017480    0.018317    0.023758
     0.034213    0.038771    0.045283    0.059251    0.063641    0.094624
     0.104562    0.154418    0.159675    0.159845    0.160687    0.171796
     0.196326    0.239237    0.249327    0.287647    0.317617    0.338824
     0.339569    0.348961    0.352612    0.353898    0.355861    0.361561
     0.420477    0.515254    0.553877

 Minimum Search - Taking Simple RFO Step
 Searching for Lamda that Minimizes Along All modes
 Value Taken    Lamda =   0.00000000
 Step Taken.  Stepsize is  0.004319

                             Maximum     Tolerance    Cnvgd?
         Gradient           0.000099      0.000600     YES
         Displacement       0.002095      0.002400     YES
         Energy change     -0.000003      0.000002      NO


                       Distance Matrix (Angstroms)
             C (  1)   C (  2)   C (  3)   C (  4)   C (  5)   N (  6)
   C (  2)  1.403711
   C (  3)  2.346950  1.493018
   C (  4)  3.166850  3.084166  2.121956
   C (  5)  2.234838  2.366699  1.580584  1.529013
   N (  6)  1.329070  2.320618  2.467426  2.524232  1.459243
   H (  7)  1.089181  2.210290  3.397696  4.136499  3.270681  2.090781
   H (  8)  2.218226  1.084469  2.305252  4.005047  3.432302  3.343366
   H (  9)  3.194259  2.195387  1.097929  2.936851  2.319848  3.327433
   H ( 10)  3.955005  4.075740  3.207303  1.085834  2.389306  3.139429
   H ( 11)  3.055901  3.225358  2.307663  2.239296  1.096924  2.116393
   C ( 12)  3.240912  2.584291  1.537707  1.337387  2.104084  3.120632
   H ( 13)  4.094255  3.263111  2.396702  2.233879  3.191080  4.136811
             H (  7)   H (  8)   H (  9)   H ( 10)   H ( 11)   C ( 12)
   H (  8)  2.651431
   H (  9)  4.200502  2.727210
   H ( 10)  4.813908  4.988256  3.995919
   H ( 11)  4.029292  4.261950  2.625091  2.890749
   C ( 12)  4.230810  3.256198  2.247039  2.236303  2.908515
   H ( 13)  5.001146  3.658482  2.886215  2.852866  3.961591  1.087046

 
 Final energy is   -286.875498222190     


 ******************************
 **  OPTIMIZATION CONVERGED  **
 ******************************

                       Coordinates (Angstroms)
     ATOM                X               Y               Z
      1  C         1.6736499292    0.3589960974   -0.4779344817
      2  C         1.0558765808   -0.9014237382   -0.4881087997
      3  C        -0.4212086177   -0.6971996202   -0.4131771915
      4  C        -1.0941991015    0.7168467885    1.0186936790
      5  C        -0.4970803625    0.8811985174   -0.3792762365
      6  N         0.8624235110    1.4100407732   -0.4175720974
      7  H         2.7512603609    0.5166867413   -0.4922677878
      8  H         1.5691163399   -1.8565885151   -0.5059644597
      9  H        -1.0035524492   -1.2405120611   -1.1689128194
     10  H        -1.4005261068    1.4506854403    1.7580713883
     11  H        -1.1339596805    1.3808724903   -1.1195144171
     12  C        -1.0450041003   -0.6193309237    0.9901611004
     13  H        -1.3167963033   -1.4002719899    1.6958021230

Z-matrix Print:
$molecule
0 2
N 
C  1 1.329070
H  2 1.089181 1 119.340047
C  2 1.403711 1 116.218171 3 178.582208 0
H  4 1.084469 2 125.640246 1 -178.165911 0
C  1 1.459243 2 106.454112 3 -178.601467 0
H  6 1.096924 1 110.985090 2 -130.583469 0
C  4 1.493018 2 108.192873 1 -0.467867 0
H  8 1.097929 4 114.992964 2 129.771849 0
C  6 1.529013 1 115.263528 2 94.894576 0
H  10 1.085834 6 131.307493 1 68.774427 0
C  10 1.337387 6 94.216200 1 -109.150658 0
H  12 1.087046 10 134.004158 6 179.305129 0
$end

 
 --------------------------------------------------------------
 
                    Orbital Energies (a.u.)
 --------------------------------------------------------------
 
 Alpha MOs
 -- Occupied --
-14.328 -10.217 -10.216 -10.207 -10.202 -10.200 -10.195  -0.944
 -0.837  -0.752  -0.665  -0.618  -0.554  -0.523  -0.515  -0.481
 -0.428  -0.403  -0.386  -0.355  -0.341  -0.322  -0.270  -0.253
 -0.203
 -- Virtual --
  0.012   0.031   0.114   0.130   0.143   0.147   0.160   0.166
  0.186   0.188   0.216   0.266   0.295   0.363   0.409   0.452
  0.486   0.502   0.531   0.544   0.575   0.593   0.597   0.618
  0.624   0.634   0.654   0.680   0.695   0.747   0.774   0.786
  0.813   0.825   0.839   0.855   0.860   0.876   0.909   0.928
  0.956   0.970   1.018   1.064   1.090   1.170   1.234   1.412
  1.420   1.436   1.472   1.495   1.519   1.571   1.637   1.694
  1.761   1.821   1.882   1.887   1.935   1.948   1.977   2.028
  2.051   2.143   2.175   2.211   2.222   2.265   2.309   2.353
  2.412   2.425   2.522   2.560   2.573   2.606   2.618   2.674
  2.693   2.864   2.907   2.917   2.993   3.909   4.085   4.197
  4.295   4.372   4.448   4.716
 
 Beta MOs
 -- Occupied --
-14.318 -10.219 -10.218 -10.203 -10.199 -10.198 -10.194  -0.932
 -0.831  -0.734  -0.665  -0.610  -0.549  -0.520  -0.512  -0.475
 -0.420  -0.396  -0.381  -0.343  -0.334  -0.301  -0.264  -0.246
 -- Virtual --
 -0.087   0.016   0.054   0.116   0.132   0.147   0.149   0.162
  0.168   0.190   0.193   0.222   0.270   0.297   0.368   0.414
  0.455   0.491   0.509   0.534   0.548   0.579   0.598   0.613
  0.617   0.629   0.634   0.661   0.684   0.707   0.751   0.776
  0.794   0.821   0.831   0.845   0.859   0.863   0.884   0.913
  0.931   0.962   0.975   1.025   1.070   1.094   1.177   1.238
  1.418   1.436   1.441   1.478   1.504   1.524   1.579   1.640
  1.699   1.773   1.828   1.898   1.900   1.938   1.954   1.979
  2.031   2.053   2.148   2.185   2.225   2.234   2.269   2.321
  2.357   2.417   2.432   2.534   2.569   2.584   2.616   2.627
  2.678   2.697   2.867   2.908   2.920   2.996   3.924   4.094
  4.195   4.301   4.375   4.457   4.716
 --------------------------------------------------------------
 
          Ground-State Mulliken Net Atomic Charges

     Atom                 Charge (a.u.)    Spin (a.u.)
  --------------------------------------------------------
      1 C                     0.048237      -0.230810
      2 C                    -0.114541       0.693400
      3 C                    -0.193553      -0.054002
      4 C                    -0.075783       0.031827
      5 C                    -0.062088      -0.027661
      6 N                    -0.351515       0.517050
      7 H                     0.140563       0.007437
      8 H                     0.143337      -0.032146
      9 H                     0.148110       0.025271
     10 H                     0.137341       0.003598
     11 H                     0.151606       0.025344
     12 C                    -0.105053       0.033817
     13 H                     0.133339       0.006875
  --------------------------------------------------------
  Sum of atomic charges =     0.000000
  Sum of spin   charges =     1.000000

 -----------------------------------------------------------------
                    Cartesian Multipole Moments
 -----------------------------------------------------------------
    Charge (ESU x 10^10)
                -0.0000
    Dipole Moment (Debye)
         X      -0.5877      Y      -2.0668      Z       0.1403
       Tot       2.1533
    Quadrupole Moments (Debye-Ang)
        XX     -38.3952     XY      -3.0229     YY     -42.1919
        XZ      -0.5444     YZ       0.9235     ZZ     -39.8177
    Octopole Moments (Debye-Ang^2)
       XXX       2.6870    XXY      -6.9240    XYY      -9.0525
       YYY     -28.3921    XXZ      -0.3300    XYZ       0.9799
       YYZ       3.9871    XZZ      -7.2872    YZZ      -5.2081
       ZZZ       5.1720
    Hexadecapole Moments (Debye-Ang^3)
      XXXX    -320.7294   XXXY      -5.4344   XXYY     -95.5310
      XYYY     -23.0083   YYYY    -264.1290   XXXZ      60.3688
      XXYZ       1.8042   XYYZ      19.0978   YYYZ       8.0379
      XXZZ     -82.6462   XYZZ      -3.0107   YYZZ     -64.7886
      XZZZ      60.8887   YZZZ       2.9511   ZZZZ    -169.6662
 -----------------------------------------------------------------
Archival summary:
1\1\c8-66\OPT\ProcedureUnspecified\6-31G*\166(2)\hpark21\WedMar218:11:582022WedMar218:11:582022\0\\#,OPT,ProcedureUnspecified,6-31G*,\\0,2\N\C,1,1.32907\H,2,1.08918,1,119.34\C,2,1.40371,1,116.218,3,178.582,0\H,4,1.08447,2,125.64,1,-178.166,0\C,1,1.45924,2,106.454,3,-178.601,0\H,6,1.09692,1,110.985,2,-130.583,0\C,4,1.49302,2,108.193,1,-0.467867,0\H,8,1.09793,4,114.993,2,129.772,0\C,6,1.52901,1,115.264,2,94.8946,0\H,10,1.08583,6,131.307,1,68.7744,0\C,10,1.33739,6,94.2162,1,-109.151,0\H,12,1.08705,10,134.004,6,179.305,0\\\@

 Total job time:  17.72s(wall), 50.37s(cpu) 
 Wed Mar  2 18:11:58 2022

        *************************************************************
        *                                                           *
        *  Thank you very much for using Q-Chem.  Have a nice day.  *
        *                                                           *
        *************************************************************


