13   
From optimize.out: Frame 1 / 2, Energy=    -286.8754955387
C        1.6735000166    0.3587863601   -0.4781759604
C        1.0562543561   -0.9021594529   -0.4898471847
C       -0.4209526040   -0.6978737049   -0.4124752053
C       -1.0943234380    0.7175745219    1.0190393938
C       -0.4966139934    0.8810209707   -0.3785878236
N        0.8626322681    1.4103482637   -0.4169895676
H        2.7510503826    0.5171868986   -0.4912018976
H        1.5701101273   -1.8571569663   -0.5079844591
H       -1.0045977010   -1.2411191742   -1.1673871682
H       -1.4021509037    1.4514269838    1.7577571094
H       -1.1333373380    1.3803184550   -1.1194073427
C       -1.0445534415   -0.6187088584    0.9901890645
H       -1.3170177311   -1.3996442970    1.6950710414
