13   
From optimize.out: Frame 1 / 2, Energy=    -286.8754955387
C        0.0480260000   -0.2309860000   -0.0000000000
C       -0.1145280000    0.6936500000   -0.0000000000
C       -0.1934570000   -0.0540430000   -0.0000000000
C       -0.0756210000    0.0315100000    0.0000000000
C       -0.0622660000   -0.0275480000   -0.0000000000
N       -0.3513240000    0.5170670000   -0.0000000000
H        0.1404990000    0.0074460000   -0.0000000000
H        0.1434330000   -0.0321570000   -0.0000000000
H        0.1481050000    0.0252430000   -0.0000000000
H        0.1374150000    0.0035710000    0.0000000000
H        0.1515410000    0.0254020000   -0.0000000000
C       -0.1050690000    0.0339450000    0.0000000000
H        0.1332450000    0.0069000000    0.0000000000
