13   
From optimize.out: Frame 1 / 1, Energy=    -286.8365048672
C        1.5440404333    0.5861293134   -0.1642656935
C        0.8932240621   -0.7432938957    0.0274589318
C       -0.4118021088   -0.6570999196   -0.6948209223
C       -1.0183475571    0.6294805270    0.8815113260
C       -0.6032954815    0.9022185475   -0.5702328577
N        0.7481623825    1.5150230143   -0.5423615294
H        2.5983866781    0.7809973401    0.0292120357
H        1.4557634281   -1.6712684557    0.0633870647
H       -0.8129686200   -1.3478195967   -1.4308827970
H       -1.9834849206    0.8770013627    1.3088557403
H       -1.2899603538    1.4326196268   -1.2296229830
C       -0.4463686444   -0.7299036655    0.8394551851
H       -0.6733492982   -1.5740841980    1.4823064987
13   
From optimize.out: Frame 2 / 3, Energy=    -286.8754381820
C        1.6498617841    0.6053413523   -0.2614928007
C        1.2319943246   -0.7326085635   -0.3358821724
C       -0.2563921013   -0.7498130883   -0.4545399288
C       -1.3114987506    0.5414231106    0.8580309863
C       -0.5681885622    0.7998199937   -0.4528860814
N        0.6915153921    1.5243072685   -0.3212811176
H        2.6848606211    0.9212095018   -0.1375320144
H        1.8788730690   -1.6008780315   -0.2741638609
H       -0.6491931915   -1.3694793915   -1.2713614457
H       -1.8169574232    1.2177279921    1.5407014661
H       -1.1698818898    1.2036817918   -1.2764587002
C       -1.0612319078   -0.7723013138    0.8555262725
H       -1.3037613645   -1.5884306221    1.5313393971
