13   
Frame   0 IRC: Energy =  -286.8735160000 ; +0.0000 kcal/mol
C       -0.0923570000   -0.0307610000   -0.0000000000
C        0.0080700000   -0.0610470000   -0.0000000000
C       -0.2702720000    1.0341620000   -0.0000000000
C       -0.1470740000    0.0482090000    0.0000000000
C        0.0237050000   -0.0897090000   -0.0000000000
N       -0.2025540000    0.0248340000   -0.0000000000
H        0.1373580000   -0.0001210000    0.0000000000
H        0.1246660000    0.0034860000   -0.0000000000
H        0.1388930000   -0.0260310000   -0.0000000000
H        0.1388650000    0.0005980000    0.0000000000
H        0.1293720000    0.0035670000   -0.0000000000
C       -0.1272750000    0.0926220000    0.0000000000
H        0.1386020000    0.0001920000    0.0000000000
13   
Frame   1 IRC: Energy =  -286.8735010000 ; +0.0094 kcal/mol
C       -0.0922130000   -0.0305890000   -0.0000000000
C        0.0078580000   -0.0610240000   -0.0000000000
C       -0.2703490000    1.0338100000   -0.0000000000
C       -0.1467430000    0.0488640000    0.0000000000
C        0.0236510000   -0.0897270000   -0.0000000000
N       -0.2024900000    0.0245810000   -0.0000000000
H        0.1373630000   -0.0001270000    0.0000000000
H        0.1246270000    0.0035000000   -0.0000000000
H        0.1389170000   -0.0259220000   -0.0000000000
H        0.1389090000    0.0005720000    0.0000000000
H        0.1293830000    0.0035660000   -0.0000000000
C       -0.1275500000    0.0923010000    0.0000000000
H        0.1386390000    0.0001960000    0.0000000000
13   
Frame   2 IRC: Energy =  -286.8734970000 ; +0.0119 kcal/mol
C       -0.0921100000   -0.0305010000   -0.0000000000
C        0.0076070000   -0.0610230000   -0.0000000000
C       -0.2702180000    1.0338420000   -0.0000000000
C       -0.1469950000    0.0491780000    0.0000000000
C        0.0236510000   -0.0897510000   -0.0000000000
N       -0.2024820000    0.0244790000   -0.0000000000
H        0.1373520000   -0.0001290000    0.0000000000
H        0.1246160000    0.0034980000   -0.0000000000
H        0.1389250000   -0.0259190000   -0.0000000000
H        0.1388900000    0.0005530000    0.0000000000
H        0.1293640000    0.0035640000   -0.0000000000
C       -0.1272710000    0.0920010000    0.0000000000
H        0.1386740000    0.0002060000    0.0000000000
13   
Frame   3 IRC: Energy =  -286.8734710000 ; +0.0282 kcal/mol
C       -0.0919360000   -0.0302900000   -0.0000000000
C        0.0073460000   -0.0610100000   -0.0000000000
C       -0.2703290000    1.0334830000   -0.0000000000
C       -0.1464970000    0.0500000000    0.0000000000
C        0.0235800000   -0.0897940000   -0.0000000000
N       -0.2023920000    0.0241890000   -0.0000000000
H        0.1373600000   -0.0001360000    0.0000000000
H        0.1245610000    0.0035140000   -0.0000000000
H        0.1389460000   -0.0258010000   -0.0000000000
H        0.1389440000    0.0005200000    0.0000000000
H        0.1293730000    0.0035610000   -0.0000000000
C       -0.1276700000    0.0915530000    0.0000000000
H        0.1387130000    0.0002120000    0.0000000000
13   
Frame   4 IRC: Energy =  -286.8734630000 ; +0.0333 kcal/mol
C       -0.0918150000   -0.0301730000   -0.0000000000
C        0.0069830000   -0.0610070000   -0.0000000000
C       -0.2701490000    1.0335450000   -0.0000000000
C       -0.1468530000    0.0504490000    0.0000000000
C        0.0236090000   -0.0898370000   -0.0000000000
N       -0.2023740000    0.0240600000   -0.0000000000
H        0.1373470000   -0.0001390000    0.0000000000
H        0.1245430000    0.0035110000   -0.0000000000
H        0.1389540000   -0.0258010000   -0.0000000000
H        0.1389130000    0.0004930000    0.0000000000
H        0.1293470000    0.0035580000   -0.0000000000
C       -0.1272630000    0.0911130000    0.0000000000
H        0.1387570000    0.0002270000    0.0000000000
13   
Frame   5 IRC: Energy =  -286.8734080000 ; +0.0678 kcal/mol
C       -0.0915860000   -0.0298700000   -0.0000000000
C        0.0066160000   -0.0610150000   -0.0000000000
C       -0.2702920000    1.0331410000   -0.0000000000
C       -0.1461210000    0.0516630000    0.0000000000
C        0.0235010000   -0.0899280000   -0.0000000000
N       -0.2022250000    0.0236690000   -0.0000000000
H        0.1373610000   -0.0001500000    0.0000000000
H        0.1244610000    0.0035340000   -0.0000000000
H        0.1389760000   -0.0256520000   -0.0000000000
H        0.1389960000    0.0004410000    0.0000000000
H        0.1293570000    0.0035490000   -0.0000000000
C       -0.1278740000    0.0903790000    0.0000000000
H        0.1388300000    0.0002380000    0.0000000000
13   
Frame   6 IRC: Energy =  -286.8733940000 ; +0.0766 kcal/mol
C       -0.0914450000   -0.0297180000   -0.0000000000
C        0.0060960000   -0.0610110000   -0.0000000000
C       -0.2700400000    1.0332510000   -0.0000000000
C       -0.1466630000    0.0522890000    0.0000000000
C        0.0235830000   -0.0899940000   -0.0000000000
N       -0.2021900000    0.0235050000   -0.0000000000
H        0.1373390000   -0.0001540000    0.0000000000
H        0.1244320000    0.0035270000   -0.0000000000
H        0.1389840000   -0.0256570000   -0.0000000000
H        0.1389520000    0.0004010000    0.0000000000
H        0.1293230000    0.0035440000   -0.0000000000
C       -0.1272650000    0.0897550000    0.0000000000
H        0.1388940000    0.0002610000    0.0000000000
13   
Frame   7 IRC: Energy =  -286.8733030000 ; +0.1337 kcal/mol
C       -0.0912000000   -0.0293820000   -0.0000000000
C        0.0057430000   -0.0610460000   -0.0000000000
C       -0.2702680000    1.0328660000   -0.0000000000
C       -0.1455830000    0.0536670000    0.0000000000
C        0.0234120000   -0.0901250000   -0.0000000000
N       -0.2019980000    0.0230970000   -0.0000000000
H        0.1373610000   -0.0001660000    0.0000000000
H        0.1243380000    0.0035540000   -0.0000000000
H        0.1389950000   -0.0255050000   -0.0000000000
H        0.1390570000    0.0003440000    0.0000000000
H        0.1293310000    0.0035320000   -0.0000000000
C       -0.1281580000    0.0888910000    0.0000000000
H        0.1389670000    0.0002720000    0.0000000000
13   
Frame   8 IRC: Energy =  -286.8732740000 ; +0.1519 kcal/mol
C       -0.0910720000   -0.0291900000   -0.0000000000
C        0.0050190000   -0.0610400000   -0.0000000000
C       -0.2699240000    1.0330200000   -0.0000000000
C       -0.1463190000    0.0545730000    0.0000000000
C        0.0235700000   -0.0902350000   -0.0000000000
N       -0.2019130000    0.0229060000   -0.0000000000
H        0.1373420000   -0.0001710000    0.0000000000
H        0.1242900000    0.0035450000   -0.0000000000
H        0.1390030000   -0.0255110000   -0.0000000000
H        0.1389910000    0.0002890000    0.0000000000
H        0.1292880000    0.0035260000   -0.0000000000
C       -0.1273150000    0.0879840000    0.0000000000
H        0.1390400000    0.0003050000    0.0000000000
13   
Frame   9 IRC: Energy =  -286.8731760000 ; +0.2134 kcal/mol
C       -0.0908750000   -0.0289590000   -0.0000000000
C        0.0050010000   -0.0610830000   -0.0000000000
C       -0.2703290000    1.0326420000   -0.0000000000
C       -0.1450810000    0.0554550000    0.0000000000
C        0.0233540000   -0.0903050000   -0.0000000000
N       -0.2017700000    0.0226040000   -0.0000000000
H        0.1373620000   -0.0001810000    0.0000000000
H        0.1242230000    0.0035740000   -0.0000000000
H        0.1390090000   -0.0253740000   -0.0000000000
H        0.1391290000    0.0002550000    0.0000000000
H        0.1293200000    0.0035140000   -0.0000000000
C       -0.1284720000    0.0875510000    0.0000000000
H        0.1391290000    0.0003060000    0.0000000000
13   
Frame  10 IRC: Energy =  -286.8731410000 ; +0.2353 kcal/mol
C       -0.0906040000   -0.0289550000   -0.0000000000
C        0.0055960000   -0.0611370000   -0.0000000000
C       -0.2708290000    1.0325080000   -0.0000000000
C       -0.1434120000    0.0549070000    0.0000000000
C        0.0225410000   -0.0902170000   -0.0000000000
N       -0.2017260000    0.0225430000   -0.0000000000
H        0.1372820000   -0.0001850000    0.0000000000
H        0.1242240000    0.0035960000   -0.0000000000
H        0.1389870000   -0.0253210000   -0.0000000000
H        0.1392670000    0.0002860000    0.0000000000
H        0.1293610000    0.0035060000   -0.0000000000
C       -0.1297820000    0.0882070000    0.0000000000
H        0.1390950000    0.0002630000    0.0000000000
13   
Frame  11 IRC: Energy =  -286.8725810000 ; +0.5867 kcal/mol
C       -0.0899860000   -0.0274690000   -0.0000000000
C        0.0018080000   -0.0615420000   -0.0000000000
C       -0.2698430000    1.0331820000   -0.0000000000
C       -0.1442130000    0.0620210000    0.0000000000
C        0.0235500000   -0.0913960000   -0.0000000000
N       -0.2010460000    0.0212290000   -0.0000000000
H        0.1373520000   -0.0002310000    0.0000000000
H        0.1238270000    0.0035900000   -0.0000000000
H        0.1389300000   -0.0252770000   -0.0000000000
H        0.1392570000   -0.0001270000    0.0000000000
H        0.1292220000    0.0034300000   -0.0000000000
C       -0.1285040000    0.0821830000    0.0000000000
H        0.1396460000    0.0004070000    0.0000000000
13   
Frame  12 IRC: Energy =  -286.8724740000 ; +0.6539 kcal/mol
C       -0.0901450000   -0.0274680000   -0.0000000000
C        0.0025590000   -0.0616110000   -0.0000000000
C       -0.2702800000    1.0328080000   -0.0000000000
C       -0.1423780000    0.0620120000    0.0000000000
C        0.0233080000   -0.0913890000   -0.0000000000
N       -0.2010940000    0.0212380000   -0.0000000000
H        0.1374700000   -0.0002320000    0.0000000000
H        0.1238420000    0.0036260000   -0.0000000000
H        0.1389160000   -0.0252000000   -0.0000000000
H        0.1393770000   -0.0001220000    0.0000000000
H        0.1292580000    0.0034180000   -0.0000000000
C       -0.1304290000    0.0825570000    0.0000000000
H        0.1395970000    0.0003640000    0.0000000000
13   
Frame  13 IRC: Energy =  -286.8721270000 ; +0.8716 kcal/mol
C       -0.0894970000   -0.0266750000   -0.0000000000
C        0.0003110000   -0.0618970000   -0.0000000000
C       -0.2698400000    1.0335650000   -0.0000000000
C       -0.1431910000    0.0654370000    0.0000000000
C        0.0234950000   -0.0920370000   -0.0000000000
N       -0.2006310000    0.0205300000   -0.0000000000
H        0.1373180000   -0.0002590000    0.0000000000
H        0.1236330000    0.0036030000    0.0000000000
H        0.1388600000   -0.0252600000   -0.0000000000
H        0.1394020000   -0.0003370000    0.0000000000
H        0.1291970000    0.0033790000   -0.0000000000
C       -0.1290150000    0.0795090000    0.0000000000
H        0.1399580000    0.0004420000    0.0000000000
13   
Frame  14 IRC: Energy =  -286.8719640000 ; +0.9739 kcal/mol
C       -0.0898360000   -0.0266310000   -0.0000000000
C        0.0008650000   -0.0619800000   -0.0000000000
C       -0.2702010000    1.0332160000   -0.0000000000
C       -0.1417260000    0.0659420000    0.0000000000
C        0.0237160000   -0.0921270000   -0.0000000000
N       -0.2007110000    0.0205380000   -0.0000000000
H        0.1374980000   -0.0002610000    0.0000000000
H        0.1236440000    0.0036360000    0.0000000000
H        0.1388440000   -0.0252010000   -0.0000000000
H        0.1394920000   -0.0003630000    0.0000000000
H        0.1292270000    0.0033670000   -0.0000000000
C       -0.1307510000    0.0794540000    0.0000000000
H        0.1399410000    0.0004100000    0.0000000000
13   
Frame  15 IRC: Energy =  -286.8715970000 ; +1.2042 kcal/mol
C       -0.0890960000   -0.0258930000   -0.0000000000
C       -0.0011340000   -0.0623300000   -0.0000000000
C       -0.2699120000    1.0340890000   -0.0000000000
C       -0.1421940000    0.0688550000    0.0000000000
C        0.0235660000   -0.0927460000   -0.0000000000
N       -0.2002340000    0.0198930000   -0.0000000000
H        0.1372830000   -0.0002860000    0.0000000000
H        0.1234580000    0.0036130000    0.0000000000
H        0.1387710000   -0.0252990000   -0.0000000000
H        0.1395680000   -0.0005590000    0.0000000000
H        0.1291820000    0.0033250000   -0.0000000000
C       -0.1295550000    0.0768690000    0.0000000000
H        0.1402970000    0.0004690000    0.0000000000
13   
Frame  16 IRC: Energy =  -286.8713390000 ; +1.3661 kcal/mol
C       -0.0895400000   -0.0257550000   -0.0000000000
C       -0.0008260000   -0.0624670000   -0.0000000000
C       -0.2702440000    1.0338320000   -0.0000000000
C       -0.1409240000    0.0699930000    0.0000000000
C        0.0241880000   -0.0929730000   -0.0000000000
N       -0.2003310000    0.0198600000   -0.0000000000
H        0.1375000000   -0.0002910000    0.0000000000
H        0.1234580000    0.0036420000    0.0000000000
H        0.1387420000   -0.0252730000   -0.0000000000
H        0.1396460000   -0.0006270000    0.0000000000
H        0.1292080000    0.0033100000   -0.0000000000
C       -0.1312010000    0.0763070000    0.0000000000
H        0.1403240000    0.0004430000    0.0000000000
13   
Frame  17 IRC: Energy =  -286.8709410000 ; +1.6158 kcal/mol
C       -0.0887470000   -0.0250480000   -0.0000000000
C       -0.0026460000   -0.0628940000   -0.0000000000
C       -0.2701010000    1.0348240000   -0.0000000000
C       -0.1411730000    0.0725510000    0.0000000000
C        0.0237840000   -0.0935900000   -0.0000000000
N       -0.1998130000    0.0192600000   -0.0000000000
H        0.1372380000   -0.0003150000    0.0000000000
H        0.1232910000    0.0036190000    0.0000000000
H        0.1386550000   -0.0254050000   -0.0000000000
H        0.1397750000   -0.0008110000    0.0000000000
H        0.1291780000    0.0032640000   -0.0000000000
C       -0.1301400000    0.0740550000    0.0000000000
H        0.1407010000    0.0004910000    0.0000000000
13   
Frame  18 IRC: Energy =  -286.8705130000 ; +1.8844 kcal/mol
C       -0.0892850000   -0.0247450000   -0.0000000000
C       -0.0026760000   -0.0631650000   -0.0000000000
C       -0.2704570000    1.0347670000   -0.0000000000
C       -0.1400190000    0.0746170000    0.0000000000
C        0.0249150000   -0.0940440000   -0.0000000000
N       -0.1999280000    0.0191440000   -0.0000000000
H        0.1374730000   -0.0003250000    0.0000000000
H        0.1232810000    0.0036440000    0.0000000000
H        0.1386030000   -0.0254600000   -0.0000000000
H        0.1398660000   -0.0009450000    0.0000000000
H        0.1292050000    0.0032400000   -0.0000000000
C       -0.1317910000    0.0728120000    0.0000000000
H        0.1408120000    0.0004590000    0.0000000000
13   
Frame  19 IRC: Energy =  -286.8700650000 ; +2.1655 kcal/mol
C       -0.0887000000   -0.0241040000   -0.0000000000
C       -0.0042380000   -0.0636640000   -0.0000000000
C       -0.2703820000    1.0360740000   -0.0000000000
C       -0.1400810000    0.0764560000    0.0000000000
C        0.0238950000   -0.0946800000   -0.0000000000
N       -0.1991290000    0.0187000000   -0.0000000000
H        0.1371790000   -0.0003430000    0.0000000000
H        0.1231480000    0.0036090000    0.0000000000
H        0.1384990000   -0.0255260000   -0.0000000000
H        0.1400280000   -0.0011050000    0.0000000000
H        0.1292060000    0.0031770000   -0.0000000000
C       -0.1306730000    0.0709170000    0.0000000000
H        0.1412480000    0.0004910000    0.0000000000
13   
Frame  20 IRC: Energy =  -286.8682630000 ; +3.2963 kcal/mol
C       -0.0890540000   -0.0219600000   -0.0000000000
C       -0.0068430000   -0.0657260000   -0.0000000000
C       -0.2721080000    1.0386400000   -0.0000000000
C       -0.1383540000    0.0856630000    0.0000000000
C        0.0287870000   -0.0971090000   -0.0000000000
N       -0.1994980000    0.0174510000   -0.0000000000
H        0.1372430000   -0.0004100000    0.0000000000
H        0.1229590000    0.0035870000    0.0000000000
H        0.1382090000   -0.0266370000   -0.0000000000
H        0.1407660000   -0.0018430000    0.0000000000
H        0.1291850000    0.0030530000   -0.0000000000
C       -0.1333770000    0.0648620000    0.0000000000
H        0.1420830000    0.0004280000    0.0000000000
13   
Frame  21 IRC: Energy =  -286.8658410000 ; +4.8161 kcal/mol
C       -0.0897350000   -0.0186120000   -0.0000000000
C       -0.0098400000   -0.0687930000    0.0000000000
C       -0.2758640000    1.0434010000   -0.0000000000
C       -0.1379820000    0.0971750000    0.0000000000
C        0.0345430000   -0.1001860000   -0.0000000000
N       -0.1990690000    0.0154640000   -0.0000000000
H        0.1373390000   -0.0004830000    0.0000000000
H        0.1229790000    0.0034670000    0.0000000000
H        0.1382490000   -0.0285660000   -0.0000000000
H        0.1420520000   -0.0027360000    0.0000000000
H        0.1293050000    0.0029060000   -0.0000000000
C       -0.1350280000    0.0564860000    0.0000000000
H        0.1430510000    0.0004760000    0.0000000000
13   
Frame  22 IRC: Energy =  -286.8627150000 ; +6.7777 kcal/mol
C       -0.0843230000   -0.0126100000   -0.0000000000
C       -0.0146260000   -0.0728830000    0.0000000000
C       -0.2865240000    1.0458080000   -0.0000000000
C       -0.1368900000    0.1307400000    0.0000000000
C        0.0421040000   -0.1048820000   -0.0000000000
N       -0.1994680000    0.0107230000   -0.0000000000
H        0.1377050000   -0.0005810000    0.0000000000
H        0.1236420000    0.0035030000    0.0000000000
H        0.1393220000   -0.0337450000   -0.0000000000
H        0.1430430000   -0.0044040000    0.0000000000
H        0.1298280000    0.0031240000   -0.0000000000
C       -0.1365820000    0.0333730000    0.0000000000
H        0.1427680000    0.0018350000    0.0000000000
13   
Frame  23 IRC: Energy =  -286.8580100000 ; +9.7302 kcal/mol
C       -0.0749990000   -0.0030910000   -0.0000000000
C       -0.0185820000   -0.0745400000    0.0000000000
C       -0.3003040000    1.0338490000   -0.0000000000
C       -0.1360690000    0.2063580000    0.0000000000
C        0.0468000000   -0.1107260000   -0.0000000000
N       -0.2005950000    0.0035540000   -0.0000000000
H        0.1378570000   -0.0006630000    0.0000000000
H        0.1247310000    0.0036510000    0.0000000000
H        0.1411280000   -0.0395740000   -0.0000000000
H        0.1434940000   -0.0077130000    0.0000000000
H        0.1303590000    0.0037460000   -0.0000000000
C       -0.1357460000   -0.0199700000    0.0000000000
H        0.1419270000    0.0051200000    0.0000000000
13   
Frame  24 IRC: Energy =  -286.8517740000 ; +13.6433 kcal/mol
C       -0.0664860000    0.0107120000   -0.0000000000
C       -0.0195590000   -0.0689340000    0.0000000000
C       -0.3092080000    0.9832160000   -0.0000000000
C       -0.1367600000    0.3488900000    0.0000000000
C        0.0442260000   -0.1181940000   -0.0000000000
N       -0.2018880000   -0.0038250000   -0.0000000000
H        0.1375240000   -0.0005710000    0.0000000000
H        0.1263670000    0.0038070000    0.0000000000
H        0.1433680000   -0.0425330000   -0.0000000000
H        0.1429740000   -0.0136970000    0.0000000000
H        0.1306340000    0.0049120000   -0.0000000000
C       -0.1323190000   -0.1139980000    0.0000000000
H        0.1411250000    0.0102150000    0.0000000000
13   
Frame  25 IRC: Energy =  -286.8460690000 ; +17.2233 kcal/mol
C       -0.0623970000    0.0279210000   -0.0000000000
C       -0.0181020000   -0.0535800000    0.0000000000
C       -0.3025990000    0.8542440000   -0.0000000000
C       -0.1377260000    0.5511150000    0.0000000000
C        0.0324930000   -0.1246740000   -0.0000000000
N       -0.2038610000   -0.0070710000   -0.0000000000
H        0.1364610000    0.0000380000    0.0000000000
H        0.1287160000    0.0038380000    0.0000000000
H        0.1458830000   -0.0389790000   -0.0000000000
H        0.1411420000   -0.0222030000    0.0000000000
H        0.1305680000    0.0066200000   -0.0000000000
C       -0.1313010000   -0.2113740000    0.0000000000
H        0.1407230000    0.0141040000    0.0000000000
13   
Frame  26 IRC: Energy =  -286.8438090000 ; +18.6414 kcal/mol (Transition State)
C       -0.0636130000    0.0420510000   -0.0000000000
C       -0.0170330000   -0.0331120000    0.0000000000
C       -0.2774720000    0.6414040000   -0.0000000000
C       -0.1324080000    0.7395380000    0.0000000000
C        0.0133970000   -0.1241330000   -0.0000000000
N       -0.2065550000   -0.0029190000   -0.0000000000
H        0.1349290000    0.0013670000    0.0000000000
H        0.1315440000    0.0035790000    0.0000000000
H        0.1471880000   -0.0279420000   -0.0000000000
H        0.1388890000   -0.0306050000    0.0000000000
H        0.1304350000    0.0082030000   -0.0000000000
C       -0.1399610000   -0.2299900000    0.0000000000
H        0.1406600000    0.0125610000    0.0000000000
13   
Frame  27 IRC: Energy =  -286.8457030000 ; +17.4529 kcal/mol
C       -0.0674080000    0.0463100000   -0.0000000000
C       -0.0185680000   -0.0141150000    0.0000000000
C       -0.2448370000    0.4256940000   -0.0000000000
C       -0.1174230000    0.8637740000    0.0000000000
C       -0.0120680000   -0.1191220000   -0.0000000000
N       -0.2082320000    0.0055410000   -0.0000000000
H        0.1336670000    0.0029480000    0.0000000000
H        0.1342270000    0.0030930000    0.0000000000
H        0.1458110000   -0.0147430000   -0.0000000000
H        0.1377240000   -0.0366540000    0.0000000000
H        0.1305620000    0.0090410000   -0.0000000000
C       -0.1537930000   -0.1795960000    0.0000000000
H        0.1403370000    0.0078310000    0.0000000000
13   
Frame  28 IRC: Energy =  -286.8496890000 ; +14.9517 kcal/mol
C       -0.0709890000    0.0421520000   -0.0000000000
C       -0.0259600000    0.0028640000    0.0000000000
C       -0.2117720000    0.2785920000   -0.0000000000
C       -0.0972490000    0.9386520000    0.0000000000
C       -0.0430510000   -0.1167980000   -0.0000000000
N       -0.2080990000    0.0137930000   -0.0000000000
H        0.1328900000    0.0040850000    0.0000000000
H        0.1364930000    0.0026130000    0.0000000000
H        0.1423250000   -0.0048740000   -0.0000000000
H        0.1374290000   -0.0404970000    0.0000000000
H        0.1309420000    0.0093440000   -0.0000000000
C       -0.1624570000   -0.1342260000    0.0000000000
H        0.1395000000    0.0043000000    0.0000000000
13   
Frame  29 IRC: Energy =  -286.8534270000 ; +12.6060 kcal/mol
C       -0.0729130000    0.0346270000   -0.0000000000
C       -0.0397190000    0.0192530000   -0.0000000000
C       -0.1799900000    0.1951990000   -0.0000000000
C       -0.0766040000    0.9867090000    0.0000000000
C       -0.0744750000   -0.1180440000   -0.0000000000
N       -0.2072030000    0.0203840000   -0.0000000000
H        0.1324040000    0.0046230000    0.0000000000
H        0.1382520000    0.0022350000    0.0000000000
H        0.1380980000    0.0010830000   -0.0000000000
H        0.1376790000   -0.0429470000    0.0000000000
H        0.1313720000    0.0094540000   -0.0000000000
C       -0.1654700000   -0.1152320000    0.0000000000
H        0.1385690000    0.0026570000    0.0000000000
13   
Frame  30 IRC: Energy =  -286.8555410000 ; +11.2795 kcal/mol
C       -0.0734940000    0.0273840000   -0.0000000000
C       -0.0553010000    0.0336360000   -0.0000000000
C       -0.1522250000    0.1522220000   -0.0000000000
C       -0.0613900000    1.0170800000    0.0000000000
C       -0.0989250000   -0.1211870000   -0.0000000000
N       -0.2063910000    0.0250660000   -0.0000000000
H        0.1320100000    0.0047690000    0.0000000000
H        0.1394250000    0.0019780000    0.0000000000
H        0.1350110000    0.0042090000   -0.0000000000
H        0.1382200000   -0.0443120000    0.0000000000
H        0.1317960000    0.0096120000   -0.0000000000
C       -0.1670160000   -0.1125320000    0.0000000000
H        0.1382790000    0.0020750000    0.0000000000
13   
Frame  31 IRC: Energy =  -286.8567590000 ; +10.5152 kcal/mol
C       -0.0738750000    0.0242850000   -0.0000000000
C       -0.0631440000    0.0402760000   -0.0000000000
C       -0.1400340000    0.1461150000   -0.0000000000
C       -0.0573360000    1.0259940000    0.0000000000
C       -0.1016350000   -0.1248720000   -0.0000000000
N       -0.2061280000    0.0259230000   -0.0000000000
H        0.1317360000    0.0045840000    0.0000000000
H        0.1393800000    0.0019210000    0.0000000000
H        0.1344610000    0.0047440000   -0.0000000000
H        0.1383320000   -0.0444070000    0.0000000000
H        0.1321850000    0.0099420000   -0.0000000000
C       -0.1727880000   -0.1163380000    0.0000000000
H        0.1388480000    0.0018330000    0.0000000000
13   
Frame  32 IRC: Energy =  -286.8569980000 ; +10.3652 kcal/mol
C       -0.0731630000    0.0230500000   -0.0000000000
C       -0.0671420000    0.0392580000   -0.0000000000
C       -0.1359670000    0.1403280000   -0.0000000000
C       -0.0577760000    1.0322410000    0.0000000000
C       -0.1049930000   -0.1248980000   -0.0000000000
N       -0.2053500000    0.0259170000   -0.0000000000
H        0.1317040000    0.0046250000    0.0000000000
H        0.1393360000    0.0020020000    0.0000000000
H        0.1345440000    0.0048570000   -0.0000000000
H        0.1384480000   -0.0446310000    0.0000000000
H        0.1320730000    0.0098970000   -0.0000000000
C       -0.1706830000   -0.1145070000    0.0000000000
H        0.1389700000    0.0018600000    0.0000000000
13   
Frame  33 IRC: Energy =  -286.8576010000 ; +9.9868 kcal/mol
C       -0.0718510000    0.0212160000   -0.0000000000
C       -0.0760770000    0.0415250000    0.0000000000
C       -0.1231890000    0.1380660000   -0.0000000000
C       -0.0582390000    1.0361250000    0.0000000000
C       -0.1099430000   -0.1266050000   -0.0000000000
N       -0.2040450000    0.0261280000   -0.0000000000
H        0.1318880000    0.0045150000    0.0000000000
H        0.1388830000    0.0022780000    0.0000000000
H        0.1349570000    0.0047130000   -0.0000000000
H        0.1380480000   -0.0445100000    0.0000000000
H        0.1323050000    0.0102750000   -0.0000000000
C       -0.1722320000   -0.1156440000    0.0000000000
H        0.1394940000    0.0019190000    0.0000000000
13   
Frame  34 IRC: Energy =  -286.8576600000 ; +9.9498 kcal/mol
C       -0.0715850000    0.0208200000   -0.0000000000
C       -0.0778820000    0.0413530000    0.0000000000
C       -0.1226410000    0.1351710000   -0.0000000000
C       -0.0584090000    1.0392070000    0.0000000000
C       -0.1102500000   -0.1268790000   -0.0000000000
N       -0.2037520000    0.0262380000   -0.0000000000
H        0.1318730000    0.0045750000    0.0000000000
H        0.1388610000    0.0022710000    0.0000000000
H        0.1348270000    0.0046680000   -0.0000000000
H        0.1380590000   -0.0446020000    0.0000000000
H        0.1322100000    0.0102940000   -0.0000000000
C       -0.1707870000   -0.1150410000    0.0000000000
H        0.1394760000    0.0019260000    0.0000000000
13   
Frame  35 IRC: Energy =  -286.8578280000 ; +9.8444 kcal/mol
C       -0.0710950000    0.0198830000   -0.0000000000
C       -0.0839010000    0.0449040000    0.0000000000
C       -0.1159230000    0.1303200000   -0.0000000000
C       -0.0586170000    1.0438720000    0.0000000000
C       -0.1132850000   -0.1284900000   -0.0000000000
N       -0.2028920000    0.0269790000   -0.0000000000
H        0.1318610000    0.0045650000    0.0000000000
H        0.1387370000    0.0023660000    0.0000000000
H        0.1347780000    0.0044850000   -0.0000000000
H        0.1381560000   -0.0446300000    0.0000000000
H        0.1322440000    0.0106730000   -0.0000000000
C       -0.1695630000   -0.1169450000    0.0000000000
H        0.1395010000    0.0020190000    0.0000000000
13   
Frame  36 IRC: Energy =  -286.8578480000 ; +9.8318 kcal/mol
C       -0.0713750000    0.0201620000   -0.0000000000
C       -0.0836610000    0.0455830000    0.0000000000
C       -0.1156310000    0.1311670000   -0.0000000000
C       -0.0585610000    1.0423550000    0.0000000000
C       -0.1132240000   -0.1285360000   -0.0000000000
N       -0.2028820000    0.0270610000   -0.0000000000
H        0.1319010000    0.0045860000    0.0000000000
H        0.1386850000    0.0023860000    0.0000000000
H        0.1349070000    0.0044540000   -0.0000000000
H        0.1380950000   -0.0445500000    0.0000000000
H        0.1322650000    0.0107730000   -0.0000000000
C       -0.1700690000   -0.1174980000    0.0000000000
H        0.1395500000    0.0020560000    0.0000000000
13   
Frame  37 IRC: Energy =  -286.8579930000 ; +9.7408 kcal/mol
C       -0.0703330000    0.0219280000   -0.0000000000
C       -0.0923220000    0.0518590000    0.0000000000
C       -0.1102310000    0.1240640000   -0.0000000000
C       -0.0626270000    1.0444850000    0.0000000000
C       -0.1113410000   -0.1304380000   -0.0000000000
N       -0.2028570000    0.0278880000   -0.0000000000
H        0.1321620000    0.0048010000    0.0000000000
H        0.1376870000    0.0026320000    0.0000000000
H        0.1352480000    0.0036620000   -0.0000000000
H        0.1378420000   -0.0438370000    0.0000000000
H        0.1320860000    0.0119810000   -0.0000000000
C       -0.1650970000   -0.1215910000    0.0000000000
H        0.1397820000    0.0025660000    0.0000000000
13   
Frame  38 IRC: Energy =  -286.8580210000 ; +9.7233 kcal/mol
C       -0.0714080000    0.0221760000   -0.0000000000
C       -0.0920760000    0.0528640000    0.0000000000
C       -0.1095630000    0.1240210000   -0.0000000000
C       -0.0624720000    1.0443660000    0.0000000000
C       -0.1112820000   -0.1306530000   -0.0000000000
N       -0.2030680000    0.0278950000   -0.0000000000
H        0.1322130000    0.0047140000    0.0000000000
H        0.1378100000    0.0026210000    0.0000000000
H        0.1352510000    0.0036430000   -0.0000000000
H        0.1379930000   -0.0438230000    0.0000000000
H        0.1321340000    0.0120400000   -0.0000000000
C       -0.1653150000   -0.1224270000    0.0000000000
H        0.1397820000    0.0025630000    0.0000000000
13   