13   
Frame   0 IRC: Energy =  -286.8735160000 ; +0.0000 kcal/mol
C        1.4883011088    0.5334039584   -0.0862221357
C        0.7321102198   -0.8091779327   -0.0266360973
C       -0.2106094674   -0.5081042567   -1.1963852389
C       -1.1344824217    0.3513739740    0.7155536687
C       -0.6243557815    0.8518053175   -0.6461538338
N        0.7312581334    1.5028126048   -0.4317572911
H        2.5402418846    0.6702635489    0.1546975354
H        1.3280535015   -1.7211524973   -0.0226906760
H       -0.9110403504   -1.2404155909   -1.5921780032
H       -1.9757290738    0.7676426317    1.2571562581
H       -1.2931065298    1.4918874087   -1.2179329529
C       -0.3189620569   -0.6500968334    1.0918336777
H       -0.3516791671   -1.2402423334    2.0007150884
13   
Frame   1 IRC: Energy =  -286.8735010000 ; +0.0094 kcal/mol
C        1.4884775494    0.5341017396   -0.0864553164
C        0.7327119391   -0.8087697605   -0.0263544907
C       -0.2102120363   -0.5083056146   -1.1958362917
C       -1.1337584523    0.3520989132    0.7156581682
C       -0.6240582621    0.8519562658   -0.6462209926
N        0.7312553131    1.5032825738   -0.4325286441
H        2.5405801726    0.6716200273    0.1536065791
H        1.3293319313   -1.7202210018   -0.0217958034
H       -0.9116834570   -1.2416480181   -1.5891096326
H       -1.9742107440    0.7695941171    1.2581489818
H       -1.2932200208    1.4913789992   -1.2181664429
C       -0.3195311340   -0.6507010096    1.0914936773
H       -0.3556827990   -1.2443872313    1.9975602078
13   
Frame   2 IRC: Energy =  -286.8734970000 ; +0.0119 kcal/mol
C        1.4885192356    0.5343176001   -0.0865062777
C        0.7328138043   -0.8086555629   -0.0262088597
C       -0.2103303637   -0.5085891509   -1.1959151957
C       -1.1338024816    0.3522649846    0.7158913736
C       -0.6239213665    0.8519964292   -0.6462081944
N        0.7313070819    1.5033306324   -0.4326511326
H        2.5406153406    0.6718795270    0.1533852456
H        1.3296010061   -1.7200717171   -0.0216355402
H       -0.9116512049   -1.2417349435   -1.5884448141
H       -1.9737757783    0.7699225400    1.2582563293
H       -1.2932761485    1.4912895589   -1.2182307986
C       -0.3196213408   -0.6506583478    1.0911678567
H       -0.3564777842   -1.2452915499    1.9971000079
13   
Frame   3 IRC: Energy =  -286.8734710000 ; +0.0282 kcal/mol
C        1.4886697406    0.5351943640   -0.0867756498
C        0.7334964091   -0.8081434399   -0.0257814497
C       -0.2097944396   -0.5088552956   -1.1951639412
C       -1.1328478389    0.3532125452    0.7160736604
C       -0.6236508011    0.8521069252   -0.6462403449
N        0.7312183880    1.5038662659   -0.4336853638
H        2.5409679176    0.6736310198    0.1519235341
H        1.3311908855   -1.7188802685   -0.0203994662
H       -0.9121031350   -1.2433277624   -1.5850320292
H       -1.9715477165    0.7727410193    1.2598080474
H       -1.2935264796    1.4904950177   -1.2184843769
C       -0.3203905687   -0.6514647154    1.0907703224
H       -0.3616823615   -1.2505756754    1.9929870573
13   
Frame   4 IRC: Energy =  -286.8734630000 ; +0.0333 kcal/mol
C        1.4887026112    0.5354715899   -0.0868356557
C        0.7336405434   -0.8080183285   -0.0255572840
C       -0.2099500429   -0.5092271454   -1.1952431931
C       -1.1329191433    0.3534491306    0.7164246635
C       -0.6234850951    0.8521258346   -0.6462027190
N        0.7312653437    1.5039355618   -0.4338810111
H        2.5410090528    0.6740030032    0.1515994987
H        1.3315449938   -1.7186442850   -0.0201555420
H       -0.9119859039   -1.2434611312   -1.5842100623
H       -1.9708553291    0.7732635892    1.2600043313
H       -1.2936233823    1.4903402204   -1.2185652109
C       -0.3205236472   -0.6514034050    1.0903184101
H       -0.3628200011   -1.2518346346    1.9923037743
13   
Frame   5 IRC: Energy =  -286.8734080000 ; +0.0678 kcal/mol
C        1.4888523469    0.5368055206   -0.0872559580
C        0.7345580339   -0.8072859881   -0.0248944704
C       -0.2091134434   -0.5097182180   -1.1942299167
C       -1.1314957759    0.3549448294    0.7168565771
C       -0.6231738016    0.8522353210   -0.6462561751
N        0.7310367768    1.5047224251   -0.4353979496
H        2.5414469193    0.6766099452    0.1493560007
H        1.3338725071   -1.7169743552   -0.0181400468
H       -0.9121384895   -1.2458766763   -1.5798810198
H       -1.9671924195    0.7778996379    1.2627282389
H       -1.2942404429    1.4890055139   -1.2189130479
C       -0.3217726747   -0.6526452705    1.0897777290
H       -0.3706395366   -1.2597226850    1.9862500385
13   
Frame   6 IRC: Energy =  -286.8733940000 ; +0.0766 kcal/mol
C        1.4888579216    0.5371841741   -0.0873492707
C        0.7347892599   -0.8071766068   -0.0246019617
C       -0.2093042773   -0.5102211604   -1.1943580527
C       -1.1316115173    0.3552772846    0.7174101017
C       -0.6229255837    0.8522462970   -0.6462263418
N        0.7310730988    1.5048399081   -0.4356587065
H        2.5415060529    0.6771150346    0.1489057210
H        1.3343308361   -1.7166547609   -0.0177713423
H       -0.9118958965   -1.2460866322   -1.5789171276
H       -1.9661725294    0.7786852932    1.2630662058
H       -1.2944388076    1.4887794073   -1.2190261326
C       -0.3220083998   -0.6525338864    1.0891756780
H       -0.3722001576   -1.2614543523    1.9853512294
13   
Frame   7 IRC: Energy =  -286.8733030000 ; +0.1337 kcal/mol
C        1.4889292410    0.5387098181   -0.0877797136
C        0.7357164567   -0.8063053493   -0.0237085210
C       -0.2082363026   -0.5107794301   -1.1930505020
C       -1.1298524999    0.3570441804    0.7178861453
C       -0.6227541606    0.8522460231   -0.6462007933
N        0.7306926063    1.5056556000   -0.4375273252
H        2.5418960734    0.6802195338    0.1461667429
H        1.3369938517   -1.7146938250   -0.0152295233
H       -0.9116145829   -1.2489603025   -1.5744884554
H       -1.9614902728    0.7845683529    1.2666552919
H       -1.2952762715    1.4870157865   -1.2192998830
C       -0.3235224121   -0.6540969912    1.0886033921
H       -0.3814817265   -1.2706233965    1.9779731448
13   
Frame   8 IRC: Energy =  -286.8732740000 ; +0.1519 kcal/mol
C        1.4889229095    0.5392163980   -0.0878865142
C        0.7359856838   -0.8062605390   -0.0232355397
C       -0.2084279767   -0.5114662967   -1.1931359494
C       -1.1300350817    0.3575646899    0.7187192777
C       -0.6224401884    0.8521822518   -0.6461049713
N        0.7306803924    1.5058854789   -0.4379939904
H        2.5419796164    0.6810132085    0.1454580265
H        1.3376416830   -1.7141310980   -0.0146235721
H       -0.9111637069   -1.2493238302   -1.5732014814
H       -1.9598196938    0.7858708527    1.2672487582
H       -1.2956001117    1.4866358648   -1.2194411742
C       -0.3238329965   -0.6540151599    1.0877776501
H       -0.3838905292   -1.2731718208    1.9764194800
13   
Frame   9 IRC: Energy =  -286.8731760000 ; +0.2134 kcal/mol
C        1.4889592706    0.5405277624   -0.0883381677
C        0.7367627082   -0.8053955575   -0.0226481650
C       -0.2073570813   -0.5117082429   -1.1920613359
C       -1.1282790232    0.3589637003    0.7189205562
C       -0.6224183802    0.8522879247   -0.6462137528
N        0.7303783822    1.5065442943   -0.4395702206
H        2.5423115173    0.6835676271    0.1432022661
H        1.3398212559   -1.7126636732   -0.0123583614
H       -0.9108343512   -1.2518844283   -1.5699736840
H       -1.9560476068    0.7910249714    1.2705668728
H       -1.2964331398    1.4851446630   -1.2196658825
C       -0.3253742446   -0.6556487567    1.0876308245
H       -0.3914893071   -1.2807602846    1.9705090503
13   
Frame  10 IRC: Energy =  -286.8731410000 ; +0.2353 kcal/mol
C        1.4884998745    0.5410468795   -0.0886081628
C        0.7367347217   -0.8049908499   -0.0228133194
C       -0.2066648238   -0.5112207378   -1.1914262294
C       -1.1267765328    0.3585195398    0.7182610436
C       -0.6228114577    0.8524780140   -0.6463507049
N        0.7306221509    1.5061673654   -0.4396633096
H        2.5425024254    0.6839773278    0.1428877568
H        1.3402430687   -1.7125830741   -0.0119595604
H       -0.9111439704   -1.2526542431   -1.5696673053
H       -1.9560975599    0.7921489169    1.2715252699
H       -1.2964285564    1.4848039425   -1.2196181409
C       -0.3260618474   -0.6559668262    1.0881953308
H       -0.3926174928   -1.2817262548    1.9692373317
13   
Frame  11 IRC: Energy =  -286.8725810000 ; +0.5867 kcal/mol
C        1.4887655889    0.5458906434   -0.0905630209
C        0.7396065289   -0.8027012395   -0.0186237238
C       -0.2055649060   -0.5154969686   -1.1885991909
C       -1.1235572448    0.3666898774    0.7242045429
C       -0.6216290319    0.8520228425   -0.6457770725
N        0.7292091547    1.5090278110   -0.4472561421
H        2.5428228603    0.6936665416    0.1348918470
H        1.3468647559   -1.7065292783   -0.0018517134
H       -0.9052560919   -1.2615566622   -1.5595640980
H       -1.9375951874    0.8110014342    1.2845549510
H       -1.3010814241    1.4787109391   -1.2202786051
C       -0.3299093958   -0.6582152961    1.0842890951
H       -0.4226756067   -1.3125106444    1.9445731307
13   
Frame  12 IRC: Energy =  -286.8724740000 ; +0.6539 kcal/mol
C        1.4892764664    0.5461714772   -0.0907023997
C        0.7396326522   -0.8018263787   -0.0184972833
C       -0.2047120683   -0.5154298280   -1.1876127536
C       -1.1221932578    0.3676988637    0.7240195860
C       -0.6219530672    0.8521415327   -0.6458593181
N        0.7286907798    1.5095960910   -0.4484283745
H        2.5427463423    0.6949844250    0.1337947603
H        1.3479245359   -1.7059581794   -0.0003607820
H       -0.9048893382   -1.2632799341   -1.5584662063
H       -1.9356677330    0.8139086035    1.2868507879
H       -1.3015415028    1.4777453365   -1.2202446274
C       -0.3306332385   -0.6596443512    1.0852103735
H       -0.4266805709   -1.3161076583    1.9402962373
13   
Frame  13 IRC: Energy =  -286.8721270000 ; +0.8716 kcal/mol
C        1.4884751884    0.5488620425   -0.0919813656
C        0.7410192220   -0.8010635534   -0.0164529499
C       -0.2045535745   -0.5174588929   -1.1863736994
C       -1.1204743409    0.3709490101    0.7271836636
C       -0.6214262011    0.8519531960   -0.6455161522
N        0.7286700075    1.5101435075   -0.4516975670
H        2.5430103986    0.6991061295    0.1306365928
H        1.3504033668   -1.7032930227    0.0041526788
H       -0.9018386985   -1.2671828809   -1.5546219213
H       -1.9276741295    0.8219695029    1.2927479382
H       -1.3036570621    1.4750906344   -1.2205457428
C       -0.3324508708   -0.6595034152    1.0829061760
H       -0.4395033061   -1.3295722580    1.9295623489
13   
Frame  14 IRC: Energy =  -286.8719640000 ; +0.9739 kcal/mol
C        1.4893097301    0.5490523278   -0.0921226903
C        0.7411497610   -0.8001131675   -0.0161111649
C       -0.2038218159   -0.5176552540   -1.1852955164
C       -1.1193412998    0.3726448920    0.7275456930
C       -0.6216074361    0.8519715374   -0.6455313750
N        0.7278810360    1.5110866623   -0.4533840756
H        2.5428069705    0.7007533452    0.1293226049
H        1.3515745599   -1.7024845542    0.0061062529
H       -0.9010120660   -1.2692718041   -1.5533552247
H       -1.9248454229    0.8254518612    1.2955488726
H       -1.3043590267    1.4739168448   -1.2205624423
C       -0.3331497907   -0.6610712081    1.0837389527
H       -0.4445851994   -1.3342814829    1.9241001129
13   
Frame  15 IRC: Energy =  -286.8715970000 ; +1.2042 kcal/mol
C        1.4881927934    0.5516597616   -0.0935081999
C        0.7422977656   -0.7993959728   -0.0142715488
C       -0.2037722109   -0.5194585518   -1.1839898866
C       -1.1173835161    0.3754079056    0.7304305492
C       -0.6213087135    0.8519064010   -0.6451810077
N        0.7281448175    1.5111549918   -0.4563312812
H        2.5430477929    0.7043031249    0.1268077478
H        1.3535044027   -1.7001902928    0.0101545055
H       -0.8980832674   -1.2728666801   -1.5504399354
H       -1.9181177992    0.8324864331    1.3010559604
H       -1.3061575706    1.4715342458   -1.2208381807
C       -0.3347129595   -0.6604620220    1.0817841270
H       -0.4556515349   -1.3460793444    1.9143271503
13   
Frame  16 IRC: Energy =  -286.8713390000 ; +1.3661 kcal/mol
C        1.4892298283    0.5519389796   -0.0937959798
C        0.7425665264   -0.7982446709   -0.0136272964
C       -0.2031605835   -0.5199690458   -1.1826226219
C       -1.1161850118    0.3779094728    0.7315621320
C       -0.6213785045    0.8518383436   -0.6451367659
N        0.7271527575    1.5124009637   -0.4587482287
H        2.5427180840    0.7064761763    0.1252005162
H        1.3548698010   -1.6990434742    0.0128156214
H       -0.8966089131   -1.2756294932   -1.5489468803
H       -1.9141092254    0.8369488954    1.3047781106
H       -1.3071551903    1.4700074732   -1.2209532278
C       -0.3355392116   -0.6620910793    1.0825976915
H       -0.4624003571   -1.3525425412    1.9068769290
13   
Frame  17 IRC: Energy =  -286.8709410000 ; +1.6158 kcal/mol
C        1.4878609554    0.5545188691   -0.0953083430
C        0.7435395918   -0.7975682566   -0.0118969956
C       -0.2032194180   -0.5216776402   -1.1811855875
C       -1.1140019929    0.3804504957    0.7342463686
C       -0.6212823722    0.8519217562   -0.6447019433
N        0.7276215535    1.5120966551   -0.4615531650
H        2.5429365038    0.7096563915    0.1231722121
H        1.3563985988   -1.6969561086    0.0165479210
H       -0.8937179429   -1.2790919634   -1.5467038753
H       -1.9083187084    0.8433272592    1.3101235236
H       -1.3086810725    1.4677957245   -1.2212800345
C       -0.3368196409   -0.6610871041    1.0808988521
H       -0.4723160553   -1.3633860783    1.8976410668
13   
Frame  18 IRC: Energy =  -286.8705130000 ; +1.8844 kcal/mol
C        1.4890582234    0.5550542601   -0.0959300542
C        0.7440117586   -0.7960059860   -0.0108026631
C       -0.2028922365   -0.5226372458   -1.1791599038
C       -1.1124270610    0.3841505105    0.7366620302
C       -0.6212151184    0.8517784311   -0.6446469816
N        0.7264596017    1.5137141784   -0.4651800844
H        2.5423794624    0.7126799259    0.1211702921
H        1.3580779682   -1.6953138902    0.0203421271
H       -0.8911724238   -1.2830809685   -1.5449646091
H       -1.9026374997    0.8494292845    1.3154941448
H       -1.3100543711    1.4656893251   -1.2216403303
C       -0.3378667819   -0.6626857456    1.0818877867
H       -0.4817215221   -1.3727720796    1.8867682456
13   
Frame  19 IRC: Energy =  -286.8700650000 ; +2.1655 kcal/mol
C        1.4873970661    0.5578710734   -0.0977646486
C        0.7443569218   -0.7957960623   -0.0086750023
C       -0.2029418422   -0.5241747907   -1.1780424008
C       -1.1100816564    0.3867120969    0.7389783078
C       -0.6216597459    0.8523257123   -0.6433640677
N        0.7272386387    1.5133717100   -0.4681459878
H        2.5427243996    0.7156451360    0.1196637002
H        1.3595664624   -1.6936070328    0.0237754296
H       -0.8883862368   -1.2868350903   -1.5433407750
H       -1.8974536115    0.8552842272    1.3207636433
H       -1.3111665175    1.4634511794   -1.2221692715
C       -0.3388083742   -0.6610226728    1.0806702140
H       -0.4907855040   -1.3832254863    1.8776508589
13   
Frame  20 IRC: Energy =  -286.8682630000 ; +3.2963 kcal/mol
C        1.4884849277    0.5602808547   -0.1023595810
C        0.7468588215   -0.7905774472   -0.0048909700
C       -0.2059799186   -0.5304185484   -1.1681831662
C       -1.1034311261    0.4010676681    0.7520696945
C       -0.6214730557    0.8514559319   -0.6423319655
N        0.7248525156    1.5140303073   -0.4792377160
H        2.5407256174    0.7255334348    0.1160979249
H        1.3635895695   -1.6868543494    0.0342607462
H       -0.8781164663   -1.3012706388   -1.5421062064
H       -1.8841161432    0.8745286679    1.3401696939
H       -1.3123874611    1.4566897874   -1.2257192299
C       -0.3401508902   -0.6590643984    1.0832864888
H       -0.5188563904   -1.4154012701    1.8389442867
13   
Frame  21 IRC: Energy =  -286.8658410000 ; +4.8161 kcal/mol
C        1.4903419493    0.5625103684   -0.1072866657
C        0.7487375532   -0.7874095784    0.0006327668
C       -0.2143947855   -0.5395091662   -1.1551403484
C       -1.0991996960    0.4176286309    0.7672599314
C       -0.6228545802    0.8515220654   -0.6379110386
N        0.7248722287    1.5123552190   -0.4890558579
H        2.5419546897    0.7369016547    0.1154476385
H        1.3705028006   -1.6810172419    0.0410709845
H       -0.8689540149   -1.3192519080   -1.5464852711
H       -1.8769222150    0.8940803442    1.3614916204
H       -1.3107749719    1.4495220088   -1.2316263555
C       -0.3406027669   -0.6512469183    1.0866726989
H       -0.5427061910   -1.4460854787    1.7949298966
13   
Frame  22 IRC: Energy =  -286.8627150000 ; +6.7777 kcal/mol
C        1.4952274957    0.5651916537   -0.1117852089
C        0.7571751141   -0.7844799182    0.0064507658
C       -0.2361717834   -0.5527281298   -1.1214169792
C       -1.0984294995    0.4344315365    0.7787963403
C       -0.6245566343    0.8531115972   -0.6321352386
N        0.7249600022    1.5105803732   -0.4958077492
H        2.5460989654    0.7461592339    0.1175654104
H        1.3803184461   -1.6803149462    0.0435344405
H       -0.8593520935   -1.3330275325   -1.5550102231
H       -1.8739738233    0.9093235704    1.3778019308
H       -1.3081693529    1.4442724841   -1.2378703201
C       -0.3471209014   -0.6489982850    1.0765885394
H       -0.5560059352   -1.4635216373    1.7532882919
13   
Frame  23 IRC: Energy =  -286.8580100000 ; +9.7302 kcal/mol
C        1.5005066114    0.5677601742   -0.1154727190
C        0.7720187963   -0.7801932534    0.0103218877
C       -0.2629093086   -0.5692097261   -1.0760940385
C       -1.0986496322    0.4501848641    0.7853429445
C       -0.6261529315    0.8556122602   -0.6272070291
N        0.7246840083    1.5087462137   -0.4995745663
H        2.5497548749    0.7523187559    0.1201336293
H        1.3885927016   -1.6816666953    0.0440916625
H       -0.8494013788   -1.3398280395   -1.5620131434
H       -1.8731050966    0.9203818677    1.3886676301
H       -1.3062759911    1.4411926668   -1.2430173549
C       -0.3563612365   -0.6528544980    1.0530858319
H       -0.5627014172   -1.4724445902    1.7217352652
13   
Frame  24 IRC: Energy =  -286.8517740000 ; +13.6433 kcal/mol
C        1.5053938071    0.5697692725   -0.1185085508
C        0.7898755544   -0.7751277919    0.0119697240
C       -0.2891221781   -0.5871634710   -1.0265672865
C       -1.0996549655    0.4665301140    0.7882053605
C       -0.6278277673    0.8588136745   -0.6229981229
N        0.7239772790    1.5072126231   -0.5015625586
H        2.5523354493    0.7564910457    0.1224182972
H        1.3947370234   -1.6831990928    0.0439920330
H       -0.8398068728   -1.3421669953   -1.5660088427
H       -1.8731600485    0.9287420329    1.3959558774
H       -1.3050416778    1.4392872424   -1.2472174945
C       -0.3653440468   -0.6612806686    1.0217357191
H       -0.5663615565   -1.4779079856    1.6985858447
13   
Frame  25 IRC: Energy =  -286.8460690000 ; +17.2233 kcal/mol
C        1.5098417080    0.5712397819   -0.1211977840
C        0.8081911901   -0.7699205290    0.0113299014
C       -0.3127461301   -0.6051025795   -0.9753306562
C       -1.1011509657    0.4845114033    0.7885154644
C       -0.6295330774    0.8626062686   -0.6192637797
N        0.7228198143    1.5063067287   -0.5026283263
H        2.5541293640    0.7596557514    0.1242688421
H        1.3993890599   -1.6843702042    0.0437653927
H       -0.8309340889   -1.3423847191   -1.5669874154
H       -1.8736846580    0.9354425080    1.4010580211
H       -1.3041513576    1.4378055029   -1.2508377072
C       -0.3734640548   -0.6737246544    0.9867322968
H       -0.5687068038   -1.4820652587    1.6805757503
13   
Frame  26 IRC: Energy =  -286.8438090000 ; +18.6414 kcal/mol (Transition State)
C        1.5138179750    0.5726628451   -0.1240613313
C        0.8258159111   -0.7650370470    0.0088475063
C       -0.3340707838   -0.6222441396   -0.9235933174
C       -1.1022054572    0.5036544577    0.7885067052
C       -0.6307724914    0.8664869443   -0.6159839394
N        0.7214143908    1.5061572218   -0.5032281647
H        2.5555488770    0.7625297819    0.1256702123
H        1.4036084064   -1.6853307738    0.0435596552
H       -0.8224148571   -1.3416339664   -1.5647304759
H       -1.8742524762    0.9410888626    1.4046638455
H       -1.3033320309    1.4362967713   -1.2543398933
C       -0.3825620920   -0.6888401221    0.9500971730
H       -0.5705953720   -1.4857908357    1.6645920244
13   
Frame  27 IRC: Energy =  -286.8457030000 ; +17.4529 kcal/mol
C        1.5172531338    0.5745079771   -0.1272773429
C        0.8428296958   -0.7604374883    0.0053461121
C       -0.3544577175   -0.6390686293   -0.8715220951
C       -1.1015925460    0.5219472263    0.7886289383
C       -0.6319087962    0.8702433205   -0.6130507883
N        0.7202168530    1.5061303497   -0.5035828980
H        2.5570689491    0.7654457155    0.1269067814
H        1.4079689853   -1.6863079395    0.0433862147
H       -0.8137933147   -1.3404891853   -1.5610667899
H       -1.8752082205    0.9467356984    1.4082020345
H       -1.3024678379    1.4347746232   -1.2579191859
C       -0.3936134841   -0.7043319462    0.9135831322
H       -0.5722957000   -1.4891497221    1.6483658869
13   
Frame  28 IRC: Energy =  -286.8496890000 ; +14.9517 kcal/mol
C        1.5203078781    0.5767329252   -0.1310930677
C        0.8588089188   -0.7566296963    0.0008273962
C       -0.3737516634   -0.6553129543   -0.8211379041
C       -1.0982262561    0.5393104216    0.7916518206
C       -0.6321726949    0.8733598036   -0.6105450520
N        0.7189957781    1.5070491059   -0.5040122815
H        2.5586551714    0.7688512937    0.1275451476
H        1.4133736787   -1.6873572011    0.0431825932
H       -0.8045057834   -1.3386064278   -1.5530807693
H       -1.8762251053    0.9522922842    1.4111711998
H       -1.3013026207    1.4328562379   -1.2619792679
C       -0.4095708298   -0.7198091231    0.8775270959
H       -0.5743864714   -1.4927366696    1.6299430892
13   
Frame  29 IRC: Energy =  -286.8534270000 ; +12.6060 kcal/mol
C        1.5231094414    0.5790761492   -0.1355593085
C        0.8741424824   -0.7535515218   -0.0031530745
C       -0.3922005089   -0.6707135412   -0.7765833976
C       -1.0909208208    0.5562708747    0.7997671393
C       -0.6318091186    0.8760279712   -0.6074366764
N        0.7177825202    1.5083260384   -0.5053669892
H        2.5602813689    0.7736320446    0.1270627474
H        1.4212745528   -1.6883359471    0.0429939229
H       -0.7944302402   -1.3373009475   -1.5394135739
H       -1.8778686307    0.9590710702    1.4145233072
H       -1.2992638983    1.4295821626   -1.2668192338
C       -0.4312002569   -0.7331175150    0.8450592909
H       -0.5788968914   -1.4989668383    1.6049258460
13   
Frame  30 IRC: Energy =  -286.8555410000 ; +11.2795 kcal/mol
C        1.5249611292    0.5811885856   -0.1406115574
C        0.8854627119   -0.7521722013   -0.0060204047
C       -0.4049834418   -0.6808433552   -0.7427286395
C       -1.0801347373    0.5732259170    0.8123691765
C       -0.6310377815    0.8780921195   -0.6032391972
N        0.7168457969    1.5091575699   -0.5084597067
H        2.5616002987    0.7802298515    0.1244032404
H        1.4317555720   -1.6879666603    0.0434305241
H       -0.7855604958   -1.3398855653   -1.5212298660
H       -1.8802990483    0.9681838377    1.4188264807
H       -1.2963721334    1.4241054787   -1.2718382723
C       -0.4536637002   -0.7411301951    0.8210316071
H       -0.5885741703   -1.5121853828    1.5740666148
13   
Frame  31 IRC: Energy =  -286.8567590000 ; +10.5152 kcal/mol
C        1.5255431481    0.5823139092   -0.1453856926
C        0.8873273243   -0.7522387158   -0.0049042324
C       -0.4045292013   -0.6777655797   -0.7357421812
C       -1.0690522386    0.5879082322    0.8309362026
C       -0.6283344242    0.8795062046   -0.5982244312
N        0.7173199250    1.5096038569   -0.5153994141
H        2.5615877967    0.7893917720    0.1164036143
H        1.4450689002   -1.6840400917    0.0457965802
H       -0.7817803175   -1.3518192256   -1.4985815642
H       -1.8810189883    0.9813158916    1.4229449582
H       -1.2935571931    1.4151177450   -1.2757634338
C       -0.4682024263   -0.7391596980    0.8216830628
H       -0.6103723050   -1.5401343007    1.5362365312
13   
Frame  32 IRC: Energy =  -286.8569980000 ; +10.3652 kcal/mol
C        1.5255724959    0.5833243683   -0.1455180673
C        0.8890671370   -0.7509938201   -0.0016949849
C       -0.4055084518   -0.6783465007   -0.7305748573
C       -1.0678178614    0.5900194431    0.8304076533
C       -0.6277445895    0.8808814403   -0.5974650220
N        0.7184302427    1.5100308187   -0.5171458644
H        2.5618454705    0.7910076312    0.1135098653
H        1.4459675850   -1.6812508941    0.0470163469
H       -0.7824294054   -1.3544269330   -1.4941882714
H       -1.8805459197    0.9847667242    1.4237936813
H       -1.2938614165    1.4132915606   -1.2751440380
C       -0.4649709377   -0.7415277540    0.8180745313
H       -0.6180043490   -1.5467760846    1.5289290271
13   
Frame  33 IRC: Energy =  -286.8576010000 ; +9.9868 kcal/mol
C        1.5278367124    0.5890197404   -0.1460040197
C        0.8905550614   -0.7473013552    0.0075716593
C       -0.4033412628   -0.6763832454   -0.7236399770
C       -1.0616437571    0.5907212364    0.8380239568
C       -0.6251977611    0.8801544048   -0.5955221701
N        0.7204466330    1.5129716228   -0.5254653640
H        2.5663960039    0.7981046732    0.1003721185
H        1.4555112316   -1.6748696465    0.0520947696
H       -0.7846982229   -1.3640721504   -1.4730004956
H       -1.8719796730    0.9963070114    1.4246054383
H       -1.2962823721    1.4088844412   -1.2735852535
C       -0.4683243374   -0.7413924902    0.8221818068
H       -0.6492782559   -1.5721442423    1.4923675306
13   
Frame  34 IRC: Energy =  -286.8576600000 ; +9.9498 kcal/mol
C        1.5272150514    0.5889107237   -0.1462839025
C        0.8921291336   -0.7474140515    0.0083647730
C       -0.4027695649   -0.6767172115   -0.7229282272
C       -1.0620353348    0.5931240991    0.8365929826
C       -0.6254164768    0.8811711195   -0.5949187872
N        0.7203802298    1.5123436448   -0.5258439207
H        2.5668369152    0.7988602679    0.0991294458
H        1.4558767845   -1.6735980012    0.0530810032
H       -0.7847010492   -1.3646187097   -1.4714666133
H       -1.8718464930    0.9975598107    1.4258864661
H       -1.2962846491    1.4080198501   -1.2726636731
C       -0.4675312171   -0.7435554311    0.8196922342
H       -0.6518533297   -1.5740861108    1.4913582192
13   
Frame  35 IRC: Energy =  -286.8578280000 ; +9.8444 kcal/mol
C        1.5283726814    0.5905309828   -0.1466308472
C        0.8959093564   -0.7463045828    0.0123904100
C       -0.3994689407   -0.6767170154   -0.7211239409
C       -1.0629357250    0.5936392083    0.8368422841
C       -0.6237183904    0.8817996519   -0.5939479798
N        0.7211241936    1.5122602698   -0.5283913828
H        2.5686793168    0.8034301214    0.0890970163
H        1.4631259916   -1.6701179070    0.0594375787
H       -0.7848666511   -1.3687723211   -1.4624749293
H       -1.8659604521    1.0057524059    1.4322917740
H       -1.2985554016    1.4060399564   -1.2692420486
C       -0.4718814821   -0.7472799505    0.8154440130
H       -0.6698244968   -1.5842608198    1.4763080525
13   
Frame  36 IRC: Energy =  -286.8578480000 ; +9.8318 kcal/mol
C        1.5282251715    0.5908962785   -0.1466222541
C        0.8952557289   -0.7465403449    0.0125951196
C       -0.3991812923   -0.6767881672   -0.7210415195
C       -1.0633233443    0.5921827684    0.8370854787
C       -0.6240723079    0.8813404047   -0.5936576448
N        0.7209907589    1.5128854844   -0.5286091545
H        2.5695204439    0.8037494721    0.0882987576
H        1.4638917690   -1.6698820905    0.0601235546
H       -0.7846663338   -1.3692326948   -1.4626192881
H       -1.8640897751    1.0065948329    1.4327947577
H       -1.2985594696    1.4061587743   -1.2693214233
C       -0.4726452113   -0.7463431254    0.8166939699
H       -0.6713461381   -1.5850215923    1.4742796461
13   
Frame  37 IRC: Energy =  -286.8579930000 ; +9.7408 kcal/mol
C        1.5271192441    0.5972830967   -0.1466614831
C        0.8975621917   -0.7430138502    0.0207397916
C       -0.3961776612   -0.6803866543   -0.7187303197
C       -1.0743921913    0.5845664974    0.8309422142
C       -0.6275346857    0.8784222025   -0.5916477909
N        0.7169462540    1.5139133248   -0.5293470845
H        2.5747171243    0.8092463388    0.0706291162
H        1.4741086585   -1.6604290882    0.0760821059
H       -0.7783905648   -1.3764194799   -1.4595086810
H       -1.8353321033    1.0296013260    1.4530524428
H       -1.2992882798    1.4033879771   -1.2685044321
C       -0.4764225545   -0.7513705282    0.8166189661
H       -0.7029154320   -1.6048011625    1.4463351546
13   
Frame  38 IRC: Energy =  -286.8580210000 ; +9.7233 kcal/mol
C        1.5275442197    0.5962747527   -0.1460504317
C        0.8975823286   -0.7432412238    0.0205748679
C       -0.3951614429   -0.6799811036   -0.7191356242
C       -1.0744868168    0.5837211003    0.8314235862
C       -0.6270299283    0.8781941011   -0.5923725936
N        0.7164890651    1.5146292041   -0.5294391814
H        2.5736909684    0.8093594130    0.0705883970
H        1.4742353570   -1.6606870095    0.0760211669
H       -0.7780107530   -1.3761955236   -1.4592506620
H       -1.8349646616    1.0305434778    1.4542959065
H       -1.2997500153    1.4033516823   -1.2689225975
C       -0.4779322741   -0.7515442969    0.8154013271
H       -0.7022060467   -1.6044245739    1.4468658385
13   