
Running Job 1 of 1 irc_transition.in
qchem irc_transition.in_59944.0 ./irc_transition.d/ 1
/home/leeping/opt/qchem/5.0.2-openmp/exe/qcprog.exe_s irc_transition.in_59944.0 ./irc_transition.d/
Check license passed

                  Welcome to Q-Chem
     A Quantum Leap Into The Future Of Chemistry


 Q-Chem 5.0, Q-Chem, Inc., Pleasanton, CA (2017)

 Yihan Shao,  Zhengting Gan,  E. Epifanovsky,  A. T. B. Gilbert,  M. Wormit,  
 J. Kussmann,  A. W. Lange,  A. Behn,  Jia Deng,  Xintian Feng,  D. Ghosh,  
 M. Goldey,  P. R. Horn,  L. D. Jacobson,  I. Kaliman,  T. Kus,  A. Landau,  
 Jie Liu,  E. I. Proynov,  R. M. Richard,  R. P. Steele,  E. J. Sundstrom,  
 H. L. Woodcock III,  P. M. Zimmerman,  D. Zuev,  B. Albrecht,  E. Alguire,  
 S. A. Baeppler,  D. Barton,  Z. Benda,  Y. A. Bernard,  E. J. Berquist,  
 K. B. Bravaya,  H. Burton,  D. Casanova,  Chun-Min Chang,  Yunqing Chen,  
 A. Chien,  K. D. Closser,  M. P. Coons,  S. Dasgupta,  A. L. Dempwolff,  
 M. Diedenhofen,  Hainam Do,  R. G. Edgar,  Po-Tung Fang,  S. Fatehi,  
 Qingguo Feng,  J. Fosso-Tande,  Qinghui Ge,  A. Ghysels,  G. Gidofalvi,  
 J. Gomes,  J. Gonthier,  A. Gunina,  M. W. D. Hanson-Heine,  
 P. H. P. Harbach,  A. W. Hauser,  J. E. Herr,  E. G. Hohenstein,  
 Z. C. Holden,  Kerwin Hui,  T.-C. Jagau,  Hyunjun Ji,  B. Kaduk,  
 K. Khistyaev,  Jaehoon Kim,  P. Klunzinger,  K. Koh,  D. Kosenkov,  
 L. Koulias,  T. Kowalczyk,  C. M. Krauter,  A. Kunitsa,  Ka Un Lao,  
 A. Laurent,  K. V. Lawler,  Joonho Lee,  D. Lefrancois,  S. Lehtola,  
 D. S. Levine,  Yi-Pei Li,  You-Sheng Lin,  Fenglai Liu,  E. Livshits,  
 A. Luenser,  P. Manohar,  E. Mansoor,  S. F. Manzer,  Shan-Ping Mao,  
 Yuezhi Mao,  N. Mardirossian,  A. V. Marenich,  T. Markovich,  
 L. A. Martinez-Martinez,  S. A. Maurer,  N. J. Mayhall,  S. C. McKenzie,  
 J.-M. Mewes,  A. F. Morrison,  J. W. Mullinax,  K. Nanda,  
 T. S. Nguyen-Beck,  R. Olivares-Amaya,  J. A. Parkhill,  T. M. Perrine,  
 F. Plasser,  S. Prager,  A. Prociuk,  E. Ramos,  D. R. Rehn,  F. Rob,  
 M. Schneider,  N. Sergueev,  S. M. Sharada,  S. Sharma,  D. W. Small,  
 T. Stauch,  T. Stein,  Yu-Chuan Su,  A. J. W. Thom,  A. Tkatchenko,  
 T. Tsuchimochi,  L. Vogt,  O. Vydrov,  M. A. Watson,  J. Wenzel,  
 M. de Wergifosse,  T. A. Wesolowski,  A. White,  J. Witte,  A. Yamada,  
 Jun Yang,  K. Yao,  S. Yeganeh,  S. R. Yost,  Zhi-Qiang You,  A. Zech,  
 Igor Ying Zhang,  Xing Zhang,  Yan Zhao,  Ying Zhu,  B. R. Brooks,  
 G. K. L. Chan,  C. J. Cramer,  M. S. Gordon,  W. J. Hehre,  A. Klamt,  
 M. W. Schmidt,  C. D. Sherrill,  D. G. Truhlar,  A. Aspuru-Guzik,  R. Baer,  
 A. T. Bell,  N. A. Besley,  Jeng-Da Chai,  R. A. DiStasio Jr.,  A. Dreuw,  
 B. D. Dunietz,  T. R. Furlani,  Chao-Ping Hsu,  Yousung Jung,  Jing Kong,  
 D. S. Lambrecht,  WanZhen Liang,  C. Ochsenfeld,  V. A. Rassolov,  
 L. V. Slipchenko,  J. E. Subotnik,  T. Van Voorhis,  J. M. Herbert,  
 A. I. Krylov,  P. M. W. Gill,  M. Head-Gordon

 Contributors to earlier versions of Q-Chem not listed above: 
 R. D. Adamson,  B. Austin,  J. Baker,  G. J. O. Beran,  K. Brandhorst,  
 S. T. Brown,  E. F. C. Byrd,  A. K. Chakraborty,  C.-L. Cheng,  
 Siu Hung Chien,  D. M. Chipman,  D. L. Crittenden,  H. Dachsel,  
 R. J. Doerksen,  A. D. Dutoi,  L. Fusti-Molnar,  W. A. Goddard III,  
 A. Golubeva-Zadorozhnaya,  S. R. Gwaltney,  G. Hawkins,  A. Heyden,  
 S. Hirata,  G. Kedziora,  F. J. Keil,  C. Kelley,  Jihan Kim,  R. A. King,  
 R. Z. Khaliullin,  P. P. Korambath,  W. Kurlancheek,  A. M. Lee,  M. S. Lee,  
 S. V. Levchenko,  Ching Yeh Lin,  D. Liotard,  R. C. Lochan,  I. Lotan,  
 P. E. Maslen,  N. Nair,  D. P. O'Neill,  D. Neuhauser,  E. Neuscamman,  
 C. M. Oana,  R. Olson,  B. Peters,  R. Peverati,  P. A. Pieniazek,  
 Y. M. Rhee,  J. Ritchie,  M. A. Rohrdanz,  E. Rosta,  N. J. Russ,  
 H. F. Schaefer III,  N. E. Schultz,  N. Shenvi,  A. C. Simmonett,  A. Sodt,  
 D. Stuck,  K. S. Thanthiriwatte,  V. Vanovschi,  Tao Wang,  A. Warshel,  
 C. F. Williams,  Q. Wu,  X. Xu,  W. Zhang

 Please cite Q-Chem as follows:
 Y. Shao et al., Mol. Phys. 113, 184-215 (2015)
 DOI: 10.1080/00268976.2014.952696

 Q-Chem 5.0.2 for Intel X86 EM64T Linux

 Parts of Q-Chem use Armadillo 5.200.1 (Boston Tea Smuggler).
 http://arma.sourceforge.net/

 Q-Chem begins on Fri Mar  4 09:59:18 2022  

Host: 
0

     Scratch files written to ./irc_transition.d//
 Dec517 15110_ 26548  26544 5633   
Processing $rem in /home/leeping/opt/qchem/5.0.2-openmp/config/preferences.
 MEM_STATIC 2000
 MEM_TOTAL  8000
 SYMMETRY   OFF
 SYM_IGNORE TRUE 

Checking the input file for inconsistencies... 	...done.

--------------------------------------------------------------
User input:
--------------------------------------------------------------
$molecule
0 2
C        1.5126256955    0.5718827943   -0.1265345956
C        0.8242103590   -0.7654870928    0.0075501159
C       -0.3373483257   -0.6220407174   -0.9227065200
C       -1.1017192754    0.5040942641    0.7909218149
C       -0.6327356438    0.8668113360   -0.6144183946
N        0.7199768901    1.5058017760   -0.5041400591
H        2.5549161358    0.7612122999    0.1212627937
H        1.4016104120   -1.6860700303    0.0411042303
H       -0.8272480085   -1.3411343797   -1.5629885816
H       -1.8723948755    0.9418594009    1.4085591551
H       -1.3062060044    1.4370082431   -1.2514671036
C       -0.3823661472   -0.6887704934    0.9510658830
H       -0.5694571332   -1.4856880896    1.6658449782
$end

$rem
method                b3lyp
basis                 6-31+g(d,p)
unrestricted          true
symmetry              off
sym_ignore            true
incdft                false
incfock               0
scf_convergence       8
thresh                14
jobtype               sp
scf_guess             read
scf_algorithm         diis
max_scf_cycles        100
scf_final_print       1
$end

--------------------------------------------------------------
 ----------------------------------------------------------------
             Standard Nuclear Orientation (Angstroms)
    I     Atom           X                Y                Z
 ----------------------------------------------------------------
    1      C       1.5126256955     0.5718827943    -0.1265345956
    2      C       0.8242103590    -0.7654870928     0.0075501159
    3      C      -0.3373483257    -0.6220407174    -0.9227065200
    4      C      -1.1017192754     0.5040942641     0.7909218149
    5      C      -0.6327356438     0.8668113360    -0.6144183946
    6      N       0.7199768901     1.5058017760    -0.5041400591
    7      H       2.5549161358     0.7612122999     0.1212627937
    8      H       1.4016104120    -1.6860700303     0.0411042303
    9      H      -0.8272480085    -1.3411343797    -1.5629885816
   10      H      -1.8723948755     0.9418594009     1.4085591551
   11      H      -1.3062060044     1.4370082431    -1.2514671036
   12      C      -0.3823661472    -0.6887704934     0.9510658830
   13      H      -0.5694571332    -1.4856880896     1.6658449782
 ----------------------------------------------------------------
 Nuclear Repulsion Energy =   280.5485200165 hartrees
 There are       25 alpha and       24 beta electrons
 Requested basis set is 6-31+G(d,p)
 There are 53 shells and 163 basis functions

 Total QAlloc Memory Limit   8000 MB
 Mega-Array Size      1956 MB
 MEM_STATIC part      2000 MB

                       Distance Matrix (Angstroms)
             C (  1)   C (  2)   C (  3)   C (  4)   C (  5)   N (  6)
   C (  2)  1.510117
   C (  3)  2.341313  1.495049
   C (  4)  2.771484  2.436127  2.188370
   C (  5)  2.219817  2.274628  1.548863  1.525284
   N (  6)  1.281828  2.330546  2.412643  2.449322  1.500100
   H (  7)  1.087942  2.310646  3.371714  3.726330  3.273149  2.076667
   H (  8)  2.266887  1.087193  2.255009  3.409649  3.329486  3.309073
   H (  9)  3.346348  2.350591  1.080305  3.003514  2.410943  3.408828
   H ( 10)  3.735205  3.485619  3.199524  1.080303  2.373779  3.270602
   H ( 11)  3.155904  3.312821  2.299228  2.254661  1.088356  2.160705
   C ( 12)  2.518226  1.533602  1.875501  1.402156  2.221094  2.854633
   H ( 13)  3.432389  2.282748  2.738679  2.237862  3.276867  3.914139
             H (  7)   H (  8)   H (  9)   H ( 10)   H ( 11)   C ( 12)
   H (  8)  2.706609
   H (  9)  4.323841  2.767653
   H ( 10)  4.614201  4.415321  3.890307
   H ( 11)  4.153234  4.330892  2.836287  2.764323
   C ( 12)  3.379149  2.237232  2.635141  2.255757  3.197431
   H ( 13)  4.146806  2.562234  3.242332  2.767098  4.194718  1.086734

 
 A cutoff of  1.0D-14 yielded   1404 shell pairs
 There are     13506 function pairs
 
 -------------------------------------------------------
 OpenMP Integral Computing Module                       
 Release: version 1.0, May 2013, Q-Chem Inc. Pittsburgh 
 -------------------------------------------------------
 Integral Job Info:
 Integral job number is                      11
 Integral operator is                         1
 short-range coefficients                     0
 long-range coefficients              100000000
 Omega coefficients                           0
 if combine SR and LR in K                    0
 Integral screening is                        0
 Integral computing path is                   2
 max size of driver memory is            800000
 size of driver memory is                593474
 size of scratch memory is              2361544
 max col of scratch BK array               1296
 max len of scratch array in speh3          155
 max len of scratch index in speh4           18
 max int batch size is                      520
 min int batch size is                       52
 fixed nKL is                                52
 max L of basis functions is                  2
 order of int derivative is                   0
 number of shells is                         53
 number of basis is                         163
 number of cartesian basis is               163
 number of contracted shell pairs          1404
 number of primitive shell pairs           4827
 maxK2 (contraction) of shell pair           36
 max number of K2 of shell pair               1
 max number of CS2 of shell pair            126
 max number of PS2 of shell pair            696
 mem total for path MDJ                  535308
 -------------------------------------------------------
 Smallest overlap matrix eigenvalue = 2.31E-05

 Scale SEOQF with 1.000000e-01/1.000000e-01/1.000000e-01

 Standard Electronic Orientation quadrupole field applied
 Nucleus-field energy     =     0.0000000018 hartrees
 Guess MOs from SCF MO coefficient file
 Reading MOs from coefficient file
 Reading MOs from coefficient file
 An unrestricted hybrid HF-DFT SCF calculation will be
 performed using Pulay DIIS extrapolation
 Exchange:     0.2000 Hartree-Fock + 0.0800 Slater + 0.7200 B88
 Correlation:  0.1900 VWN1RPA + 0.8100 LYP
 Using SG-1 standard quadrature grid
 SCF converges when DIIS error is below 1.0E-08
Using Q-Chem read-in guess as SCF_GUESS READ specified.

 using 4 threads for integral computing
 -------------------------------------------------------
 OpenMP Integral computing Module                
 Release: version 1.0, May 2013, Q-Chem Inc. Pittsburgh 
 -------------------------------------------------------
 -------------------------------------------------------
 OpenMP BLAS3 based DFT computing Module                
 Release: version 1.0, May 2013, Q-Chem Inc. Pittsburgh 
 -------------------------------------------------------
 ---------------------------------------
  Cycle       Energy         DIIS Error
 ---------------------------------------
    1    -286.8438085221      1.24E-09
    2    -286.8438085221      1.71E-09 Convergence criterion met
 ---------------------------------------
 One-Electron    Energy =  -941.5007565866
 Total Coulomb   Energy =   415.7126600210
 Alpha Exchange  Energy =    -4.0169506633
 Beta  Exchange  Energy =    -3.9250264369
 DFT   Exchange  Energy =   -31.5520011790
 DFT Correlation Energy =    -2.1102536957
 Nuclear Repu.   Energy =   280.5485200183
 Nuclear Attr.   Energy = -1225.6377120438
 Kinetic         Energy =   284.1369554572
 <S^2> = 0.7807
 SCF time:  CPU 9.87 s  wall 2.50 s
 Final Alpha MO Eigenvalues
            1           2           3           4           5           6
    1 -14.3336904 -10.2336387 -10.2310459 -10.2285037 -10.2252827 -10.2224257
            7           8           9          10          11          12
    1 -10.1987902  -0.9686126  -0.8499315  -0.7503271  -0.6897637  -0.6013418
           13          14          15          16          17          18
    1  -0.5866309  -0.5458927  -0.5236681  -0.4742014  -0.4360604  -0.4178953
           19          20          21          22          23          24
    1  -0.4090698  -0.3866492  -0.3508918  -0.3073106  -0.2865788  -0.2658500
           25          26          27          28          29          30
    1  -0.1521187  -0.0248237  -0.0089877   0.0000208   0.0202415   0.0264618
 Final Beta MO Eigenvalues
            1           2           3           4           5           6
    1 -14.3337959 -10.2363279 -10.2318380 -10.2276491 -10.2250521 -10.2135573
            7           8           9          10          11          12
    1 -10.1893867  -0.9651547  -0.8444739  -0.7430451  -0.6798170  -0.5966396
           13          14          15          16          17          18
    1  -0.5774575  -0.5435460  -0.5159199  -0.4690089  -0.4320005  -0.4129960
           19          20          21          22          23          24
    1  -0.4068566  -0.3848303  -0.3457895  -0.2909145  -0.2766963  -0.2621172
           25          26          27          28          29
    1  -0.0430073  -0.0194177  -0.0007819   0.0017623   0.0204245
 SCF   energy in the final basis set = -286.84380852
 Total energy in the final basis set = -286.84380852
 
 --------------------------------------------------------------
 
                    Orbital Energies (a.u.)
 --------------------------------------------------------------
 
 Alpha MOs
 -- Occupied --
-14.334 -10.234 -10.231 -10.229 -10.225 -10.222 -10.199  -0.969
 -0.850  -0.750  -0.690  -0.601  -0.587  -0.546  -0.524  -0.474
 -0.436  -0.418  -0.409  -0.387  -0.351  -0.307  -0.287  -0.266
 -0.152
 -- Virtual --
 -0.025  -0.009   0.000   0.020   0.026   0.031   0.048   0.048
  0.068   0.071   0.074   0.091   0.103   0.106   0.109   0.115
  0.123   0.129   0.143   0.154   0.167   0.177   0.183   0.185
  0.190   0.199   0.208   0.211   0.228   0.233   0.240   0.246
  0.258   0.268   0.281   0.290   0.301   0.318   0.330   0.353
  0.373   0.385   0.414   0.459   0.617   0.654   0.691   0.698
  0.699   0.715   0.724   0.738   0.752   0.758   0.787   0.795
  0.799   0.816   0.863   0.900   0.912   0.934   0.972   0.986
  1.009   1.015   1.036   1.064   1.088   1.117   1.133   1.162
  1.187   1.256   1.288   1.298   1.383   1.419   1.436   1.517
  1.530   1.611   1.616   1.711   1.717   1.775   1.802   1.832
  1.887   1.915   1.945   1.990   1.999   2.078   2.116   2.137
  2.150   2.221   2.231   2.263   2.278   2.360   2.370   2.379
  2.403   2.420   2.472   2.488   2.500   2.517   2.525   2.554
  2.578   2.595   2.627   2.648   2.684   2.745   2.759   2.775
  2.825   2.875   2.956   3.059   3.110   3.294   3.311   3.337
  3.475   3.626   3.692   4.154   4.388   4.472   4.575   4.639
  4.713   4.851
 
 Beta MOs
 -- Occupied --
-14.334 -10.236 -10.232 -10.228 -10.225 -10.214 -10.189  -0.965
 -0.844  -0.743  -0.680  -0.597  -0.577  -0.544  -0.516  -0.469
 -0.432  -0.413  -0.407  -0.385  -0.346  -0.291  -0.277  -0.262
 -- Virtual --
 -0.043  -0.019  -0.001   0.002   0.020   0.027   0.035   0.048
  0.049   0.070   0.072   0.078   0.092   0.103   0.106   0.110
  0.116   0.128   0.130   0.144   0.155   0.167   0.177   0.184
  0.189   0.191   0.202   0.210   0.216   0.232   0.235   0.243
  0.247   0.261   0.272   0.281   0.291   0.304   0.322   0.332
  0.357   0.375   0.388   0.420   0.462   0.620   0.661   0.692
  0.703   0.708   0.734   0.742   0.745   0.753   0.768   0.791
  0.797   0.804   0.819   0.865   0.904   0.914   0.936   0.974
  0.988   1.010   1.020   1.038   1.068   1.091   1.122   1.140
  1.168   1.192   1.260   1.296   1.300   1.385   1.422   1.445
  1.521   1.537   1.618   1.621   1.718   1.723   1.781   1.807
  1.849   1.891   1.924   1.946   1.999   2.002   2.083   2.125
  2.139   2.158   2.229   2.235   2.270   2.285   2.362   2.374
  2.383   2.407   2.427   2.476   2.496   2.502   2.524   2.530
  2.558   2.589   2.602   2.631   2.654   2.690   2.749   2.763
  2.779   2.827   2.877   2.959   3.061   3.111   3.295   3.312
  3.338   3.477   3.629   3.696   4.154   4.394   4.478   4.588
  4.645   4.716   4.855
 --------------------------------------------------------------
 
          Ground-State Mulliken Net Atomic Charges

     Atom                 Charge (a.u.)    Spin (a.u.)
  --------------------------------------------------------
      1 C                    -0.063613       0.042041
      2 C                    -0.017033      -0.033111
      3 C                    -0.277472       0.641404
      4 C                    -0.132407       0.739542
      5 C                     0.013397      -0.124135
      6 N                    -0.206555      -0.002911
      7 H                     0.134929       0.001367
      8 H                     0.131544       0.003579
      9 H                     0.147188      -0.027942
     10 H                     0.138889      -0.030605
     11 H                     0.130435       0.008203
     12 C                    -0.139961      -0.229994
     13 H                     0.140660       0.012561
  --------------------------------------------------------
  Sum of atomic charges =    -0.000000
  Sum of spin   charges =     1.000000

 -----------------------------------------------------------------
                    Cartesian Multipole Moments
 -----------------------------------------------------------------
    Charge (ESU x 10^10)
                -0.0000
    Dipole Moment (Debye)
         X      -0.4196      Y      -2.8618      Z       0.5612
       Tot       2.9463
    Quadrupole Moments (Debye-Ang)
        XX     -38.6308     XY      -3.3753     YY     -45.0473
        XZ       1.4884     YZ       0.3770     ZZ     -41.7087
    Octopole Moments (Debye-Ang^2)
       XXX       0.1742    XXY      -4.7360    XYY      -8.7781
       YYY     -37.9647    XXZ       3.8275    XYZ       1.3459
       YYZ       4.6658    XZZ      -8.7150    YZZ     -10.4981
       ZZZ       7.1408
    Hexadecapole Moments (Debye-Ang^3)
      XXXX    -261.7439   XXXY     -10.7882   XXYY     -88.3838
      XYYY     -25.3527   YYYY    -288.4092   XXXZ      20.4097
      XXYZ      10.0914   XYYZ      11.7358   YYYZ      22.3566
      XXZZ     -74.5245   XYZZ      -3.8364   YYZZ     -72.4068
      XZZZ      20.9856   YZZZ      15.2615   ZZZZ    -189.9085
 -----------------------------------------------------------------
 Mayer SCF Bond Order, atomic valence on the diagonal:

            1           2           3           4           5           6
    1   3.8431348   0.8845793   0.0893997   0.0672411   0.0164913   1.7796728
    2   0.8845793   3.6745925   1.0149885   0.0333306  -0.0993764  -0.0112935
    3   0.0893997   1.0149885   3.7547629   0.1154259   0.9181274   0.0204733
    4   0.0672411   0.0333306   0.1154259   3.5412935   0.9080038   0.0138092
    5   0.0164913  -0.0993764   0.9181274   0.9080038   3.5959552   0.9455312
    6   1.7796728  -0.0112935   0.0204733   0.0138092   0.9455312   2.7533541
    7   0.9775412  -0.0405403   0.0196104   0.0018910   0.0041556  -0.0237526
    8   0.0097577   0.8655151   0.0219797   0.0089514   0.0123025   0.0125800
    9  -0.0007801   0.0248107   0.8806180  -0.0003826   0.0232535   0.0078758
   10   0.0109306  -0.0129422   0.0099088   0.8395089   0.0385616   0.0004545
   11   0.0083788   0.0109530   0.0058419  -0.0012705   0.9248517  -0.0237006
   12  -0.0052968   1.0031097   0.6215178   1.5084085  -0.0920508   0.0257786
   13   0.0052192   0.0014580   0.0368713   0.0463763  -0.0038961   0.0059254
            7           8           9          10          11          12
    1   0.9775412   0.0097577  -0.0007801   0.0109306   0.0083788  -0.0052968
    2  -0.0405403   0.8655151   0.0248107  -0.0129422   0.0109530   1.0031097
    3   0.0196104   0.0219797   0.8806180   0.0099088   0.0058419   0.6215178
    4   0.0018910   0.0089514  -0.0003826   0.8395089  -0.0012705   1.5084085
    5   0.0041556   0.0123025   0.0232535   0.0385616   0.9248517  -0.0920508
    6  -0.0237526   0.0125800   0.0078758   0.0004545  -0.0237006   0.0257786
    7   0.9466249   0.0001167   0.0006134   0.0000679   0.0017002   0.0048869
    8   0.0001167   0.9562668   0.0003327   0.0005651   0.0017671   0.0223020
    9   0.0006134   0.0003327   0.9644854   0.0004728   0.0002423   0.0272049
   10   0.0000679   0.0005651   0.0004728   0.9578343   0.0005165   0.0693191
   11   0.0017002   0.0017671   0.0002423   0.0005165   0.9486934   0.0176483
   12   0.0048869   0.0223020   0.0272049   0.0693191   0.0176483   4.0637856
   13   0.0003343   0.0000968   0.0002239   0.0004706   0.0017647   0.8609575
           13
    1   0.0052192
    2   0.0014580
    3   0.0368713
    4   0.0463763
    5  -0.0038961
    6   0.0059254
    7   0.0003343
    8   0.0000968
    9   0.0002239
   10   0.0004706
   11   0.0017647
   12   0.8609575
   13   0.9558019


Archival summary:
1\1\c8-66\SP\ProcedureUnspecified\6-31+G**\166(2)\hpark21\FriMar409:59:222022FriMar409:59:222022\0\\#,ProcedureUnspecified,6-31+G**,\\0,2\N\C,1,1.28183\H,2,1.08794,1,122.19\C,1,1.5001,2,105.6,3,-174.62,0\H,4,1.08836,1,112.201,2,-159.48,0\C,2,1.51012,1,112.923,3,176.665,0\H,6,1.08719,2,120.699,1,162.568,0\C,6,1.49505,2,102.355,1,24.7617,0\H,8,1.0803,6,131.09,2,144.986,0\C,4,1.52528,1,108.109,2,68.3238,0\H,10,1.0803,4,130.523,1,108.286,0\C,10,1.40216,4,98.615,1,-80.494,0\H,12,1.08673,10,127.637,4,-161.352,0\\\@

 Total job time:  3.63s(wall), 11.51s(cpu) 
 Fri Mar  4 09:59:22 2022

        *************************************************************
        *                                                           *
        *  Thank you very much for using Q-Chem.  Have a nice day.  *
        *                                                           *
        *************************************************************


