
Running Job 1 of 1 irc_product.in
qchem irc_product.in_58838.0 ./irc_product.d/ 1
/home/leeping/opt/qchem/5.0.2-openmp/exe/qcprog.exe_s irc_product.in_58838.0 ./irc_product.d/
Check license passed

                  Welcome to Q-Chem
     A Quantum Leap Into The Future Of Chemistry


 Q-Chem 5.0, Q-Chem, Inc., Pleasanton, CA (2017)

 Yihan Shao,  Zhengting Gan,  E. Epifanovsky,  A. T. B. Gilbert,  M. Wormit,  
 J. Kussmann,  A. W. Lange,  A. Behn,  Jia Deng,  Xintian Feng,  D. Ghosh,  
 M. Goldey,  P. R. Horn,  L. D. Jacobson,  I. Kaliman,  T. Kus,  A. Landau,  
 Jie Liu,  E. I. Proynov,  R. M. Richard,  R. P. Steele,  E. J. Sundstrom,  
 H. L. Woodcock III,  P. M. Zimmerman,  D. Zuev,  B. Albrecht,  E. Alguire,  
 S. A. Baeppler,  D. Barton,  Z. Benda,  Y. A. Bernard,  E. J. Berquist,  
 K. B. Bravaya,  H. Burton,  D. Casanova,  Chun-Min Chang,  Yunqing Chen,  
 A. Chien,  K. D. Closser,  M. P. Coons,  S. Dasgupta,  A. L. Dempwolff,  
 M. Diedenhofen,  Hainam Do,  R. G. Edgar,  Po-Tung Fang,  S. Fatehi,  
 Qingguo Feng,  J. Fosso-Tande,  Qinghui Ge,  A. Ghysels,  G. Gidofalvi,  
 J. Gomes,  J. Gonthier,  A. Gunina,  M. W. D. Hanson-Heine,  
 P. H. P. Harbach,  A. W. Hauser,  J. E. Herr,  E. G. Hohenstein,  
 Z. C. Holden,  Kerwin Hui,  T.-C. Jagau,  Hyunjun Ji,  B. Kaduk,  
 K. Khistyaev,  Jaehoon Kim,  P. Klunzinger,  K. Koh,  D. Kosenkov,  
 L. Koulias,  T. Kowalczyk,  C. M. Krauter,  A. Kunitsa,  Ka Un Lao,  
 A. Laurent,  K. V. Lawler,  Joonho Lee,  D. Lefrancois,  S. Lehtola,  
 D. S. Levine,  Yi-Pei Li,  You-Sheng Lin,  Fenglai Liu,  E. Livshits,  
 A. Luenser,  P. Manohar,  E. Mansoor,  S. F. Manzer,  Shan-Ping Mao,  
 Yuezhi Mao,  N. Mardirossian,  A. V. Marenich,  T. Markovich,  
 L. A. Martinez-Martinez,  S. A. Maurer,  N. J. Mayhall,  S. C. McKenzie,  
 J.-M. Mewes,  A. F. Morrison,  J. W. Mullinax,  K. Nanda,  
 T. S. Nguyen-Beck,  R. Olivares-Amaya,  J. A. Parkhill,  T. M. Perrine,  
 F. Plasser,  S. Prager,  A. Prociuk,  E. Ramos,  D. R. Rehn,  F. Rob,  
 M. Schneider,  N. Sergueev,  S. M. Sharada,  S. Sharma,  D. W. Small,  
 T. Stauch,  T. Stein,  Yu-Chuan Su,  A. J. W. Thom,  A. Tkatchenko,  
 T. Tsuchimochi,  L. Vogt,  O. Vydrov,  M. A. Watson,  J. Wenzel,  
 M. de Wergifosse,  T. A. Wesolowski,  A. White,  J. Witte,  A. Yamada,  
 Jun Yang,  K. Yao,  S. Yeganeh,  S. R. Yost,  Zhi-Qiang You,  A. Zech,  
 Igor Ying Zhang,  Xing Zhang,  Yan Zhao,  Ying Zhu,  B. R. Brooks,  
 G. K. L. Chan,  C. J. Cramer,  M. S. Gordon,  W. J. Hehre,  A. Klamt,  
 M. W. Schmidt,  C. D. Sherrill,  D. G. Truhlar,  A. Aspuru-Guzik,  R. Baer,  
 A. T. Bell,  N. A. Besley,  Jeng-Da Chai,  R. A. DiStasio Jr.,  A. Dreuw,  
 B. D. Dunietz,  T. R. Furlani,  Chao-Ping Hsu,  Yousung Jung,  Jing Kong,  
 D. S. Lambrecht,  WanZhen Liang,  C. Ochsenfeld,  V. A. Rassolov,  
 L. V. Slipchenko,  J. E. Subotnik,  T. Van Voorhis,  J. M. Herbert,  
 A. I. Krylov,  P. M. W. Gill,  M. Head-Gordon

 Contributors to earlier versions of Q-Chem not listed above: 
 R. D. Adamson,  B. Austin,  J. Baker,  G. J. O. Beran,  K. Brandhorst,  
 S. T. Brown,  E. F. C. Byrd,  A. K. Chakraborty,  C.-L. Cheng,  
 Siu Hung Chien,  D. M. Chipman,  D. L. Crittenden,  H. Dachsel,  
 R. J. Doerksen,  A. D. Dutoi,  L. Fusti-Molnar,  W. A. Goddard III,  
 A. Golubeva-Zadorozhnaya,  S. R. Gwaltney,  G. Hawkins,  A. Heyden,  
 S. Hirata,  G. Kedziora,  F. J. Keil,  C. Kelley,  Jihan Kim,  R. A. King,  
 R. Z. Khaliullin,  P. P. Korambath,  W. Kurlancheek,  A. M. Lee,  M. S. Lee,  
 S. V. Levchenko,  Ching Yeh Lin,  D. Liotard,  R. C. Lochan,  I. Lotan,  
 P. E. Maslen,  N. Nair,  D. P. O'Neill,  D. Neuhauser,  E. Neuscamman,  
 C. M. Oana,  R. Olson,  B. Peters,  R. Peverati,  P. A. Pieniazek,  
 Y. M. Rhee,  J. Ritchie,  M. A. Rohrdanz,  E. Rosta,  N. J. Russ,  
 H. F. Schaefer III,  N. E. Schultz,  N. Shenvi,  A. C. Simmonett,  A. Sodt,  
 D. Stuck,  K. S. Thanthiriwatte,  V. Vanovschi,  Tao Wang,  A. Warshel,  
 C. F. Williams,  Q. Wu,  X. Xu,  W. Zhang

 Please cite Q-Chem as follows:
 Y. Shao et al., Mol. Phys. 113, 184-215 (2015)
 DOI: 10.1080/00268976.2014.952696

 Q-Chem 5.0.2 for Intel X86 EM64T Linux

 Parts of Q-Chem use Armadillo 5.200.1 (Boston Tea Smuggler).
 http://arma.sourceforge.net/

 Q-Chem begins on Fri Mar  4 09:51:20 2022  

Host: 
0

     Scratch files written to ./irc_product.d//
 Dec517 15110_ 26548  26544 5633   
Processing $rem in /home/leeping/opt/qchem/5.0.2-openmp/config/preferences.
 MEM_STATIC 2000
 MEM_TOTAL  8000
 SYMMETRY   OFF
 SYM_IGNORE TRUE 

Checking the input file for inconsistencies... 	...done.

--------------------------------------------------------------
User input:
--------------------------------------------------------------
$molecule
0 2
C        1.4849398096    0.6123058407   -0.1105721402
C        0.8881624123   -0.7416194639    0.0133387867
C       -0.3891806233   -0.7036322885   -0.7477046046
C       -1.1564270568    0.5371416062    0.7870898174
C       -0.6603904296    0.8480602863   -0.6202063315
N        0.6610939129    1.5173791322   -0.5034005078
H        2.5165303500    0.8505074702    0.1420375508
H        1.4789169888   -1.6484621524    0.0946325372
H       -0.7306026875   -1.4001950407   -1.5065561110
H       -1.5111754722    1.1848369585    1.5820610578
H       -1.3219624020    1.3611207714   -1.3182672804
C       -0.5352951545   -0.7817988361    0.7734237246
H       -0.7246096476   -1.6356442840    1.4141235010
$end

$rem
method                b3lyp
basis                 6-31+g(d,p)
unrestricted          true
symmetry              off
sym_ignore            true
incdft                false
incfock               0
scf_convergence       8
thresh                14
jobtype               sp
scf_guess             core
scf_guess_mix         5
scf_algorithm         diis
max_scf_cycles        100
$end

--------------------------------------------------------------
 ----------------------------------------------------------------
             Standard Nuclear Orientation (Angstroms)
    I     Atom           X                Y                Z
 ----------------------------------------------------------------
    1      C       1.4849398096     0.6123058407    -0.1105721402
    2      C       0.8881624123    -0.7416194639     0.0133387867
    3      C      -0.3891806233    -0.7036322885    -0.7477046046
    4      C      -1.1564270568     0.5371416062     0.7870898174
    5      C      -0.6603904296     0.8480602863    -0.6202063315
    6      N       0.6610939129     1.5173791322    -0.5034005078
    7      H       2.5165303500     0.8505074702     0.1420375508
    8      H       1.4789169888    -1.6484621524     0.0946325372
    9      H      -0.7306026875    -1.4001950407    -1.5065561110
   10      H      -1.5111754722     1.1848369585     1.5820610578
   11      H      -1.3219624020     1.3611207714    -1.3182672804
   12      C      -0.5352951545    -0.7817988361     0.7734237246
   13      H      -0.7246096476    -1.6356442840     1.4141235010
 ----------------------------------------------------------------
 Nuclear Repulsion Energy =   281.5968209561 hartrees
 There are       25 alpha and       24 beta electrons
 Requested basis set is 6-31+G(d,p)
 There are 53 shells and 163 basis functions

 Total QAlloc Memory Limit   8000 MB
 Mega-Array Size      1956 MB
 MEM_STATIC part      2000 MB

                       Distance Matrix (Angstroms)
             C (  1)   C (  2)   C (  3)   C (  4)   C (  5)   N (  6)
   C (  2)  1.484793
   C (  3)  2.376964  1.487358
   C (  4)  2.790746  2.532640  2.117494
   C (  5)  2.217600  2.307916  1.580367  1.524206
   N (  6)  1.285377  2.328445  2.468938  2.435080  1.485918
   H (  7)  1.088453  2.281012  3.413231  3.742313  3.267085  2.074597
   H (  8)  2.270070  1.085340  2.256551  3.493050  3.364559  3.324008
   H (  9)  3.302659  2.316075  1.085184  3.032394  2.417684  3.384580
   H ( 10)  3.488482  3.453831  3.202030  1.085051  2.384793  3.029602
   H ( 11)  3.146101  3.328565  2.336414  2.266908  1.090045  2.149636
   C ( 12)  2.608894  1.614179  1.530128  1.457942  2.148091  2.889264
   H ( 13)  3.501440  2.315710  2.377953  2.302311  3.211138  3.941907
             H (  7)   H (  8)   H (  9)   H ( 10)   H ( 11)   C ( 12)
   H (  8)  2.706241
   H (  9)  4.281051  2.739967
   H ( 10)  4.290438  4.379575  4.102589
   H ( 11)  4.138507  4.347275  2.830199  2.911835
   C ( 12)  3.518055  2.295411  2.370415  2.339635  3.096146
   H ( 13)  4.278334  2.568414  2.930161  2.932917  4.099194  1.084153

 
 A cutoff of  1.0D-14 yielded   1405 shell pairs
 There are     13517 function pairs
 
 -------------------------------------------------------
 OpenMP Integral Computing Module                       
 Release: version 1.0, May 2013, Q-Chem Inc. Pittsburgh 
 -------------------------------------------------------
 Integral Job Info:
 Integral job number is                      11
 Integral operator is                         1
 short-range coefficients                     0
 long-range coefficients              100000000
 Omega coefficients                           0
 if combine SR and LR in K                    0
 Integral screening is                        0
 Integral computing path is                   2
 max size of driver memory is            800000
 size of driver memory is                593474
 size of scratch memory is              2361544
 max col of scratch BK array               1296
 max len of scratch array in speh3          155
 max len of scratch index in speh4           18
 max int batch size is                      520
 min int batch size is                       52
 fixed nKL is                                52
 max L of basis functions is                  2
 order of int derivative is                   0
 number of shells is                         53
 number of basis is                         163
 number of cartesian basis is               163
 number of contracted shell pairs          1405
 number of primitive shell pairs           4835
 maxK2 (contraction) of shell pair           36
 max number of K2 of shell pair               1
 max number of CS2 of shell pair            126
 max number of PS2 of shell pair            708
 mem total for path MDJ                  535308
 -------------------------------------------------------
 Smallest overlap matrix eigenvalue = 1.89E-05

 Scale SEOQF with 1.000000e-01/1.000000e-01/1.000000e-01

 Standard Electronic Orientation quadrupole field applied
 Nucleus-field energy     =     0.0000000025 hartrees
 Guess MOs from core Hamiltonian diagonalization
 Mixing HOMO and LUMO in initial guess
 Adding  50% of the LUMO to the HOMO
 An unrestricted hybrid HF-DFT SCF calculation will be
 performed using Pulay DIIS extrapolation
 Exchange:     0.2000 Hartree-Fock + 0.0800 Slater + 0.7200 B88
 Correlation:  0.1900 VWN1RPA + 0.8100 LYP
 Using SG-1 standard quadrature grid
 SCF converges when DIIS error is below 1.0E-08
 using 4 threads for integral computing
 -------------------------------------------------------
 OpenMP Integral computing Module                
 Release: version 1.0, May 2013, Q-Chem Inc. Pittsburgh 
 -------------------------------------------------------
 -------------------------------------------------------
 OpenMP BLAS3 based DFT computing Module                
 Release: version 1.0, May 2013, Q-Chem Inc. Pittsburgh 
 -------------------------------------------------------
 ---------------------------------------
  Cycle       Energy         DIIS Error
 ---------------------------------------
    1    -236.5006304820      9.81E-02
    2    -213.9446675183      7.09E-02
    3    -265.0254011143      6.56E-02
    4    -268.6427084254      6.25E-02
    5    -273.6878213505      5.25E-02
    6    -283.5598556648      2.60E-02
    7    -285.7328127590      1.70E-02
    8    -286.2022771173      1.17E-02
    9    -286.7475953941      5.63E-03
   10    -286.8388959333      2.41E-03
   11    -286.8566679482      9.81E-04
   12    -286.8598262786      2.53E-04
   13    -286.8601849659      4.52E-05
   14    -286.8602160973      2.02E-05
   15    -286.8602201928      1.10E-05
   16    -286.8602215129      3.43E-06
   17    -286.8602217331      6.94E-07
   18    -286.8602217639      2.90E-07
   19    -286.8602217734      1.68E-07
   20    -286.8602217791      6.15E-08
   21    -286.8602217845      2.41E-08
   22    -286.8602217857      1.10E-08
   23    -286.8602217860      3.14E-09 Convergence criterion met
 ---------------------------------------
 <S^2> = 0.7557
 SCF time:  CPU 115.11 s  wall 29.11 s
 SCF   energy in the final basis set = -286.86022179
 Total energy in the final basis set = -286.86022179
 
 --------------------------------------------------------------
 
                    Orbital Energies (a.u.)
 --------------------------------------------------------------
 
 Alpha MOs
 -- Occupied --
-14.331 -10.230 -10.230 -10.224 -10.222 -10.219 -10.211  -0.974
 -0.866  -0.757  -0.667  -0.618  -0.581  -0.545  -0.528  -0.473
 -0.441  -0.421  -0.398  -0.371  -0.346  -0.315  -0.274  -0.268
 -0.193
 -- Virtual --
 -0.019   0.001   0.017   0.021   0.026   0.046   0.048   0.063
  0.068   0.075   0.086   0.097   0.102   0.106   0.113   0.117
  0.120   0.133   0.153   0.165   0.167   0.173   0.181   0.186
  0.187   0.197   0.207   0.214   0.226   0.238   0.249   0.253
  0.261   0.271   0.280   0.294   0.299   0.314   0.326   0.335
  0.359   0.388   0.440   0.453   0.614   0.650   0.668   0.698
  0.718   0.724   0.732   0.745   0.748   0.759   0.785   0.792
  0.805   0.813   0.849   0.880   0.898   0.912   0.934   0.980
  0.986   0.999   1.032   1.047   1.087   1.128   1.146   1.152
  1.202   1.278   1.319   1.359   1.413   1.438   1.471   1.499
  1.569   1.587   1.638   1.669   1.749   1.760   1.810   1.841
  1.890   1.923   1.949   1.969   2.002   2.023   2.083   2.155
  2.180   2.189   2.260   2.297   2.332   2.348   2.378   2.402
  2.415   2.447   2.479   2.482   2.489   2.515   2.534   2.546
  2.550   2.603   2.641   2.666   2.699   2.737   2.757   2.803
  2.817   2.881   2.967   3.045   3.106   3.271   3.324   3.362
  3.473   3.621   3.659   4.157   4.365   4.485   4.603   4.661
  4.665   4.883
 
 Beta MOs
 -- Occupied --
-14.331 -10.231 -10.230 -10.225 -10.220 -10.217 -10.198  -0.970
 -0.862  -0.747  -0.657  -0.612  -0.577  -0.542  -0.517  -0.470
 -0.436  -0.416  -0.394  -0.368  -0.334  -0.306  -0.269  -0.266
 -- Virtual --
 -0.073  -0.012   0.002   0.018   0.023   0.026   0.046   0.049
  0.065   0.068   0.080   0.087   0.099   0.102   0.107   0.116
  0.117   0.123   0.135   0.155   0.167   0.168   0.175   0.182
  0.187   0.189   0.200   0.211   0.215   0.234   0.239   0.251
  0.255   0.264   0.272   0.284   0.298   0.301   0.319   0.329
  0.337   0.362   0.390   0.449   0.455   0.617   0.664   0.674
  0.701   0.725   0.733   0.734   0.753   0.753   0.772   0.794
  0.798   0.811   0.819   0.851   0.882   0.900   0.914   0.938
  0.982   0.989   1.003   1.034   1.049   1.090   1.130   1.152
  1.163   1.203   1.283   1.324   1.362   1.416   1.446   1.480
  1.506   1.574   1.591   1.640   1.672   1.752   1.773   1.818
  1.850   1.901   1.932   1.955   1.979   2.008   2.027   2.092
  2.161   2.185   2.201   2.263   2.299   2.334   2.351   2.382
  2.408   2.420   2.452   2.482   2.487   2.500   2.519   2.540
  2.554   2.560   2.608   2.648   2.668   2.702   2.740   2.763
  2.807   2.820   2.884   2.969   3.049   3.107   3.272   3.327
  3.365   3.478   3.624   3.662   4.159   4.373   4.498   4.605
  4.665   4.670   4.888
 --------------------------------------------------------------
 
          Ground-State Mulliken Net Atomic Charges

     Atom                 Charge (a.u.)    Spin (a.u.)
  --------------------------------------------------------
      1 C                    -0.091184       0.042399
      2 C                    -0.098423       0.110404
      3 C                    -0.125204       0.066037
      4 C                    -0.074493       1.021056
      5 C                    -0.075888      -0.124260
      6 N                    -0.210173       0.030017
      7 H                     0.132404       0.004600
      8 H                     0.137934       0.001312
      9 H                     0.133108      -0.000350
     10 H                     0.130597      -0.024384
     11 H                     0.135286       0.018707
     12 C                    -0.134401      -0.150157
     13 H                     0.140438       0.004621
  --------------------------------------------------------
  Sum of atomic charges =     0.000000
  Sum of spin   charges =     1.000000

 -----------------------------------------------------------------
                    Cartesian Multipole Moments
 -----------------------------------------------------------------
    Charge (ESU x 10^10)
                 0.0000
    Dipole Moment (Debye)
         X      -0.1619      Y      -2.7009      Z       0.4424
       Tot       2.7417
    Quadrupole Moments (Debye-Ang)
        XX     -39.6608     XY      -2.7815     YY     -44.5629
        XZ       1.4472     YZ       1.3566     ZZ     -40.8490
    Octopole Moments (Debye-Ang^2)
       XXX       7.6876    XXY      -5.1204    XYY      -7.2823
       YYY     -37.6292    XXZ       2.4738    XYZ       1.4472
       YYZ       5.7792    XZZ      -6.8478    YZZ      -8.3371
       ZZZ       5.9208
    Hexadecapole Moments (Debye-Ang^3)
      XXXX    -276.9830   XXXY      -7.9833   XXYY     -90.1421
      XYYY     -25.7206   YYYY    -299.6166   XXXZ      24.7340
      XXYZ       8.0592   XYYZ       9.8321   YYYZ      22.9544
      XXZZ     -73.7516   XYZZ      -5.8220   YYZZ     -69.1436
      XZZZ      19.1614   YZZZ      19.6028   ZZZZ    -158.7010
 -----------------------------------------------------------------
Archival summary:
1\1\c8-66\SP\ProcedureUnspecified\6-31+G**\166(2)\hpark21\FriMar409:51:502022FriMar409:51:502022\0\\#,ProcedureUnspecified,6-31+G**,\\0,2\N\C,1,1.28538\H,2,1.08845,1,121.62\C,2,1.48479,1,114.203,3,177.677,0\H,4,1.08534,2,123.324,1,164.626,0\C,1,1.48592,2,106.073,3,-174.54,0\H,6,1.09004,1,112.215,2,-155.808,0\C,4,1.48736,2,106.212,1,16.6186,0\H,8,1.08518,4,127.706,2,129.444,0\C,6,1.52421,1,107.983,2,70.659,0\H,10,1.08505,6,131.384,1,70.3644,0\C,10,1.45794,6,92.134,1,-91.076,0\H,12,1.08415,10,129.238,6,-162.85,0\\\@

 Total job time:  29.88s(wall), 116.66s(cpu) 
 Fri Mar  4 09:51:50 2022

        *************************************************************
        *                                                           *
        *  Thank you very much for using Q-Chem.  Have a nice day.  *
        *                                                           *
        *************************************************************


