
Running Job 1 of 1 qcfsm.in
qchem qcfsm.in_51769.0 ./qcfsm.d/ 1
/home/leeping/opt/qchem/5.0.2-openmp/exe/qcprog.exe_s qcfsm.in_51769.0 ./qcfsm.d/
Check license passed

                  Welcome to Q-Chem
     A Quantum Leap Into The Future Of Chemistry


 Q-Chem 5.0, Q-Chem, Inc., Pleasanton, CA (2017)

 Yihan Shao,  Zhengting Gan,  E. Epifanovsky,  A. T. B. Gilbert,  M. Wormit,  
 J. Kussmann,  A. W. Lange,  A. Behn,  Jia Deng,  Xintian Feng,  D. Ghosh,  
 M. Goldey,  P. R. Horn,  L. D. Jacobson,  I. Kaliman,  T. Kus,  A. Landau,  
 Jie Liu,  E. I. Proynov,  R. M. Richard,  R. P. Steele,  E. J. Sundstrom,  
 H. L. Woodcock III,  P. M. Zimmerman,  D. Zuev,  B. Albrecht,  E. Alguire,  
 S. A. Baeppler,  D. Barton,  Z. Benda,  Y. A. Bernard,  E. J. Berquist,  
 K. B. Bravaya,  H. Burton,  D. Casanova,  Chun-Min Chang,  Yunqing Chen,  
 A. Chien,  K. D. Closser,  M. P. Coons,  S. Dasgupta,  A. L. Dempwolff,  
 M. Diedenhofen,  Hainam Do,  R. G. Edgar,  Po-Tung Fang,  S. Fatehi,  
 Qingguo Feng,  J. Fosso-Tande,  Qinghui Ge,  A. Ghysels,  G. Gidofalvi,  
 J. Gomes,  J. Gonthier,  A. Gunina,  M. W. D. Hanson-Heine,  
 P. H. P. Harbach,  A. W. Hauser,  J. E. Herr,  E. G. Hohenstein,  
 Z. C. Holden,  Kerwin Hui,  T.-C. Jagau,  Hyunjun Ji,  B. Kaduk,  
 K. Khistyaev,  Jaehoon Kim,  P. Klunzinger,  K. Koh,  D. Kosenkov,  
 L. Koulias,  T. Kowalczyk,  C. M. Krauter,  A. Kunitsa,  Ka Un Lao,  
 A. Laurent,  K. V. Lawler,  Joonho Lee,  D. Lefrancois,  S. Lehtola,  
 D. S. Levine,  Yi-Pei Li,  You-Sheng Lin,  Fenglai Liu,  E. Livshits,  
 A. Luenser,  P. Manohar,  E. Mansoor,  S. F. Manzer,  Shan-Ping Mao,  
 Yuezhi Mao,  N. Mardirossian,  A. V. Marenich,  T. Markovich,  
 L. A. Martinez-Martinez,  S. A. Maurer,  N. J. Mayhall,  S. C. McKenzie,  
 J.-M. Mewes,  A. F. Morrison,  J. W. Mullinax,  K. Nanda,  
 T. S. Nguyen-Beck,  R. Olivares-Amaya,  J. A. Parkhill,  T. M. Perrine,  
 F. Plasser,  S. Prager,  A. Prociuk,  E. Ramos,  D. R. Rehn,  F. Rob,  
 M. Schneider,  N. Sergueev,  S. M. Sharada,  S. Sharma,  D. W. Small,  
 T. Stauch,  T. Stein,  Yu-Chuan Su,  A. J. W. Thom,  A. Tkatchenko,  
 T. Tsuchimochi,  L. Vogt,  O. Vydrov,  M. A. Watson,  J. Wenzel,  
 M. de Wergifosse,  T. A. Wesolowski,  A. White,  J. Witte,  A. Yamada,  
 Jun Yang,  K. Yao,  S. Yeganeh,  S. R. Yost,  Zhi-Qiang You,  A. Zech,  
 Igor Ying Zhang,  Xing Zhang,  Yan Zhao,  Ying Zhu,  B. R. Brooks,  
 G. K. L. Chan,  C. J. Cramer,  M. S. Gordon,  W. J. Hehre,  A. Klamt,  
 M. W. Schmidt,  C. D. Sherrill,  D. G. Truhlar,  A. Aspuru-Guzik,  R. Baer,  
 A. T. Bell,  N. A. Besley,  Jeng-Da Chai,  R. A. DiStasio Jr.,  A. Dreuw,  
 B. D. Dunietz,  T. R. Furlani,  Chao-Ping Hsu,  Yousung Jung,  Jing Kong,  
 D. S. Lambrecht,  WanZhen Liang,  C. Ochsenfeld,  V. A. Rassolov,  
 L. V. Slipchenko,  J. E. Subotnik,  T. Van Voorhis,  J. M. Herbert,  
 A. I. Krylov,  P. M. W. Gill,  M. Head-Gordon

 Contributors to earlier versions of Q-Chem not listed above: 
 R. D. Adamson,  B. Austin,  J. Baker,  G. J. O. Beran,  K. Brandhorst,  
 S. T. Brown,  E. F. C. Byrd,  A. K. Chakraborty,  C.-L. Cheng,  
 Siu Hung Chien,  D. M. Chipman,  D. L. Crittenden,  H. Dachsel,  
 R. J. Doerksen,  A. D. Dutoi,  L. Fusti-Molnar,  W. A. Goddard III,  
 A. Golubeva-Zadorozhnaya,  S. R. Gwaltney,  G. Hawkins,  A. Heyden,  
 S. Hirata,  G. Kedziora,  F. J. Keil,  C. Kelley,  Jihan Kim,  R. A. King,  
 R. Z. Khaliullin,  P. P. Korambath,  W. Kurlancheek,  A. M. Lee,  M. S. Lee,  
 S. V. Levchenko,  Ching Yeh Lin,  D. Liotard,  R. C. Lochan,  I. Lotan,  
 P. E. Maslen,  N. Nair,  D. P. O'Neill,  D. Neuhauser,  E. Neuscamman,  
 C. M. Oana,  R. Olson,  B. Peters,  R. Peverati,  P. A. Pieniazek,  
 Y. M. Rhee,  J. Ritchie,  M. A. Rohrdanz,  E. Rosta,  N. J. Russ,  
 H. F. Schaefer III,  N. E. Schultz,  N. Shenvi,  A. C. Simmonett,  A. Sodt,  
 D. Stuck,  K. S. Thanthiriwatte,  V. Vanovschi,  Tao Wang,  A. Warshel,  
 C. F. Williams,  Q. Wu,  X. Xu,  W. Zhang

 Please cite Q-Chem as follows:
 Y. Shao et al., Mol. Phys. 113, 184-215 (2015)
 DOI: 10.1080/00268976.2014.952696

 Q-Chem 5.0.2 for Intel X86 EM64T Linux

 Parts of Q-Chem use Armadillo 5.200.1 (Boston Tea Smuggler).
 http://arma.sourceforge.net/

 Q-Chem begins on Fri Mar  4 05:48:05 2022  

Host: 
0

     Scratch files written to ./qcfsm.d//
 Dec517 15110_ 26548  26544 5633   
Processing $rem in /home/leeping/opt/qchem/5.0.2-openmp/config/preferences.
 MEM_STATIC 2000
 MEM_TOTAL  8000
 SYMMETRY   OFF
 SYM_IGNORE TRUE 
 Now reading second FSM geometry

Checking the input file for inconsistencies... 	...done.

--------------------------------------------------------------
User input:
--------------------------------------------------------------
$molecule
0 2
C        1.5442260122    0.5858170099   -0.1648227007
C        0.8933928188   -0.7433281533    0.0274524181
C       -0.4116294351   -0.6568399607   -0.6947308194
C       -1.0190626743    0.6293213101    0.8813309350
C       -0.6034654431    0.9023794952   -0.5700925198
N        0.7480965927    1.5150152936   -0.5418434138
H        2.5985034105    0.7806894678    0.0288947196
H        1.4558011547   -1.6713749082    0.0632118031
H       -0.8124854917   -1.3478788806   -1.4307367237
H       -1.9839980831    0.8769962878    1.3090357089
H       -1.2898439338    1.4327961462   -1.2297459986
C       -0.4462241013   -0.7297048709    0.8396281663
H       -0.6733108267   -1.5738882364    1.4824184246
****
C        1.6494487275    0.6054411519   -0.2615320750
C        1.2317930440   -0.7326055633   -0.3357574464
C       -0.2565087456   -0.7499215861   -0.4551801250
C       -1.3108294902    0.5414139655    0.8580944143
C       -0.5684004711    0.7996665876   -0.4533208391
N        0.6911363387    1.5243658134   -0.3218646161
H        2.6842795910    0.9213727104   -0.1365103474
H        1.8785702535   -1.6009209963   -0.2732544161
H       -0.6488940997   -1.3698362146   -1.2719798781
H       -1.8152971487    1.2179822822    1.5413063884
H       -1.1704008222    1.2038596386   -1.2764390577
C       -1.0613004182   -0.7724592818    0.8551761103
H       -1.3035967591   -1.5883585073    1.5312618878
$end

$rem
method                b3lyp
basis                 6-31g(d)
unrestricted          true
symmetry              off
sym_ignore            true
incdft                false
incfock               0
scf_convergence       8
thresh                14
jobtype               fsm
scf_guess             core
scf_guess_mix         5
scf_algorithm         diis
max_scf_cycles        100
fsm_nnode             21
fsm_ngrad             6
fsm_mode              2
fsm_opt_mode          2
$end

--------------------------------------------------------------
 ----------------------------------------------------------------
             Standard Nuclear Orientation (Angstroms)
    I     Atom           X                Y                Z
 ----------------------------------------------------------------
    1      C       1.5442260122     0.5858170099    -0.1648227007
    2      C       0.8933928188    -0.7433281533     0.0274524181
    3      C      -0.4116294351    -0.6568399607    -0.6947308194
    4      C      -1.0190626743     0.6293213101     0.8813309350
    5      C      -0.6034654431     0.9023794952    -0.5700925198
    6      N       0.7480965927     1.5150152936    -0.5418434138
    7      H       2.5985034105     0.7806894678     0.0288947196
    8      H       1.4558011547    -1.6713749082     0.0632118031
    9      H      -0.8124854917    -1.3478788806    -1.4307367237
   10      H      -1.9839980831     0.8769962878     1.3090357089
   11      H      -1.2898439338     1.4327961462    -1.2297459986
   12      C      -0.4462241013    -0.7297048709     0.8396281663
   13      H      -0.6733108267    -1.5738882364     1.4824184246
 ----------------------------------------------------------------
 Nuclear Repulsion Energy =   281.7653487887 hartrees
 There are       25 alpha and       24 beta electrons
 Requested basis set is 6-31G(d)
 There are 40 shells and 117 basis functions

 Total QAlloc Memory Limit   8000 MB
 Mega-Array Size      1956 MB
 MEM_STATIC part      2000 MB
 beginning FSman 

*******************************************
*******************************************
******** Starting FSM Calculation *********
*******************************************
*******************************************
-FSM parameters:
 Maximum displacement of each coordinate during optimization (Angstrom)      0.05
 Maximum optimization steps for each new node                                6
 The scaling factor for optimization (hartrees/Angstrom^2)                   1.75
 The number of LST interpolations used for reparameterization                100
-Aligning product structure to maximum coincidence with the reactant structure
 Total R --> P Distance 1.407001
 New node interpolation distace (Angstroms): 0.07
-Performing force calculation on reactant structure in state:0
 ----------------------------------------------------------------
             Standard Nuclear Orientation (Angstroms)
    I     Atom           X                Y                Z
 ----------------------------------------------------------------
    1      C       1.5442260122     0.5858170099    -0.1648227007
    2      C       0.8933928188    -0.7433281533     0.0274524181
    3      C      -0.4116294351    -0.6568399607    -0.6947308194
    4      C      -1.0190626743     0.6293213101     0.8813309350
    5      C      -0.6034654431     0.9023794952    -0.5700925198
    6      N       0.7480965927     1.5150152936    -0.5418434138
    7      H       2.5985034105     0.7806894678     0.0288947196
    8      H       1.4558011547    -1.6713749082     0.0632118031
    9      H      -0.8124854917    -1.3478788806    -1.4307367237
   10      H      -1.9839980831     0.8769962878     1.3090357089
   11      H      -1.2898439338     1.4327961462    -1.2297459986
   12      C      -0.4462241013    -0.7297048709     0.8396281663
   13      H      -0.6733108267    -1.5738882364     1.4824184246
 ----------------------------------------------------------------
 Nuclear Repulsion Energy =   281.7653487887 hartrees
 There are       25 alpha and       24 beta electrons

                       Distance Matrix (Angstroms)
             C (  1)   C (  2)   C (  3)   C (  4)   C (  5)   N (  6)
   C (  2)  1.492374
   C (  3)  2.377051  1.494025
   C (  4)  2.768895  2.504149  2.123007
   C (  5)  2.208401  2.303475  1.575913  1.534246
   N (  6)  1.280381  2.333522  2.466839  2.435720  1.484197
   H (  7)  1.089496  2.286927  3.413360  3.719724  3.259785  2.070986
   H (  8)  2.270404  1.085750  2.256337  3.476704  3.356466  3.319642
   H (  9)  3.300880  2.324181  1.086244  3.049205  2.418276  3.379602
   H ( 10)  3.834763  3.542215  2.973227  1.084147  2.331874  3.361125
   H ( 11)  3.143786  3.329052  2.328966  2.274981  1.089771  2.152480
   C ( 12)  2.588708  1.566649  1.536478  1.475410  2.162345  2.893723
   H ( 13)  3.506451  2.293756  2.376854  2.309758  3.217077  3.957191
             H (  7)   H (  8)   H (  9)   H ( 10)   H ( 11)   C ( 12)
   H (  8)  2.705470
   H (  9)  4.277403  2.735262
   H ( 10)  4.758924  4.458530  3.718718
   H ( 11)  4.138679  4.341219  2.828502  2.690014
   C ( 12)  3.494130  2.259926  2.381353  2.273011  3.109729
   H ( 13)  4.285036  2.560619  2.925222  2.784744  4.095864  1.085078

 
 Requested basis set is 6-31G(d)
 There are 40 shells and 117 basis functions
 A cutoff of  1.0D-14 yielded    811 shell pairs
 There are      7083 function pairs
 
 -------------------------------------------------------
 OpenMP Integral Computing Module                       
 Release: version 1.0, May 2013, Q-Chem Inc. Pittsburgh 
 -------------------------------------------------------
 Integral Job Info:
 Integral job number is                      11
 Integral operator is                         1
 short-range coefficients                     0
 long-range coefficients              100000000
 Omega coefficients                           0
 if combine SR and LR in K                    0
 Integral screening is                        0
 Integral computing path is                   2
 max size of driver memory is            800000
 size of driver memory is                593474
 size of scratch memory is              2361544
 max col of scratch BK array               1296
 max len of scratch array in speh3          155
 max len of scratch index in speh4           18
 max int batch size is                      520
 min int batch size is                       52
 fixed nKL is                                52
 max L of basis functions is                  2
 order of int derivative is                   0
 number of shells is                         40
 number of basis is                         117
 number of cartesian basis is               117
 number of contracted shell pairs           811
 number of primitive shell pairs           3597
 maxK2 (contraction) of shell pair           36
 max number of K2 of shell pair               1
 max number of CS2 of shell pair             84
 max number of PS2 of shell pair            414
 mem total for path MDJ                  535308
 -------------------------------------------------------
 Smallest overlap matrix eigenvalue = 1.32E-03

 Scale SEOQF with 1.000000e-01/1.000000e-01/1.000000e+00

 Standard Electronic Orientation quadrupole field applied
 Nucleus-field energy     =    -0.0000000201 hartrees
 Guess MOs from core Hamiltonian diagonalization
 Mixing HOMO and LUMO in initial guess
 Adding  50% of the LUMO to the HOMO
 An unrestricted hybrid HF-DFT SCF calculation will be
 performed using Pulay DIIS extrapolation
 Exchange:     0.2000 Hartree-Fock + 0.0800 Slater + 0.7200 B88
 Correlation:  0.1900 VWN1RPA + 0.8100 LYP
 Using SG-1 standard quadrature grid
 SCF converges when DIIS error is below 1.0E-08
 using 4 threads for integral computing
 -------------------------------------------------------
 OpenMP Integral computing Module                
 Release: version 1.0, May 2013, Q-Chem Inc. Pittsburgh 
 -------------------------------------------------------
 -------------------------------------------------------
 OpenMP BLAS3 based DFT computing Module                
 Release: version 1.0, May 2013, Q-Chem Inc. Pittsburgh 
 -------------------------------------------------------
 ---------------------------------------
  Cycle       Energy         DIIS Error
 ---------------------------------------
    1    -236.8147850885      1.34E-01
    2    -233.5666199171      1.04E-01
    3    -266.7857495977      8.37E-02
    4    -270.6300407630      8.40E-02
    5    -283.1211568393      4.01E-02
    6    -285.8706450831      2.32E-02
    7    -286.3833969468      1.32E-02
    8    -286.7241398648      7.87E-03
    9    -286.8206483244      2.69E-03
   10    -286.8339550020      1.16E-03
   11    -286.8363286387      1.59E-04
   12    -286.8364762637      7.73E-05
   13    -286.8364994469      3.45E-05
   14    -286.8365041923      8.54E-06
   15    -286.8365050067      3.40E-06
   16    -286.8365051201      1.11E-06
   17    -286.8365051295      5.37E-07
   18    -286.8365051329      1.12E-07
   19    -286.8365051340      2.48E-08
   20    -286.8365051346      9.83E-09 Convergence criterion met
 ---------------------------------------
 <S^2> = 0.7545
 SCF time:  CPU 48.22 s  wall 12.52 s
 SCF   energy in the final basis set = -286.83650513
 Total energy in the final basis set = -286.83650513
 
 --------------------------------------------------------------
 
                    Orbital Energies (a.u.)
 --------------------------------------------------------------
 
 Alpha MOs
 -- Occupied --
-14.317 -10.220 -10.220 -10.215 -10.212 -10.211 -10.194  -0.964
 -0.858  -0.746  -0.657  -0.608  -0.574  -0.540  -0.512  -0.463
 -0.429  -0.412  -0.388  -0.366  -0.329  -0.315  -0.266  -0.256
 -0.174
 -- Virtual --
 -0.002   0.090   0.109   0.136   0.145   0.151   0.156   0.167
  0.182   0.200   0.214   0.244   0.277   0.326   0.369   0.378
  0.485   0.517   0.527   0.550   0.557   0.573   0.587   0.601
  0.617   0.620   0.668   0.677   0.704   0.754   0.776   0.791
  0.816   0.830   0.837   0.842   0.853   0.881   0.905   0.935
  0.946   1.018   1.072   1.098   1.155   1.245   1.280   1.366
  1.438   1.454   1.504   1.544   1.613   1.652   1.671   1.707
  1.796   1.810   1.872   1.886   1.914   1.937   2.002   2.020
  2.060   2.153   2.181   2.228   2.257   2.291   2.368   2.420
  2.474   2.484   2.509   2.523   2.580   2.616   2.619   2.683
  2.734   2.789   2.832   2.929   2.959   3.951   4.131   4.240
  4.356   4.474   4.518   4.656
 
 Beta MOs
 -- Occupied --
-14.317 -10.221 -10.220 -10.216 -10.211 -10.210 -10.181  -0.961
 -0.854  -0.737  -0.646  -0.602  -0.571  -0.538  -0.501  -0.461
 -0.425  -0.406  -0.384  -0.362  -0.317  -0.303  -0.263  -0.254
 -- Virtual --
 -0.036   0.004   0.092   0.114   0.139   0.149   0.155   0.158
  0.171   0.186   0.202   0.219   0.247   0.284   0.329   0.374
  0.387   0.487   0.524   0.542   0.553   0.562   0.576   0.593
  0.613   0.620   0.642   0.671   0.688   0.707   0.758   0.779
  0.794   0.817   0.836   0.838   0.843   0.856   0.884   0.908
  0.943   0.948   1.025   1.080   1.111   1.156   1.252   1.285
  1.369   1.445   1.458   1.511   1.548   1.617   1.656   1.681
  1.713   1.799   1.824   1.881   1.893   1.929   1.942   2.009
  2.029   2.074   2.160   2.195   2.234   2.268   2.297   2.382
  2.432   2.482   2.489   2.518   2.528   2.586   2.620   2.625
  2.687   2.741   2.793   2.840   2.931   2.960   3.953   4.137
  4.253   4.365   4.479   4.522   4.659
 --------------------------------------------------------------
 
          Ground-State Mulliken Net Atomic Charges

     Atom                 Charge (a.u.)    Spin (a.u.)
  --------------------------------------------------------
      1 C                     0.096365       0.006729
      2 C                    -0.192055       0.036604
      3 C                    -0.107239       0.107757
      4 C                    -0.071371       0.952318
      5 C                    -0.099683      -0.043359
      6 N                    -0.337207       0.012543
      7 H                     0.143755       0.003961
      8 H                     0.148657       0.001443
      9 H                     0.149539       0.008548
     10 H                     0.139503      -0.039473
     11 H                     0.141908       0.005420
     12 C                    -0.161806      -0.052859
     13 H                     0.149633       0.000368
  --------------------------------------------------------
  Sum of atomic charges =    -0.000000
  Sum of spin   charges =     1.000000

 -----------------------------------------------------------------
                    Cartesian Multipole Moments
 -----------------------------------------------------------------
    Charge (ESU x 10^10)
                 0.0000
    Dipole Moment (Debye)
         X      -0.6274      Y      -2.7632      Z       0.1060
       Tot       2.8355
    Quadrupole Moments (Debye-Ang)
        XX     -36.7839     XY      -2.5626     YY     -43.5418
        XZ       0.9771     YZ       0.4423     ZZ     -40.9461
    Octopole Moments (Debye-Ang^2)
       XXX      -3.5619    XXY      -5.6276    XYY      -8.3278
       YYY     -37.1625    XXZ       2.7598    XYZ       1.8638
       YYZ       3.3131    XZZ      -7.6213    YZZ     -10.4151
       ZZZ       1.7692
    Hexadecapole Moments (Debye-Ang^3)
      XXXX    -250.7079   XXXY      -9.8446   XXYY     -86.6827
      XYYY     -22.5299   YYYY    -276.5728   XXXZ      20.2704
      XXYZ       8.8113   XYYZ      12.0489   YYYZ      22.4330
      XXZZ     -69.7204   XYZZ      -3.4932   YYZZ     -67.5914
      XZZZ      23.0109   YZZZ      17.6835   ZZZZ    -154.7401
 -----------------------------------------------------------------
 Calculating analytic gradient of the SCF energy
 Gradient of SCF Energy
            1           2           3           4           5           6
    1   0.0000552  -0.0000271   0.0000100  -0.0000024   0.0000243   0.0000040
    2  -0.0000240  -0.0000082  -0.0000301   0.0000311   0.0000564  -0.0000134
    3  -0.0000894   0.0000532   0.0000349   0.0000561  -0.0000516   0.0000866
            7           8           9          10          11          12
    1   0.0000042  -0.0000064  -0.0000076  -0.0000499   0.0000151   0.0000012
    2  -0.0000351  -0.0000112   0.0000549  -0.0000087   0.0000222  -0.0000269
    3   0.0000496   0.0000001  -0.0000428  -0.0000473   0.0000089  -0.0000401
           13
    1  -0.0000206
    2  -0.0000069
    3  -0.0000182
 Max gradient component =       8.936E-05
 RMS gradient           =       3.695E-05
 Gradient time:  CPU 7.82 s  wall 2.00 s
-Performing force calculation on product structure in state0
 ----------------------------------------------------------------
             Standard Nuclear Orientation (Angstroms)
    I     Atom           X                Y                Z
 ----------------------------------------------------------------
    1      C       1.6494589632     0.6054160548    -0.2615256175
    2      C       1.2317789301    -0.7326217935    -0.3357738114
    3      C      -0.2565234882    -0.7499088154    -0.4551928566
    4      C      -1.3108174438     0.5414222812     0.8581075694
    5      C      -0.5683872371     0.7996849545    -0.4533050323
    6      N       0.6911630022     1.5243590934    -0.3218391861
    7      H       2.6842958606     0.9213266977    -0.1365009816
    8      H       1.8785406311    -1.6009500189    -0.2732880232
    9      H      -0.6489221960    -1.3698017534    -1.2720026563
   10      H      -1.8152710797     1.2179874856     1.5413329793
   11      H      -1.1703824725     1.2039035923    -1.2764144274
   12      C      -1.0613120963    -0.7724554177     0.8551651076
   13      H      -1.3036213739    -1.5883623601     1.5312369358
 ----------------------------------------------------------------
 Nuclear Repulsion Energy =   273.0527783616 hartrees
 There are       25 alpha and       24 beta electrons

                       Distance Matrix (Angstroms)
             C (  1)   C (  2)   C (  3)   C (  4)   C (  5)   N (  6)
   C (  2)  1.403679
   C (  3)  2.346739  1.493186
   C (  4)  3.165582  3.084370  2.122223
   C (  5)  2.234583  2.366934  1.580665  1.528956
   N (  6)  1.329069  2.320867  2.467425  2.523166  1.459076
   H (  7)  1.089182  2.210217  3.397501  4.134550  3.270338  2.090592
   H (  8)  2.218258  1.084527  2.305615  4.005224  3.432624  3.343618
   H (  9)  3.194543  2.195350  1.097917  2.937389  2.320221  3.327883
   H ( 10)  3.953466  4.075895  3.207558  1.085823  2.389200  3.138070
   H ( 11)  3.056091  3.225727  2.308013  2.239372  1.096950  2.116426
   C ( 12)  3.239415  2.584219  1.537931  1.337362  2.103971  3.119594
   H ( 13)  4.092352  3.262863  2.396940  2.233638  3.190885  4.135467
             H (  7)   H (  8)   H (  9)   H ( 10)   H ( 11)   C ( 12)
   H (  8)  2.651383
   H (  9)  4.201068  2.727440
   H ( 10)  4.811365  4.988337  3.996483
   H ( 11)  4.029615  4.262558  2.626004  2.890637
   C ( 12)  4.228697  3.256155  2.247606  2.236324  2.908870
   H ( 13)  4.998337  3.658227  2.886962  2.852628  3.961995  1.086964

 
 Applying Cartesian multipole field
    Component          Value
    ---------          -----
     (2,0,0)        1.00000E-11
     (0,2,0)        2.00000E-11
     (0,0,2)       -3.00000E-10
 Nucleus-field energy     =    -0.0000000171 hartrees
 Requested basis set is 6-31G(d)
 There are 40 shells and 117 basis functions
 A cutoff of  1.0D-14 yielded    806 shell pairs
 There are      7078 function pairs
 Smallest overlap matrix eigenvalue = 9.73E-04
 Guess MOs from core Hamiltonian diagonalization
 Mixing HOMO and LUMO in initial guess
 Adding  50% of the LUMO to the HOMO
 An unrestricted hybrid HF-DFT SCF calculation will be
 performed using Pulay DIIS extrapolation
 Exchange:     0.2000 Hartree-Fock + 0.0800 Slater + 0.7200 B88
 Correlation:  0.1900 VWN1RPA + 0.8100 LYP
 Using SG-1 standard quadrature grid
 SCF converges when DIIS error is below 1.0E-08
 using 4 threads for integral computing
 -------------------------------------------------------
 OpenMP Integral computing Module                
 Release: version 1.0, May 2013, Q-Chem Inc. Pittsburgh 
 -------------------------------------------------------
 -------------------------------------------------------
 OpenMP BLAS3 based DFT computing Module                
 Release: version 1.0, May 2013, Q-Chem Inc. Pittsburgh 
 -------------------------------------------------------
 ---------------------------------------
  Cycle       Energy         DIIS Error
 ---------------------------------------
    1    -232.4058388063      1.40E-01
    2    -229.2260990424      1.02E-01
    3    -251.7996143431      1.09E-01
    4    -282.3756962760      4.48E-02
    5    -284.5585358594      3.37E-02
    6    -286.3696478436      1.36E-02
    7    -286.3436375071      1.43E-02
    8    -286.8302730640      4.53E-03
    9    -286.8652057562      2.02E-03
   10    -286.8736002965      7.61E-04
   11    -286.8750311469      1.30E-04
   12    -286.8753156027      5.65E-05
   13    -286.8754027072      2.91E-05
   14    -286.8754293470      1.34E-05
   15    -286.8754360120      7.71E-06
   16    -286.8754378061      2.32E-06
   17    -286.8754382781      8.50E-07
   18    -286.8754384018      3.54E-07
   19    -286.8754384390      9.03E-08
   20    -286.8754384468      3.24E-08
   21    -286.8754384500      1.86E-08
   22    -286.8754384510      8.33E-09 Convergence criterion met
 ---------------------------------------
 <S^2> = 0.7770
 SCF time:  CPU 52.38 s  wall 14.77 s
 SCF   energy in the final basis set = -286.87543845
 Total energy in the final basis set = -286.87543845
 
 --------------------------------------------------------------
 
                    Orbital Energies (a.u.)
 --------------------------------------------------------------
 
 Alpha MOs
 -- Occupied --
-14.328 -10.217 -10.216 -10.207 -10.203 -10.200 -10.195  -0.944
 -0.837  -0.752  -0.665  -0.618  -0.554  -0.523  -0.515  -0.481
 -0.428  -0.403  -0.386  -0.355  -0.341  -0.322  -0.270  -0.253
 -0.203
 -- Virtual --
  0.012   0.031   0.114   0.130   0.143   0.147   0.160   0.166
  0.186   0.188   0.216   0.266   0.295   0.363   0.409   0.452
  0.486   0.502   0.531   0.544   0.575   0.593   0.597   0.618
  0.624   0.634   0.655   0.680   0.695   0.747   0.773   0.786
  0.813   0.825   0.839   0.855   0.860   0.876   0.910   0.927
  0.956   0.970   1.018   1.065   1.091   1.170   1.234   1.411
  1.420   1.436   1.471   1.496   1.519   1.572   1.637   1.694
  1.761   1.821   1.883   1.887   1.935   1.948   1.977   2.028
  2.050   2.142   2.175   2.211   2.222   2.265   2.309   2.353
  2.412   2.425   2.522   2.560   2.574   2.606   2.618   2.674
  2.693   2.864   2.907   2.917   2.993   3.909   4.085   4.197
  4.295   4.373   4.448   4.716
 
 Beta MOs
 -- Occupied --
-14.318 -10.219 -10.218 -10.203 -10.199 -10.198 -10.194  -0.932
 -0.831  -0.734  -0.665  -0.610  -0.549  -0.520  -0.512  -0.475
 -0.420  -0.396  -0.381  -0.343  -0.334  -0.301  -0.264  -0.246
 -- Virtual --
 -0.087   0.016   0.054   0.116   0.132   0.147   0.149   0.162
  0.167   0.190   0.193   0.222   0.270   0.297   0.368   0.414
  0.455   0.491   0.509   0.534   0.548   0.579   0.598   0.613
  0.618   0.629   0.634   0.661   0.684   0.707   0.751   0.776
  0.794   0.821   0.831   0.845   0.859   0.863   0.884   0.913
  0.931   0.963   0.976   1.025   1.070   1.094   1.177   1.238
  1.418   1.436   1.441   1.478   1.504   1.524   1.579   1.639
  1.699   1.774   1.828   1.898   1.900   1.938   1.954   1.979
  2.031   2.053   2.148   2.185   2.225   2.234   2.269   2.321
  2.357   2.417   2.432   2.534   2.569   2.585   2.616   2.627
  2.678   2.697   2.867   2.908   2.920   2.996   3.925   4.094
  4.195   4.301   4.375   4.457   4.716
 --------------------------------------------------------------
 
          Ground-State Mulliken Net Atomic Charges

     Atom                 Charge (a.u.)    Spin (a.u.)
  --------------------------------------------------------
      1 C                     0.048294      -0.230825
      2 C                    -0.114850       0.693428
      3 C                    -0.193440      -0.054083
      4 C                    -0.075768       0.031832
      5 C                    -0.062283      -0.027615
      6 N                    -0.351346       0.516940
      7 H                     0.140558       0.007440
      8 H                     0.143374      -0.032152
      9 H                     0.148093       0.025232
     10 H                     0.137382       0.003597
     11 H                     0.151565       0.025351
     12 C                    -0.104881       0.033971
     13 H                     0.133303       0.006885
  --------------------------------------------------------
  Sum of atomic charges =     0.000000
  Sum of spin   charges =     1.000000

 -----------------------------------------------------------------
                    Cartesian Multipole Moments
 -----------------------------------------------------------------
    Charge (ESU x 10^10)
                -0.0000
    Dipole Moment (Debye)
         X      -0.2889      Y      -2.1309      Z       0.0932
       Tot       2.1524
    Quadrupole Moments (Debye-Ang)
        XX     -37.4568     XY      -2.4185     YY     -43.0011
        XZ      -0.3742     YZ       0.5058     ZZ     -39.9467
    Octopole Moments (Debye-Ang^2)
       XXX       4.8580    XXY      -4.1395    XYY      -6.6438
       YYY     -31.8883    XXZ       1.8745    XYZ       0.5791
       YYZ       3.2384    XZZ      -6.7517    YZZ      -6.0954
       ZZZ       2.4876
    Hexadecapole Moments (Debye-Ang^3)
      XXXX    -343.5775   XXXY     -13.5339   XXYY     -95.1591
      XYYY     -26.3181   YYYY    -278.7074   XXXZ      47.5340
      XXYZ       4.9069   XYYZ      14.3926   YYYZ      12.5898
      XXZZ     -81.4872   XYZZ      -5.6913   YYZZ     -61.7331
      XZZZ      47.9568   YZZZ       9.5115   ZZZZ    -141.1805
 -----------------------------------------------------------------
 Calculating analytic gradient of the SCF energy
 Gradient of SCF Energy
            1           2           3           4           5           6
    1  -0.0000162  -0.0000105   0.0000820   0.0000228  -0.0000040  -0.0000281
    2  -0.0000174  -0.0000207  -0.0000031   0.0000118  -0.0000055   0.0000294
    3  -0.0000321  -0.0000278   0.0001010   0.0000254   0.0000248  -0.0000288
            7           8           9          10          11          12
    1  -0.0000116   0.0000169  -0.0000173  -0.0000070  -0.0000079  -0.0000346
    2   0.0000152   0.0000104  -0.0000037  -0.0000100  -0.0000067   0.0000087
    3  -0.0000104  -0.0000074   0.0000044   0.0000112  -0.0000061  -0.0000568
           13
    1   0.0000156
    2  -0.0000083
    3   0.0000025
 Max gradient component =       1.010E-04
 RMS gradient           =       2.809E-05
 Gradient time:  CPU 7.70 s  wall 1.97 s

STARTING FREEZING STRING ITERATION # 1
 The distance between the innermost nodes (Angstroms): 1.407
-Adding two new nodes
 The distance between the previous and current R_nodes (Angstroms): 0.0697
 The distance between the previous and current P_nodes (Angstroms): 0.0698
-Optimizing new reactant side node
 Using BFGS, step: 2 E_tol 0.0389
 max_steps 6, node_spacing 0.0670, sigma 0.7000
 ----------------------------------------------------------------
             Standard Nuclear Orientation (Angstroms)
    I     Atom           X                Y                Z
 ----------------------------------------------------------------
    1      C       1.5499824108     0.5870302884    -0.1697459311
    2      C       0.9115861370    -0.7440630848     0.0106999141
    3      C      -0.4052096213    -0.6605387943    -0.6872429371
    4      C      -1.0312311036     0.6250904972     0.8806513409
    5      C      -0.6017234301     0.8977023703    -0.5653571651
    6      N       0.7447532301     1.5176344930    -0.5314188429
    7      H       2.6036479620     0.7880140722     0.0207204283
    8      H       1.4785029123    -1.6690958918     0.0464692553
    9      H      -0.8055546278    -1.3510249310    -1.4242576889
   10      H      -1.9828603700     0.8963797323     1.3223831063
   11      H      -1.2851688012     1.4222267379    -1.2330787523
   12      C      -0.4760875897    -0.7330347489     0.8438740184
   13      H      -0.7054704374    -1.5761021088     1.4871051476
 ----------------------------------------------------------------
 Nuclear Repulsion Energy =   281.1700130141 hartrees
 There are       25 alpha and       24 beta electrons

                       Distance Matrix (Angstroms)
             C (  1)   C (  2)   C (  3)   C (  4)   C (  5)   N (  6)
   C (  2)  1.487253
   C (  3)  2.376343  1.492666
   C (  4)  2.787014  2.530995  2.122036
   C (  5)  2.209720  2.305936  1.575306  1.532884
   N (  6)  1.282663  2.331738  2.468022  2.438175  1.482723
   H (  7)  1.089442  2.282638  3.413611  3.738766  3.260356  2.071882
   H (  8)  2.267590  1.085523  2.259180  3.501131  3.360078  3.320782
   H (  9)  3.298244  2.318637  1.086388  3.044432  2.415788  3.380802
   H ( 10)  3.847483  3.576225  2.991918  1.083662  2.339039  3.355952
   H ( 11)  3.141069  3.326489  2.325979  2.273272  1.089989  2.149887
   C ( 12)  2.622014  1.618623  1.534470  1.467665  2.158940  2.906440
   H ( 13)  3.537141  2.342420  2.378277  2.306329  3.216065  3.968475
             H (  7)   H (  8)   H (  9)   H ( 10)   H ( 11)   C ( 12)
   H (  8)  2.702592
   H (  9)  4.276226  2.735165
   H ( 10)  4.768871  4.493402  3.739106
   H ( 11)  4.134868  4.339516  2.820905  2.700680
   C ( 12)  3.532130  2.309218  2.373791  2.270314  3.100564
   H ( 13)  4.323146  2.617980  2.921765  2.787835  4.089673  1.084954

 
 Applying Cartesian multipole field
    Component          Value
    ---------          -----
     (2,0,0)        1.00000E-11
     (0,2,0)        2.00000E-11
     (0,0,2)       -3.00000E-10
 Nucleus-field energy     =    -0.0000000200 hartrees
 Requested basis set is 6-31G(d)
 There are 40 shells and 117 basis functions
 A cutoff of  1.0D-14 yielded    811 shell pairs
 There are      7083 function pairs
 Smallest overlap matrix eigenvalue = 1.31E-03
 Guess MOs from core Hamiltonian diagonalization
 Mixing HOMO and LUMO in initial guess
 Adding  50% of the LUMO to the HOMO
 An unrestricted hybrid HF-DFT SCF calculation will be
 performed using Pulay DIIS extrapolation
 Exchange:     0.2000 Hartree-Fock + 0.0800 Slater + 0.7200 B88
 Correlation:  0.1900 VWN1RPA + 0.8100 LYP
 Using SG-1 standard quadrature grid
 SCF converges when DIIS error is below 1.0E-08
 using 4 threads for integral computing
 -------------------------------------------------------
 OpenMP Integral computing Module                
 Release: version 1.0, May 2013, Q-Chem Inc. Pittsburgh 
 -------------------------------------------------------
 -------------------------------------------------------
 OpenMP BLAS3 based DFT computing Module                
 Release: version 1.0, May 2013, Q-Chem Inc. Pittsburgh 
 -------------------------------------------------------
 ---------------------------------------
  Cycle       Energy         DIIS Error
 ---------------------------------------
    1    -236.3135942332      1.35E-01
    2    -231.6952911078      1.05E-01
    3    -260.6868930556      9.29E-02
    4    -268.2936645410      8.72E-02
    5    -280.9534705773      5.16E-02
    6    -285.4921037124      2.37E-02
    7    -286.2210761440      1.59E-02
    8    -286.7501274358      5.87E-03
    9    -286.8286059301      1.47E-03
   10    -286.8323390682      1.15E-03
   11    -286.8350824197      4.48E-04
   12    -286.8355766764      2.10E-04
   13    -286.8357656968      6.86E-05
   14    -286.8357988203      1.97E-05
   15    -286.8358043956      4.92E-06
   16    -286.8358079206      1.54E-06
   17    -286.8358096930      5.74E-07
   18    -286.8358106094      3.68E-07
   19    -286.8358110529      2.06E-07
   20    -286.8358111881      1.02E-07
   21    -286.8358111941      3.20E-08
   22    -286.8358111947      7.83E-09 Convergence criterion met
 ---------------------------------------
 <S^2> = 0.7548
 SCF time:  CPU 52.38 s  wall 13.69 s
 SCF   energy in the final basis set = -286.83581119
 Total energy in the final basis set = -286.83581119
 
 --------------------------------------------------------------
 
                    Orbital Energies (a.u.)
 --------------------------------------------------------------
 
 Alpha MOs
 -- Occupied --
-14.317 -10.220 -10.220 -10.217 -10.213 -10.212 -10.195  -0.962
 -0.855  -0.746  -0.657  -0.609  -0.572  -0.539  -0.513  -0.463
 -0.430  -0.412  -0.387  -0.364  -0.330  -0.315  -0.263  -0.256
 -0.173
 -- Virtual --
 -0.003   0.091   0.110   0.136   0.144   0.145   0.155   0.167
  0.182   0.196   0.214   0.245   0.273   0.327   0.371   0.383
  0.485   0.520   0.526   0.547   0.554   0.572   0.584   0.600
  0.615   0.619   0.669   0.675   0.703   0.755   0.778   0.793
  0.816   0.831   0.838   0.841   0.853   0.881   0.904   0.933
  0.946   1.018   1.070   1.102   1.152   1.239   1.276   1.369
  1.439   1.454   1.509   1.541   1.600   1.642   1.669   1.709
  1.788   1.814   1.871   1.897   1.913   1.934   1.998   2.017
  2.053   2.146   2.180   2.229   2.253   2.292   2.361   2.427
  2.470   2.484   2.509   2.523   2.580   2.612   2.617   2.675
  2.736   2.785   2.834   2.922   2.960   3.950   4.123   4.242
  4.361   4.466   4.513   4.660
 
 Beta MOs
 -- Occupied --
-14.316 -10.221 -10.220 -10.217 -10.212 -10.210 -10.182  -0.958
 -0.851  -0.736  -0.648  -0.603  -0.568  -0.537  -0.503  -0.461
 -0.425  -0.406  -0.384  -0.361  -0.315  -0.307  -0.259  -0.254
 -- Virtual --
 -0.039   0.005   0.093   0.114   0.140   0.147   0.151   0.157
  0.171   0.186   0.198   0.218   0.249   0.281   0.331   0.375
  0.392   0.488   0.524   0.541   0.555   0.557   0.575   0.588
  0.613   0.619   0.641   0.672   0.687   0.706   0.759   0.780
  0.796   0.817   0.836   0.840   0.843   0.857   0.884   0.907
  0.941   0.948   1.024   1.079   1.114   1.153   1.246   1.281
  1.371   1.445   1.459   1.516   1.545   1.603   1.648   1.678
  1.714   1.792   1.827   1.876   1.908   1.924   1.944   2.004
  2.027   2.068   2.153   2.193   2.235   2.263   2.299   2.376
  2.439   2.479   2.488   2.519   2.527   2.586   2.616   2.622
  2.679   2.742   2.789   2.842   2.925   2.961   3.953   4.128
  4.254   4.370   4.471   4.516   4.663
 --------------------------------------------------------------
 
          Ground-State Mulliken Net Atomic Charges

     Atom                 Charge (a.u.)    Spin (a.u.)
  --------------------------------------------------------
      1 C                     0.096851       0.007120
      2 C                    -0.194338       0.053097
      3 C                    -0.106084       0.102650
      4 C                    -0.069866       0.945658
      5 C                    -0.098141      -0.044420
      6 N                    -0.339702       0.016001
      7 H                     0.143704       0.004085
      8 H                     0.148406       0.001280
      9 H                     0.149008       0.009005
     10 H                     0.141196      -0.040903
     11 H                     0.141908       0.006750
     12 C                    -0.163261      -0.060755
     13 H                     0.150320       0.000431
  --------------------------------------------------------
  Sum of atomic charges =    -0.000000
  Sum of spin   charges =     1.000000

 -----------------------------------------------------------------
                    Cartesian Multipole Moments
 -----------------------------------------------------------------
    Charge (ESU x 10^10)
                 0.0000
    Dipole Moment (Debye)
         X      -0.6657      Y      -2.7526      Z       0.0961
       Tot       2.8335
    Quadrupole Moments (Debye-Ang)
        XX     -36.7263     XY      -2.5493     YY     -43.5597
        XZ       0.8056     YZ       0.4835     ZZ     -40.9131
    Octopole Moments (Debye-Ang^2)
       XXX      -3.3193    XXY      -5.5371    XYY      -8.3296
       YYY     -37.0369    XXZ       2.7754    XYZ       1.8542
       YYZ       3.3372    XZZ      -7.7483    YZZ     -10.2062
       ZZZ       1.7824
    Hexadecapole Moments (Debye-Ang^3)
      XXXX    -253.6391   XXXY     -10.0582   XXYY     -86.9270
      XYYY     -22.6615   YYYY    -277.2225   XXXZ      21.1672
      XXYZ       8.7442   XYYZ      12.0173   YYYZ      22.1041
      XXZZ     -70.0653   XYZZ      -3.5249   YYZZ     -67.3923
      XZZZ      23.7608   YZZZ      17.3455   ZZZZ    -154.0971
 -----------------------------------------------------------------
 Calculating analytic gradient of the SCF energy
 Gradient of SCF Energy
            1           2           3           4           5           6
    1   0.0019144   0.0097433  -0.0012328   0.0003578   0.0005752  -0.0009440
    2  -0.0014134   0.0002122   0.0013459  -0.0002345  -0.0013127   0.0011272
    3  -0.0004456  -0.0053949  -0.0007743  -0.0001486   0.0004793   0.0004203
            7           8           9          10          11          12
    1   0.0000621   0.0009065   0.0002882  -0.0002828   0.0001889  -0.0101405
    2   0.0000410   0.0003669  -0.0002459  -0.0007790  -0.0001933   0.0007813
    3  -0.0002237  -0.0009369   0.0005724  -0.0002164  -0.0001810   0.0064679
           13
    1  -0.0014363
    2   0.0003042
    3   0.0003814
 Max gradient component =       1.014E-02
 RMS gradient           =       2.724E-03
 Gradient time:  CPU 7.75 s  wall 2.00 s
 ----------------------------------------------------------------
             Standard Nuclear Orientation (Angstroms)
    I     Atom           X                Y                Z
 ----------------------------------------------------------------
    1      C       1.5463570544     0.5925200323    -0.1706429963
    2      C       0.8865861370    -0.7453989255     0.0214043432
    3      C      -0.3975508702    -0.6669245189    -0.6811141315
    4      C      -1.0382581631     0.6238541842     0.8810819033
    5      C      -0.6026828872     0.9001637616    -0.5646945523
    6      N       0.7467064942     1.5149732248    -0.5276047249
    7      H       2.6062389599     0.7912814665     0.0174726137
    8      H       1.4866888625    -1.6695586065     0.0412830899
    9      H      -0.8031633583    -1.3515377529    -1.4233993073
   10      H      -1.9810138564     0.9089747015     1.3295318170
   11      H      -1.2832928831     1.4178777575    -1.2341022109
   12      C      -0.4550411637    -0.7375087219     0.8235003366
   13      H      -0.7164076345    -1.5784975744     1.4880857270
 ----------------------------------------------------------------
 Nuclear Repulsion Energy =   281.9511603866 hartrees
 There are       25 alpha and       24 beta electrons

                       Distance Matrix (Angstroms)
             C (  1)   C (  2)   C (  3)   C (  4)   C (  5)   N (  6)
   C (  2)  1.504063
   C (  3)  2.371826  1.465844
   C (  4)  2.790581  2.513747  2.125340
   C (  5)  2.206421  2.295498  1.584739  1.535038
   N (  6)  1.271921  2.330292  2.468515  2.442251  1.483313
   H (  7)  1.094643  2.306211  3.411325  3.749162  3.263120  2.068502
   H (  8)  2.272768  1.102084  2.253329  3.512885  3.366921  3.318501
   H (  9)  3.296817  2.304369  1.088211  3.044352  2.418207  3.379561
   H ( 10)  3.846169  3.559674  3.005580  1.082215  2.342641  3.355093
   H ( 11)  3.133541  3.311259  2.331681  2.272558  1.085985  2.151619
   C ( 12)  2.600556  1.563133  1.507366  1.482149  2.151942  2.888487
   H ( 13)  3.547507  2.326972  2.374461  2.307032  3.220342  3.971558
             H (  7)   H (  8)   H (  9)   H ( 10)   H ( 11)   C ( 12)
   H (  8)  2.703644
   H (  9)  4.276893  2.736760
   H ( 10)  4.772655  4.509255  3.751783
   H ( 11)  4.133705  4.339547  2.817094  2.705183
   C ( 12)  3.515440  2.291483  2.355160  2.301210  3.092801
   H ( 13)  4.338034  2.637265  2.921606  2.794975  4.087778  1.103290

 
 Applying Cartesian multipole field
    Component          Value
    ---------          -----
     (2,0,0)        1.00000E-11
     (0,2,0)        2.00000E-11
     (0,0,2)       -3.00000E-10
 Nucleus-field energy     =    -0.0000000197 hartrees
 Requested basis set is 6-31G(d)
 There are 40 shells and 117 basis functions
 A cutoff of  1.0D-14 yielded    811 shell pairs
 There are      7083 function pairs
 Smallest overlap matrix eigenvalue = 1.28E-03
 Guess MOs from core Hamiltonian diagonalization
 Mixing HOMO and LUMO in initial guess
 Adding  50% of the LUMO to the HOMO
 An unrestricted hybrid HF-DFT SCF calculation will be
 performed using Pulay DIIS extrapolation
 Exchange:     0.2000 Hartree-Fock + 0.0800 Slater + 0.7200 B88
 Correlation:  0.1900 VWN1RPA + 0.8100 LYP
 Using SG-1 standard quadrature grid
 SCF converges when DIIS error is below 1.0E-08
 using 4 threads for integral computing
 -------------------------------------------------------
 OpenMP Integral computing Module                
 Release: version 1.0, May 2013, Q-Chem Inc. Pittsburgh 
 -------------------------------------------------------
 -------------------------------------------------------
 OpenMP BLAS3 based DFT computing Module                
 Release: version 1.0, May 2013, Q-Chem Inc. Pittsburgh 
 -------------------------------------------------------
 ---------------------------------------
  Cycle       Energy         DIIS Error
 ---------------------------------------
    1    -236.3955369122      1.35E-01
    2    -233.3078429443      1.04E-01
    3    -266.9080678916      8.33E-02
    4    -269.9958420690      8.47E-02
    5    -283.0741736061      4.03E-02
    6    -285.8996089303      2.29E-02
    7    -286.4507936934      1.24E-02
    8    -286.7255530867      7.82E-03
    9    -286.8203946421      2.51E-03
   10    -286.8324957864      1.12E-03
   11    -286.8346605280      1.62E-04
   12    -286.8347834743      7.24E-05
   13    -286.8348022494      3.08E-05
   14    -286.8348058921      7.06E-06
   15    -286.8348065335      2.90E-06
   16    -286.8348066554      8.65E-07
   17    -286.8348066697      3.77E-07
   18    -286.8348066741      1.19E-07
   19    -286.8348066760      2.41E-08
   20    -286.8348066772      1.19E-08
   21    -286.8348066777      5.47E-09 Convergence criterion met
 ---------------------------------------
 <S^2> = 0.7545
 SCF time:  CPU 50.19 s  wall 13.03 s
 SCF   energy in the final basis set = -286.83480668
 Total energy in the final basis set = -286.83480668
 
 --------------------------------------------------------------
 
                    Orbital Energies (a.u.)
 --------------------------------------------------------------
 
 Alpha MOs
 -- Occupied --
-14.317 -10.220 -10.220 -10.215 -10.212 -10.209 -10.195  -0.967
 -0.863  -0.746  -0.655  -0.607  -0.572  -0.539  -0.513  -0.464
 -0.432  -0.412  -0.387  -0.361  -0.328  -0.316  -0.268  -0.256
 -0.175
 -- Virtual --
 -0.000   0.086   0.117   0.134   0.144   0.149   0.155   0.167
  0.182   0.201   0.221   0.245   0.276   0.324   0.368   0.380
  0.485   0.521   0.530   0.551   0.560   0.572   0.585   0.600
  0.617   0.624   0.675   0.676   0.707   0.755   0.776   0.789
  0.813   0.825   0.835   0.841   0.849   0.881   0.906   0.931
  0.943   1.016   1.069   1.108   1.157   1.237   1.283   1.362
  1.444   1.456   1.511   1.544   1.608   1.654   1.677   1.700
  1.795   1.809   1.876   1.887   1.913   1.946   1.998   2.016
  2.062   2.146   2.182   2.231   2.264   2.300   2.367   2.438
  2.480   2.492   2.519   2.530   2.573   2.616   2.631   2.683
  2.747   2.798   2.832   2.930   2.962   3.952   4.123   4.242
  4.367   4.468   4.522   4.661
 
 Beta MOs
 -- Occupied --
-14.317 -10.221 -10.220 -10.216 -10.211 -10.207 -10.182  -0.964
 -0.859  -0.736  -0.645  -0.601  -0.568  -0.537  -0.502  -0.461
 -0.427  -0.406  -0.383  -0.356  -0.315  -0.307  -0.265  -0.254
 -- Virtual --
 -0.037   0.006   0.089   0.121   0.138   0.148   0.153   0.156
  0.170   0.186   0.204   0.226   0.249   0.283   0.327   0.374
  0.388   0.487   0.525   0.546   0.556   0.565   0.575   0.593
  0.612   0.621   0.645   0.678   0.686   0.710   0.759   0.778
  0.793   0.815   0.829   0.836   0.842   0.854   0.884   0.908
  0.939   0.945   1.022   1.078   1.120   1.159   1.244   1.288
  1.365   1.451   1.460   1.517   1.548   1.612   1.659   1.688
  1.705   1.798   1.822   1.886   1.893   1.929   1.953   2.005
  2.027   2.075   2.157   2.193   2.236   2.275   2.309   2.381
  2.448   2.488   2.498   2.528   2.534   2.579   2.619   2.637
  2.687   2.754   2.802   2.840   2.932   2.963   3.954   4.129
  4.255   4.376   4.473   4.526   4.664
 --------------------------------------------------------------
 
          Ground-State Mulliken Net Atomic Charges

     Atom                 Charge (a.u.)    Spin (a.u.)
  --------------------------------------------------------
      1 C                     0.094252       0.007246
      2 C                    -0.191232       0.041874
      3 C                    -0.103051       0.094727
      4 C                    -0.072035       0.962630
      5 C                    -0.099668      -0.046556
      6 N                    -0.334539       0.015173
      7 H                     0.143420       0.004276
      8 H                     0.147330       0.001975
      9 H                     0.148545       0.008302
     10 H                     0.141390      -0.041627
     11 H                     0.141624       0.006351
     12 C                    -0.163089      -0.055283
     13 H                     0.147055       0.000913
  --------------------------------------------------------
  Sum of atomic charges =    -0.000000
  Sum of spin   charges =     1.000000

 -----------------------------------------------------------------
                    Cartesian Multipole Moments
 -----------------------------------------------------------------
    Charge (ESU x 10^10)
                 0.0000
    Dipole Moment (Debye)
         X      -0.6334      Y      -2.6467      Z       0.0740
       Tot       2.7225
    Quadrupole Moments (Debye-Ang)
        XX     -36.6678     XY      -2.5439     YY     -43.5665
        XZ       0.7707     YZ       0.5607     ZZ     -40.8883
    Octopole Moments (Debye-Ang^2)
       XXX      -3.2444    XXY      -5.3890    XYY      -8.3180
       YYY     -36.3809    XXZ       2.7429    XYZ       1.7822
       YYZ       3.2119    XZZ      -7.6590    YZZ      -9.9713
       ZZZ       1.6772
    Hexadecapole Moments (Debye-Ang^3)
      XXXX    -251.9404   XXXY     -10.1271   XXYY     -86.6303
      XYYY     -22.6006   YYYY    -278.2805   XXXZ      20.7823
      XXYZ       8.8201   XYYZ      11.7734   YYYZ      22.2821
      XXZZ     -69.3966   XYZZ      -3.6370   YYZZ     -67.3690
      XZZZ      23.4935   YZZZ      17.3988   ZZZZ    -152.8220
 -----------------------------------------------------------------
 Calculating analytic gradient of the SCF energy
 Gradient of SCF Energy
            1           2           3           4           5           6
    1  -0.0042477  -0.0250102   0.0134852  -0.0067703   0.0000823   0.0062974
    2   0.0087389   0.0057726  -0.0029169   0.0017717   0.0021257  -0.0076326
    3  -0.0056620  -0.0046652   0.0189322   0.0043834  -0.0018372   0.0044857
            7           8           9          10          11          12
    1   0.0031511   0.0081047  -0.0007799   0.0005531   0.0013314   0.0092390
    2   0.0013046  -0.0071425  -0.0006724   0.0011034  -0.0017443   0.0059488
    3   0.0002174  -0.0014085  -0.0005653  -0.0007577   0.0018488  -0.0234532
           13
    1  -0.0054361
    2  -0.0066569
    3   0.0084816
 Max gradient component =       2.501E-02
 RMS gradient           =       8.020E-03
 Gradient time:  CPU 7.82 s  wall 2.00 s
WARNING!!!!! energy has increased from optimization step!
 ----------------------------------------------------------------
             Standard Nuclear Orientation (Angstroms)
    I     Atom           X                Y                Z
 ----------------------------------------------------------------
    1      C       1.5535168358     0.5777487462    -0.1610363006
    2      C       0.9287204228    -0.7551497305     0.0293392489
    3      C      -0.4203264875    -0.6619776767    -0.7131003585
    4      C      -1.0268026472     0.6208830277     0.8736728428
    5      C      -0.6028049775     0.8966057870    -0.5616106856
    6      N       0.7361203320     1.5278400974    -0.5351779941
    7      H       2.6009141509     0.7890193597     0.0171901759
    8      H       1.4729122255    -1.6575328938     0.0437245541
    9      H      -0.8018625367    -1.3503661706    -1.4224945967
   10      H      -1.9819646341     0.9070618698     1.3307416546
   11      H      -1.2855124705     1.4208870049    -1.2372193197
   12      C      -0.4705633130    -0.7475388400     0.8630463929
   13      H      -0.7071802213    -1.5672614942     1.4737262049
 ----------------------------------------------------------------
 Nuclear Repulsion Energy =   279.7720094210 hartrees
 There are       25 alpha and       24 beta electrons

                       Distance Matrix (Angstroms)
             C (  1)   C (  2)   C (  3)   C (  4)   C (  5)   N (  6)
   C (  2)  1.484329
   C (  3)  2.395361  1.542668
   C (  4)  2.780383  2.535830  2.128707
   C (  5)  2.216270  2.328752  1.576525  1.521787
   N (  6)  1.307973  2.359622  2.482806  2.432145  1.480499
   H (  7)  1.083255  2.276145  3.430250  3.731241  3.257361  2.080486
   H (  8)  2.246087  1.053872  2.268979  3.482609  3.346439  3.320330
   H (  9)  3.294953  2.336027  1.059570  3.034602  2.414462  3.381833
   H ( 10)  3.851425  3.595648  3.012954  1.096880  2.341621  3.354848
   H ( 11)  3.151054  3.352929  2.315507  2.272180  1.094261  2.142732
   C ( 12)  2.627172  1.628840  1.579267  1.477191  2.179529  2.930608
   H ( 13)  3.519129  2.328508  2.384121  2.291331  3.197520  3.962129
             H (  7)   H (  8)   H (  9)   H ( 10)   H ( 11)   C ( 12)
   H (  8)  2.694199
   H (  9)  4.269491  2.723738
   H ( 10)  4.768871  4.491073  3.750858
   H ( 11)  4.132446  4.327400  2.819235  2.709887
   C ( 12)  3.537013  2.297058  2.386809  2.289274  3.126872
   H ( 13)  4.314747  2.608804  2.905874  2.787077  4.075871  1.049220

 
 Applying Cartesian multipole field
    Component          Value
    ---------          -----
     (2,0,0)        1.00000E-11
     (0,2,0)        2.00000E-11
     (0,0,2)       -3.00000E-10
 Nucleus-field energy     =    -0.0000000203 hartrees
 Requested basis set is 6-31G(d)
 There are 40 shells and 117 basis functions
 A cutoff of  1.0D-14 yielded    811 shell pairs
 There are      7083 function pairs
 Smallest overlap matrix eigenvalue = 1.33E-03
 Guess MOs from core Hamiltonian diagonalization
 Mixing HOMO and LUMO in initial guess
 Adding  50% of the LUMO to the HOMO
 An unrestricted hybrid HF-DFT SCF calculation will be
 performed using Pulay DIIS extrapolation
 Exchange:     0.2000 Hartree-Fock + 0.0800 Slater + 0.7200 B88
 Correlation:  0.1900 VWN1RPA + 0.8100 LYP
 Using SG-1 standard quadrature grid
 SCF converges when DIIS error is below 1.0E-08
 using 4 threads for integral computing
 -------------------------------------------------------
 OpenMP Integral computing Module                
 Release: version 1.0, May 2013, Q-Chem Inc. Pittsburgh 
 -------------------------------------------------------
 -------------------------------------------------------
 OpenMP BLAS3 based DFT computing Module                
 Release: version 1.0, May 2013, Q-Chem Inc. Pittsburgh 
 -------------------------------------------------------
 ---------------------------------------
  Cycle       Energy         DIIS Error
 ---------------------------------------
    1    -237.0433993891      1.35E-01
    2    -234.7568664586      1.02E-01
    3    -266.4630005190      8.67E-02
    4    -272.9834057524      7.97E-02
    5    -282.3152983199      4.49E-02
    6    -285.8970867762      2.22E-02
    7    -286.0933683650      1.72E-02
    8    -286.7248957287      7.46E-03
    9    -286.7943040975      4.35E-03
   10    -286.8272489684      1.32E-03
   11    -286.8301673911      2.64E-04
   12    -286.8304118110      9.49E-05
   13    -286.8304456524      4.93E-05
   14    -286.8304548266      1.51E-05
   15    -286.8304565754      3.86E-06
   16    -286.8304567208      6.31E-07
   17    -286.8304567473      3.33E-07
   18    -286.8304567559      1.02E-07
   19    -286.8304567637      3.70E-08
   20    -286.8304567679      1.88E-08
   21    -286.8304567696      9.28E-09 Convergence criterion met
 ---------------------------------------
 <S^2> = 0.7552
 SCF time:  CPU 50.00 s  wall 12.82 s
 SCF   energy in the final basis set = -286.83045677
 Total energy in the final basis set = -286.83045677
 
 --------------------------------------------------------------
 
                    Orbital Energies (a.u.)
 --------------------------------------------------------------
 
 Alpha MOs
 -- Occupied --
-14.319 -10.222 -10.220 -10.218 -10.214 -10.214 -10.196  -0.952
 -0.845  -0.744  -0.657  -0.611  -0.577  -0.540  -0.514  -0.462
 -0.426  -0.414  -0.387  -0.368  -0.328  -0.311  -0.259  -0.257
 -0.172
 -- Virtual --
 -0.009   0.095   0.101   0.136   0.143   0.146   0.157   0.169
  0.180   0.197   0.206   0.244   0.273   0.323   0.370   0.377
  0.486   0.513   0.522   0.541   0.553   0.575   0.583   0.597
  0.607   0.622   0.656   0.675   0.696   0.754   0.780   0.797
  0.820   0.833   0.845   0.848   0.871   0.887   0.901   0.928
  0.954   1.016   1.074   1.102   1.144   1.233   1.262   1.371
  1.433   1.458   1.502   1.541   1.593   1.643   1.659   1.713
  1.776   1.820   1.861   1.878   1.913   1.925   2.005   2.014
  2.053   2.131   2.172   2.219   2.237   2.276   2.349   2.402
  2.461   2.471   2.505   2.510   2.582   2.596   2.610   2.664
  2.711   2.771   2.830   2.906   2.950   3.939   4.122   4.237
  4.344   4.470   4.502   4.655
 
 Beta MOs
 -- Occupied --
-14.318 -10.222 -10.220 -10.218 -10.213 -10.212 -10.183  -0.949
 -0.840  -0.736  -0.647  -0.605  -0.573  -0.538  -0.504  -0.459
 -0.422  -0.407  -0.383  -0.365  -0.315  -0.299  -0.256  -0.255
 -- Virtual --
 -0.038  -0.000   0.099   0.104   0.140   0.148   0.149   0.158
  0.173   0.183   0.199   0.211   0.248   0.281   0.326   0.373
  0.389   0.489   0.520   0.533   0.549   0.556   0.580   0.587
  0.614   0.616   0.639   0.659   0.686   0.700   0.758   0.783
  0.800   0.823   0.838   0.847   0.849   0.873   0.890   0.904
  0.936   0.956   1.021   1.084   1.113   1.145   1.241   1.268
  1.374   1.437   1.465   1.509   1.544   1.596   1.649   1.667
  1.719   1.780   1.834   1.865   1.897   1.918   1.934   2.009
  2.021   2.070   2.137   2.184   2.228   2.246   2.280   2.366
  2.416   2.468   2.476   2.511   2.519   2.588   2.600   2.614
  2.668   2.717   2.776   2.838   2.908   2.951   3.942   4.128
  4.249   4.353   4.475   4.506   4.658
 --------------------------------------------------------------
 
          Ground-State Mulliken Net Atomic Charges

     Atom                 Charge (a.u.)    Spin (a.u.)
  --------------------------------------------------------
      1 C                     0.092313       0.010290
      2 C                    -0.192238       0.047158
      3 C                    -0.113253       0.119954
      4 C                    -0.066059       0.943565
      5 C                    -0.093261      -0.046226
      6 N                    -0.342280       0.012638
      7 H                     0.145777       0.003662
      8 H                     0.149088       0.001094
      9 H                     0.150283       0.005971
     10 H                     0.140041      -0.041788
     11 H                     0.140274       0.007110
     12 C                    -0.162382      -0.063956
     13 H                     0.151697       0.000526
  --------------------------------------------------------
  Sum of atomic charges =    -0.000000
  Sum of spin   charges =     1.000000

 -----------------------------------------------------------------
                    Cartesian Multipole Moments
 -----------------------------------------------------------------
    Charge (ESU x 10^10)
                -0.0000
    Dipole Moment (Debye)
         X      -0.6490      Y      -2.8572      Z       0.1308
       Tot       2.9329
    Quadrupole Moments (Debye-Ang)
        XX     -36.7552     XY      -2.5316     YY     -43.5059
        XZ       0.8113     YZ       0.5211     ZZ     -40.9196
    Octopole Moments (Debye-Ang^2)
       XXX      -3.0567    XXY      -5.5839    XYY      -8.3962
       YYY     -37.3325    XXZ       2.7527    XYZ       1.8147
       YYZ       3.3593    XZZ      -7.9188    YZZ     -10.3179
       ZZZ       1.7137
    Hexadecapole Moments (Debye-Ang^3)
      XXXX    -254.2623   XXXY      -9.6209   XXYY     -87.1148
      XYYY     -22.2903   YYYY    -278.0997   XXXZ      20.2828
      XXYZ       8.9264   XYYZ      11.6413   YYYZ      22.6659
      XXZZ     -70.4153   XYZZ      -3.3889   YYZZ     -67.6877
      XZZZ      23.0862   YZZZ      17.7890   ZZZZ    -155.4256
 -----------------------------------------------------------------
 Calculating analytic gradient of the SCF energy
 Gradient of SCF Energy
            1           2           3           4           5           6
    1   0.0197708   0.0452438  -0.0274622   0.0079705   0.0036518  -0.0189942
    2  -0.0205908  -0.0228018  -0.0102602   0.0027716   0.0000361   0.0248474
    3   0.0077666   0.0045478  -0.0409066  -0.0089897   0.0085824  -0.0087904
            7           8           9          10          11          12
    1  -0.0036314  -0.0119896   0.0074873  -0.0079247  -0.0004052  -0.0182061
    2  -0.0005154   0.0200759   0.0114397   0.0018638   0.0003314  -0.0280719
    3  -0.0011809  -0.0016520   0.0139167   0.0035980  -0.0030182   0.0423210
           13
    1   0.0044892
    2   0.0208744
    3  -0.0161948
 Max gradient component =       4.524E-02
 RMS gradient           =       1.751E-02
 Gradient time:  CPU 7.83 s  wall 2.00 s
WARNING!!!!! energy has increased from optimization step!
 ----------------------------------------------------------------
             Standard Nuclear Orientation (Angstroms)
    I     Atom           X                Y                Z
 ----------------------------------------------------------------
    1      C       1.5414304662     0.5861085436    -0.1623408316
    2      C       0.9235993084    -0.7401135486     0.0255536778
    3      C      -0.4105179273    -0.6478775938    -0.6966119185
    4      C      -1.0269447828     0.6155852947     0.8769118570
    5      C      -0.6058460533     0.8927632838    -0.5669543343
    6      N       0.7459428886     1.5141282567    -0.5309965235
    7      H       2.6010819261     0.7884857750     0.0173275345
    8      H       1.4770448155    -1.6678563829     0.0450532687
    9      H      -0.8073922161    -1.3609322463    -1.4343963264
   10      H      -1.9750812224     0.9048941234     1.3290130835
   11      H      -1.2861899283     1.4217858421    -1.2369248600
   12      C      -0.4735401554    -0.7274248200     0.8554969701
   13      H      -0.7084204453    -1.5793273764     1.4796701716
 ----------------------------------------------------------------
 Nuclear Repulsion Energy =   281.2930324755 hartrees
 There are       25 alpha and       24 beta electrons

                       Distance Matrix (Angstroms)
             C (  1)   C (  2)   C (  3)   C (  4)   C (  5)   N (  6)
   C (  2)  1.475088
   C (  3)  2.370289  1.519835
   C (  4)  2.770824  2.523361  2.110047
   C (  5)  2.206478  2.314423  1.558377  1.529347
   N (  6)  1.276686  2.328716  2.457458  2.435717  1.488194
   H (  7)  1.093663  2.269500  3.412123  3.732473  3.261387  2.066097
   H (  8)  2.264402  1.080458  2.270092  3.489421  3.357046  3.315323
   H (  9)  3.305459  2.348021  1.100128  3.049093  2.423266  3.390421
   H ( 10)  3.832964  3.578744  2.993679  1.089522  2.338727  3.351831
   H ( 11)  3.138236  3.339286  2.311330  2.277163  1.091601  2.153236
   C ( 12)  2.611794  1.625105  1.555423  1.452719  2.160065  2.904146
   H ( 13)  3.528051  2.341415  2.385906  2.298351  3.210985  3.965781
             H (  7)   H (  8)   H (  9)   H ( 10)   H ( 11)   C ( 12)
   H (  8)  2.701452
   H (  9)  4.283129  2.738910
   H ( 10)  4.761863  4.492747  3.759508
   H ( 11)  4.133413  4.338758  2.830506  2.706619
   C ( 12)  3.528996  2.312145  2.399250  2.267886  3.107690
   H ( 13)  4.324094  2.615764  2.923914  2.792577  4.089057  1.081896

 
 Applying Cartesian multipole field
    Component          Value
    ---------          -----
     (2,0,0)        1.00000E-11
     (0,2,0)        2.00000E-11
     (0,0,2)       -3.00000E-10
 Nucleus-field energy     =    -0.0000000202 hartrees
 Requested basis set is 6-31G(d)
 There are 40 shells and 117 basis functions
 A cutoff of  1.0D-14 yielded    811 shell pairs
 There are      7083 function pairs
 Smallest overlap matrix eigenvalue = 1.26E-03
 Guess MOs from core Hamiltonian diagonalization
 Mixing HOMO and LUMO in initial guess
 Adding  50% of the LUMO to the HOMO
 An unrestricted hybrid HF-DFT SCF calculation will be
 performed using Pulay DIIS extrapolation
 Exchange:     0.2000 Hartree-Fock + 0.0800 Slater + 0.7200 B88
 Correlation:  0.1900 VWN1RPA + 0.8100 LYP
 Using SG-1 standard quadrature grid
 SCF converges when DIIS error is below 1.0E-08
 using 4 threads for integral computing
 -------------------------------------------------------
 OpenMP Integral computing Module                
 Release: version 1.0, May 2013, Q-Chem Inc. Pittsburgh 
 -------------------------------------------------------
 -------------------------------------------------------
 OpenMP BLAS3 based DFT computing Module                
 Release: version 1.0, May 2013, Q-Chem Inc. Pittsburgh 
 -------------------------------------------------------
 ---------------------------------------
  Cycle       Energy         DIIS Error
 ---------------------------------------
    1    -236.5704321611      1.34E-01
    2    -230.9611920143      1.04E-01
    3    -259.4492412125      9.55E-02
    4    -272.0093838224      8.31E-02
    5    -281.1292671984      5.10E-02
    6    -285.5920218356      2.26E-02
    7    -286.1423085338      1.83E-02
    8    -286.6939534342      7.01E-03
    9    -286.7790187258      5.39E-03
   10    -286.8302055893      1.28E-03
   11    -286.8332434784      6.51E-04
   12    -286.8342836158      1.65E-04
   13    -286.8344516955      7.30E-05
   14    -286.8344811814      3.11E-05
   15    -286.8344855691      6.91E-06
   16    -286.8344865336      1.26E-06
   17    -286.8344869024      5.93E-07
   18    -286.8344870304      3.09E-07
   19    -286.8344871213      1.34E-07
   20    -286.8344871708      6.76E-08
   21    -286.8344871879      2.57E-08
   22    -286.8344871901      6.23E-09 Convergence criterion met
 ---------------------------------------
 <S^2> = 0.7551
 SCF time:  CPU 52.90 s  wall 13.88 s
 SCF   energy in the final basis set = -286.83448719
 Total energy in the final basis set = -286.83448719
 
 --------------------------------------------------------------
 
                    Orbital Energies (a.u.)
 --------------------------------------------------------------
 
 Alpha MOs
 -- Occupied --
-14.315 -10.220 -10.218 -10.218 -10.215 -10.213 -10.194  -0.962
 -0.854  -0.746  -0.659  -0.609  -0.571  -0.538  -0.512  -0.463
 -0.427  -0.413  -0.388  -0.369  -0.331  -0.314  -0.263  -0.255
 -0.170
 -- Virtual --
 -0.002   0.090   0.104   0.137   0.142   0.144   0.155   0.166
  0.184   0.197   0.208   0.245   0.277   0.329   0.375   0.384
  0.485   0.517   0.524   0.543   0.553   0.574   0.586   0.600
  0.613   0.623   0.669   0.678   0.702   0.757   0.777   0.796
  0.813   0.832   0.837   0.842   0.851   0.879   0.905   0.931
  0.947   1.020   1.070   1.109   1.152   1.234   1.272   1.370
  1.437   1.457   1.506   1.544   1.597   1.638   1.661   1.722
  1.787   1.820   1.869   1.895   1.908   1.922   1.999   2.017
  2.054   2.150   2.192   2.233   2.249   2.294   2.370   2.417
  2.465   2.483   2.510   2.527   2.588   2.610   2.615   2.678
  2.723   2.782   2.841   2.931   2.965   3.952   4.129   4.244
  4.350   4.469   4.507   4.657
 
 Beta MOs
 -- Occupied --
-14.315 -10.220 -10.219 -10.218 -10.213 -10.212 -10.181  -0.958
 -0.849  -0.736  -0.649  -0.603  -0.568  -0.536  -0.501  -0.460
 -0.422  -0.407  -0.385  -0.365  -0.317  -0.303  -0.259  -0.253
 -- Virtual --
 -0.038   0.006   0.092   0.108   0.141   0.147   0.149   0.157
  0.170   0.187   0.198   0.213   0.249   0.285   0.332   0.378
  0.394   0.488   0.523   0.536   0.553   0.555   0.578   0.590
  0.614   0.619   0.643   0.672   0.689   0.705   0.760   0.780
  0.800   0.815   0.836   0.838   0.845   0.854   0.882   0.908
  0.939   0.948   1.026   1.080   1.120   1.154   1.242   1.277
  1.373   1.442   1.463   1.513   1.548   1.600   1.643   1.671
  1.728   1.791   1.832   1.874   1.907   1.915   1.935   2.004
  2.026   2.070   2.155   2.205   2.239   2.261   2.300   2.386
  2.430   2.474   2.486   2.519   2.531   2.594   2.615   2.620
  2.682   2.730   2.788   2.849   2.933   2.966   3.955   4.134
  4.255   4.360   4.474   4.511   4.660
 --------------------------------------------------------------
 
          Ground-State Mulliken Net Atomic Charges

     Atom                 Charge (a.u.)    Spin (a.u.)
  --------------------------------------------------------
      1 C                     0.098997       0.008809
      2 C                    -0.195436       0.054924
      3 C                    -0.109329       0.115797
      4 C                    -0.070259       0.936170
      5 C                    -0.098948      -0.045297
      6 N                    -0.339631       0.014151
      7 H                     0.141543       0.004346
      8 H                     0.149180       0.001136
      9 H                     0.149962       0.008583
     10 H                     0.140770      -0.041841
     11 H                     0.142032       0.007046
     12 C                    -0.160266      -0.064432
     13 H                     0.151387       0.000609
  --------------------------------------------------------
  Sum of atomic charges =    -0.000000
  Sum of spin   charges =     1.000000

 -----------------------------------------------------------------
                    Cartesian Multipole Moments
 -----------------------------------------------------------------
    Charge (ESU x 10^10)
                -0.0000
    Dipole Moment (Debye)
         X      -0.6980      Y      -2.7949      Z       0.1079
       Tot       2.8827
    Quadrupole Moments (Debye-Ang)
        XX     -36.8728     XY      -2.5971     YY     -43.4885
        XZ       0.7990     YZ       0.4896     ZZ     -40.8927
    Octopole Moments (Debye-Ang^2)
       XXX      -3.5217    XXY      -5.6590    XYY      -8.3983
       YYY     -37.1735    XXZ       2.6467    XYZ       1.8522
       YYZ       3.2795    XZZ      -7.8241    YZZ     -10.1877
       ZZZ       1.5676
    Hexadecapole Moments (Debye-Ang^3)
      XXXX    -254.7041   XXXY     -10.3324   XXYY     -86.5680
      XYYY     -22.6623   YYYY    -274.9197   XXXZ      20.3733
      XXYZ       8.7879   XYYZ      11.7287   YYYZ      22.2489
      XXZZ     -70.2003   XYZZ      -3.5250   YYZZ     -67.1223
      XZZZ      23.1066   YZZZ      17.5491   ZZZZ    -155.1048
 -----------------------------------------------------------------
 Calculating analytic gradient of the SCF energy
 Gradient of SCF Energy
            1           2           3           4           5           6
    1  -0.0119353   0.0285114  -0.0086507   0.0093189  -0.0007945   0.0057643
    2  -0.0014361   0.0007913   0.0155110  -0.0103308  -0.0060484  -0.0037283
    3  -0.0018294   0.0004952  -0.0068830  -0.0043164   0.0018415   0.0024509
            7           8           9          10          11          12
    1   0.0023644  -0.0017045  -0.0027955  -0.0040414  -0.0000977  -0.0150471
    2   0.0003348   0.0025277  -0.0067103   0.0007722   0.0001730   0.0071959
    3  -0.0004349  -0.0015793  -0.0052480   0.0011133  -0.0015630   0.0179717
           13
    1  -0.0008923
    2   0.0009478
    3  -0.0020186
 Max gradient component =       2.851E-02
 RMS gradient           =       7.772E-03
 Gradient time:  CPU 7.67 s  wall 1.98 s
 FSM gradient convergence criteria satisfied
done with opt_step_by_gradient, Reactant, iter1
-Optimizing new product side node
 Using BFGS, step: 2 E_tol 0.0389333
 max_steps 6, node_spacing 0.0670001, sigma 0.7000000
 ----------------------------------------------------------------
             Standard Nuclear Orientation (Angstroms)
    I     Atom           X                Y                Z
 ----------------------------------------------------------------
    1      C       1.6446051897     0.6050514014    -0.2565185202
    2      C       1.2171567177    -0.7345282146    -0.3168377933
    3      C      -0.2652697728    -0.7446925437    -0.4717225725
    4      C      -1.2959803144     0.5444014262     0.8580618430
    5      C      -0.5698442056     0.8053367538    -0.4604984638
    6      N       0.6933137245     1.5261883253    -0.3327660903
    7      H       2.6808800547     0.9146763502    -0.1279699587
    8      H       1.8592494477    -1.6061551515    -0.2559680367
    9      H      -0.6582434019    -1.3704314026    -1.2822661283
   10      H      -1.8272025261     1.2066448827     1.5337201253
   11      H      -1.1775800048     1.2162617179    -1.2753763197
   12      C      -1.0313544643    -0.7724688473     0.8577994191
   13      H      -1.2724717767    -1.5896753381     1.5319283560
 ----------------------------------------------------------------
 Nuclear Repulsion Energy =   273.4064574467 hartrees
 There are       25 alpha and       24 beta electrons

                       Distance Matrix (Angstroms)
             C (  1)   C (  2)   C (  3)   C (  4)   C (  5)   N (  6)
   C (  2)  1.407418
   C (  3)  2.348562  1.490530
   C (  4)  3.145316  3.054817  2.119541
   C (  5)  2.232825  2.363302  1.579710  1.527731
   N (  6)  1.326372  2.320669  2.468824  2.517790  1.459969
   H (  7)  1.089155  2.213150  3.398745  4.113974  3.269517  2.089571
   H (  8)  2.221600  1.084307  2.302661  3.977616  3.428939  3.343184
   H (  9)  3.202780  2.203077  1.096795  2.941819  2.327463  3.334466
   H ( 10)  3.952255  4.057196  3.204552  1.085024  2.391423  3.152599
   H ( 11)  3.062087  3.234060  2.307273  2.239860  1.096462  2.117737
   C ( 12)  3.209365  2.537127  1.534694  1.343196  2.107219  3.110587
   H ( 13)  4.065059  3.216747  2.396470  2.238064  3.193671  4.129165
             H (  7)   H (  8)   H (  9)   H ( 10)   H ( 11)   C ( 12)
   H (  8)  2.654440
   H (  9)  4.207596  2.728850
   H ( 10)  4.813447  4.970388  3.992188
   H ( 11)  4.036732  4.269375  2.638321  2.883249
   C ( 12)  4.195103  3.207975  2.253143  2.237663  2.920080
   H ( 13)  4.965484  3.606178  2.888777  2.850813  3.970296  1.086469

 
 Applying Cartesian multipole field
    Component          Value
    ---------          -----
     (2,0,0)        1.00000E-11
     (0,2,0)        2.00000E-11
     (0,0,2)       -3.00000E-10
 Nucleus-field energy     =    -0.0000000172 hartrees
 Requested basis set is 6-31G(d)
 There are 40 shells and 117 basis functions
 A cutoff of  1.0D-14 yielded    806 shell pairs
 There are      7078 function pairs
 Smallest overlap matrix eigenvalue = 9.63E-04
 Guess MOs from core Hamiltonian diagonalization
 Mixing HOMO and LUMO in initial guess
 Adding  50% of the LUMO to the HOMO
 An unrestricted hybrid HF-DFT SCF calculation will be
 performed using Pulay DIIS extrapolation
 Exchange:     0.2000 Hartree-Fock + 0.0800 Slater + 0.7200 B88
 Correlation:  0.1900 VWN1RPA + 0.8100 LYP
 Using SG-1 standard quadrature grid
 SCF converges when DIIS error is below 1.0E-08
 using 4 threads for integral computing
 -------------------------------------------------------
 OpenMP Integral computing Module                
 Release: version 1.0, May 2013, Q-Chem Inc. Pittsburgh 
 -------------------------------------------------------
 -------------------------------------------------------
 OpenMP BLAS3 based DFT computing Module                
 Release: version 1.0, May 2013, Q-Chem Inc. Pittsburgh 
 -------------------------------------------------------
 ---------------------------------------
  Cycle       Energy         DIIS Error
 ---------------------------------------
    1    -232.3866031653      1.40E-01
    2    -229.1451333671      1.02E-01
    3    -251.6160517095      1.09E-01
    4    -282.3717342842      4.46E-02
    5    -284.5086254511      3.40E-02
    6    -286.4030293246      1.34E-02
    7    -286.4858388344      1.25E-02
    8    -286.8225962030      4.82E-03
    9    -286.8660236013      1.78E-03
   10    -286.8730633135      7.45E-04
   11    -286.8745308859      1.18E-04
   12    -286.8748243856      6.17E-05
   13    -286.8749048699      2.78E-05
   14    -286.8749278077      1.42E-05
   15    -286.8749340950      4.32E-06
   16    -286.8749350224      2.33E-06
   17    -286.8749351161      7.35E-07
   18    -286.8749351337      2.22E-07
   19    -286.8749351386      4.84E-08
   20    -286.8749351397      1.45E-08
   21    -286.8749351401      1.06E-08
   22    -286.8749351403      4.20E-09 Convergence criterion met
 ---------------------------------------
 <S^2> = 0.7767
 SCF time:  CPU 52.33 s  wall 14.20 s
 SCF   energy in the final basis set = -286.87493514
 Total energy in the final basis set = -286.87493514
 
 --------------------------------------------------------------
 
                    Orbital Energies (a.u.)
 --------------------------------------------------------------
 
 Alpha MOs
 -- Occupied --
-14.327 -10.218 -10.216 -10.207 -10.202 -10.199 -10.195  -0.944
 -0.837  -0.751  -0.664  -0.618  -0.554  -0.523  -0.516  -0.481
 -0.426  -0.404  -0.386  -0.355  -0.341  -0.321  -0.270  -0.251
 -0.202
 -- Virtual --
  0.011   0.032   0.114   0.129   0.143   0.147   0.160   0.166
  0.186   0.189   0.215   0.266   0.294   0.360   0.409   0.449
  0.487   0.504   0.530   0.543   0.577   0.591   0.597   0.617
  0.624   0.633   0.656   0.678   0.695   0.750   0.773   0.787
  0.814   0.825   0.839   0.856   0.862   0.874   0.910   0.931
  0.960   0.972   1.019   1.071   1.092   1.167   1.233   1.416
  1.424   1.438   1.473   1.497   1.526   1.559   1.633   1.698
  1.771   1.826   1.882   1.887   1.940   1.950   1.977   2.025
  2.049   2.147   2.178   2.218   2.227   2.265   2.314   2.346
  2.410   2.427   2.522   2.553   2.576   2.610   2.621   2.677
  2.697   2.868   2.900   2.917   2.991   3.911   4.097   4.204
  4.301   4.377   4.453   4.719
 
 Beta MOs
 -- Occupied --
-14.317 -10.219 -10.218 -10.203 -10.198 -10.198 -10.194  -0.933
 -0.831  -0.734  -0.664  -0.610  -0.549  -0.520  -0.513  -0.474
 -0.419  -0.397  -0.380  -0.345  -0.334  -0.301  -0.263  -0.245
 -- Virtual --
 -0.087   0.016   0.055   0.116   0.132   0.147   0.149   0.162
  0.167   0.190   0.195   0.220   0.270   0.296   0.366   0.413
  0.452   0.491   0.512   0.533   0.547   0.581   0.596   0.611
  0.617   0.629   0.634   0.662   0.682   0.707   0.753   0.776
  0.795   0.824   0.831   0.845   0.860   0.865   0.882   0.914
  0.935   0.967   0.978   1.026   1.077   1.096   1.174   1.237
  1.426   1.437   1.443   1.479   1.505   1.530   1.566   1.636
  1.703   1.783   1.833   1.897   1.901   1.945   1.956   1.980
  2.028   2.052   2.152   2.186   2.230   2.241   2.270   2.325
  2.351   2.415   2.434   2.535   2.561   2.587   2.619   2.631
[...]

     Atom                 Charge (a.u.)    Spin (a.u.)
  --------------------------------------------------------
      1 C                     0.094408       0.009642
      2 C                    -0.195690       0.158680
      3 C                    -0.109354       0.079010
      4 C                    -0.063210       0.894722
      5 C                    -0.086774      -0.060731
      6 N                    -0.350421       0.045897
      7 H                     0.143979       0.005164
      8 H                     0.145465      -0.000351
      9 H                     0.147568       0.004861
     10 H                     0.145420      -0.040373
     11 H                     0.142169       0.015392
     12 C                    -0.162738      -0.114640
     13 H                     0.149178       0.002726
  --------------------------------------------------------
  Sum of atomic charges =     0.000000
  Sum of spin   charges =     1.000000

 -----------------------------------------------------------------
                    Cartesian Multipole Moments
 -----------------------------------------------------------------
    Charge (ESU x 10^10)
                -0.0000
    Dipole Moment (Debye)
         X      -0.6285      Y      -2.4870      Z       0.2296
       Tot       2.5755
    Quadrupole Moments (Debye-Ang)
        XX     -37.0348     XY      -2.5922     YY     -43.2257
        XZ       0.3012     YZ       1.0049     ZZ     -40.3200
    Octopole Moments (Debye-Ang^2)
       XXX       0.6148    XXY      -4.6223    XYY      -8.0973
       YYY     -34.7666    XXZ       2.7071    XYZ       1.3302
       YYZ       4.1552    XZZ      -7.8410    YZZ      -8.2507
       ZZZ       3.0111
    Hexadecapole Moments (Debye-Ang^3)
      XXXX    -265.5872   XXXY     -10.1397   XXYY     -86.6783
      XYYY     -23.0621   YYYY    -278.6062   XXXZ      23.0158
      XXYZ       8.6835   XYYZ      10.3696   YYYZ      22.0043
      XXZZ     -70.1006   XYZZ      -4.6789   YYZZ     -65.3102
      XZZZ      23.3847   YZZZ      17.9477   ZZZZ    -148.5420
 -----------------------------------------------------------------
 Calculating analytic gradient of the SCF energy
 Gradient of SCF Energy
            1           2           3           4           5           6
    1   0.0175093   0.0039861   0.0009858  -0.0005396  -0.0052392   0.0048861
    2   0.0171486  -0.0091751   0.0063236  -0.0002027   0.0035823  -0.0092224
    3  -0.0020930  -0.0029837   0.0053211   0.0026933  -0.0050686   0.0045832
            7           8           9          10          11          12
    1  -0.0107208   0.0033880  -0.0009062  -0.0038870   0.0031804  -0.0079220
    2  -0.0032587   0.0026166  -0.0030177  -0.0004974  -0.0032959  -0.0048160
    3  -0.0044313  -0.0039457  -0.0008776  -0.0017770   0.0032488   0.0064764
           13
    1  -0.0047209
    2   0.0038147
    3  -0.0011461
 Max gradient component =       1.751E-02
 RMS gradient           =       5.976E-03
 Gradient time:  CPU 7.81 s  wall 2.00 s
 ----------------------------------------------------------------
             Standard Nuclear Orientation (Angstroms)
    I     Atom           X                Y                Z
 ----------------------------------------------------------------
    1      C       1.5514072670     0.6108816786    -0.1563658609
    2      C       0.9433595578    -0.7495837631    -0.0030924361
    3      C      -0.3707228641    -0.6846958554    -0.6809206261
    4      C      -1.1233453869     0.5693148645     0.8366244889
    5      C      -0.6199329719     0.8713853860    -0.5707053992
    6      N       0.7147709575     1.5163220518    -0.4924165071
    7      H       2.5902201104     0.8233894538     0.0057937021
    8      H       1.5495178774    -1.6493244577     0.0161613616
    9      H      -0.7532517372    -1.3801647792    -1.4311461101
   10      H      -1.8455677951     1.0705240544     1.4698934163
   11      H      -1.2775472220     1.3697928572    -1.2720359671
   12      C      -0.5602935544    -0.7640371911     0.8256092562
   13      H      -0.8146599774    -1.6042747442     1.4566035881
 ----------------------------------------------------------------
 Nuclear Repulsion Energy =   280.0577762990 hartrees
 There are       25 alpha and       24 beta electrons

                       Distance Matrix (Angstroms)
             C (  1)   C (  2)   C (  3)   C (  4)   C (  5)   N (  6)
   C (  2)  1.498026
   C (  3)  2.376607  1.480025
   C (  4)  2.853429  2.591503  2.107588
   C (  5)  2.225816  2.322414  1.579760  1.524876
   N (  6)  1.277776  2.329382  2.461364  2.458016  1.484421
   H (  7)  1.072654  2.277383  3.393093  3.813844  3.261861  2.060504
   H (  8)  2.266782  1.085049  2.259149  3.569274  3.377115  3.313121
   H (  9)  3.301634  2.305528  1.092174  3.013341  2.414044  3.380228
   H ( 10)  3.794131  3.641510  3.143559  1.083441  2.388698  3.256491
   H ( 11)  3.134270  3.321807  2.322213  2.260750  1.082927  2.144437
   C ( 12)  2.704433  1.716953  1.520482  1.447403  2.151246  2.926264
   H ( 13)  3.620340  2.439640  2.368906  2.281261  3.205744  3.984465
             H (  7)   H (  8)   H (  9)   H ( 10)   H ( 11)   C ( 12)
   H (  8)  2.682812
   H (  9)  4.254321  2.733111
   H ( 10)  4.677700  4.586668  3.951590
   H ( 11)  4.109870  4.332069  2.804009  2.816094
   C ( 12)  3.621844  2.426982  2.347294  2.330804  3.076979
   H ( 13)  4.426241  2.768798  2.897084  2.866618  4.062612  1.081136

 
 Applying Cartesian multipole field
    Component          Value
    ---------          -----
     (2,0,0)        1.00000E-11
     (0,2,0)        2.00000E-11
     (0,0,2)       -3.00000E-10
 Nucleus-field energy     =    -0.0000000194 hartrees
 Requested basis set is 6-31G(d)
 There are 40 shells and 117 basis functions
 A cutoff of  1.0D-14 yielded    811 shell pairs
 There are      7083 function pairs
 Smallest overlap matrix eigenvalue = 1.12E-03
 Guess MOs from core Hamiltonian diagonalization
 Mixing HOMO and LUMO in initial guess
 Adding  50% of the LUMO to the HOMO
 An unrestricted hybrid HF-DFT SCF calculation will be
 performed using Pulay DIIS extrapolation
 Exchange:     0.2000 Hartree-Fock + 0.0800 Slater + 0.7200 B88
 Correlation:  0.1900 VWN1RPA + 0.8100 LYP
 Using SG-1 standard quadrature grid
 SCF converges when DIIS error is below 1.0E-08
 using 4 threads for integral computing
 -------------------------------------------------------
 OpenMP Integral computing Module                
 Release: version 1.0, May 2013, Q-Chem Inc. Pittsburgh 
 -------------------------------------------------------
 -------------------------------------------------------
 OpenMP BLAS3 based DFT computing Module                
 Release: version 1.0, May 2013, Q-Chem Inc. Pittsburgh 
 -------------------------------------------------------
 ---------------------------------------
  Cycle       Energy         DIIS Error
 ---------------------------------------
    1    -235.9916291852      1.36E-01
    2    -233.2067214433      1.02E-01
    3    -262.0981342141      9.05E-02
    4    -269.2280983291      8.61E-02
    5    -280.1702355992      5.55E-02
    6    -285.4610874970      2.46E-02
    7    -286.1929839343      1.66E-02
    8    -286.7090488953      7.10E-03
    9    -286.8246604952      1.64E-03
   10    -286.8300467942      9.53E-04
   11    -286.8322277416      3.19E-04
   12    -286.8326846276      1.43E-04
   13    -286.8327629608      9.74E-05
   14    -286.8327960196      2.31E-05
   15    -286.8328018388      7.35E-06
   16    -286.8328046920      1.47E-06
   17    -286.8328058625      1.14E-06
   18    -286.8328064685      6.17E-07
   19    -286.8328069048      3.11E-07
   20    -286.8328069617      1.22E-07
   21    -286.8328069662      2.76E-08
   22    -286.8328069664      5.96E-09 Convergence criterion met
 ---------------------------------------
 <S^2> = 0.7579
 SCF time:  CPU 53.08 s  wall 13.70 s
 SCF   energy in the final basis set = -286.83280697
 Total energy in the final basis set = -286.83280697
 
 --------------------------------------------------------------
 
                    Orbital Energies (a.u.)
 --------------------------------------------------------------
 
 Alpha MOs
 -- Occupied --
-14.314 -10.219 -10.217 -10.217 -10.213 -10.208 -10.197  -0.957
 -0.852  -0.745  -0.658  -0.610  -0.567  -0.535  -0.520  -0.462
 -0.434  -0.413  -0.388  -0.360  -0.329  -0.315  -0.263  -0.252
 -0.169
 -- Virtual --
  0.000   0.096   0.105   0.129   0.137   0.145   0.159   0.166
  0.182   0.193   0.220   0.252   0.273   0.326   0.376   0.391
  0.482   0.518   0.530   0.543   0.560   0.576   0.582   0.602
  0.611   0.620   0.671   0.675   0.709   0.760   0.779   0.803
  0.823   0.831   0.836   0.849   0.863   0.879   0.909   0.918
  0.940   1.015   1.052   1.144   1.167   1.195   1.278   1.371
  1.455   1.472   1.516   1.542   1.563   1.617   1.677   1.712
  1.767   1.816   1.870   1.888   1.929   1.951   2.007   2.021
  2.040   2.121   2.182   2.234   2.252   2.310   2.357   2.441
  2.457   2.483   2.529   2.554   2.577   2.597   2.625   2.678
  2.743   2.808   2.843   2.917   2.963   3.944   4.105   4.252
  4.371   4.459   4.501   4.672
 
 Beta MOs
 -- Occupied --
-14.313 -10.220 -10.219 -10.216 -10.211 -10.206 -10.185  -0.952
 -0.847  -0.734  -0.650  -0.602  -0.563  -0.533  -0.510  -0.459
 -0.429  -0.407  -0.383  -0.356  -0.314  -0.308  -0.255  -0.249
 -- Virtual --
 -0.051   0.013   0.099   0.112   0.134   0.143   0.150   0.161
  0.169   0.185   0.195   0.224   0.256   0.279   0.330   0.379
  0.400   0.485   0.523   0.536   0.554   0.565   0.581   0.586
  0.612   0.620   0.647   0.677   0.679   0.714   0.763   0.783
  0.806   0.825   0.835   0.838   0.850   0.869   0.882   0.912
  0.924   0.943   1.019   1.063   1.145   1.176   1.200   1.283
  1.374   1.458   1.487   1.524   1.546   1.569   1.624   1.680
  1.716   1.774   1.830   1.874   1.898   1.942   1.961   2.015
  2.029   2.054   2.128   2.188   2.239   2.263   2.319   2.372
  2.453   2.465   2.486   2.532   2.566   2.581   2.605   2.629
  2.683   2.750   2.814   2.849   2.920   2.965   3.948   4.111
  4.263   4.378   4.464   4.506   4.675
 --------------------------------------------------------------
 
          Ground-State Mulliken Net Atomic Charges

     Atom                 Charge (a.u.)    Spin (a.u.)
  --------------------------------------------------------
      1 C                     0.094460       0.011390
      2 C                    -0.195761       0.149041
      3 C                    -0.108836       0.080476
      4 C                    -0.063902       0.902086
      5 C                    -0.087186      -0.060858
      6 N                    -0.349724       0.042229
      7 H                     0.144099       0.005065
      8 H                     0.145447       0.000017
      9 H                     0.147662       0.004668
     10 H                     0.145366      -0.040968
     11 H                     0.142068       0.015044
     12 C                    -0.162752      -0.110917
     13 H                     0.149061       0.002726
  --------------------------------------------------------
  Sum of atomic charges =     0.000000
  Sum of spin   charges =     1.000000

 -----------------------------------------------------------------
                    Cartesian Multipole Moments
 -----------------------------------------------------------------
    Charge (ESU x 10^10)
                -0.0000
    Dipole Moment (Debye)
         X      -0.6218      Y      -2.4866      Z       0.2251
       Tot       2.5730
    Quadrupole Moments (Debye-Ang)
        XX     -37.0251     XY      -2.5882     YY     -43.2305
        XZ       0.3135     YZ       1.0028     ZZ     -40.3275
    Octopole Moments (Debye-Ang^2)
       XXX       0.5684    XXY      -4.6349    XYY      -8.1031
       YYY     -34.7819    XXZ       2.7057    XYZ       1.3372
       YYZ       4.1250    XZZ      -7.8391    YZZ      -8.2765
       ZZZ       2.9699
    Hexadecapole Moments (Debye-Ang^3)
      XXXX    -264.8512   XXXY     -10.1007   XXYY     -86.6048
      XYYY     -23.0141   YYYY    -278.5915   XXXZ      22.7662
      XXYZ       8.7033   XYYZ      10.3363   YYYZ      22.0751
      XXZZ     -69.9984   XYZZ      -4.6653   YYZZ     -65.3668
      XZZZ      23.1909   YZZZ      18.0052   ZZZZ    -148.7055
 -----------------------------------------------------------------
 Calculating analytic gradient of the SCF energy
 Gradient of SCF Energy
            1           2           3           4           5           6
    1   0.0176004   0.0040784   0.0009807  -0.0006414  -0.0053656   0.0048917
    2   0.0172253  -0.0092303   0.0064708  -0.0002701   0.0034690  -0.0092273
    3  -0.0021501  -0.0031587   0.0053882   0.0025651  -0.0051499   0.0046743
            7           8           9          10          11          12
    1  -0.0107058   0.0034885  -0.0008914  -0.0038259   0.0032320  -0.0080822
    2  -0.0032350   0.0025748  -0.0030618  -0.0003149  -0.0033470  -0.0045915
    3  -0.0043921  -0.0038848  -0.0009076  -0.0016130   0.0032902   0.0062396
           13
    1  -0.0047594
    2   0.0035381
    3  -0.0009013
 Max gradient component =       1.760E-02
 RMS gradient           =       5.993E-03
 Gradient time:  CPU 7.80 s  wall 2.00 s
 E1 = -286.8326011, E2 = -286.8328070, Emax = -286.8327031
 Iteration 5, Curvature = -0.0580766
 Curvature, final (in Hartree/Bohr^2) = -0.0162631
 ----------------------------------------------------------------
             Standard Nuclear Orientation (Angstroms)
    I     Atom           X                Y                Z
 ----------------------------------------------------------------
    1      C       1.5518019028     0.6108467331    -0.1568094909
    2      C       0.9451006134    -0.7495070918    -0.0050180267
    3      C      -0.3699577208    -0.6851743759    -0.6800333020
    4      C      -1.1247653500     0.5686842036     0.8364732372
    5      C      -0.6195929187     0.8712234323    -0.5702726817
    6      N       0.7145669470     1.5164233525    -0.4918017299
    7      H       2.5904798203     0.8238364866     0.0054519179
    8      H       1.5508990504    -1.6493505912     0.0153923686
    9      H      -0.7529995649    -1.3800750190    -1.4305779183
   10      H      -1.8449783137     1.0716305403     1.4705292099
   11      H      -1.2772205288     1.3691989383    -1.2720391092
   12      C      -0.5635178927    -0.7640778203     0.8256719793
   13      H      -0.8159519658    -1.6041794775     1.4570872622
 ----------------------------------------------------------------
 Nuclear Repulsion Energy =   280.0208246817 hartrees
 There are       25 alpha and       24 beta electrons
 Requested basis set is 6-31G(d)
 There are 40 shells and 117 basis functions
 Geometry Optimization Parameters
   NAtoms,    NIC,     NZ,  NCons,   NDum,   NFix, NCnnct, MaxDiis
       13     128       0       0       0       0       0       0


** GEOMETRY OPTIMIZATION IN DELOCALIZED INTERNAL COORDINATES **
   Searching for a Minimum

   Optimization Cycle:   1

                       Coordinates (Angstroms)
     ATOM                X               Y               Z
      1  C         1.5518019028    0.6108467331   -0.1568094909
      2  C         0.9451006134   -0.7495070918   -0.0050180267
      3  C        -0.3699577208   -0.6851743759   -0.6800333020
      4  C        -1.1247653500    0.5686842036    0.8364732372
      5  C        -0.6195929187    0.8712234323   -0.5702726817
      6  N         0.7145669470    1.5164233525   -0.4918017299
      7  H         2.5904798203    0.8238364866    0.0054519179
      8  H         1.5508990504   -1.6493505912    0.0153923686
      9  H        -0.7529995649   -1.3800750190   -1.4305779183
     10  H        -1.8449783137    1.0716305403    1.4705292099
     11  H        -1.2772205288    1.3691989383   -1.2720391092
     12  C        -0.5635178927   -0.7640778203    0.8256719793
     13  H        -0.8159519658   -1.6041794775    1.4570872622
   Point Group: c1    Number of degrees of freedom:    33


   Energy is   -286.832806966


 Attempting to Generate Delocalized Internal Coordinates

 33 Hessian modes will be used to form the next step
  Hessian Eigenvalues:
     0.011397    0.011815    0.014752    0.015623    0.017993    0.019417
     0.023627    0.043325    0.046721    0.056336    0.057507    0.075308
     0.089972    0.105991    0.126706    0.134869    0.143223    0.159994
     0.168226    0.178305    0.222991    0.266256    0.276370    0.300247
     0.329613    0.345584    0.346282    0.354023    0.355903    0.356320
     0.358950    0.368991    0.655512

 Minimum Search - Taking Simple RFO Step
 Searching for Lamda that Minimizes Along All modes
 Value Taken    Lamda =  -0.00527995
 Calculated Step too Large.  Step scaled by  0.867309
 Step Taken.  Stepsize is  0.300000

                             Maximum     Tolerance    Cnvgd?
         Gradient           0.010563      0.000300      NO
         Displacement       0.118062      0.001200      NO
         Energy change     *********      0.000001      NO


 New Cartesian Coordinates Obtained by Inverse Iteration

 Displacement from previous Coordinates is:  0.340665
 ----------------------------------------------------------------
             Standard Nuclear Orientation (Angstroms)
    I     Atom           X                Y                Z
 ----------------------------------------------------------------
    1      C       1.5156601093     0.6065937158    -0.1393472137
    2      C       0.9245491449    -0.7504467226    -0.0114805108
    3      C      -0.3780618329    -0.6938810576    -0.7075987837
    4      C      -1.0905906018     0.5719188792     0.8279566693
    5      C      -0.6293880886     0.8652559333    -0.5941076961
    6      N       0.6980911547     1.5150880079    -0.5285591757
    7      H       2.5537852351     0.8333478985     0.0894564656
    8      H       1.5226414238    -1.6534376985     0.0574919511
    9      H      -0.7575517687    -1.3857116487    -1.4573028469
   10      H      -1.7553204016     1.0959137626     1.5012025046
   11      H      -1.3038438456     1.3736639952    -1.2833722179
   12      C      -0.5529484317    -0.7684115150     0.8004658918
   13      H      -0.7631580182    -1.6104142389     1.4492486791
 ----------------------------------------------------------------
 Nuclear Repulsion Energy =   281.0412554965 hartrees
 There are       25 alpha and       24 beta electrons

































 Eigenvalues after right structure
 -0.0623431 -0.0000000 -0.0000000 -0.0000000 -0.0000000 0.0000000 0.0000477 0.0136775 0.0175730 0.0422147 0.0483049 0.0529453 0.0639024 0.0674930 0.0738643 0.0881393 0.0925066 0.1084722 0.1364926 0.1461473 0.1835183 0.2145626 0.2508848 0.2662049 0.2900609 0.3576883 0.3775955 0.4899051 0.5434733 0.6964529 0.7528779 0.8464404 1.0264215 1.1301227 1.1511229 1.1722065 1.3091902 1.3778108 1.7853086
Archival summary:
1\1\c8-66\JobtypUnspecified\ProcedureUnspecified\6-31G*\166(2)\hpark21\FriMar406:14:252022FriMar406:14:252022\0\\#,JobtypUnspecified,ProcedureUnspecified,6-31G*,\\0,2\N\C,1,1.28268\H,2,1.08696,1,121.66\C,1,1.47945,2,105.918,3,-173.944,0\H,4,1.09016,1,112.228,2,-155.924,0\C,2,1.48571,1,114.8,3,179.109,0\H,6,1.08529,2,123.105,1,163.943,0\C,6,1.47803,2,105.971,1,13.9003,0\H,8,1.08844,6,127.398,2,130.192,0\C,8,1.52,6,68.4228,2,-108.059,0\H,10,1.08355,8,130.88,6,-98.1705,0\C,10,1.4444,8,90.9288,6,112.816,0\H,12,1.08152,10,133.647,8,154.564,0\\\@

 Total job time:  1580.30s(wall), 5999.08s(cpu) 
 Fri Mar  4 06:14:25 2022

        *************************************************************
        *                                                           *
        *  Thank you very much for using Q-Chem.  Have a nice day.  *
        *                                                           *
        *************************************************************


