
Running Job 1 of 1 qcirc.in
qchem qcirc.in_55266.0 ./qcirc.d/ 1
/home/leeping/opt/qchem/5.0.2-openmp/exe/qcprog.exe_s qcirc.in_55266.0 ./qcirc.d/
Check license passed

                  Welcome to Q-Chem
     A Quantum Leap Into The Future Of Chemistry


 Q-Chem 5.0, Q-Chem, Inc., Pleasanton, CA (2017)

 Yihan Shao,  Zhengting Gan,  E. Epifanovsky,  A. T. B. Gilbert,  M. Wormit,  
 J. Kussmann,  A. W. Lange,  A. Behn,  Jia Deng,  Xintian Feng,  D. Ghosh,  
 M. Goldey,  P. R. Horn,  L. D. Jacobson,  I. Kaliman,  T. Kus,  A. Landau,  
 Jie Liu,  E. I. Proynov,  R. M. Richard,  R. P. Steele,  E. J. Sundstrom,  
 H. L. Woodcock III,  P. M. Zimmerman,  D. Zuev,  B. Albrecht,  E. Alguire,  
 S. A. Baeppler,  D. Barton,  Z. Benda,  Y. A. Bernard,  E. J. Berquist,  
 K. B. Bravaya,  H. Burton,  D. Casanova,  Chun-Min Chang,  Yunqing Chen,  
 A. Chien,  K. D. Closser,  M. P. Coons,  S. Dasgupta,  A. L. Dempwolff,  
 M. Diedenhofen,  Hainam Do,  R. G. Edgar,  Po-Tung Fang,  S. Fatehi,  
 Qingguo Feng,  J. Fosso-Tande,  Qinghui Ge,  A. Ghysels,  G. Gidofalvi,  
 J. Gomes,  J. Gonthier,  A. Gunina,  M. W. D. Hanson-Heine,  
 P. H. P. Harbach,  A. W. Hauser,  J. E. Herr,  E. G. Hohenstein,  
 Z. C. Holden,  Kerwin Hui,  T.-C. Jagau,  Hyunjun Ji,  B. Kaduk,  
 K. Khistyaev,  Jaehoon Kim,  P. Klunzinger,  K. Koh,  D. Kosenkov,  
 L. Koulias,  T. Kowalczyk,  C. M. Krauter,  A. Kunitsa,  Ka Un Lao,  
 A. Laurent,  K. V. Lawler,  Joonho Lee,  D. Lefrancois,  S. Lehtola,  
 D. S. Levine,  Yi-Pei Li,  You-Sheng Lin,  Fenglai Liu,  E. Livshits,  
 A. Luenser,  P. Manohar,  E. Mansoor,  S. F. Manzer,  Shan-Ping Mao,  
 Yuezhi Mao,  N. Mardirossian,  A. V. Marenich,  T. Markovich,  
 L. A. Martinez-Martinez,  S. A. Maurer,  N. J. Mayhall,  S. C. McKenzie,  
 J.-M. Mewes,  A. F. Morrison,  J. W. Mullinax,  K. Nanda,  
 T. S. Nguyen-Beck,  R. Olivares-Amaya,  J. A. Parkhill,  T. M. Perrine,  
 F. Plasser,  S. Prager,  A. Prociuk,  E. Ramos,  D. R. Rehn,  F. Rob,  
 M. Schneider,  N. Sergueev,  S. M. Sharada,  S. Sharma,  D. W. Small,  
 T. Stauch,  T. Stein,  Yu-Chuan Su,  A. J. W. Thom,  A. Tkatchenko,  
 T. Tsuchimochi,  L. Vogt,  O. Vydrov,  M. A. Watson,  J. Wenzel,  
 M. de Wergifosse,  T. A. Wesolowski,  A. White,  J. Witte,  A. Yamada,  
 Jun Yang,  K. Yao,  S. Yeganeh,  S. R. Yost,  Zhi-Qiang You,  A. Zech,  
 Igor Ying Zhang,  Xing Zhang,  Yan Zhao,  Ying Zhu,  B. R. Brooks,  
 G. K. L. Chan,  C. J. Cramer,  M. S. Gordon,  W. J. Hehre,  A. Klamt,  
 M. W. Schmidt,  C. D. Sherrill,  D. G. Truhlar,  A. Aspuru-Guzik,  R. Baer,  
 A. T. Bell,  N. A. Besley,  Jeng-Da Chai,  R. A. DiStasio Jr.,  A. Dreuw,  
 B. D. Dunietz,  T. R. Furlani,  Chao-Ping Hsu,  Yousung Jung,  Jing Kong,  
 D. S. Lambrecht,  WanZhen Liang,  C. Ochsenfeld,  V. A. Rassolov,  
 L. V. Slipchenko,  J. E. Subotnik,  T. Van Voorhis,  J. M. Herbert,  
 A. I. Krylov,  P. M. W. Gill,  M. Head-Gordon

 Contributors to earlier versions of Q-Chem not listed above: 
 R. D. Adamson,  B. Austin,  J. Baker,  G. J. O. Beran,  K. Brandhorst,  
 S. T. Brown,  E. F. C. Byrd,  A. K. Chakraborty,  C.-L. Cheng,  
 Siu Hung Chien,  D. M. Chipman,  D. L. Crittenden,  H. Dachsel,  
 R. J. Doerksen,  A. D. Dutoi,  L. Fusti-Molnar,  W. A. Goddard III,  
 A. Golubeva-Zadorozhnaya,  S. R. Gwaltney,  G. Hawkins,  A. Heyden,  
 S. Hirata,  G. Kedziora,  F. J. Keil,  C. Kelley,  Jihan Kim,  R. A. King,  
 R. Z. Khaliullin,  P. P. Korambath,  W. Kurlancheek,  A. M. Lee,  M. S. Lee,  
 S. V. Levchenko,  Ching Yeh Lin,  D. Liotard,  R. C. Lochan,  I. Lotan,  
 P. E. Maslen,  N. Nair,  D. P. O'Neill,  D. Neuhauser,  E. Neuscamman,  
 C. M. Oana,  R. Olson,  B. Peters,  R. Peverati,  P. A. Pieniazek,  
 Y. M. Rhee,  J. Ritchie,  M. A. Rohrdanz,  E. Rosta,  N. J. Russ,  
 H. F. Schaefer III,  N. E. Schultz,  N. Shenvi,  A. C. Simmonett,  A. Sodt,  
 D. Stuck,  K. S. Thanthiriwatte,  V. Vanovschi,  Tao Wang,  A. Warshel,  
 C. F. Williams,  Q. Wu,  X. Xu,  W. Zhang

 Please cite Q-Chem as follows:
 Y. Shao et al., Mol. Phys. 113, 184-215 (2015)
 DOI: 10.1080/00268976.2014.952696

 Q-Chem 5.0.2 for Intel X86 EM64T Linux

 Parts of Q-Chem use Armadillo 5.200.1 (Boston Tea Smuggler).
 http://arma.sourceforge.net/

 Q-Chem begins on Fri Mar  4 07:18:46 2022  

Host: 
0

     Scratch files written to ./qcirc.d//
 Dec517 15110_ 26548  26544 5633   
Processing $rem in /home/leeping/opt/qchem/5.0.2-openmp/config/preferences.
 MEM_STATIC 2000
 MEM_TOTAL  8000
 SYMMETRY   OFF
 SYM_IGNORE TRUE 

Checking the input file for inconsistencies... 	...done.

--------------------------------------------------------------
User input:
--------------------------------------------------------------
$molecule
0 2
C        1.5126256955    0.5718827943   -0.1265345956
C        0.8242103590   -0.7654870928    0.0075501159
C       -0.3373483257   -0.6220407174   -0.9227065200
C       -1.1017192754    0.5040942641    0.7909218149
C       -0.6327356438    0.8668113360   -0.6144183946
N        0.7199768901    1.5058017760   -0.5041400591
H        2.5549161358    0.7612122999    0.1212627937
H        1.4016104120   -1.6860700303    0.0411042303
H       -0.8272480085   -1.3411343797   -1.5629885816
H       -1.8723948755    0.9418594009    1.4085591551
H       -1.3062060044    1.4370082431   -1.2514671036
C       -0.3823661472   -0.6887704934    0.9510658830
H       -0.5694571332   -1.4856880896    1.6658449782
$end

$rem
method                b3lyp
basis                 6-31+g(d,p)
unrestricted          true
symmetry              off
sym_ignore            true
incdft                false
incfock               0
scf_convergence       8
thresh                14
jobtype               rpath
scf_guess             core
scf_guess_mix         5
scf_algorithm         diis
max_scf_cycles        100
rpath_direction       1
rpath_tol_displacement 1000
rpath_max_cycles      50
geom_opt_max_cycles   300
geom_opt_hessian      read
$end

--------------------------------------------------------------
 ----------------------------------------------------------------
             Standard Nuclear Orientation (Angstroms)
    I     Atom           X                Y                Z
 ----------------------------------------------------------------
    1      C       1.5126256955     0.5718827943    -0.1265345956
    2      C       0.8242103590    -0.7654870928     0.0075501159
    3      C      -0.3373483257    -0.6220407174    -0.9227065200
    4      C      -1.1017192754     0.5040942641     0.7909218149
    5      C      -0.6327356438     0.8668113360    -0.6144183946
    6      N       0.7199768901     1.5058017760    -0.5041400591
    7      H       2.5549161358     0.7612122999     0.1212627937
    8      H       1.4016104120    -1.6860700303     0.0411042303
    9      H      -0.8272480085    -1.3411343797    -1.5629885816
   10      H      -1.8723948755     0.9418594009     1.4085591551
   11      H      -1.3062060044     1.4370082431    -1.2514671036
   12      C      -0.3823661472    -0.6887704934     0.9510658830
   13      H      -0.5694571332    -1.4856880896     1.6658449782
 ----------------------------------------------------------------
 Nuclear Repulsion Energy =   280.5485200165 hartrees
 There are       25 alpha and       24 beta electrons
 Requested basis set is 6-31+G(d,p)
 There are 53 shells and 163 basis functions

 Total QAlloc Memory Limit   8000 MB
 Mega-Array Size      1956 MB
 MEM_STATIC part      2000 MB
 Starting direction for rxn path = 1

                       Distance Matrix (Angstroms)
             C (  1)   C (  2)   C (  3)   C (  4)   C (  5)   N (  6)
   C (  2)  1.510117
   C (  3)  2.341313  1.495049
   C (  4)  2.771484  2.436127  2.188370
   C (  5)  2.219817  2.274628  1.548863  1.525284
   N (  6)  1.281828  2.330546  2.412643  2.449322  1.500100
   H (  7)  1.087942  2.310646  3.371714  3.726330  3.273149  2.076667
   H (  8)  2.266887  1.087193  2.255009  3.409649  3.329486  3.309073
   H (  9)  3.346348  2.350591  1.080305  3.003514  2.410943  3.408828
   H ( 10)  3.735205  3.485619  3.199524  1.080303  2.373779  3.270602
   H ( 11)  3.155904  3.312821  2.299228  2.254661  1.088356  2.160705
   C ( 12)  2.518226  1.533602  1.875501  1.402156  2.221094  2.854633
   H ( 13)  3.432389  2.282748  2.738679  2.237862  3.276867  3.914139
             H (  7)   H (  8)   H (  9)   H ( 10)   H ( 11)   C ( 12)
   H (  8)  2.706609
   H (  9)  4.323841  2.767653
   H ( 10)  4.614201  4.415321  3.890307
   H ( 11)  4.153234  4.330892  2.836287  2.764323
   C ( 12)  3.379149  2.237232  2.635141  2.255757  3.197431
   H ( 13)  4.146806  2.562234  3.242332  2.767098  4.194718  1.086734

 
 A cutoff of  1.0D-14 yielded   1404 shell pairs
 There are     13506 function pairs
 
 -------------------------------------------------------
 OpenMP Integral Computing Module                       
 Release: version 1.0, May 2013, Q-Chem Inc. Pittsburgh 
 -------------------------------------------------------
 Integral Job Info:
 Integral job number is                      11
 Integral operator is                         1
 short-range coefficients                     0
 long-range coefficients              100000000
 Omega coefficients                           0
 if combine SR and LR in K                    0
 Integral screening is                        0
 Integral computing path is                   2
 max size of driver memory is            800000
 size of driver memory is                593474
 size of scratch memory is              2361544
 max col of scratch BK array               1296
 max len of scratch array in speh3          155
 max len of scratch index in speh4           18
 max int batch size is                      520
 min int batch size is                       52
 fixed nKL is                                52
 max L of basis functions is                  2
 order of int derivative is                   0
 number of shells is                         53
 number of basis is                         163
 number of cartesian basis is               163
 number of contracted shell pairs          1404
 number of primitive shell pairs           4827
 maxK2 (contraction) of shell pair           36
 max number of K2 of shell pair               1
 max number of CS2 of shell pair            126
 max number of PS2 of shell pair            696
 mem total for path MDJ                  535308
 -------------------------------------------------------
 Smallest overlap matrix eigenvalue = 2.31E-05

 Scale SEOQF with 1.000000e-01/1.000000e-01/1.000000e-01

 Standard Electronic Orientation quadrupole field applied
 Nucleus-field energy     =     0.0000000018 hartrees
 Guess MOs from core Hamiltonian diagonalization
 Mixing HOMO and LUMO in initial guess
 Adding  50% of the LUMO to the HOMO
 An unrestricted hybrid HF-DFT SCF calculation will be
 performed using Pulay DIIS extrapolation
 Exchange:     0.2000 Hartree-Fock + 0.0800 Slater + 0.7200 B88
 Correlation:  0.1900 VWN1RPA + 0.8100 LYP
 Using SG-1 standard quadrature grid
 SCF converges when DIIS error is below 1.0E-08
 using 4 threads for integral computing
 -------------------------------------------------------
 OpenMP Integral computing Module                
 Release: version 1.0, May 2013, Q-Chem Inc. Pittsburgh 
 -------------------------------------------------------
 -------------------------------------------------------
 OpenMP BLAS3 based DFT computing Module                
 Release: version 1.0, May 2013, Q-Chem Inc. Pittsburgh 
 -------------------------------------------------------
 ---------------------------------------
  Cycle       Energy         DIIS Error
 ---------------------------------------
    1    -236.0606611220      9.84E-02
    2    -213.7505756306      7.18E-02
    3    -256.0843784092      7.15E-02
    4    -276.2380177129      5.22E-02
    5    -273.1650494640      5.31E-02
    6    -282.9285500000      2.77E-02
    7    -285.3610995582      1.88E-02
    8    -286.0450534683      1.28E-02
    9    -286.7663982587      3.39E-03
   10    -286.8006053659      3.33E-03
   11    -286.8392241824      6.15E-04
   12    -286.8421810561      4.52E-04
   13    -286.8434141328      1.54E-04
   14    -286.8436920055      9.36E-05
   15    -286.8437659190      3.03E-05
   16    -286.8437975760      7.91E-06
   17    -286.8438049477      4.64E-06
   18    -286.8438072499      2.60E-06
   19    -286.8438082592      4.69E-07
   20    -286.8438084418      1.93E-07
   21    -286.8438085005      8.07E-08
   22    -286.8438085176      4.05E-08
   23    -286.8438085214      1.19E-08
   24    -286.8438085220      5.89E-09 Convergence criterion met
 ---------------------------------------
 <S^2> = 0.7807
 SCF time:  CPU 119.12 s  wall 30.03 s
 SCF   energy in the final basis set = -286.84380852
 Total energy in the final basis set = -286.84380852
 
 --------------------------------------------------------------
 
                    Orbital Energies (a.u.)
 --------------------------------------------------------------
 
 Alpha MOs
 -- Occupied --
-14.334 -10.234 -10.231 -10.229 -10.225 -10.222 -10.199  -0.969
 -0.850  -0.750  -0.690  -0.601  -0.587  -0.546  -0.524  -0.474
 -0.436  -0.418  -0.409  -0.387  -0.351  -0.307  -0.287  -0.266
 -0.152
 -- Virtual --
 -0.025  -0.009   0.000   0.020   0.026   0.031   0.048   0.048
  0.068   0.071   0.074   0.091   0.103   0.106   0.109   0.115
  0.123   0.129   0.143   0.154   0.167   0.177   0.183   0.185
  0.190   0.199   0.208   0.211   0.228   0.233   0.240   0.246
  0.258   0.268   0.281   0.290   0.301   0.318   0.330   0.353
  0.373   0.385   0.414   0.459   0.617   0.654   0.691   0.698
  0.699   0.715   0.724   0.738   0.752   0.758   0.787   0.795
  0.799   0.816   0.863   0.900   0.912   0.934   0.972   0.986
  1.009   1.015   1.036   1.064   1.088   1.117   1.133   1.162
  1.187   1.256   1.288   1.298   1.383   1.419   1.436   1.517
  1.530   1.611   1.616   1.711   1.717   1.775   1.802   1.832
  1.887   1.915   1.945   1.990   1.999   2.078   2.116   2.137
  2.150   2.221   2.231   2.263   2.278   2.360   2.370   2.379
  2.403   2.420   2.472   2.488   2.500   2.517   2.525   2.554
  2.578   2.595   2.627   2.648   2.684   2.745   2.759   2.775
  2.825   2.875   2.956   3.059   3.110   3.294   3.311   3.337
  3.475   3.626   3.692   4.154   4.388   4.472   4.575   4.639
  4.713   4.851
 
 Beta MOs
 -- Occupied --
-14.334 -10.236 -10.232 -10.228 -10.225 -10.214 -10.189  -0.965
 -0.844  -0.743  -0.680  -0.597  -0.577  -0.544  -0.516  -0.469
 -0.432  -0.413  -0.407  -0.385  -0.346  -0.291  -0.277  -0.262
 -- Virtual --
 -0.043  -0.019  -0.001   0.002   0.020   0.027   0.035   0.048
  0.049   0.070   0.072   0.078   0.092   0.103   0.106   0.110
  0.116   0.128   0.130   0.144   0.155   0.167   0.177   0.184
  0.189   0.191   0.202   0.210   0.216   0.232   0.235   0.243
  0.247   0.261   0.272   0.281   0.291   0.304   0.322   0.332
  0.357   0.375   0.388   0.420   0.462   0.620   0.661   0.692
  0.703   0.708   0.734   0.742   0.745   0.753   0.768   0.791
  0.797   0.804   0.819   0.865   0.904   0.914   0.936   0.974
  0.988   1.010   1.020   1.038   1.068   1.091   1.122   1.140
  1.168   1.192   1.260   1.296   1.300   1.385   1.422   1.445
  1.521   1.537   1.618   1.621   1.718   1.723   1.781   1.807
  1.849   1.891   1.924   1.946   1.999   2.002   2.083   2.125
  2.139   2.158   2.229   2.235   2.270   2.285   2.362   2.374
  2.383   2.407   2.427   2.476   2.496   2.502   2.524   2.530
  2.558   2.589   2.602   2.631   2.654   2.690   2.749   2.763
  2.779   2.827   2.877   2.959   3.061   3.111   3.295   3.312
  3.338   3.477   3.629   3.696   4.154   4.394   4.478   4.588
  4.645   4.716   4.855
 --------------------------------------------------------------
 
          Ground-State Mulliken Net Atomic Charges

     Atom                 Charge (a.u.)    Spin (a.u.)
  --------------------------------------------------------
      1 C                    -0.063613       0.042051
      2 C                    -0.017033      -0.033112
      3 C                    -0.277472       0.641404
      4 C                    -0.132408       0.739538
      5 C                     0.013397      -0.124133
      6 N                    -0.206555      -0.002919
      7 H                     0.134929       0.001367
      8 H                     0.131544       0.003579
      9 H                     0.147188      -0.027942
     10 H                     0.138889      -0.030605
     11 H                     0.130435       0.008203
     12 C                    -0.139961      -0.229990
     13 H                     0.140660       0.012561
  --------------------------------------------------------
  Sum of atomic charges =    -0.000000
  Sum of spin   charges =     1.000000

 -----------------------------------------------------------------
                    Cartesian Multipole Moments
 -----------------------------------------------------------------
    Charge (ESU x 10^10)
                -0.0000
    Dipole Moment (Debye)
         X      -0.4196      Y      -2.8618      Z       0.5612
       Tot       2.9463
    Quadrupole Moments (Debye-Ang)
        XX     -38.6308     XY      -3.3753     YY     -45.0473
        XZ       1.4884     YZ       0.3770     ZZ     -41.7087
    Octopole Moments (Debye-Ang^2)
       XXX       0.1742    XXY      -4.7360    XYY      -8.7781
       YYY     -37.9647    XXZ       3.8275    XYZ       1.3459
       YYZ       4.6658    XZZ      -8.7150    YZZ     -10.4981
       ZZZ       7.1408
    Hexadecapole Moments (Debye-Ang^3)
      XXXX    -261.7439   XXXY     -10.7882   XXYY     -88.3838
      XYYY     -25.3527   YYYY    -288.4092   XXXZ      20.4097
      XXYZ      10.0914   XYYZ      11.7358   YYYZ      22.3566
      XXZZ     -74.5245   XYZZ      -3.8364   YYZZ     -72.4068
      XZZZ      20.9856   YZZZ      15.2615   ZZZZ    -189.9085
 -----------------------------------------------------------------
 Calculating analytic gradient of the SCF energy
 Gradient of SCF Energy
            1           2           3           4           5           6
    1  -0.0000020  -0.0000028  -0.0000026  -0.0000105   0.0000002  -0.0000062
    2   0.0000060   0.0000057  -0.0000026   0.0000012  -0.0000023   0.0000038
    3   0.0000101   0.0000142  -0.0000084  -0.0000043  -0.0000046   0.0000048
            7           8           9          10          11          12
    1  -0.0000042   0.0000070   0.0000146  -0.0000120  -0.0000013   0.0000191
    2   0.0000128   0.0000065  -0.0000027  -0.0000088  -0.0000068  -0.0000091
    3   0.0000125   0.0000107  -0.0000058  -0.0000091  -0.0000063  -0.0000103
           13
    1   0.0000008
    2  -0.0000037
    3  -0.0000034
 Max gradient component =       1.914E-05
 RMS gradient           =       7.961E-06
 Gradient time:  CPU 17.45 s  wall 4.42 s
rPathMan2.  file_steps = 951
 ------------------------------------------------------------------------
 Reaction path following.  The coordinates are cartesian              
 Step   1 E=    -286.843809 |G|=  0.000050 S_lin= 0.0000 S_tot= 0.0000
 ------------------------------------------------------------------------
 IRC -- neg. force constant =  -0.198149263994198     
 IRC -- max trans/rot const =  -1.494683433315564E-004
 In first_irc_step: ISign =            1
 ----------------------------------------------------------------
             Standard Nuclear Orientation (Angstroms)
    I     Atom           X                Y                Z
 ----------------------------------------------------------------
    1      C       1.5163231130     0.5733737807    -0.1296782151
    2      C       0.8413420357    -0.7607848128     0.0041842554
    3      C      -0.3579042659    -0.6387882472    -0.8704355945
    4      C      -1.1019036463     0.5230658749     0.7909175830
    5      C      -0.6339295135     0.8707303396    -0.6112422374
    6      N       0.7186728351     1.5057287190    -0.5045631567
    7      H       2.5564164847     0.7638992392     0.1223850174
    8      H       1.4057170587    -1.6871048700     0.0407263651
    9      H      -0.8190030746    -1.3400989083    -1.5600393087
   10      H      -1.8729585959     0.9474525327     1.4122345789
   11      H      -1.3054065282     1.4356529338    -1.2547803444
   12      C      -0.3923300916    -0.7044471879     0.9143686381
   13      H      -0.5711717332    -1.4892000825     1.6499761352
 ----------------------------------------------------------------
 Nuclear Repulsion Energy =   280.9981398826 hartrees
 There are       25 alpha and       24 beta electrons

                       Distance Matrix (Angstroms)
             C (  1)   C (  2)   C (  3)   C (  4)   C (  5)   N (  6)
   C (  2)  1.501165
   C (  3)  2.351762  1.489307
   C (  4)  2.775813  2.458338  2.159522
   C (  5)  2.223491  2.284079  1.556283  1.518526
   N (  6)  1.282993  2.326146  2.427310  2.440982  1.498044
   H (  7)  1.087028  2.297850  3.383266  3.726693  3.275352  2.078624
   H (  8)  2.269589  1.085322  2.244893  3.425756  3.335827  3.311126
   H (  9)  3.340817  2.353539  1.086279  3.013041  2.412931  3.402530
   H ( 10)  3.742280  3.502586  3.165775  1.077341  2.373929  3.271443
   H ( 11)  3.157774  3.319316  2.312745  2.249246  1.088191  2.159776
   C ( 12)  2.523057  1.534131  1.786343  1.423209  2.206138  2.851767
   H ( 13)  3.432057  2.287884  2.668550  2.251416  3.268994  3.908368
             H (  7)   H (  8)   H (  9)   H ( 10)   H ( 11)   C ( 12)
   H (  8)  2.708911
   H (  9)  4.318659  2.762652
   H ( 10)  4.617008  4.423985  3.895911
   H ( 11)  4.154698  4.333606  2.834532  2.770095
   C ( 12)  3.387977  2.227519  2.590135  2.273522  3.181029
   H ( 13)  4.146299  2.556744  3.223019  2.772805  4.187061  1.090385

 
 Applying Cartesian multipole field
    Component          Value
    ---------          -----
     (2,0,0)        1.00000E-11
     (0,2,0)        2.00000E-11
     (0,0,2)       -3.00000E-11
 Nucleus-field energy     =     0.0000000020 hartrees
 Requested basis set is 6-31+G(d,p)
 There are 53 shells and 163 basis functions
 A cutoff of  1.0D-14 yielded   1404 shell pairs
 There are     13506 function pairs
 Smallest overlap matrix eigenvalue = 2.34E-05
 Guess MOs from core Hamiltonian diagonalization
 Mixing HOMO and LUMO in initial guess
 Adding  50% of the LUMO to the HOMO
 An unrestricted hybrid HF-DFT SCF calculation will be
 performed using Pulay DIIS extrapolation
 Exchange:     0.2000 Hartree-Fock + 0.0800 Slater + 0.7200 B88
 Correlation:  0.1900 VWN1RPA + 0.8100 LYP
 Using SG-1 standard quadrature grid
 SCF converges when DIIS error is below 1.0E-08
 using 4 threads for integral computing
 -------------------------------------------------------
 OpenMP Integral computing Module                
 Release: version 1.0, May 2013, Q-Chem Inc. Pittsburgh 
 -------------------------------------------------------
 -------------------------------------------------------
 OpenMP BLAS3 based DFT computing Module                
 Release: version 1.0, May 2013, Q-Chem Inc. Pittsburgh 
 -------------------------------------------------------
 ---------------------------------------
  Cycle       Energy         DIIS Error
 ---------------------------------------
    1    -236.0999625678      9.82E-02
    2    -213.9460647238      7.24E-02
    3    -256.7387203618      7.08E-02
    4    -272.3193631077      6.12E-02
    5    -274.9558279340      5.05E-02
    6    -283.2482210733      2.66E-02
    7    -285.3977560823      1.90E-02
    8    -286.2266832892      1.11E-02
    9    -286.8060003764      2.60E-03
   10    -286.8285597282      2.10E-03
   11    -286.8427632777      6.18E-04
   12    -286.8445856298      4.42E-04
   13    -286.8455039171      1.15E-04
   14    -286.8456505289      6.34E-05
   15    -286.8456842730      2.96E-05
   16    -286.8456964712      5.69E-06
   17    -286.8456979873      2.40E-06
   18    -286.8456983727      1.41E-06
   19    -286.8456985881      5.63E-07
   20    -286.8456987015      2.22E-07
   21    -286.8456987337      7.59E-08
   22    -286.8456987397      3.03E-08
   23    -286.8456987407      7.02E-09 Convergence criterion met
 ---------------------------------------
 <S^2> = 0.7673
 SCF time:  CPU 114.41 s  wall 29.04 s
 SCF   energy in the final basis set = -286.84569874
 Total energy in the final basis set = -286.84569874
 
 --------------------------------------------------------------
 
                    Orbital Energies (a.u.)
 --------------------------------------------------------------
 
 Alpha MOs
 -- Occupied --
-14.333 -10.233 -10.231 -10.229 -10.228 -10.225 -10.197  -0.970
 -0.854  -0.754  -0.683  -0.605  -0.586  -0.547  -0.524  -0.475
 -0.436  -0.421  -0.407  -0.383  -0.348  -0.311  -0.285  -0.266
 -0.154
 -- Virtual --
 -0.020  -0.002  -0.000   0.020   0.026   0.037   0.048   0.048
  0.068   0.071   0.075   0.091   0.104   0.106   0.110   0.114
  0.122   0.130   0.146   0.154   0.167   0.178   0.181   0.184
  0.190   0.199   0.210   0.210   0.229   0.235   0.241   0.247
  0.260   0.269   0.280   0.291   0.300   0.313   0.331   0.351
  0.376   0.380   0.418   0.460   0.618   0.655   0.688   0.694
  0.698   0.714   0.722   0.737   0.753   0.755   0.789   0.795
  0.803   0.815   0.865   0.897   0.910   0.931   0.973   0.983
  1.003   1.015   1.032   1.063   1.087   1.124   1.136   1.178
  1.184   1.261   1.284   1.308   1.388   1.427   1.436   1.526
  1.543   1.615   1.617   1.702   1.734   1.781   1.806   1.838
  1.874   1.902   1.945   1.991   1.998   2.073   2.119   2.139
  2.157   2.218   2.236   2.270   2.292   2.353   2.371   2.375
  2.406   2.415   2.474   2.489   2.498   2.513   2.532   2.537
  2.576   2.624   2.626   2.644   2.686   2.750   2.760   2.788
  2.822   2.873   2.961   3.053   3.109   3.292   3.306   3.335
  3.469   3.633   3.683   4.157   4.394   4.472   4.560   4.647
  4.707   4.853
 
 Beta MOs
 -- Occupied --
-14.333 -10.235 -10.231 -10.227 -10.225 -10.222 -10.186  -0.967
 -0.849  -0.745  -0.674  -0.599  -0.579  -0.544  -0.515  -0.471
 -0.432  -0.415  -0.405  -0.380  -0.343  -0.291  -0.278  -0.264
 -- Virtual --
 -0.045  -0.015   0.000   0.007   0.020   0.027   0.040   0.048
  0.049   0.069   0.073   0.079   0.093   0.104   0.106   0.110
  0.115   0.128   0.131   0.147   0.156   0.167   0.178   0.183
  0.187   0.191   0.202   0.211   0.214   0.233   0.237   0.244
  0.249   0.261   0.273   0.281   0.292   0.302   0.318   0.333
  0.354   0.379   0.382   0.425   0.463   0.621   0.661   0.691
  0.701   0.706   0.729   0.736   0.744   0.755   0.767   0.794
  0.797   0.808   0.819   0.867   0.901   0.911   0.933   0.975
  0.986   1.005   1.018   1.034   1.067   1.090   1.126   1.146
  1.183   1.190   1.264   1.290   1.312   1.391   1.433   1.444
  1.529   1.549   1.619   1.625   1.707   1.739   1.787   1.813
  1.851   1.880   1.913   1.947   1.998   2.002   2.077   2.129
  2.141   2.164   2.228   2.240   2.275   2.297   2.354   2.375
  2.379   2.410   2.423   2.479   2.494   2.506   2.518   2.536
  2.544   2.587   2.628   2.630   2.651   2.691   2.756   2.764
  2.791   2.824   2.875   2.964   3.056   3.111   3.293   3.308
  3.336   3.471   3.636   3.688   4.157   4.401   4.479   4.569
  4.654   4.709   4.857
 --------------------------------------------------------------
 
          Ground-State Mulliken Net Atomic Charges

     Atom                 Charge (a.u.)    Spin (a.u.)
  --------------------------------------------------------
      1 C                    -0.067463       0.046353
      2 C                    -0.018629      -0.014285
      3 C                    -0.244786       0.423483
      4 C                    -0.118076       0.865421
      5 C                    -0.011904      -0.118979
      6 N                    -0.208192       0.005506
      7 H                     0.133731       0.002955
      8 H                     0.134273       0.003086
      9 H                     0.145920      -0.014657
     10 H                     0.137596      -0.036672
     11 H                     0.130538       0.009036
     12 C                    -0.153379      -0.179058
     13 H                     0.140372       0.007811
  --------------------------------------------------------
  Sum of atomic charges =    -0.000000
  Sum of spin   charges =     1.000000

 -----------------------------------------------------------------
                    Cartesian Multipole Moments
 -----------------------------------------------------------------
    Charge (ESU x 10^10)
                -0.0000
    Dipole Moment (Debye)
         X      -0.3840      Y      -2.9597      Z       0.3712
       Tot       3.0075
    Quadrupole Moments (Debye-Ang)
        XX     -38.7573     XY      -3.3798     YY     -45.2548
        XZ       1.4917     YZ       0.4492     ZZ     -41.2543
    Octopole Moments (Debye-Ang^2)
       XXX       0.4135    XXY      -4.8720    XYY      -8.4694
       YYY     -38.2456    XXZ       3.7149    XYZ       1.4373
       YYZ       4.2700    XZZ      -8.5762    YZZ     -10.8906
       ZZZ       6.0872
    Hexadecapole Moments (Debye-Ang^3)
      XXXX    -264.6734   XXXY     -10.6277   XXYY     -89.3136
      XYYY     -25.5317   YYYY    -291.7913   XXXZ      20.6201
      XXYZ      10.0060   XYYZ      11.9186   YYYZ      22.0432
      XXZZ     -73.8889   XYZZ      -3.7939   YYZZ     -71.9586
      XZZZ      20.6904   YZZZ      15.6379   ZZZZ    -179.7633
 -----------------------------------------------------------------
 Calculating analytic gradient of the SCF energy
 Gradient of SCF Energy
            1           2           3           4           5           6
    1  -0.0005135  -0.0045329   0.0055534  -0.0019599   0.0001958   0.0000331
    2  -0.0010276  -0.0009882   0.0048187  -0.0039811  -0.0009046  -0.0000401
    3   0.0012973   0.0015681  -0.0146017  -0.0005372  -0.0005774  -0.0000554
            7           8           9          10          11          12
    1  -0.0006045  -0.0015264  -0.0027533   0.0006299  -0.0003131   0.0053702
    2  -0.0009304   0.0003609  -0.0007944  -0.0018241   0.0004627   0.0040975
    3  -0.0001758   0.0001005  -0.0024170  -0.0011921   0.0011602   0.0100524
           13
    1   0.0004213
    2   0.0007509
    3   0.0053781
 Max gradient component =       1.460E-02
 RMS gradient           =       3.639E-03
 Gradient time:  CPU 17.31 s  wall 4.39 s
rPathMan2.  file_steps = 951
 IRC --- Status = 2.  Assess steepest descent step
 IRC --- Previous SD length =   0.150000
 IRC --- Point 1 E =     -286.843809 |G| =   0.000050 G.D1 =   0.000001
 IRC --- Point 2 E =     -286.845699 |G| =   0.022724 G.D1 =  -0.022298
 IRC --- Angle(G1/G2) =   11.11 Deg.  Curvature =  -0.1487
 IRC --- Corrector step required
 IRC --- equal length displacement: B_eq =   0.029039
 IRC --- chosen bisector length  : B_len =   0.015000
 ----------------------------------------------------------------
             Standard Nuclear Orientation (Angstroms)
    I     Atom           X                Y                Z
 ----------------------------------------------------------------
    1      C       1.5153397886     0.5744577719    -0.1303951796
    2      C       0.8406717633    -0.7614306443     0.0030935466
    3      C      -0.3573065648    -0.6388319993    -0.8710892180
    4      C      -1.0982719938     0.5204495590     0.7918890301
    5      C      -0.6336661022     0.8703382894    -0.6118410171
    6      N       0.7192866397     1.5058387241    -0.5042445608
    7      H       2.5567322218     0.7641901558     0.1221224777
    8      H       1.4063500144    -1.6872215231     0.0407401382
    9      H      -0.8182939575    -1.3392003302    -1.5572016079
   10      H      -1.8738039458     0.9478547776     1.4124870813
   11      H      -1.3052545265     1.4355180839    -1.2551622799
   12      C      -0.3968729636    -0.7037427545     0.9151862710
   13      H      -0.5710462953    -1.4887407992     1.6484690350
 ----------------------------------------------------------------
 Nuclear Repulsion Energy =   281.0622820425 hartrees
 There are       25 alpha and       24 beta electrons

                       Distance Matrix (Angstroms)
             C (  1)   C (  2)   C (  3)   C (  4)   C (  5)   N (  6)
   C (  2)  1.502529
   C (  3)  2.351064  1.488079
   C (  4)  2.772092  2.454571  2.158347
   C (  5)  2.222062  2.283525  1.556014  1.519453
   N (  6)  1.280990  2.326507  2.427600  2.440179  1.498639
   H (  7)  1.088238  2.299250  3.383277  3.723849  3.275456  2.078120
   H (  8)  2.270762  1.085586  2.245226  3.422158  3.335962  3.311299
   H (  9)  3.338220  2.349576  1.083409  3.009138  2.410364  3.401047
   H ( 10)  3.742487  3.503773  3.167343  1.081326  2.375259  3.272511
   H ( 11)  3.156308  3.318854  2.312800  2.251802  1.088265  2.160460
   C ( 12)  2.526578  1.538427  1.787892  1.416266  2.205814  2.853567
   H ( 13)  3.431349  2.286742  2.667621  2.246896  3.267748  3.907255
             H (  7)   H (  8)   H (  9)   H ( 10)   H ( 11)   C ( 12)
   H (  8)  2.709137
   H (  9)  4.316849  2.761083
   H ( 10)  4.618271  4.425463  3.894069
   H ( 11)  4.154821  4.334013  2.833270  2.770815
   C ( 12)  3.392280  2.232375  2.587297  2.270772  3.179938
   H ( 13)  4.145893  2.556224  3.218667  2.773060  4.185860  1.088238

 
 Applying Cartesian multipole field
    Component          Value
    ---------          -----
     (2,0,0)        1.00000E-11
     (0,2,0)        2.00000E-11
     (0,0,2)       -3.00000E-11
 Nucleus-field energy     =     0.0000000020 hartrees
 Requested basis set is 6-31+G(d,p)
 There are 53 shells and 163 basis functions
 A cutoff of  1.0D-14 yielded   1404 shell pairs
 There are     13506 function pairs
 Smallest overlap matrix eigenvalue = 2.33E-05
 Guess MOs from core Hamiltonian diagonalization
 Mixing HOMO and LUMO in initial guess
 Adding  50% of the LUMO to the HOMO
 An unrestricted hybrid HF-DFT SCF calculation will be
 performed using Pulay DIIS extrapolation
 Exchange:     0.2000 Hartree-Fock + 0.0800 Slater + 0.7200 B88
 Correlation:  0.1900 VWN1RPA + 0.8100 LYP
 Using SG-1 standard quadrature grid
 SCF converges when DIIS error is below 1.0E-08
 using 4 threads for integral computing
 -------------------------------------------------------
 OpenMP Integral computing Module                
 Release: version 1.0, May 2013, Q-Chem Inc. Pittsburgh 
 -------------------------------------------------------
 -------------------------------------------------------
 OpenMP BLAS3 based DFT computing Module                
 Release: version 1.0, May 2013, Q-Chem Inc. Pittsburgh 
 -------------------------------------------------------
 ---------------------------------------
  Cycle       Energy         DIIS Error
 ---------------------------------------
    1    -236.1526155392      9.81E-02
    2    -213.9787243344      7.23E-02
    3    -256.7689981622      7.09E-02
    4    -272.7705479038      6.05E-02
    5    -275.4475855010      4.96E-02
    6    -283.3097153586      2.64E-02
    7    -285.3888762382      1.91E-02
    8    -286.2782939319      1.06E-02
    9    -286.8051744220      2.75E-03
   10    -286.8281426315      2.12E-03
   11    -286.8426861757      6.48E-04
   12    -286.8445724971      4.24E-04
   13    -286.8454880925      1.02E-04
   14    -286.8456273964      5.05E-05
   15    -286.8456533980      2.88E-05
   16    -286.8456633500      5.54E-06
   17    -286.8456646722      2.44E-06
   18    -286.8456650363      1.37E-06
   19    -286.8456652297      5.39E-07
   20    -286.8456653317      2.07E-07
   21    -286.8456653591      7.46E-08
   22    -286.8456653649      2.86E-08
   23    -286.8456653658      6.56E-09 Convergence criterion met
 ---------------------------------------
 <S^2> = 0.7676
 SCF time:  CPU 114.23 s  wall 28.77 s
 SCF   energy in the final basis set = -286.84566537
 Total energy in the final basis set = -286.84566537
 
 --------------------------------------------------------------
 
                    Orbital Energies (a.u.)
 --------------------------------------------------------------
 
 Alpha MOs
 -- Occupied --
-14.332 -10.233 -10.231 -10.228 -10.227 -10.225 -10.197  -0.971
 -0.855  -0.753  -0.684  -0.604  -0.586  -0.547  -0.523  -0.475
 -0.436  -0.420  -0.407  -0.383  -0.347  -0.311  -0.285  -0.266
 -0.153
 -- Virtual --
 -0.019  -0.002  -0.000   0.020   0.026   0.036   0.048   0.048
  0.068   0.071   0.075   0.091   0.103   0.106   0.110   0.114
  0.122   0.130   0.145   0.154   0.167   0.178   0.181   0.184
  0.190   0.199   0.210   0.210   0.229   0.235   0.241   0.247
  0.260   0.269   0.280   0.291   0.300   0.314   0.331   0.351
  0.377   0.380   0.419   0.461   0.617   0.655   0.688   0.694
  0.698   0.714   0.723   0.737   0.753   0.755   0.790   0.795
  0.804   0.816   0.864   0.897   0.911   0.930   0.974   0.983
  1.003   1.016   1.032   1.064   1.087   1.124   1.136   1.178
  1.185   1.260   1.284   1.309   1.388   1.427   1.437   1.526
  1.542   1.614   1.617   1.702   1.732   1.780   1.807   1.840
  1.876   1.903   1.944   1.993   1.998   2.073   2.119   2.139
  2.158   2.219   2.236   2.270   2.293   2.355   2.370   2.374
  2.406   2.416   2.476   2.490   2.498   2.515   2.532   2.539
  2.576   2.625   2.626   2.644   2.685   2.750   2.760   2.787
  2.822   2.875   2.962   3.054   3.110   3.290   3.306   3.336
  3.469   3.635   3.684   4.157   4.394   4.472   4.560   4.648
  4.706   4.854
 
 Beta MOs
 -- Occupied --
-14.332 -10.235 -10.231 -10.227 -10.225 -10.222 -10.186  -0.967
 -0.849  -0.745  -0.675  -0.599  -0.579  -0.545  -0.514  -0.471
 -0.432  -0.415  -0.405  -0.381  -0.342  -0.291  -0.278  -0.264
 -- Virtual --
 -0.045  -0.015   0.000   0.007   0.020   0.027   0.040   0.048
  0.049   0.069   0.073   0.079   0.093   0.103   0.106   0.110
  0.116   0.128   0.131   0.146   0.156   0.167   0.178   0.183
  0.187   0.191   0.202   0.211   0.215   0.232   0.237   0.244
  0.248   0.261   0.273   0.281   0.292   0.303   0.319   0.333
  0.354   0.380   0.382   0.426   0.463   0.620   0.661   0.692
  0.701   0.706   0.730   0.736   0.745   0.755   0.767   0.794
  0.797   0.808   0.820   0.866   0.901   0.912   0.933   0.976
  0.985   1.005   1.018   1.034   1.068   1.090   1.127   1.146
  1.183   1.191   1.264   1.289   1.313   1.391   1.433   1.444
  1.529   1.549   1.618   1.624   1.708   1.737   1.786   1.815
  1.852   1.882   1.914   1.946   2.000   2.002   2.078   2.129
  2.141   2.165   2.228   2.241   2.275   2.298   2.356   2.375
  2.379   2.411   2.423   2.481   2.495   2.506   2.519   2.536
  2.545   2.586   2.628   2.630   2.651   2.691   2.756   2.764
  2.791   2.824   2.877   2.965   3.058   3.112   3.291   3.307
  3.337   3.471   3.638   3.689   4.158   4.401   4.479   4.570
  4.655   4.709   4.858
 --------------------------------------------------------------
 
          Ground-State Mulliken Net Atomic Charges

     Atom                 Charge (a.u.)    Spin (a.u.)
  --------------------------------------------------------
      1 C                    -0.067251       0.046171
      2 C                    -0.018397      -0.013581
      3 C                    -0.244996       0.432422
      4 C                    -0.115409       0.858727
      5 C                    -0.012563      -0.119553
      6 N                    -0.208346       0.005645
      7 H                     0.133474       0.002923
      8 H                     0.134091       0.003112
      9 H                     0.145478      -0.015003
     10 H                     0.138097      -0.036596
     11 H                     0.130635       0.009052
     12 C                    -0.155043      -0.181207
     13 H                     0.140231       0.007886
  --------------------------------------------------------
  Sum of atomic charges =     0.000000
  Sum of spin   charges =     1.000000

 -----------------------------------------------------------------
                    Cartesian Multipole Moments
 -----------------------------------------------------------------
    Charge (ESU x 10^10)
                 0.0000
    Dipole Moment (Debye)
         X      -0.3953      Y      -2.9601      Z       0.3699
       Tot       3.0092
    Quadrupole Moments (Debye-Ang)
        XX     -38.7620     XY      -3.3766     YY     -45.2367
        XZ       1.4919     YZ       0.4282     ZZ     -41.2658
    Octopole Moments (Debye-Ang^2)
       XXX       0.3455    XXY      -4.8716    XYY      -8.4788
       YYY     -38.2357    XXZ       3.6990    XYZ       1.4466
       YYZ       4.2832    XZZ      -8.5538    YZZ     -10.8734
       ZZZ       6.0894
    Hexadecapole Moments (Debye-Ang^3)
      XXXX    -264.5306   XXXY     -10.7618   XXYY     -89.2575
      XYYY     -25.6403   YYYY    -291.6000   XXXZ      20.7178
      XXYZ       9.9868   XYYZ      11.9475   YYYZ      21.9907
      XXZZ     -73.8986   XYZZ      -3.8506   YYZZ     -71.9519
      XZZZ      20.8096   YZZZ      15.5328   ZZZZ    -179.9943
 -----------------------------------------------------------------
 Calculating analytic gradient of the SCF energy
 Gradient of SCF Energy
            1           2           3           4           5           6
    1  -0.0027333  -0.0042689   0.0050479   0.0031767  -0.0003658   0.0018296
    2   0.0012594  -0.0015120   0.0038179  -0.0088095  -0.0008361  -0.0014220
    3   0.0002352   0.0007803  -0.0146741  -0.0017661  -0.0011130   0.0008589
            7           8           9          10          11          12
    1   0.0001255  -0.0012941  -0.0018955  -0.0013880  -0.0002273   0.0010848
    2  -0.0007935   0.0002450   0.0003592  -0.0006218   0.0005155   0.0062641
    3  -0.0000441   0.0000809  -0.0010440   0.0002995   0.0009095   0.0112094
           13
    1   0.0009084
    2   0.0015339
    3   0.0042676
 Max gradient component =       1.467E-02
 RMS gradient           =       3.866E-03
 Gradient time:  CPU 17.45 s  wall 4.42 s
rPathMan2.  file_steps = 951
 IRC --- Status = 3.  Assess initial corrector step
 IRC --- bisector search: b =  0.000000 E =     -286.845699 G.B =  -0.002200
 IRC --- bisector search: b =  0.015000 E =     -286.845665 G.B =   0.006664
 IRC --- performed gradient/energy interpolation
 IRC --- bisector search:  estimate b(min) =   3.728454649788104E-003
 ----------------------------------------------------------------
             Standard Nuclear Orientation (Angstroms)
    I     Atom           X                Y                Z
 ----------------------------------------------------------------
    1      C       1.5160786943     0.5736432215    -0.1298564264
    2      C       0.8411754304    -0.7609453430     0.0039131448
    3      C      -0.3577556992    -0.6387991224    -0.8705980616
    4      C      -1.1010009495     0.5224155539     0.7911590494
    5      C      -0.6338640390     0.8706328901    -0.6113910722
    6      N       0.7188254046     1.5057560622    -0.5044839654
    7      H       2.5564949654     0.7639715505     0.1223197596
    8      H       1.4058743885    -1.6871338657     0.0407297886
    9      H      -0.8188268138    -1.3398755545    -1.5593339595
   10      H      -1.8731687192     0.9475525161     1.4122973418
   11      H      -1.3053687461     1.4356194151    -1.2548752797
   12      C      -0.3934592844    -0.7042720914     0.9145718719
   13      H      -0.5711405539    -1.4890859214     1.6496015249
 ----------------------------------------------------------------
 Nuclear Repulsion Energy =   281.0140293239 hartrees
 There are       25 alpha and       24 beta electrons

                       Distance Matrix (Angstroms)
             C (  1)   C (  2)   C (  3)   C (  4)   C (  5)   N (  6)
   C (  2)  1.501504
   C (  3)  2.351589  1.489001
   C (  4)  2.774887  2.457401  2.159229
   C (  5)  2.223136  2.283941  1.556216  1.518756
   N (  6)  1.282495  2.326236  2.427382  2.440782  1.498192
   H (  7)  1.087329  2.298198  3.383269  3.725986  3.275378  2.078499
   H (  8)  2.269881  1.085387  2.244976  3.424862  3.335860  3.311169
   H (  9)  3.340171  2.352554  1.085565  3.012070  2.412292  3.402161
   H ( 10)  3.742331  3.502881  3.166165  1.078331  2.374259  3.271708
   H ( 11)  3.157410  3.319201  2.312758  2.249881  1.088210  2.159946
   C ( 12)  2.523932  1.535198  1.786727  1.421481  2.206056  2.852213
   H ( 13)  3.431881  2.287600  2.668319  2.250292  3.268684  3.908091
             H (  7)   H (  8)   H (  9)   H ( 10)   H ( 11)   C ( 12)
   H (  8)  2.708967
   H (  9)  4.318209  2.762261
   H ( 10)  4.617322  4.424352  3.895453
   H ( 11)  4.154728  4.333707  2.834218  2.770274
   C ( 12)  3.389046  2.228726  2.589428  2.272839  3.180757
   H ( 13)  4.146198  2.556615  3.221937  2.772868  4.186762  1.089850

 
 Applying Cartesian multipole field
    Component          Value
    ---------          -----
     (2,0,0)        1.00000E-11
     (0,2,0)        2.00000E-11
     (0,0,2)       -3.00000E-11
 Nucleus-field energy     =     0.0000000020 hartrees
 Requested basis set is 6-31+G(d,p)
 There are 53 shells and 163 basis functions
 A cutoff of  1.0D-14 yielded   1404 shell pairs
 There are     13506 function pairs
 Smallest overlap matrix eigenvalue = 2.34E-05
 Guess MOs from core Hamiltonian diagonalization
 Mixing HOMO and LUMO in initial guess
 Adding  50% of the LUMO to the HOMO
 An unrestricted hybrid HF-DFT SCF calculation will be
 performed using Pulay DIIS extrapolation
 Exchange:     0.2000 Hartree-Fock + 0.0800 Slater + 0.7200 B88
 Correlation:  0.1900 VWN1RPA + 0.8100 LYP
 Using SG-1 standard quadrature grid
 SCF converges when DIIS error is below 1.0E-08
 using 4 threads for integral computing
 -------------------------------------------------------
 OpenMP Integral computing Module                
 Release: version 1.0, May 2013, Q-Chem Inc. Pittsburgh 
 -------------------------------------------------------
 -------------------------------------------------------
 OpenMP BLAS3 based DFT computing Module                
 Release: version 1.0, May 2013, Q-Chem Inc. Pittsburgh 
 -------------------------------------------------------
 ---------------------------------------
  Cycle       Energy         DIIS Error
 ---------------------------------------
    1    -236.1129291321      9.82E-02
    2    -213.9543654316      7.24E-02
    3    -256.7410905303      7.08E-02
    4    -272.4089116640      6.11E-02
    5    -275.1132216740      5.02E-02
    6    -283.2703912411      2.66E-02
    7    -285.3996348538      1.90E-02
    8    -286.2398460515      1.10E-02
    9    -286.8059449107      2.63E-03
   10    -286.8285783011      2.10E-03
   11    -286.8427836496      6.20E-04
   12    -286.8445844582      4.41E-04
   13    -286.8455132263      1.11E-04
   14    -286.8456572425      6.05E-05
   15    -286.8456888850      2.94E-05
   16    -286.8457006547      5.67E-06
   17    -286.8457021098      2.42E-06
   18    -286.8457024923      1.41E-06
   19    -286.8457027032      5.58E-07
   20    -286.8457028133      2.19E-07
   21    -286.8457028440      7.52E-08
   22    -286.8457028498      2.96E-08
   23    -286.8457028508      6.84E-09 Convergence criterion met
 ---------------------------------------
 <S^2> = 0.7674
 SCF time:  CPU 114.60 s  wall 29.70 s
 SCF   energy in the final basis set = -286.84570285
 Total energy in the final basis set = -286.84570285
 
 --------------------------------------------------------------
 
                    Orbital Energies (a.u.)
 --------------------------------------------------------------
 
 Alpha MOs
 -- Occupied --
-14.333 -10.233 -10.231 -10.229 -10.228 -10.225 -10.197  -0.970
 -0.854  -0.753  -0.683  -0.604  -0.586  -0.547  -0.524  -0.475
 -0.436  -0.420  -0.407  -0.383  -0.348  -0.311  -0.285  -0.266
 -0.154
 -- Virtual --
 -0.020  -0.002  -0.000   0.020   0.026   0.036   0.048   0.048
  0.068   0.071   0.075   0.091   0.104   0.106   0.110   0.114
  0.122   0.130   0.146   0.154   0.167   0.178   0.181   0.184
  0.190   0.199   0.210   0.210   0.229   0.235   0.241   0.247
  0.260   0.269   0.280   0.291   0.300   0.313   0.331   0.351
  0.376   0.380   0.418   0.460   0.618   0.655   0.688   0.694
  0.698   0.714   0.722   0.737   0.753   0.755   0.789   0.795
  0.803   0.815   0.865   0.897   0.910   0.930   0.974   0.983
  1.003   1.015   1.032   1.063   1.087   1.124   1.136   1.178
  1.185   1.261   1.284   1.309   1.388   1.427   1.436   1.526
  1.543   1.615   1.617   1.702   1.733   1.781   1.806   1.839
  1.875   1.902   1.945   1.992   1.998   2.073   2.119   2.139
  2.157   2.218   2.236   2.270   2.292   2.353   2.371   2.375
  2.406   2.415   2.475   2.489   2.498   2.514   2.532   2.538
  2.576   2.625   2.626   2.644   2.686   2.750   2.760   2.788
  2.822   2.873   2.961   3.054   3.110   3.292   3.306   3.335
  3.469   3.633   3.684   4.157   4.394   4.472   4.560   4.647
  4.707   4.853
 
 Beta MOs
 -- Occupied --
-14.333 -10.235 -10.231 -10.227 -10.225 -10.222 -10.186  -0.967
 -0.849  -0.745  -0.674  -0.599  -0.579  -0.544  -0.514  -0.471
 -0.432  -0.415  -0.405  -0.380  -0.343  -0.291  -0.278  -0.264
 -- Virtual --
 -0.045  -0.015   0.000   0.007   0.020   0.027   0.040   0.048
  0.049   0.069   0.073   0.079   0.093   0.104   0.106   0.110
  0.116   0.128   0.131   0.147   0.156   0.167   0.178   0.183
  0.187   0.191   0.202   0.211   0.214   0.233   0.237   0.244
  0.248   0.261   0.273   0.281   0.292   0.302   0.318   0.333
  0.354   0.380   0.382   0.425   0.463   0.621   0.661   0.692
  0.701   0.706   0.729   0.736   0.744   0.755   0.767   0.794
  0.797   0.808   0.819   0.866   0.901   0.912   0.933   0.975
  0.986   1.005   1.018   1.034   1.067   1.090   1.126   1.146
  1.183   1.190   1.264   1.290   1.312   1.391   1.433   1.444
  1.529   1.549   1.619   1.625   1.707   1.739   1.787   1.814
  1.852   1.880   1.913   1.947   1.999   2.002   2.077   2.129
  2.141   2.164   2.228   2.240   2.275   2.297   2.355   2.375
  2.379   2.410   2.423   2.480   2.494   2.506   2.518   2.536
  2.544   2.586   2.628   2.630   2.651   2.691   2.756   2.764
  2.791   2.824   2.876   2.964   3.057   3.111   3.293   3.307
  3.336   3.471   3.636   3.688   4.157   4.401   4.479   4.569
  4.655   4.709   4.857
 --------------------------------------------------------------
 
          Ground-State Mulliken Net Atomic Charges

     Atom                 Charge (a.u.)    Spin (a.u.)
  --------------------------------------------------------
      1 C                    -0.067408       0.046310
      2 C                    -0.018568      -0.014115
      3 C                    -0.244837       0.425694
      4 C                    -0.117423       0.863774
      5 C                    -0.012068      -0.119122
      6 N                    -0.208232       0.005541
      7 H                     0.133667       0.002948
      8 H                     0.134227       0.003093
      9 H                     0.145811      -0.014743
     10 H                     0.137724      -0.036654
     11 H                     0.130562       0.009041
     12 C                    -0.153793      -0.179596
     13 H                     0.140337       0.007831
  --------------------------------------------------------
  Sum of atomic charges =    -0.000000
  Sum of spin   charges =     1.000000

 -----------------------------------------------------------------
                    Cartesian Multipole Moments
 -----------------------------------------------------------------
    Charge (ESU x 10^10)
                -0.0000
    Dipole Moment (Debye)
         X      -0.3868      Y      -2.9598      Z       0.3708
       Tot       3.0079
    Quadrupole Moments (Debye-Ang)
        XX     -38.7585     XY      -3.3790     YY     -45.2504
        XZ       1.4917     YZ       0.4440     ZZ     -41.2572
    Octopole Moments (Debye-Ang^2)
       XXX       0.3967    XXY      -4.8719    XYY      -8.4717
       YYY     -38.2433    XXZ       3.7109    XYZ       1.4396
       YYZ       4.2732    XZZ      -8.5706    YZZ     -10.8864
       ZZZ       6.0876
    Hexadecapole Moments (Debye-Ang^3)
      XXXX    -264.6377   XXXY     -10.6611   XXYY     -89.2996
      XYYY     -25.5588   YYYY    -291.7438   XXXZ      20.6444
      XXYZ      10.0012   XYYZ      11.9258   YYYZ      22.0301
      XXZZ     -73.8912   XYZZ      -3.8080   YYZZ     -71.9570
      XZZZ      20.7200   YZZZ      15.6118   ZZZZ    -179.8202
 -----------------------------------------------------------------
 Calculating analytic gradient of the SCF energy
 Gradient of SCF Energy
            1           2           3           4           5           6
    1  -0.0010638  -0.0044638   0.0054295  -0.0006865   0.0000565   0.0004778
    2  -0.0004612  -0.0011195   0.0045725  -0.0051693  -0.0008880  -0.0003813
    3   0.0010340   0.0013699  -0.0146214  -0.0008483  -0.0007105   0.0001712
            7           8           9          10          11          12
    1  -0.0004225  -0.0014687  -0.0025417   0.0001250  -0.0002918   0.0043064
    2  -0.0008962   0.0003321  -0.0005097  -0.0015234   0.0004759   0.0046233
    3  -0.0001430   0.0000954  -0.0020770  -0.0008167   0.0010979   0.0103460
           13
    1   0.0005433
    2   0.0009450
    3   0.0051025
 Max gradient component =       1.462E-02
 RMS gradient           =       3.624E-03
 Gradient time:  CPU 17.37 s  wall 4.40 s
rPathMan2.  file_steps = 951
 IRC --- Status = 4.  Checking bisector search.
 IRC --- Bisector search finished successfully.
 ------------------------------------------------------------------------
 Reaction path following.  The coordinates are cartesian              
 Step   2 E=    -286.845703 |G|=  0.022633 S_lin= 0.1497 S_tot= 0.1497
 ------------------------------------------------------------------------
  IRC -- SD step length =   0.150000000000000     
 ----------------------------------------------------------------
             Standard Nuclear Orientation (Angstroms)
    I     Atom           X                Y                Z
 ----------------------------------------------------------------
    1      C       1.5198094184     0.5752608040    -0.1334826906
    2      C       0.8568300782    -0.7570190189    -0.0008911067
    3      C      -0.3767974051    -0.6548351005    -0.8193199693
    4      C      -1.0985935186     0.5405447558     0.7941339446
    5      C      -0.6340623401     0.8737473182    -0.6088992467
    6      N       0.7171496331     1.5070932920    -0.5050842791
    7      H       2.5579767226     0.7671146177     0.1228212875
    8      H       1.4110250363    -1.6882985977     0.0403951101
    9      H      -0.8099128757    -1.3380881504    -1.5520499220
   10      H      -1.8736072672     0.9528951009     1.4151615325
   11      H      -1.3043452959     1.4339504753    -1.2587255455
   12      C      -0.4085621875    -0.7204861903     0.8782878576
   13      H      -0.5730459203    -1.4923999950     1.6317067441
 ----------------------------------------------------------------
 Nuclear Repulsion Energy =   281.4083832137 hartrees
 There are       25 alpha and       24 beta electrons

                       Distance Matrix (Angstroms)
             C (  1)   C (  2)   C (  3)   C (  4)   C (  5)   N (  6)
   C (  2)  1.494019
   C (  3)  2.362335  1.483949
   C (  4)  2.778077  2.477785  2.133813
   C (  5)  2.225821  2.291688  1.564297  1.515030
   N (  6)  1.284781  2.323774  2.443235  2.432922  1.495887
   H (  7)  1.086412  2.287398  3.394476  3.724581  3.276568  2.080980
   H (  8)  2.272833  1.084490  2.236843  3.440065  3.341862  3.315048
   H (  9)  3.331793  2.349844  1.091475  3.019466  2.410949  3.394571
   H ( 10)  3.749158  3.519133  3.133392  1.075339  2.374775  3.272079
   H ( 11)  3.159014  3.324631  2.327326  2.248275  1.088752  2.158649
   C ( 12)  2.534020  1.541268  1.699174  1.439939  2.191839  2.853604
   H ( 13)  3.430912  2.291442  2.597607  2.260662  3.259247  3.902235
             H (  7)   H (  8)   H (  9)   H ( 10)   H ( 11)   C ( 12)
   H (  8)  2.711337
   H (  9)  4.310424  2.755194
   H ( 10)  4.619913  4.433362  3.896716
   H ( 11)  4.155824  4.336979  2.831025  2.775814
   C ( 12)  3.403533  2.224775  2.539499  2.287968  3.163993
   H ( 13)  4.145533  2.550919  3.196283  2.778096  4.177670  1.091121

 
 Applying Cartesian multipole field
    Component          Value
    ---------          -----
     (2,0,0)        1.00000E-11
     (0,2,0)        2.00000E-11
     (0,0,2)       -3.00000E-11
 Nucleus-field energy     =     0.0000000021 hartrees
 Requested basis set is 6-31+G(d,p)
 There are 53 shells and 163 basis functions
 A cutoff of  1.0D-14 yielded   1403 shell pairs
 There are     13505 function pairs
 Smallest overlap matrix eigenvalue = 2.33E-05
 Guess MOs from core Hamiltonian diagonalization
 Mixing HOMO and LUMO in initial guess
 Adding  50% of the LUMO to the HOMO
 An unrestricted hybrid HF-DFT SCF calculation will be
 performed using Pulay DIIS extrapolation
 Exchange:     0.2000 Hartree-Fock + 0.0800 Slater + 0.7200 B88
 Correlation:  0.1900 VWN1RPA + 0.8100 LYP
 Using SG-1 standard quadrature grid
 SCF converges when DIIS error is below 1.0E-08
 using 4 threads for integral computing
 -------------------------------------------------------
 OpenMP Integral computing Module                
 Release: version 1.0, May 2013, Q-Chem Inc. Pittsburgh 
 -------------------------------------------------------
 -------------------------------------------------------
 OpenMP BLAS3 based DFT computing Module                
 Release: version 1.0, May 2013, Q-Chem Inc. Pittsburgh 
 -------------------------------------------------------
 ---------------------------------------
  Cycle       Energy         DIIS Error
 ---------------------------------------
    1    -236.0965713421      9.83E-02
    2    -214.0667523426      7.12E-02
    3    -260.5743903216      6.83E-02
    4    -268.4232536658      6.32E-02
    5    -272.0152224702      5.53E-02
    6    -282.1558592255      3.15E-02
    7    -284.7071450902      2.28E-02
    8    -285.7894379718      1.48E-02
    9    -286.7496353421      4.73E-03
   10    -286.8089222590      3.38E-03
   11    -286.8420130272      1.38E-03
   12    -286.8480238425      6.27E-04
   13    -286.8495059395      9.63E-05
   14    -286.8496421390      5.19E-05
   15    -286.8496697208      2.57E-05
   16    -286.8496761201      1.22E-05
   17    -286.8496777404      3.01E-06
   18    -286.8496779558      1.64E-06
   19    -286.8496780704      3.87E-07
   20    -286.8496781428      1.55E-07
   21    -286.8496781964      6.36E-08
   22    -286.8496782157      3.15E-08
   23    -286.8496782191      9.39E-09 Convergence criterion met
 ---------------------------------------
 <S^2> = 0.7595
 SCF time:  CPU 115.37 s  wall 29.92 s
 SCF   energy in the final basis set = -286.84967822
 Total energy in the final basis set = -286.84967822
 
 --------------------------------------------------------------
 
                    Orbital Energies (a.u.)
 --------------------------------------------------------------
 
 Alpha MOs
 -- Occupied --
-14.332 -10.231 -10.230 -10.230 -10.228 -10.224 -10.198  -0.972
 -0.858  -0.756  -0.677  -0.608  -0.585  -0.547  -0.524  -0.475
 -0.437  -0.422  -0.404  -0.378  -0.343  -0.316  -0.283  -0.267
 -0.159
 -- Virtual --
 -0.019  -0.000   0.007   0.020   0.026   0.045   0.048   0.049
  0.068   0.073   0.075   0.091   0.104   0.106   0.111   0.114
  0.122   0.131   0.149   0.155   0.167   0.177   0.180   0.184
  0.190   0.198   0.209   0.211   0.229   0.238   0.242   0.250
  0.261   0.270   0.279   0.292   0.299   0.309   0.331   0.348
  0.370   0.382   0.425   0.459   0.617   0.655   0.682   0.695
  0.700   0.715   0.723   0.736   0.752   0.754   0.787   0.797
  0.804   0.821   0.866   0.892   0.908   0.927   0.971   0.981
  0.995   1.017   1.030   1.063   1.086   1.126   1.137   1.182
  1.186   1.264   1.288   1.321   1.395   1.431   1.446   1.537
  1.554   1.613   1.617   1.693   1.746   1.784   1.809   1.851
  1.858   1.895   1.946   1.991   2.000   2.067   2.116   2.138
  2.172   2.214   2.240   2.275   2.309   2.348   2.367   2.371
  2.412   2.414   2.469   2.491   2.493   2.513   2.527   2.538
  2.575   2.621   2.626   2.664   2.691   2.755   2.760   2.798
  2.824   2.874   2.965   3.049   3.107   3.283   3.306   3.346
  3.459   3.634   3.682   4.158   4.396   4.473   4.554   4.657
  4.697   4.861
 
 Beta MOs
 -- Occupied --
-14.332 -10.232 -10.231 -10.227 -10.225 -10.223 -10.186  -0.968
 -0.853  -0.747  -0.667  -0.602  -0.580  -0.544  -0.514  -0.472
 -0.433  -0.416  -0.401  -0.375  -0.338  -0.295  -0.278  -0.265
 -- Virtual --
 -0.048  -0.013   0.000   0.012   0.021   0.027   0.046   0.049
  0.051   0.069   0.076   0.080   0.094   0.104   0.106   0.111
  0.115   0.127   0.132   0.150   0.157   0.167   0.178   0.182
  0.186   0.191   0.201   0.212   0.214   0.234   0.239   0.246
  0.251   0.262   0.274   0.280   0.294   0.303   0.314   0.333
  0.351   0.374   0.384   0.432   0.462   0.620   0.661   0.687
  0.700   0.710   0.728   0.732   0.746   0.755   0.767   0.792
  0.800   0.809   0.825   0.868   0.896   0.909   0.930   0.974
  0.983   0.997   1.019   1.033   1.067   1.089   1.128   1.149
  1.185   1.193   1.267   1.292   1.325   1.398   1.443   1.450
  1.541   1.559   1.618   1.624   1.698   1.752   1.791   1.818
  1.855   1.871   1.906   1.948   1.997   2.004   2.072   2.126
  2.141   2.179   2.224   2.244   2.280   2.313   2.349   2.373
  2.374   2.417   2.422   2.474   2.493   2.503   2.517   2.533
  2.544   2.586   2.624   2.629   2.672   2.695   2.762   2.765
  2.799   2.827   2.877   2.968   3.053   3.108   3.284   3.307
  3.347   3.461   3.637   3.687   4.159   4.402   4.482   4.562
  4.663   4.699   4.865
 --------------------------------------------------------------
 
          Ground-State Mulliken Net Atomic Charges

     Atom                 Charge (a.u.)    Spin (a.u.)
  --------------------------------------------------------
      1 C                    -0.071531       0.042371
      2 C                    -0.025703       0.002745
      3 C                    -0.210997       0.275718
      4 C                    -0.097679       0.940479
      5 C                    -0.043289      -0.116661
      6 N                    -0.208099       0.013740
      7 H                     0.133023       0.004059
      8 H                     0.136599       0.002609
      9 H                     0.142513      -0.004759
     10 H                     0.137228      -0.040508
     11 H                     0.130940       0.009345
     12 C                    -0.162499      -0.133390
     13 H                     0.139494       0.004251
  --------------------------------------------------------
  Sum of atomic charges =     0.000000
  Sum of spin   charges =     1.000000

 -----------------------------------------------------------------
                    Cartesian Multipole Moments
 -----------------------------------------------------------------
    Charge (ESU x 10^10)
                 0.0000
    Dipole Moment (Debye)
         X      -0.4000      Y      -2.9678      Z       0.3012
       Tot       3.0098
    Quadrupole Moments (Debye-Ang)
        XX     -38.6807     XY      -3.3911     YY     -45.3586
        XZ       1.4319     YZ       0.5236     ZZ     -41.0577
    Octopole Moments (Debye-Ang^2)
       XXX       0.4396    XXY      -4.8745    XYY      -8.2946
       YYY     -38.3512    XXZ       3.7473    XYZ       1.4815
       YYZ       4.1169    XZZ      -8.4248    YZZ     -10.9470
       ZZZ       5.5336
    Hexadecapole Moments (Debye-Ang^3)
      XXXX    -265.9363   XXXY     -10.5486   XXYY     -90.0009
      XYYY     -25.8443   YYYY    -294.5040   XXXZ      20.7634
      XXYZ       9.9786   XYYZ      11.9531   YYYZ      21.9173
      XXZZ     -73.3191   XYZZ      -4.0303   YYZZ     -71.5633
      XZZZ      20.5974   YZZZ      16.0420   ZZZZ    -172.2338
 -----------------------------------------------------------------
 Calculating analytic gradient of the SCF energy
 Gradient of SCF Energy
            1           2           3           4           5           6
    1   0.0008470  -0.0065674   0.0077099  -0.0043627   0.0002937  -0.0009856
    2  -0.0023502  -0.0008667   0.0063511  -0.0041334  -0.0012526   0.0009774
    3   0.0023233   0.0011553  -0.0157151  -0.0015304  -0.0011546  -0.0002339
            7           8           9          10          11          12
    1  -0.0010366  -0.0024407  -0.0038787   0.0015102  -0.0006897   0.0083849
    2  -0.0015967   0.0002664  -0.0011323  -0.0028471   0.0011644   0.0033515
    3   0.0000203   0.0001778  -0.0050238  -0.0019260   0.0016726   0.0121477
           13
    1   0.0012158
    2   0.0020681
    3   0.0080869
 Max gradient component =       1.572E-02
 RMS gradient           =       4.578E-03
 Gradient time:  CPU 17.24 s  wall 4.43 s
rPathMan2.  file_steps = 951
 IRC --- Status = 2.  Assess steepest descent step
 IRC --- Previous SD length =   0.150000
 IRC --- Point 1 E =     -286.845703 |G| =   0.022633 G.D1 =  -0.022633
 IRC --- Point 2 E =     -286.849678 |G| =   0.028588 G.D1 =  -0.027311
 IRC --- Angle(G1/G2) =   17.19 Deg.  Curvature =  -0.0312
 IRC --- Corrector step required
 IRC --- equal length displacement: B_eq =   0.044834
 IRC --- chosen bisector length  : B_len =   0.022417
 ----------------------------------------------------------------
             Standard Nuclear Orientation (Angstroms)
    I     Atom           X                Y                Z
 ----------------------------------------------------------------
    1      C       1.5167682370     0.5777148449    -0.1348949484
    2      C       0.8581203119    -0.7577789865    -0.0000928989
    3      C      -0.3779802165    -0.6556343760    -0.8231418488
    4      C      -1.0937405727     0.5372185446     0.7947711995
    5      C      -0.6343708972     0.8739290615    -0.6085422335
    6      N       0.7193558071     1.5050676903    -0.5044593437
    7      H       2.5586749280     0.7677597658     0.1225423808
    8      H       1.4118381326    -1.6880861020     0.0403156030
    9      H      -0.8089850486    -1.3374098238    -1.5487174762
   10      H      -1.8754845656     0.9541764140     1.4164033594
   11      H      -1.3038995010     1.4331683601    -1.2591225417
   12      C      -0.4126514616    -0.7170319650     0.8795653127
   13      H      -0.5737810753    -1.4936141167     1.6294271522
 ----------------------------------------------------------------
 Nuclear Repulsion Energy =   281.5020068565 hartrees
 There are       25 alpha and       24 beta electrons

                       Distance Matrix (Angstroms)
             C (  1)   C (  2)   C (  3)   C (  4)   C (  5)   N (  6)
   C (  2)  1.495170
   C (  3)  2.363241  1.488552
   C (  4)  2.771403  2.473578  2.133742
   C (  5)  2.222495  2.293515  1.565680  1.514491
   N (  6)  1.277665  2.322524  2.444246  2.431471  1.497246
   H (  7)  1.089936  2.287836  3.397692  3.720911  3.277392  2.078425
   H (  8)  2.274986  1.083378  2.239412  3.434983  3.342441  3.312483
   H (  9)  3.328021  2.348074  1.084916  3.014508  2.409240  3.392046
   H ( 10)  3.749084  3.522761  3.138403  1.082314  2.376385  3.275117
   H ( 11)  3.154656  3.325618  2.326049  2.250638  1.088243  2.160613
   C ( 12)  2.535381  1.546066  1.704166  1.429761  2.189699  2.852138
   H ( 13)  3.431273  2.290662  2.599162  2.256389  3.258441  3.900996
             H (  7)   H (  8)   H (  9)   H ( 10)   H ( 11)   C ( 12)
   H (  8)  2.711674
   H (  9)  4.308826  2.753190
   H ( 10)  4.622834  4.436402  3.896246
   H ( 11)  4.155869  4.336588  2.829295  2.777514
   C ( 12)  3.406827  2.230706  2.537421  2.284954  3.160960
   H ( 13)  4.146902  2.550643  3.190662  2.780556  4.176464  1.091483

 
 Applying Cartesian multipole field
    Component          Value
    ---------          -----
     (2,0,0)        1.00000E-11
     (0,2,0)        2.00000E-11
     (0,0,2)       -3.00000E-11
 Nucleus-field energy     =     0.0000000021 hartrees
 Requested basis set is 6-31+G(d,p)
 There are 53 shells and 163 basis functions
 A cutoff of  1.0D-14 yielded   1402 shell pairs
 There are     13502 function pairs
 Smallest overlap matrix eigenvalue = 2.31E-05
 Guess MOs from core Hamiltonian diagonalization
 Mixing HOMO and LUMO in initial guess
 Adding  50% of the LUMO to the HOMO
 An unrestricted hybrid HF-DFT SCF calculation will be
 performed using Pulay DIIS extrapolation
 Exchange:     0.2000 Hartree-Fock + 0.0800 Slater + 0.7200 B88
 Correlation:  0.1900 VWN1RPA + 0.8100 LYP
 Using SG-1 standard quadrature grid
 SCF converges when DIIS error is below 1.0E-08
 using 4 threads for integral computing
 -------------------------------------------------------
 OpenMP Integral computing Module                
 Release: version 1.0, May 2013, Q-Chem Inc. Pittsburgh 
 -------------------------------------------------------
 -------------------------------------------------------
 OpenMP BLAS3 based DFT computing Module                
 Release: version 1.0, May 2013, Q-Chem Inc. Pittsburgh 
 -------------------------------------------------------
 ---------------------------------------
  Cycle       Energy         DIIS Error
 ---------------------------------------
    1    -236.2314870223      9.81E-02
    2    -214.1567001995      7.12E-02
    3    -260.8113983814      6.84E-02
    4    -268.3719049255      6.33E-02
    5    -272.4618049264      5.49E-02
    6    -282.2589690214      3.12E-02
    7    -284.8077269449      2.23E-02
    8    -285.8422907942      1.44E-02
    9    -286.7584536491      4.50E-03
   10    -286.8142930401      3.16E-03
   11    -286.8437078210      1.18E-03
   12    -286.8479240687      6.30E-04
   13    -286.8493927753      1.01E-04
   14    -286.8495174829      6.12E-05
   15    -286.8495434184      3.31E-05
   16    -286.8495529553      1.08E-05
   17    -286.8495549962      2.93E-06
   18    -286.8495552095      1.22E-06
   19    -286.8495553193      3.84E-07
   20    -286.8495553816      1.46E-07
   21    -286.8495554259      5.78E-08
   22    -286.8495554402      2.84E-08
   23    -286.8495554428      8.95E-09 Convergence criterion met
 ---------------------------------------
 <S^2> = 0.7599
 SCF time:  CPU 114.82 s  wall 29.05 s
 SCF   energy in the final basis set = -286.84955544
 Total energy in the final basis set = -286.84955544
 
 --------------------------------------------------------------
 
                    Orbital Energies (a.u.)
 --------------------------------------------------------------
 
 Alpha MOs
 -- Occupied --
-14.331 -10.231 -10.230 -10.229 -10.227 -10.224 -10.198  -0.973
 -0.859  -0.755  -0.678  -0.607  -0.586  -0.547  -0.523  -0.475
 -0.437  -0.422  -0.405  -0.379  -0.343  -0.316  -0.284  -0.267
 -0.159
 -- Virtual --
 -0.017  -0.000   0.007   0.020   0.026   0.044   0.048   0.049
  0.068   0.073   0.075   0.092   0.104   0.106   0.111   0.114
  0.122   0.131   0.148   0.155   0.167   0.177   0.180   0.184
  0.190   0.198   0.209   0.211   0.229   0.237   0.242   0.249
  0.261   0.270   0.279   0.292   0.300   0.311   0.331   0.347
  0.371   0.383   0.426   0.462   0.617   0.656   0.683   0.695
  0.700   0.715   0.724   0.737   0.751   0.754   0.788   0.797
  0.805   0.821   0.865   0.892   0.908   0.927   0.972   0.980
  0.995   1.016   1.030   1.064   1.086   1.127   1.138   1.182
  1.186   1.263   1.286   1.321   1.396   1.431   1.446   1.537
  1.553   1.611   1.617   1.694   1.744   1.782   1.810   1.853
  1.859   1.897   1.945   1.993   1.999   2.068   2.118   2.139
  2.173   2.214   2.241   2.276   2.308   2.350   2.368   2.372
  2.412   2.416   2.471   2.491   2.493   2.514   2.526   2.542
  2.575   2.622   2.626   2.663   2.691   2.757   2.759   2.797
  2.823   2.878   2.966   3.050   3.110   3.281   3.305   3.346
  3.458   3.635   3.681   4.160   4.397   4.473   4.554   4.657
  4.696   4.861
 
 Beta MOs
 -- Occupied --
-14.331 -10.232 -10.231 -10.227 -10.225 -10.223 -10.186  -0.969
 -0.854  -0.746  -0.669  -0.601  -0.580  -0.545  -0.513  -0.472
 -0.433  -0.416  -0.402  -0.377  -0.337  -0.295  -0.279  -0.265
 -- Virtual --
 -0.047  -0.012   0.000   0.012   0.021   0.027   0.046   0.049
  0.050   0.069   0.075   0.080   0.094   0.103   0.106   0.111
  0.115   0.127   0.132   0.150   0.157   0.167   0.178   0.182
  0.186   0.191   0.201   0.212   0.214   0.233   0.239   0.246
  0.251   0.262   0.274   0.280   0.293   0.303   0.316   0.333
  0.350   0.374   0.385   0.433   0.465   0.620   0.662   0.687
  0.700   0.710   0.729   0.732   0.746   0.754   0.767   0.792
  0.799   0.810   0.825   0.868   0.896   0.910   0.930   0.975
  0.983   0.998   1.018   1.033   1.068   1.088   1.130   1.149
  1.186   1.193   1.267   1.290   1.325   1.399   1.443   1.450
  1.541   1.558   1.617   1.624   1.699   1.749   1.789   1.820
  1.857   1.872   1.908   1.947   1.999   2.004   2.073   2.127
  2.143   2.180   2.225   2.245   2.280   2.312   2.352   2.373
  2.375   2.419   2.421   2.476   2.493   2.503   2.518   2.533
  2.548   2.585   2.625   2.629   2.671   2.695   2.762   2.764
  2.799   2.826   2.881   2.970   3.053   3.111   3.282   3.307
  3.348   3.460   3.637   3.687   4.161   4.403   4.482   4.561
  4.664   4.698   4.865
 --------------------------------------------------------------
 
          Ground-State Mulliken Net Atomic Charges

     Atom                 Charge (a.u.)    Spin (a.u.)
  --------------------------------------------------------
      1 C                    -0.069073       0.041370
      2 C                    -0.026874       0.003317
      3 C                    -0.214515       0.289042
      4 C                    -0.095659       0.931986
      5 C                    -0.042193      -0.117297
      6 N                    -0.208085       0.013966
      7 H                     0.132400       0.004178
      8 H                     0.136114       0.002624
      9 H                     0.141623      -0.005296
     10 H                     0.138110      -0.040451
     11 H                     0.130954       0.009338
     12 C                    -0.162325      -0.137250
     13 H                     0.139523       0.004474
  --------------------------------------------------------
  Sum of atomic charges =    -0.000000
  Sum of spin   charges =     1.000000

 -----------------------------------------------------------------
                    Cartesian Multipole Moments
 -----------------------------------------------------------------
    Charge (ESU x 10^10)
                -0.0000
    Dipole Moment (Debye)
         X      -0.4157      Y      -2.9644      Z       0.2938
       Tot       3.0078
    Quadrupole Moments (Debye-Ang)
        XX     -38.7080     XY      -3.3877     YY     -45.3157
        XZ       1.4324     YZ       0.5028     ZZ     -41.0676
    Octopole Moments (Debye-Ang^2)
       XXX       0.2949    XXY      -4.8905    XYY      -8.2962
       YYY     -38.3155    XXZ       3.7047    XYZ       1.4839
       YYZ       4.1022    XZZ      -8.3999    YZZ     -10.9102
       ZZZ       5.4620
    Hexadecapole Moments (Debye-Ang^3)
      XXXX    -266.0526   XXXY     -10.7629   XXYY     -89.9154
      XYYY     -25.9175   YYYY    -293.8455   XXXZ      20.7746
      XXYZ       9.9382   XYYZ      11.9533   YYYZ      21.7929
      XXZZ     -73.3308   XYZZ      -4.0668   YYZZ     -71.5170
      XZZZ      20.6996   YZZZ      15.8859   ZZZZ    -172.6239
 -----------------------------------------------------------------
 Calculating analytic gradient of the SCF energy
 Gradient of SCF Energy
            1           2           3           4           5           6
    1  -0.0070735  -0.0025092   0.0037723   0.0032617  -0.0009264   0.0049485
    2   0.0040378  -0.0023231   0.0031445  -0.0112407  -0.0003290  -0.0048353
    3  -0.0008572   0.0022469  -0.0199781  -0.0042934  -0.0006955   0.0024342
            7           8           9          10          11          12
    1   0.0009773  -0.0028067  -0.0020347  -0.0021033  -0.0004112   0.0034193
    2  -0.0013027   0.0007897   0.0014302  -0.0007786   0.0007212   0.0092947
    3   0.0005508  -0.0001081  -0.0020166   0.0007368   0.0014184   0.0127652
           13
    1   0.0014858
    2   0.0013914
    3   0.0077968
 Max gradient component =       1.998E-02
 RMS gradient           =       5.247E-03
 Gradient time:  CPU 17.38 s  wall 4.40 s
rPathMan2.  file_steps = 951
 IRC --- Status = 3.  Assess initial corrector step
 IRC --- bisector search: b =  0.000000 E =     -286.849678 G.B =  -0.004272
 IRC --- bisector search: b =  0.022417 E =     -286.849555 G.B =   0.015292
 IRC --- performed gradient/energy interpolation
 IRC --- bisector search:  estimate b(min) =   4.911805382006368E-003
 ----------------------------------------------------------------
             Standard Nuclear Orientation (Angstroms)
    I     Atom           X                Y                Z
 ----------------------------------------------------------------
    1      C       1.5191430624     0.5757985111    -0.1337921317
    2      C       0.8571127824    -0.7571855360    -0.0007162107
    3      C      -0.3770565720    -0.6550102304    -0.8201573847
    4      C      -1.0975301853     0.5398159467     0.7942735741
    5      C      -0.6341299483     0.8737871401    -0.6088210212
    6      N       0.7176330298     1.5066494606    -0.5049473489
    7      H       2.5581297070     0.7672559767     0.1227601760
    8      H       1.4112031945    -1.6882520376     0.0403776892
    9      H      -0.8097095787    -1.3379395216    -1.5513197468
   10      H      -1.8740186037     0.9531758506     1.4154336303
   11      H      -1.3042476174     1.4337791053    -1.2588125317
   12      C      -0.4094581920    -0.7197293319     0.8785677619
   13      H      -0.5732070007    -1.4926660223     1.6312072607
 ----------------------------------------------------------------
 Nuclear Repulsion Energy =   281.4286962273 hartrees
 There are       25 alpha and       24 beta electrons

                       Distance Matrix (Angstroms)
             C (  1)   C (  2)   C (  3)   C (  4)   C (  5)   N (  6)
   C (  2)  1.494269
   C (  3)  2.362533  1.484957
   C (  4)  2.776613  2.476863  2.133795
   C (  5)  2.225092  2.292088  1.564599  1.514910
   N (  6)  1.283222  2.323500  2.443456  2.432603  1.496184
   H (  7)  1.087184  2.287494  3.395181  3.723776  3.276749  2.080420
   H (  8)  2.273304  1.084246  2.237405  3.438952  3.341989  3.314486
   H (  9)  3.330966  2.349456  1.090036  3.018379  2.410574  3.394018
   H ( 10)  3.749141  3.519928  3.134490  1.076866  2.375128  3.272744
   H ( 11)  3.158059  3.324848  2.327046  2.248792  1.088640  2.159079
   C ( 12)  2.534318  1.542318  1.700266  1.437708  2.191369  2.853281
   H ( 13)  3.430991  2.291270  2.597947  2.259725  3.259070  3.901963
             H (  7)   H (  8)   H (  9)   H ( 10)   H ( 11)   C ( 12)
   H (  8)  2.711411
   H (  9)  4.310073  2.754755
   H ( 10)  4.620553  4.434028  3.896612
   H ( 11)  4.155834  4.336894  2.830645  2.776186
   C ( 12)  3.404254  2.226074  2.539043  2.287307  3.163328
   H ( 13)  4.145833  2.550858  3.195051  2.778635  4.177405  1.091197

 
 Applying Cartesian multipole field
    Component          Value
    ---------          -----
     (2,0,0)        1.00000E-11
     (0,2,0)        2.00000E-11
     (0,0,2)       -3.00000E-11
 Nucleus-field energy     =     0.0000000021 hartrees
 Requested basis set is 6-31+G(d,p)
 There are 53 shells and 163 basis functions
 A cutoff of  1.0D-14 yielded   1402 shell pairs
 There are     13502 function pairs
 Smallest overlap matrix eigenvalue = 2.32E-05
 Guess MOs from core Hamiltonian diagonalization
 Mixing HOMO and LUMO in initial guess
 Adding  50% of the LUMO to the HOMO
 An unrestricted hybrid HF-DFT SCF calculation will be
 performed using Pulay DIIS extrapolation
 Exchange:     0.2000 Hartree-Fock + 0.0800 Slater + 0.7200 B88
[...]
 
 Alpha MOs
 -- Occupied --
-14.337 -10.234 -10.231 -10.221 -10.216 -10.213 -10.209  -0.965
 -0.833  -0.737  -0.715  -0.589  -0.583  -0.540  -0.520  -0.482
 -0.429  -0.420  -0.392  -0.383  -0.358  -0.305  -0.283  -0.271
 -0.205
 -- Virtual --
 -0.041   0.002   0.002   0.020   0.026   0.032   0.048   0.049
  0.065   0.072   0.075   0.093   0.104   0.107   0.109   0.120
  0.121   0.131   0.138   0.150   0.169   0.171   0.185   0.190
  0.193   0.199   0.204   0.219   0.230   0.234   0.239   0.248
  0.257   0.267   0.279   0.287   0.303   0.325   0.337   0.343
  0.353   0.392   0.421   0.455   0.616   0.669   0.681   0.702
  0.707   0.717   0.727   0.737   0.746   0.765   0.777   0.789
  0.805   0.832   0.859   0.892   0.898   0.951   0.959   0.994
  1.011   1.026   1.052   1.070   1.083   1.107   1.122   1.144
  1.211   1.288   1.310   1.329   1.359   1.407   1.430   1.481
  1.500   1.576   1.623   1.685   1.744   1.754   1.810   1.830
  1.890   1.900   1.973   1.988   2.033   2.048   2.092   2.113
  2.123   2.172   2.216   2.264   2.290   2.325   2.354   2.395
  2.403   2.449   2.453   2.478   2.495   2.513   2.516   2.557
  2.589   2.605   2.627   2.635   2.685   2.742   2.776   2.790
  2.818   2.866   2.917   3.044   3.109   3.284   3.329   3.383
  3.447   3.540   3.716   4.141   4.375   4.473   4.554   4.613
  4.764   4.826
 
 Beta MOs
 -- Occupied --
-14.336 -10.235 -10.231 -10.221 -10.211 -10.208 -10.203  -0.962
 -0.827  -0.735  -0.700  -0.587  -0.570  -0.536  -0.517  -0.473
 -0.425  -0.415  -0.390  -0.379  -0.352  -0.298  -0.273  -0.268
 -- Virtual --
 -0.064  -0.036   0.003   0.003   0.021   0.029   0.032   0.048
  0.050   0.068   0.073   0.076   0.094   0.105   0.107   0.109
  0.120   0.127   0.132   0.140   0.152   0.170   0.171   0.185
  0.191   0.197   0.200   0.208   0.222   0.233   0.238   0.241
  0.250   0.261   0.269   0.280   0.292   0.308   0.327   0.340
  0.345   0.362   0.394   0.422   0.457   0.619   0.682   0.687
  0.710   0.714   0.725   0.733   0.740   0.750   0.770   0.791
  0.795   0.808   0.835   0.861   0.898   0.904   0.953   0.967
  0.998   1.013   1.029   1.057   1.076   1.084   1.109   1.127
  1.147   1.213   1.292   1.313   1.334   1.363   1.409   1.435
  1.486   1.510   1.584   1.629   1.692   1.748   1.760   1.817
  1.840   1.895   1.911   1.976   1.991   2.047   2.057   2.096
  2.123   2.133   2.174   2.222   2.271   2.304   2.327   2.359
  2.397   2.407   2.453   2.456   2.479   2.498   2.517   2.520
  2.564   2.601   2.610   2.637   2.637   2.689   2.745   2.779
  2.796   2.821   2.870   2.919   3.045   3.111   3.285   3.329
  3.392   3.450   3.541   3.718   4.142   4.385   4.477   4.570
  4.621   4.766   4.828
 --------------------------------------------------------------
 
          Ground-State Mulliken Net Atomic Charges

     Atom                 Charge (a.u.)    Spin (a.u.)
  --------------------------------------------------------
      1 C                    -0.092347      -0.030920
      2 C                     0.009010      -0.061061
      3 C                    -0.271149       1.033675
      4 C                    -0.144865       0.047326
      5 C                     0.023185      -0.089596
      6 N                    -0.202467       0.024923
      7 H                     0.137306      -0.000123
      8 H                     0.124643       0.003508
      9 H                     0.138860      -0.025910
     10 H                     0.139061       0.000662
     11 H                     0.129496       0.003573
     12 C                    -0.129196       0.093818
     13 H                     0.138464       0.000126
  --------------------------------------------------------
  Sum of atomic charges =    -0.000000
  Sum of spin   charges =     1.000000

 -----------------------------------------------------------------
                    Cartesian Multipole Moments
 -----------------------------------------------------------------
    Charge (ESU x 10^10)
                 0.0000
    Dipole Moment (Debye)
         X      -0.6143      Y      -2.2666      Z       1.1010
       Tot       2.5936
    Quadrupole Moments (Debye-Ang)
        XX     -37.7900     XY      -3.8506     YY     -45.4557
        XZ       1.5674     YZ       0.2192     ZZ     -42.2391
    Octopole Moments (Debye-Ang^2)
       XXX      -2.9117    XXY      -3.7836    XYY      -9.0749
       YYY     -33.5930    XXZ       4.8985    XYZ       0.6945
       YYZ       5.1502    XZZ      -8.3961    YZZ      -9.1439
       ZZZ      14.9619
    Hexadecapole Moments (Debye-Ang^3)
      XXXX    -246.9047   XXXY     -11.0929   XXYY     -85.8733
      XYYY     -25.8383   YYYY    -272.4717   XXXZ      16.8017
      XXYZ      10.9832   XYYZ      10.9826   YYYZ      24.0803
      XXZZ     -78.4391   XYZZ      -4.2146   YYZZ     -73.7477
      XZZZ      18.4407   YZZZ      13.3781   ZZZZ    -220.0632
 -----------------------------------------------------------------
 Calculating analytic gradient of the SCF energy
 Gradient of SCF Energy
            1           2           3           4           5           6
    1  -0.0012342   0.0002064   0.0018411   0.0030688  -0.0008318   0.0004678
    2   0.0005425  -0.0001980   0.0021962  -0.0013716   0.0001064  -0.0007356
    3  -0.0004874  -0.0008292   0.0017699  -0.0018213  -0.0002949   0.0001301
            7           8           9          10          11          12
    1   0.0005411   0.0000128  -0.0014615  -0.0014516   0.0002583  -0.0011597
    2   0.0001809   0.0002461  -0.0015135   0.0009283  -0.0001757  -0.0004741
    3  -0.0000060   0.0001888  -0.0003984   0.0012096   0.0001655   0.0019853
           13
    1  -0.0002575
    2   0.0002683
    3  -0.0016119
 Max gradient component =       3.069E-03
 RMS gradient           =       1.111E-03
 Gradient time:  CPU 17.29 s  wall 4.38 s
rPathMan2.  file_steps = 952
 IRC --- Status = 3.  Assess initial corrector step
 IRC --- bisector search: b =  0.000000 E =     -286.873511 G.B =  -0.002454
 IRC --- bisector search: b =  0.013096 E =     -286.873486 G.B =   0.006196
 IRC --- performed gradient/energy interpolation
 IRC --- bisector search:  estimate b(min) =   3.707212113467626E-003
 ----------------------------------------------------------------
             Standard Nuclear Orientation (Angstroms)
    I     Atom           X                Y                Z
 ----------------------------------------------------------------
    1      C       1.4870598842     0.5333639057    -0.0859103111
    2      C       0.7308689952    -0.8092179854    -0.0263242727
    3      C      -0.2118506920    -0.5081443094    -1.1960734143
    4      C      -1.1357236463     0.3513339213     0.7158654933
    5      C      -0.6255970061     0.8517652648    -0.6458420092
    6      N       0.7300169088     1.5027725521    -0.4314454665
    7      H       2.5390006600     0.6702234962     0.1550093600
    8      H       1.3268122769    -1.7211925500    -0.0223788514
    9      H      -0.9122815750    -1.2404556436    -1.5918661786
   10      H      -1.9769702984     0.7676025790     1.2574680827
   11      H      -1.2943477544     1.4918473560    -1.2176211283
   12      C      -0.3202032815    -0.6501368861     1.0921455023
   13      H      -0.3529203917    -1.2402823861     2.0010269130
 ----------------------------------------------------------------
 Nuclear Repulsion Energy =   279.0194882394 hartrees
 There are       25 alpha and       24 beta electrons

                       Distance Matrix (Angstroms)
             C (  1)   C (  2)   C (  3)   C (  4)   C (  5)   N (  6)
   C (  2)  1.542045
   C (  3)  2.281118  1.532214
   C (  4)  2.748631  2.319891  2.290798
   C (  5)  2.208670  2.232189  1.524236  1.537826
   N (  6)  1.277600  2.347216  2.348522  2.474494  1.519034
   H (  7)  1.087820  2.343282  3.283467  3.730931  3.269403  2.075931
   H (  8)  2.261137  1.089432  2.283972  3.302189  3.289486  3.304157
   H (  9)  3.342331  2.310158  1.087904  2.812356  2.313987  3.401326
   H ( 10)  3.722773  3.386278  3.280708  1.083655  2.335783  3.274246
   H ( 11)  3.152093  3.288707  2.274254  2.250401  1.088055  2.171691
   C ( 12)  2.460628  1.543060  2.295179  1.345215  2.317235  2.838893
   H ( 13)  3.299493  2.338925  3.282892  2.190357  3.384809  3.822830
             H (  7)   H (  8)   H (  9)   H ( 10)   H ( 11)   C ( 12)
   H (  8)  2.686957
   H (  9)  4.314350  2.776318
   H ( 10)  4.649612  4.329791  3.644800
   H ( 11)  4.153762  4.315404  2.784154  2.667690
   C ( 12)  3.285821  2.258757  2.811219  2.186823  3.297283
   H ( 13)  3.926961  2.673378  3.636175  2.687382  4.325565  1.084162

 
 Applying Cartesian multipole field
    Component          Value
    ---------          -----
     (2,0,0)        1.00000E-11
     (0,2,0)        2.00000E-11
     (0,0,2)       -3.00000E-11
 Nucleus-field energy     =     0.0000000010 hartrees
 Requested basis set is 6-31+G(d,p)
 There are 53 shells and 163 basis functions
 A cutoff of  1.0D-14 yielded   1410 shell pairs
 There are     13528 function pairs
 Smallest overlap matrix eigenvalue = 2.22E-05
 Guess MOs from core Hamiltonian diagonalization
 Mixing HOMO and LUMO in initial guess
 Adding  50% of the LUMO to the HOMO
 An unrestricted hybrid HF-DFT SCF calculation will be
 performed using Pulay DIIS extrapolation
 Exchange:     0.2000 Hartree-Fock + 0.0800 Slater + 0.7200 B88
 Correlation:  0.1900 VWN1RPA + 0.8100 LYP
 Using SG-1 standard quadrature grid
 SCF converges when DIIS error is below 1.0E-08
 using 4 threads for integral computing
 -------------------------------------------------------
 OpenMP Integral computing Module                
 Release: version 1.0, May 2013, Q-Chem Inc. Pittsburgh 
 -------------------------------------------------------
 -------------------------------------------------------
 OpenMP BLAS3 based DFT computing Module                
 Release: version 1.0, May 2013, Q-Chem Inc. Pittsburgh 
 -------------------------------------------------------
 ---------------------------------------
  Cycle       Energy         DIIS Error
 ---------------------------------------
    1    -234.7461932694      1.00E-01
    2    -215.2598179709      7.14E-02
    3    -253.6777544281      7.79E-02
    4    -280.8417613087      3.80E-02
    5    -279.9564637351      3.52E-02
    6    -286.0849414645      1.37E-02
    7    -286.2383042274      1.30E-02
    8    -286.7788630354      5.30E-03
    9    -286.8489409921      2.80E-03
   10    -286.8709233547      8.87E-04
   11    -286.8732020585      2.93E-04
   12    -286.8735021669      4.98E-05
   13    -286.8735137077      1.46E-05
   14    -286.8735149575      6.03E-06
   15    -286.8735153724      1.93E-06
   16    -286.8735155488      4.70E-07
   17    -286.8735155977      2.39E-07
   18    -286.8735156102      8.98E-08
   19    -286.8735156190      4.10E-08
   20    -286.8735156273      1.77E-08
   21    -286.8735156293      5.84E-09 Convergence criterion met
 ---------------------------------------
 <S^2> = 0.7539
 SCF time:  CPU 104.72 s  wall 26.63 s
 SCF   energy in the final basis set = -286.87351563
 Total energy in the final basis set = -286.87351563
 
 --------------------------------------------------------------
 
                    Orbital Energies (a.u.)
 --------------------------------------------------------------
 
 Alpha MOs
 -- Occupied --
-14.337 -10.235 -10.231 -10.221 -10.216 -10.213 -10.209  -0.965
 -0.833  -0.737  -0.715  -0.589  -0.583  -0.539  -0.520  -0.481
 -0.429  -0.420  -0.391  -0.383  -0.358  -0.305  -0.283  -0.271
 -0.206
 -- Virtual --
 -0.041   0.002   0.002   0.020   0.026   0.032   0.048   0.049
  0.065   0.072   0.075   0.093   0.104   0.107   0.109   0.120
  0.121   0.131   0.138   0.150   0.169   0.171   0.185   0.190
  0.193   0.199   0.204   0.219   0.230   0.234   0.239   0.248
  0.257   0.268   0.279   0.287   0.303   0.325   0.337   0.342
  0.353   0.392   0.420   0.455   0.616   0.669   0.681   0.702
  0.707   0.717   0.727   0.737   0.746   0.764   0.777   0.789
  0.805   0.832   0.859   0.892   0.898   0.951   0.959   0.994
  1.011   1.026   1.053   1.070   1.083   1.107   1.122   1.144
  1.210   1.288   1.310   1.329   1.359   1.407   1.430   1.481
  1.499   1.576   1.623   1.685   1.743   1.754   1.809   1.829
  1.890   1.899   1.972   1.988   2.032   2.048   2.092   2.113
  2.122   2.172   2.215   2.265   2.290   2.325   2.354   2.396
  2.403   2.449   2.453   2.477   2.495   2.513   2.516   2.558
  2.590   2.605   2.626   2.636   2.685   2.742   2.776   2.791
  2.817   2.867   2.916   3.044   3.110   3.285   3.329   3.388
  3.447   3.541   3.717   4.141   4.375   4.473   4.555   4.613
  4.763   4.826
 
 Beta MOs
 -- Occupied --
-14.336 -10.235 -10.231 -10.221 -10.212 -10.208 -10.202  -0.961
 -0.827  -0.735  -0.700  -0.587  -0.571  -0.536  -0.517  -0.472
 -0.425  -0.416  -0.389  -0.380  -0.352  -0.298  -0.273  -0.268
 -- Virtual --
 -0.064  -0.036   0.003   0.003   0.021   0.029   0.032   0.048
  0.050   0.068   0.073   0.076   0.094   0.105   0.107   0.109
  0.120   0.127   0.132   0.140   0.152   0.170   0.171   0.185
  0.191   0.197   0.200   0.208   0.223   0.233   0.238   0.241
  0.250   0.261   0.270   0.280   0.291   0.308   0.327   0.340
  0.345   0.362   0.393   0.422   0.457   0.619   0.682   0.687
  0.710   0.714   0.725   0.733   0.740   0.750   0.770   0.791
  0.795   0.807   0.835   0.861   0.899   0.904   0.953   0.967
  0.999   1.013   1.029   1.058   1.077   1.084   1.109   1.126
  1.147   1.213   1.292   1.313   1.334   1.363   1.409   1.434
  1.486   1.509   1.584   1.630   1.692   1.747   1.760   1.817
  1.839   1.895   1.911   1.975   1.991   2.047   2.057   2.096
  2.123   2.132   2.174   2.222   2.271   2.305   2.327   2.359
  2.398   2.407   2.453   2.456   2.479   2.498   2.518   2.520
  2.565   2.601   2.610   2.636   2.638   2.689   2.745   2.779
  2.796   2.821   2.871   2.918   3.045   3.111   3.286   3.330
  3.397   3.450   3.542   3.718   4.142   4.385   4.477   4.570
  4.621   4.766   4.827
 --------------------------------------------------------------
 
          Ground-State Mulliken Net Atomic Charges

     Atom                 Charge (a.u.)    Spin (a.u.)
  --------------------------------------------------------
      1 C                    -0.092357      -0.030761
      2 C                     0.008070      -0.061047
      3 C                    -0.270272       1.034162
      4 C                    -0.147074       0.048209
      5 C                     0.023705      -0.089709
      6 N                    -0.202554       0.024834
      7 H                     0.137358      -0.000121
      8 H                     0.124666       0.003486
      9 H                     0.138893      -0.026031
     10 H                     0.138865       0.000598
     11 H                     0.129372       0.003567
     12 C                    -0.127275       0.092622
     13 H                     0.138602       0.000192
  --------------------------------------------------------
  Sum of atomic charges =    -0.000000
  Sum of spin   charges =     1.000000

 -----------------------------------------------------------------
                    Cartesian Multipole Moments
 -----------------------------------------------------------------
    Charge (ESU x 10^10)
                -0.0000
    Dipole Moment (Debye)
         X      -0.6142      Y      -2.2681      Z       1.0996
       Tot       2.5943
    Quadrupole Moments (Debye-Ang)
        XX     -37.7779     XY      -3.8481     YY     -45.4652
        XZ       1.5653     YZ       0.2381     ZZ     -42.2372
    Octopole Moments (Debye-Ang^2)
       XXX      -2.9060    XXY      -3.7744    XYY      -9.0640
       YYY     -33.5878    XXZ       4.9107    XYZ       0.6790
       YYZ       5.1334    XZZ      -8.3969    YZZ      -9.1455
       ZZZ      14.9468
    Hexadecapole Moments (Debye-Ang^3)
      XXXX    -246.8458   XXXY     -11.0780   XXYY     -85.8893
      XYYY     -25.8101   YYYY    -272.5172   XXXZ      16.7506
      XXYZ      11.0039   XYYZ      10.9680   YYYZ      24.1129
      XXZZ     -78.4480   XYZZ      -4.2021   YYZZ     -73.7863
      XZZZ      18.4212   YZZZ      13.4044   ZZZZ    -220.1135
 -----------------------------------------------------------------
 Calculating analytic gradient of the SCF energy
 Gradient of SCF Energy
            1           2           3           4           5           6
    1  -0.0000101   0.0000388  -0.0001591  -0.0000495   0.0000867   0.0000826
    2   0.0001689   0.0000789  -0.0002176   0.0000391   0.0000467  -0.0000358
    3  -0.0000462   0.0000927  -0.0001127   0.0001984   0.0000426  -0.0000190
            7           8           9          10          11          12
    1   0.0000200   0.0001361   0.0000342   0.0002437  -0.0000288  -0.0000331
    2   0.0001142   0.0000582   0.0000567   0.0000989  -0.0000122   0.0001044
    3  -0.0001166   0.0000215   0.0003864   0.0000257  -0.0000021  -0.0003002
           13
    1  -0.0003615
    2  -0.0005002
    3  -0.0001705
 Max gradient component =       5.002E-04
 RMS gradient           =       1.587E-04
 Gradient time:  CPU 17.30 s  wall 4.38 s
rPathMan2.  file_steps = 952
 IRC --- Status = 4.  Checking bisector search.
 IRC --- Bisector search finished successfully.
 ------------------------------------------------------------------------
 Reaction path following.  The coordinates are cartesian              
 Step  27 E=    -286.873516 |G|=  0.000991 S_lin= 1.3464 S_tot= 1.6215
 ------------------------------------------------------------------------
  IRC -- convergence criterion reached.
 ----------------------------------------------------------------
             Standard Nuclear Orientation (Angstroms)
    I     Atom           X                Y                Z
 ----------------------------------------------------------------
    1      C       1.5126256955     0.5718827943    -0.1265345956
    2      C       0.8242103590    -0.7654870928     0.0075501159
    3      C      -0.3373483257    -0.6220407174    -0.9227065200
    4      C      -1.1017192754     0.5040942641     0.7909218149
    5      C      -0.6327356438     0.8668113360    -0.6144183946
    6      N       0.7199768901     1.5058017760    -0.5041400591
    7      H       2.5549161358     0.7612122999     0.1212627937
    8      H       1.4016104120    -1.6860700303     0.0411042303
    9      H      -0.8272480085    -1.3411343797    -1.5629885816
   10      H      -1.8723948755     0.9418594009     1.4085591551
   11      H      -1.3062060044     1.4370082431    -1.2514671036
   12      C      -0.3823661472    -0.6887704934     0.9510658830
   13      H      -0.5694571332    -1.4856880896     1.6658449782
 ----------------------------------------------------------------
 Nuclear Repulsion Energy =   280.5485200165 hartrees
 There are       25 alpha and       24 beta electrons
 Here is where we should summarize the reaction path
Archival summary:
1\1\c8-66\JobtypUnspecified\ProcedureUnspecified\6-31+G**\166(2)\hpark21\FriMar409:46:582022FriMar409:46:582022\0\\#,JobtypUnspecified,ProcedureUnspecified,6-31+G**,\\0,2\N\C,1,1.28183\H,2,1.08794,1,122.19\C,1,1.5001,2,105.6,3,-174.62,0\H,4,1.08836,1,112.201,2,-159.48,0\C,2,1.51012,1,112.923,3,176.665,0\H,6,1.08719,2,120.699,1,162.568,0\C,6,1.49505,2,102.355,1,24.7617,0\H,8,1.0803,6,131.09,2,144.986,0\C,4,1.52528,1,108.109,2,68.3238,0\H,10,1.0803,4,130.523,1,108.286,0\C,10,1.40216,4,98.615,1,-80.494,0\H,12,1.08673,10,127.637,4,-161.352,0\\\@

 Total job time:  8892.04s(wall), 34692.56s(cpu) 
 Fri Mar  4 09:46:58 2022

        *************************************************************
        *                                                           *
        *  Thank you very much for using Q-Chem.  Have a nice day.  *
        *                                                           *
        *************************************************************


