
Running Job 1 of 1 qcts2.in
qchem qcts2.in_53130.0 ./qcts2.d/ 1
/home/leeping/opt/qchem/5.0.2-openmp/exe/qcprog.exe_s qcts2.in_53130.0 ./qcts2.d/
Check license passed

                  Welcome to Q-Chem
     A Quantum Leap Into The Future Of Chemistry


 Q-Chem 5.0, Q-Chem, Inc., Pleasanton, CA (2017)

 Yihan Shao,  Zhengting Gan,  E. Epifanovsky,  A. T. B. Gilbert,  M. Wormit,  
 J. Kussmann,  A. W. Lange,  A. Behn,  Jia Deng,  Xintian Feng,  D. Ghosh,  
 M. Goldey,  P. R. Horn,  L. D. Jacobson,  I. Kaliman,  T. Kus,  A. Landau,  
 Jie Liu,  E. I. Proynov,  R. M. Richard,  R. P. Steele,  E. J. Sundstrom,  
 H. L. Woodcock III,  P. M. Zimmerman,  D. Zuev,  B. Albrecht,  E. Alguire,  
 S. A. Baeppler,  D. Barton,  Z. Benda,  Y. A. Bernard,  E. J. Berquist,  
 K. B. Bravaya,  H. Burton,  D. Casanova,  Chun-Min Chang,  Yunqing Chen,  
 A. Chien,  K. D. Closser,  M. P. Coons,  S. Dasgupta,  A. L. Dempwolff,  
 M. Diedenhofen,  Hainam Do,  R. G. Edgar,  Po-Tung Fang,  S. Fatehi,  
 Qingguo Feng,  J. Fosso-Tande,  Qinghui Ge,  A. Ghysels,  G. Gidofalvi,  
 J. Gomes,  J. Gonthier,  A. Gunina,  M. W. D. Hanson-Heine,  
 P. H. P. Harbach,  A. W. Hauser,  J. E. Herr,  E. G. Hohenstein,  
 Z. C. Holden,  Kerwin Hui,  T.-C. Jagau,  Hyunjun Ji,  B. Kaduk,  
 K. Khistyaev,  Jaehoon Kim,  P. Klunzinger,  K. Koh,  D. Kosenkov,  
 L. Koulias,  T. Kowalczyk,  C. M. Krauter,  A. Kunitsa,  Ka Un Lao,  
 A. Laurent,  K. V. Lawler,  Joonho Lee,  D. Lefrancois,  S. Lehtola,  
 D. S. Levine,  Yi-Pei Li,  You-Sheng Lin,  Fenglai Liu,  E. Livshits,  
 A. Luenser,  P. Manohar,  E. Mansoor,  S. F. Manzer,  Shan-Ping Mao,  
 Yuezhi Mao,  N. Mardirossian,  A. V. Marenich,  T. Markovich,  
 L. A. Martinez-Martinez,  S. A. Maurer,  N. J. Mayhall,  S. C. McKenzie,  
 J.-M. Mewes,  A. F. Morrison,  J. W. Mullinax,  K. Nanda,  
 T. S. Nguyen-Beck,  R. Olivares-Amaya,  J. A. Parkhill,  T. M. Perrine,  
 F. Plasser,  S. Prager,  A. Prociuk,  E. Ramos,  D. R. Rehn,  F. Rob,  
 M. Schneider,  N. Sergueev,  S. M. Sharada,  S. Sharma,  D. W. Small,  
 T. Stauch,  T. Stein,  Yu-Chuan Su,  A. J. W. Thom,  A. Tkatchenko,  
 T. Tsuchimochi,  L. Vogt,  O. Vydrov,  M. A. Watson,  J. Wenzel,  
 M. de Wergifosse,  T. A. Wesolowski,  A. White,  J. Witte,  A. Yamada,  
 Jun Yang,  K. Yao,  S. Yeganeh,  S. R. Yost,  Zhi-Qiang You,  A. Zech,  
 Igor Ying Zhang,  Xing Zhang,  Yan Zhao,  Ying Zhu,  B. R. Brooks,  
 G. K. L. Chan,  C. J. Cramer,  M. S. Gordon,  W. J. Hehre,  A. Klamt,  
 M. W. Schmidt,  C. D. Sherrill,  D. G. Truhlar,  A. Aspuru-Guzik,  R. Baer,  
 A. T. Bell,  N. A. Besley,  Jeng-Da Chai,  R. A. DiStasio Jr.,  A. Dreuw,  
 B. D. Dunietz,  T. R. Furlani,  Chao-Ping Hsu,  Yousung Jung,  Jing Kong,  
 D. S. Lambrecht,  WanZhen Liang,  C. Ochsenfeld,  V. A. Rassolov,  
 L. V. Slipchenko,  J. E. Subotnik,  T. Van Voorhis,  J. M. Herbert,  
 A. I. Krylov,  P. M. W. Gill,  M. Head-Gordon

 Contributors to earlier versions of Q-Chem not listed above: 
 R. D. Adamson,  B. Austin,  J. Baker,  G. J. O. Beran,  K. Brandhorst,  
 S. T. Brown,  E. F. C. Byrd,  A. K. Chakraborty,  C.-L. Cheng,  
 Siu Hung Chien,  D. M. Chipman,  D. L. Crittenden,  H. Dachsel,  
 R. J. Doerksen,  A. D. Dutoi,  L. Fusti-Molnar,  W. A. Goddard III,  
 A. Golubeva-Zadorozhnaya,  S. R. Gwaltney,  G. Hawkins,  A. Heyden,  
 S. Hirata,  G. Kedziora,  F. J. Keil,  C. Kelley,  Jihan Kim,  R. A. King,  
 R. Z. Khaliullin,  P. P. Korambath,  W. Kurlancheek,  A. M. Lee,  M. S. Lee,  
 S. V. Levchenko,  Ching Yeh Lin,  D. Liotard,  R. C. Lochan,  I. Lotan,  
 P. E. Maslen,  N. Nair,  D. P. O'Neill,  D. Neuhauser,  E. Neuscamman,  
 C. M. Oana,  R. Olson,  B. Peters,  R. Peverati,  P. A. Pieniazek,  
 Y. M. Rhee,  J. Ritchie,  M. A. Rohrdanz,  E. Rosta,  N. J. Russ,  
 H. F. Schaefer III,  N. E. Schultz,  N. Shenvi,  A. C. Simmonett,  A. Sodt,  
 D. Stuck,  K. S. Thanthiriwatte,  V. Vanovschi,  Tao Wang,  A. Warshel,  
 C. F. Williams,  Q. Wu,  X. Xu,  W. Zhang

 Please cite Q-Chem as follows:
 Y. Shao et al., Mol. Phys. 113, 184-215 (2015)
 DOI: 10.1080/00268976.2014.952696

 Q-Chem 5.0.2 for Intel X86 EM64T Linux

 Parts of Q-Chem use Armadillo 5.200.1 (Boston Tea Smuggler).
 http://arma.sourceforge.net/

 Q-Chem begins on Fri Mar  4 06:37:42 2022  

Host: 
0

     Scratch files written to ./qcts2.d//
 Dec517 15110_ 26548  26544 5633   
Processing $rem in /home/leeping/opt/qchem/5.0.2-openmp/config/preferences.
 MEM_STATIC 2000
 MEM_TOTAL  8000
 SYMMETRY   OFF
 SYM_IGNORE TRUE 

Checking the input file for inconsistencies... 	...done.

--------------------------------------------------------------
User input:
--------------------------------------------------------------
$molecule
0 2
C        1.5299284714    0.5921932666   -0.1546403636
C        0.8938036152   -0.7439933803    0.0246917941
C       -0.4027000747   -0.6733633792   -0.7095373695
C       -1.0425876342    0.6084717781    0.8558604760
C       -0.6187523129    0.8852342133   -0.5850591414
N        0.7276677004    1.5146299450   -0.5380684068
H        2.5783974638    0.7999288264    0.0566902427
H        1.4648546506   -1.6661954627    0.0737171237
H       -0.7860695375   -1.3672088890   -1.4520124631
H       -1.9018337010    0.9741392775    1.4013047100
H       -1.3005949966    1.4075603001   -1.2564752454
C       -0.4695131421   -0.7429648525    0.8222042915
H       -0.6887364236   -1.5889523321    1.4653780685
$end

$rem
method                b3lyp
basis                 6-31+g(d,p)
unrestricted          true
symmetry              off
sym_ignore            true
incdft                false
incfock               0
scf_convergence       8
thresh                14
jobtype               ts
scf_guess             read
scf_algorithm         diis
max_scf_cycles        100
geom_opt_max_cycles   500
geom_opt_dmax         100
geom_opt_tol_gradient 10
geom_opt_hessian      read
$end

--------------------------------------------------------------
 ----------------------------------------------------------------
             Standard Nuclear Orientation (Angstroms)
    I     Atom           X                Y                Z
 ----------------------------------------------------------------
    1      C       1.5299284714     0.5921932666    -0.1546403636
    2      C       0.8938036152    -0.7439933803     0.0246917941
    3      C      -0.4027000747    -0.6733633792    -0.7095373695
    4      C      -1.0425876342     0.6084717781     0.8558604760
    5      C      -0.6187523129     0.8852342133    -0.5850591414
    6      N       0.7276677004     1.5146299450    -0.5380684068
    7      H       2.5783974638     0.7999288264     0.0566902427
    8      H       1.4648546506    -1.6661954627     0.0737171237
    9      H      -0.7860695375    -1.3672088890    -1.4520124631
   10      H      -1.9018337010     0.9741392775     1.4013047100
   11      H      -1.3005949966     1.4075603001    -1.2564752454
   12      C      -0.4695131421    -0.7429648525     0.8222042915
   13      H      -0.6887364236    -1.5889523321     1.4653780685
 ----------------------------------------------------------------
 Nuclear Repulsion Energy =   281.7331701809 hartrees
 There are       25 alpha and       24 beta electrons
 Requested basis set is 6-31+G(d,p)
 There are 53 shells and 163 basis functions

 Total QAlloc Memory Limit   8000 MB
 Mega-Array Size      1956 MB
 MEM_STATIC part      2000 MB
 A cutoff of  1.0D-14 yielded   1403 shell pairs
 There are     13513 function pairs
 
 -------------------------------------------------------
 OpenMP Integral Computing Module                       
 Release: version 1.0, May 2013, Q-Chem Inc. Pittsburgh 
 -------------------------------------------------------
 Integral Job Info:
 Integral job number is                      11
 Integral operator is                         1
 short-range coefficients                     0
 long-range coefficients              100000000
 Omega coefficients                           0
 if combine SR and LR in K                    0
 Integral screening is                        0
 Integral computing path is                   2
 max size of driver memory is            800000
 size of driver memory is                593474
 size of scratch memory is              2361544
 max col of scratch BK array               1296
 max len of scratch array in speh3          155
 max len of scratch index in speh4           18
 max int batch size is                      520
 min int batch size is                       52
 fixed nKL is                                52
 max L of basis functions is                  2
 order of int derivative is                   0
 number of shells is                         53
 number of basis is                         163
 number of cartesian basis is               163
 number of contracted shell pairs          1403
 number of primitive shell pairs           4833
 maxK2 (contraction) of shell pair           36
 max number of K2 of shell pair               1
 max number of CS2 of shell pair            126
 max number of PS2 of shell pair            708
 mem total for path MDJ                  535308
 -------------------------------------------------------
 Smallest overlap matrix eigenvalue = 1.97E-05

 Scale SEOQF with 1.000000e-01/1.000000e-01/1.000000e-01

 Standard Electronic Orientation quadrupole field applied
 Nucleus-field energy     =     0.0000000025 hartrees
 Guess MOs from SCF MO coefficient file
 Reading MOs from coefficient file
 Reading MOs from coefficient file
 An unrestricted hybrid HF-DFT SCF calculation will be
 performed using Pulay DIIS extrapolation
 Exchange:     0.2000 Hartree-Fock + 0.0800 Slater + 0.7200 B88
 Correlation:  0.1900 VWN1RPA + 0.8100 LYP
 Using SG-1 standard quadrature grid
 SCF converges when DIIS error is below 1.0E-08
Using Q-Chem read-in guess as SCF_GUESS READ specified.

 using 4 threads for integral computing
 -------------------------------------------------------
 OpenMP Integral computing Module                
 Release: version 1.0, May 2013, Q-Chem Inc. Pittsburgh 
 -------------------------------------------------------
 -------------------------------------------------------
 OpenMP BLAS3 based DFT computing Module                
 Release: version 1.0, May 2013, Q-Chem Inc. Pittsburgh 
 -------------------------------------------------------
 ---------------------------------------
  Cycle       Energy         DIIS Error
 ---------------------------------------
    1    -286.8577405464      1.23E-10
    2    -286.8577405464      1.57E-10 Convergence criterion met
 ---------------------------------------
 <S^2> = 0.7552
 SCF time:  CPU 10.01 s  wall 2.52 s
 SCF   energy in the final basis set = -286.85774055
 Total energy in the final basis set = -286.85774055
 
 --------------------------------------------------------------
 
                    Orbital Energies (a.u.)
 --------------------------------------------------------------
 
 Alpha MOs
 -- Occupied --
-14.331 -10.230 -10.230 -10.226 -10.221 -10.221 -10.206  -0.975
 -0.868  -0.756  -0.666  -0.617  -0.582  -0.548  -0.522  -0.472
 -0.439  -0.422  -0.397  -0.374  -0.339  -0.324  -0.276  -0.268
 -0.181
 -- Virtual --
 -0.021  -0.000   0.017   0.020   0.025   0.045   0.049   0.063
  0.069   0.075   0.086   0.096   0.102   0.107   0.112   0.116
  0.121   0.131   0.150   0.164   0.166   0.173   0.181   0.184
  0.189   0.199   0.210   0.213   0.229   0.239   0.245   0.259
  0.263   0.272   0.281   0.295   0.301   0.314   0.325   0.337
  0.358   0.388   0.443   0.457   0.615   0.651   0.666   0.683
  0.700   0.723   0.733   0.743   0.749   0.756   0.782   0.797
  0.801   0.840   0.865   0.887   0.908   0.920   0.953   0.974
  0.982   1.022   1.033   1.061   1.076   1.124   1.145   1.183
  1.198   1.243   1.292   1.352   1.413   1.439   1.477   1.543
  1.549   1.598   1.644   1.671   1.743   1.770   1.823   1.839
  1.885   1.900   1.944   1.994   2.007   2.041   2.103   2.156
  2.171   2.205   2.260   2.304   2.345   2.353   2.364   2.386
  2.402   2.419   2.452   2.470   2.499   2.507   2.534   2.552
  2.581   2.615   2.631   2.660   2.706   2.736   2.765   2.799
  2.846   2.890   2.985   3.040   3.109   3.266   3.292   3.376
  3.429   3.621   3.708   4.159   4.379   4.464   4.585   4.653
  4.680   4.878
 
 Beta MOs
 -- Occupied --
-14.331 -10.231 -10.229 -10.226 -10.220 -10.218 -10.193  -0.971
 -0.864  -0.746  -0.656  -0.612  -0.578  -0.545  -0.512  -0.470
 -0.434  -0.416  -0.394  -0.371  -0.329  -0.312  -0.272  -0.266
 -- Virtual --
 -0.057  -0.015   0.000   0.019   0.020   0.026   0.046   0.050
  0.064   0.069   0.080   0.087   0.098   0.102   0.107   0.115
  0.117   0.124   0.133   0.152   0.167   0.168   0.174   0.182
  0.185   0.190   0.200   0.213   0.214   0.233   0.242   0.249
  0.260   0.265   0.274   0.285   0.296   0.307   0.318   0.328
  0.339   0.361   0.391   0.449   0.461   0.618   0.656   0.668
  0.698   0.718   0.727   0.738   0.747   0.755   0.768   0.784
  0.800   0.806   0.843   0.869   0.889   0.910   0.924   0.957
  0.976   0.984   1.024   1.035   1.065   1.080   1.133   1.151
  1.190   1.201   1.247   1.297   1.356   1.415   1.448   1.482
  1.546   1.554   1.608   1.648   1.675   1.748   1.782   1.829
  1.846   1.896   1.907   1.948   2.001   2.015   2.047   2.111
  2.161   2.176   2.216   2.263   2.307   2.350   2.358   2.367
  2.387   2.411   2.422   2.456   2.472   2.501   2.517   2.540
  2.564   2.585   2.621   2.636   2.665   2.709   2.739   2.770
  2.801   2.849   2.893   2.989   3.044   3.111   3.268   3.294
  3.378   3.431   3.622   3.713   4.160   4.386   4.476   4.588
  4.656   4.686   4.883
 --------------------------------------------------------------
 
          Ground-State Mulliken Net Atomic Charges

     Atom                 Charge (a.u.)    Spin (a.u.)
  --------------------------------------------------------
      1 C                    -0.069067       0.011638
      2 C                    -0.084318       0.034651
      3 C                    -0.109300       0.133125
      4 C                    -0.057194       1.049714
      5 C                    -0.125878      -0.126172
      6 N                    -0.199383       0.025904
      7 H                     0.131681       0.004417
      8 H                     0.138862       0.002407
      9 H                     0.134713       0.006126
     10 H                     0.136996      -0.044159
     11 H                     0.132831       0.009314
     12 C                    -0.169840      -0.108459
     13 H                     0.139896       0.001495
  --------------------------------------------------------
  Sum of atomic charges =    -0.000000
  Sum of spin   charges =     1.000000

 -----------------------------------------------------------------
                    Cartesian Multipole Moments
 -----------------------------------------------------------------
    Charge (ESU x 10^10)
                -0.0000
    Dipole Moment (Debye)
         X      -0.6697      Y      -2.9758      Z       0.2232
       Tot       3.0584
    Quadrupole Moments (Debye-Ang)
        XX     -37.8756     XY      -3.0460     YY     -45.1102
        XZ       1.0728     YZ       0.6543     ZZ     -41.8722
    Octopole Moments (Debye-Ang^2)
       XXX      -1.4398    XXY      -5.4404    XYY      -9.0418
       YYY     -40.4719    XXZ       3.4579    XYZ       1.8270
       YYZ       4.0411    XZZ      -8.4227    YZZ     -10.9243
       ZZZ       2.7856
    Hexadecapole Moments (Debye-Ang^3)
      XXXX    -263.4941   XXXY     -11.2537   XXYY     -90.6543
      XYYY     -26.1226   YYYY    -299.3016   XXXZ      21.6556
      XXYZ       9.7147   XYYZ      12.2789   YYYZ      22.7120
      XXZZ     -72.8604   XYZZ      -4.9707   YYZZ     -72.7459
      XZZZ      23.1437   YZZZ      17.6722   ZZZZ    -166.3080
 -----------------------------------------------------------------
 Calculating analytic gradient of the SCF energy
 Gradient of SCF Energy
            1           2           3           4           5           6
    1  -0.0031791  -0.0003962   0.0002824   0.0011266   0.0007472   0.0017164
    2   0.0010596   0.0003885  -0.0004723   0.0011901  -0.0013913  -0.0001119
    3  -0.0012621   0.0003915   0.0014436   0.0004655   0.0008879   0.0010356
            7           8           9          10          11          12
    1   0.0005081  -0.0000158  -0.0001389  -0.0003150  -0.0002303   0.0000292
    2   0.0000938  -0.0004079  -0.0002067  -0.0002663   0.0001638   0.0004029
    3   0.0001401   0.0000003  -0.0003671  -0.0002175  -0.0005249  -0.0021319
           13
    1  -0.0001348
    2  -0.0004424
    3   0.0001390
 Max gradient component =       3.179E-03
 RMS gradient           =       9.065E-04
 Gradient time:  CPU 17.46 s  wall 4.43 s
 Geometry Optimization Parameters
   NAtoms,    NIC,     NZ,  NCons,   NDum,   NFix, NCnnct, MaxDiis
       13     128       0       0       0       0       0       0

 Cartesian Hessian read from HESS file


** GEOMETRY OPTIMIZATION IN DELOCALIZED INTERNAL COORDINATES **
   Searching for a Transition State

   Optimization Cycle:   1

                       Coordinates (Angstroms)
     ATOM                X               Y               Z
      1  C         1.5299284714    0.5921932666   -0.1546403636
      2  C         0.8938036152   -0.7439933803    0.0246917941
      3  C        -0.4027000747   -0.6733633792   -0.7095373695
      4  C        -1.0425876342    0.6084717781    0.8558604760
      5  C        -0.6187523129    0.8852342133   -0.5850591414
      6  N         0.7276677004    1.5146299450   -0.5380684068
      7  H         2.5783974638    0.7999288264    0.0566902427
      8  H         1.4648546506   -1.6661954627    0.0737171237
      9  H        -0.7860695375   -1.3672088890   -1.4520124631
     10  H        -1.9018337010    0.9741392775    1.4013047100
     11  H        -1.3005949966    1.4075603001   -1.2564752454
     12  C        -0.4695131421   -0.7429648525    0.8222042915
     13  H        -0.6887364236   -1.5889523321    1.4653780685
   Point Group: c1    Number of degrees of freedom:    33


   Energy is   -286.857740546


 Attempting to Generate Delocalized Internal Coordinates

 Transforming Cartesian Hessian to Internal Coordinates
 Hessian Transformation does not Include Derivative of B-matrix

 33 Hessian modes will be used to form the next step
  Hessian Eigenvalues:
    -0.000922    0.008400    0.009886    0.013016    0.017108    0.023058
     0.025267    0.031237    0.036901    0.039096    0.042122    0.044974
     0.049940    0.061370    0.081592    0.092065    0.099287    0.107268
     0.115484    0.136918    0.174827    0.187998    0.212738    0.264392
     0.276247    0.297302    0.348846    0.353684    0.356873    0.359289
     0.361172    0.372225    0.581665

 Transition State Search - Taking P-RFO Step
 Searching for Lamda that Maximizes Along the Lowest mode
 Value Taken    Lamda =   0.00009390
 Searching for Lamda that Minimizes Along All other modes
 Value Taken    Lamda =  -0.00005638
 Calculated Step too Large.  Step scaled by  0.327162
 Step Taken.  Stepsize is  0.100000

                             Maximum     Tolerance    Cnvgd?
         Gradient           0.001964      0.000010      NO
         Displacement       0.051282      0.001200      NO
         Energy change     *********      0.000001      NO


 New Cartesian Coordinates Obtained by Inverse Iteration

 Displacement from previous Coordinates is:  0.061951
 ----------------------------------------------------------------
             Standard Nuclear Orientation (Angstroms)
    I     Atom           X                Y                Z
 ----------------------------------------------------------------
    1      C       1.5329319100     0.5907901433    -0.1562796433
    2      C       0.8935828832    -0.7439374137     0.0251788707
    3      C      -0.4042538648    -0.6705323956    -0.7075457410
    4      C      -1.0390621152     0.6115814071     0.8596161674
    5      C      -0.6167065701     0.8882052582    -0.5830607185
    6      N       0.7309086824     1.5138704657    -0.5399438545
    7      H       2.5820205685     0.7967859212     0.0519493565
    8      H       1.4633030029    -1.6669019541     0.0719963187
    9      H      -0.7904749639    -1.3645912093    -1.4480761956
   10      H      -1.9182253494     0.9580196367     1.3861072242
   11      H      -1.2993358955     1.4121775468    -1.2517761900
   12      C      -0.4651490474    -0.7404651720     0.8261703643
   13      H      -0.6856751620    -1.5855229230     1.4697177578
 ----------------------------------------------------------------
 Nuclear Repulsion Energy =   281.7110596266 hartrees
 There are       25 alpha and       24 beta electrons
 Applying Cartesian multipole field
    Component          Value
    ---------          -----
     (2,0,0)        1.00000E-11
     (0,2,0)        2.00000E-11
     (0,0,2)       -3.00000E-11
 Nucleus-field energy     =     0.0000000025 hartrees
 Requested basis set is 6-31+G(d,p)
 There are 53 shells and 163 basis functions
 A cutoff of  1.0D-14 yielded   1401 shell pairs
 There are     13507 function pairs
 Smallest overlap matrix eigenvalue = 1.98E-05
 Guess MOs from SCF MO coefficient file
 Reading MOs from coefficient file
 Reading MOs from coefficient file
 An unrestricted hybrid HF-DFT SCF calculation will be
 performed using Pulay DIIS extrapolation
 Exchange:     0.2000 Hartree-Fock + 0.0800 Slater + 0.7200 B88
 Correlation:  0.1900 VWN1RPA + 0.8100 LYP
 Using SG-1 standard quadrature grid
 SCF converges when DIIS error is below 1.0E-08
 Geometry optimization detected.  Setting ReadMinima to 0
 Setting SaveMinima to 0
Using Q-Chem read-in guess as SCF_GUESS READ specified.

 using 4 threads for integral computing
 -------------------------------------------------------
 OpenMP Integral computing Module                
 Release: version 1.0, May 2013, Q-Chem Inc. Pittsburgh 
 -------------------------------------------------------
 -------------------------------------------------------
 OpenMP BLAS3 based DFT computing Module                
 Release: version 1.0, May 2013, Q-Chem Inc. Pittsburgh 
 -------------------------------------------------------
 ---------------------------------------
  Cycle       Energy         DIIS Error
 ---------------------------------------
    1    -286.8570228139      1.56E-04
    2    -286.8577192190      2.88E-05
    3    -286.8577231802      3.97E-05
    4    -286.8577283469      1.29E-05
    5    -286.8577290198      4.67E-06
    6    -286.8577291541      1.62E-06
    7    -286.8577291818      4.21E-07
    8    -286.8577291832      1.79E-07
    9    -286.8577291836      4.17E-08
   10    -286.8577291838      1.89E-08
   11    -286.8577291838      5.73E-09 Convergence criterion met
 ---------------------------------------
 <S^2> = 0.7551
 SCF time:  CPU 55.07 s  wall 14.11 s
 SCF   energy in the final basis set = -286.85772918
 Total energy in the final basis set = -286.85772918
 
 --------------------------------------------------------------
 
                    Orbital Energies (a.u.)
 --------------------------------------------------------------
 
 Alpha MOs
 -- Occupied --
-14.331 -10.230 -10.230 -10.226 -10.221 -10.221 -10.205  -0.975
 -0.868  -0.756  -0.666  -0.617  -0.582  -0.548  -0.522  -0.472
 -0.438  -0.422  -0.398  -0.375  -0.339  -0.324  -0.276  -0.268
 -0.181
 -- Virtual --
 -0.021  -0.001   0.017   0.019   0.025   0.045   0.049   0.063
  0.069   0.075   0.086   0.096   0.102   0.107   0.112   0.116
  0.121   0.131   0.150   0.164   0.166   0.173   0.181   0.184
  0.189   0.199   0.210   0.213   0.229   0.239   0.246   0.259
  0.263   0.272   0.282   0.294   0.301   0.314   0.325   0.337
  0.358   0.388   0.442   0.456   0.615   0.650   0.665   0.681
  0.700   0.723   0.733   0.743   0.749   0.756   0.782   0.797
  0.801   0.839   0.864   0.887   0.908   0.920   0.953   0.974
  0.983   1.024   1.032   1.063   1.075   1.124   1.145   1.181
  1.199   1.242   1.292   1.352   1.412   1.436   1.476   1.542
  1.550   1.598   1.643   1.670   1.744   1.769   1.823   1.838
  1.886   1.902   1.945   1.993   2.008   2.042   2.102   2.154
  2.171   2.204   2.260   2.303   2.347   2.352   2.364   2.383
  2.401   2.418   2.451   2.471   2.498   2.507   2.534   2.550
  2.582   2.614   2.633   2.658   2.706   2.736   2.764   2.799
  2.847   2.889   2.985   3.037   3.109   3.268   3.293   3.377
  3.428   3.620   3.704   4.159   4.379   4.462   4.584   4.652
  4.679   4.874
 
 Beta MOs
 -- Occupied --
-14.331 -10.231 -10.230 -10.226 -10.220 -10.219 -10.193  -0.971
 -0.864  -0.746  -0.656  -0.612  -0.578  -0.545  -0.511  -0.470
 -0.434  -0.416  -0.394  -0.371  -0.329  -0.312  -0.272  -0.266
 -- Virtual --
 -0.056  -0.015  -0.000   0.019   0.020   0.026   0.046   0.050
  0.064   0.069   0.080   0.087   0.098   0.102   0.107   0.115
  0.117   0.124   0.133   0.152   0.167   0.168   0.174   0.181
  0.185   0.190   0.200   0.213   0.214   0.232   0.242   0.249
  0.260   0.265   0.274   0.285   0.296   0.307   0.318   0.329
  0.339   0.361   0.390   0.448   0.461   0.618   0.654   0.668
  0.698   0.716   0.727   0.738   0.747   0.755   0.768   0.783
  0.799   0.807   0.843   0.868   0.889   0.911   0.924   0.958
  0.976   0.985   1.025   1.035   1.066   1.078   1.132   1.151
  1.188   1.203   1.247   1.296   1.356   1.414   1.445   1.481
  1.545   1.555   1.607   1.647   1.673   1.748   1.782   1.829
  1.846   1.897   1.909   1.949   2.000   2.016   2.049   2.110
  2.159   2.176   2.216   2.263   2.307   2.353   2.357   2.367
  2.385   2.410   2.421   2.455   2.474   2.500   2.517   2.540
  2.561   2.587   2.620   2.639   2.663   2.709   2.738   2.769
  2.801   2.851   2.892   2.989   3.041   3.110   3.269   3.295
  3.380   3.430   3.622   3.709   4.160   4.386   4.475   4.588
  4.655   4.684   4.879
 --------------------------------------------------------------
 
          Ground-State Mulliken Net Atomic Charges

     Atom                 Charge (a.u.)    Spin (a.u.)
  --------------------------------------------------------
      1 C                    -0.067827       0.009540
      2 C                    -0.083754       0.029872
      3 C                    -0.108687       0.135782
      4 C                    -0.055773       1.047143
      5 C                    -0.129362      -0.123406
      6 N                    -0.198613       0.025604
      7 H                     0.131885       0.004375
      8 H                     0.138872       0.002390
      9 H                     0.134745       0.006524
     10 H                     0.136691      -0.043720
     11 H                     0.133027       0.008656
     12 C                    -0.171262      -0.104033
     13 H                     0.140057       0.001274
  --------------------------------------------------------
  Sum of atomic charges =    -0.000000
  Sum of spin   charges =     1.000000

 -----------------------------------------------------------------
                    Cartesian Multipole Moments
 -----------------------------------------------------------------
    Charge (ESU x 10^10)
                -0.0000
    Dipole Moment (Debye)
         X      -0.6765      Y      -2.9973      Z       0.2008
       Tot       3.0793
    Quadrupole Moments (Debye-Ang)
        XX     -37.7926     XY      -3.0362     YY     -45.1476
        XZ       1.0901     YZ       0.5951     ZZ     -41.9514
    Octopole Moments (Debye-Ang^2)
       XXX      -1.7621    XXY      -5.5148    XYY      -9.0767
       YYY     -40.6373    XXZ       3.4139    XYZ       1.9040
       YYZ       3.9090    XZZ      -8.4139    YZZ     -11.1042
       ZZZ       2.5505
    Hexadecapole Moments (Debye-Ang^3)
      XXXX    -262.9194   XXXY     -11.2816   XXYY     -90.7733
      XYYY     -26.1004   YYYY    -299.1278   XXXZ      21.6274
      XXYZ       9.6885   XYYZ      12.4876   YYYZ      22.6906
      XXZZ     -73.0118   XYZZ      -4.8263   YYZZ     -72.9459
      XZZZ      23.4705   YZZZ      17.5266   ZZZZ    -166.8438
 -----------------------------------------------------------------
 Calculating analytic gradient of the SCF energy
 Gradient of SCF Energy
            1           2           3           4           5           6
    1  -0.0021435  -0.0002803   0.0001951   0.0007859   0.0004887   0.0011762
    2   0.0007139   0.0002678  -0.0003244   0.0008585  -0.0009538  -0.0000903
    3  -0.0008470   0.0002659   0.0009567   0.0003602   0.0006058   0.0007109
            7           8           9          10          11          12
    1   0.0003437  -0.0000166  -0.0000884  -0.0002230  -0.0001433   0.0000076
    2   0.0000543  -0.0002799  -0.0001323  -0.0002009   0.0001186   0.0002674
    3   0.0001094   0.0000005  -0.0002566  -0.0001761  -0.0003546  -0.0014604
           13
    1  -0.0001021
    2  -0.0002988
    3   0.0000851
 Max gradient component =       2.144E-03
 RMS gradient           =       6.180E-04
 Gradient time:  CPU 17.42 s  wall 4.43 s
 Geometry Optimization Parameters
   NAtoms,    NIC,     NZ,  NCons,   NDum,   NFix, NCnnct, MaxDiis
       13     128       0       0       0       0       0       0

 Cartesian Hessian Update
 Hessian Updated using Powell/Murtagh-Sargent Update
  Mixing factors:     0.999258 Powell
                      0.000742 Murtagh-Sargent


** GEOMETRY OPTIMIZATION IN DELOCALIZED INTERNAL COORDINATES **
   Searching for a Transition State

   Optimization Cycle:   2

                       Coordinates (Angstroms)
     ATOM                X               Y               Z
      1  C         1.5329319100    0.5907901433   -0.1562796433
      2  C         0.8935828832   -0.7439374137    0.0251788707
      3  C        -0.4042538648   -0.6705323956   -0.7075457410
      4  C        -1.0390621152    0.6115814071    0.8596161674
      5  C        -0.6167065701    0.8882052582   -0.5830607185
      6  N         0.7309086824    1.5138704657   -0.5399438545
      7  H         2.5820205685    0.7967859212    0.0519493565
      8  H         1.4633030029   -1.6669019541    0.0719963187
      9  H        -0.7904749639   -1.3645912093   -1.4480761956
     10  H        -1.9182253494    0.9580196367    1.3861072242
     11  H        -1.2993358955    1.4121775468   -1.2517761900
     12  C        -0.4651490474   -0.7404651720    0.8261703643
     13  H        -0.6856751620   -1.5855229230    1.4697177578
   Point Group: c1    Number of degrees of freedom:    33


   Energy is   -286.857729184

 Hessian Updated using Powell/Murtagh-Sargent Update
  Mixing factors:     0.841339 Powell
                      0.158661 Murtagh-Sargent

 33 Hessian modes will be used to form the next step
  Hessian Eigenvalues:
    -0.000728    0.008399    0.009885    0.013016    0.017108    0.023059
     0.025267    0.031238    0.036903    0.039100    0.042123    0.044973
     0.049939    0.061372    0.081615    0.092067    0.099287    0.107272
     0.115484    0.136925    0.174832    0.188008    0.212738    0.264402
     0.276257    0.297302    0.348846    0.353684    0.356873    0.359289
     0.361172    0.372226    0.581685

 Transition State Search - Taking P-RFO Step
 Searching for Lamda that Maximizes Along the Lowest mode
 Value Taken    Lamda =   0.00006723
 Searching for Lamda that Minimizes Along All other modes
 Value Taken    Lamda =  -0.00002632
 Calculated Step too Large.  Step scaled by  0.343022
 Step Taken.  Stepsize is  0.100000

                             Maximum     Tolerance    Cnvgd?
         Gradient           0.001330      0.000010      NO
         Displacement       0.050836      0.001200      NO
         Energy change      0.000011      0.000001      NO


 New Cartesian Coordinates Obtained by Inverse Iteration

 Displacement from previous Coordinates is:  0.062220
 ----------------------------------------------------------------
             Standard Nuclear Orientation (Angstroms)
    I     Atom           X                Y                Z
 ----------------------------------------------------------------
    1      C       1.5356854029     0.5895184714    -0.1579817776
    2      C       0.8933248073    -0.7438086032     0.0258135765
    3      C      -0.4058739531    -0.6677344022    -0.7052915728
    4      C      -1.0353967362     0.6149659139     0.8636344055
    5      C      -0.6145700626     0.8911119992    -0.5808974068
    6      N       0.7341452293     1.5133182128    -0.5416296938
    7      H       2.5855309757     0.7936438808     0.0470240707
    8      H       1.4616866034    -1.6675928747     0.0704259201
    9      H      -0.7949676470    -1.3618923389    -1.4440474015
   10      H      -1.9339707311     0.9414934118     1.3703292022
   11      H      -1.2980377802     1.4165806534    -1.2471130483
   12      C      -0.4609079182    -0.7379367092     0.8299639729
   13      H      -0.6827841114    -1.5821883040     1.4738234695
 ----------------------------------------------------------------
 Nuclear Repulsion Energy =   281.6980897682 hartrees
 There are       25 alpha and       24 beta electrons
 Applying Cartesian multipole field
    Component          Value
    ---------          -----
     (2,0,0)        1.00000E-11
     (0,2,0)        2.00000E-11
     (0,0,2)       -3.00000E-11
 Nucleus-field energy     =     0.0000000024 hartrees
 Requested basis set is 6-31+G(d,p)
 There are 53 shells and 163 basis functions
 A cutoff of  1.0D-14 yielded   1401 shell pairs
 There are     13507 function pairs
 Smallest overlap matrix eigenvalue = 2.00E-05
 Guess MOs from SCF MO coefficient file
 Reading MOs from coefficient file
 Reading MOs from coefficient file
 An unrestricted hybrid HF-DFT SCF calculation will be
 performed using Pulay DIIS extrapolation
 Exchange:     0.2000 Hartree-Fock + 0.0800 Slater + 0.7200 B88
 Correlation:  0.1900 VWN1RPA + 0.8100 LYP
 Using SG-1 standard quadrature grid
 SCF converges when DIIS error is below 1.0E-08
 Geometry optimization detected.  Setting ReadMinima to 0
 Setting SaveMinima to 0
Using Q-Chem read-in guess as SCF_GUESS READ specified.

 using 4 threads for integral computing
 -------------------------------------------------------
 OpenMP Integral computing Module                
 Release: version 1.0, May 2013, Q-Chem Inc. Pittsburgh 
 -------------------------------------------------------
 -------------------------------------------------------
 OpenMP BLAS3 based DFT computing Module                
 Release: version 1.0, May 2013, Q-Chem Inc. Pittsburgh 
 -------------------------------------------------------
 ---------------------------------------
  Cycle       Energy         DIIS Error
 ---------------------------------------
    1    -286.8570497231      1.54E-04
    2    -286.8577063338      2.75E-05
    3    -286.8577112461      3.48E-05
    4    -286.8577152718      1.33E-05
    5    -286.8577159764      4.71E-06
    6    -286.8577161099      1.63E-06
    7    -286.8577161376      3.81E-07
    8    -286.8577161389      1.80E-07
    9    -286.8577161394      4.34E-08
   10    -286.8577161395      1.82E-08
   11    -286.8577161396      6.45E-09 Convergence criterion met
 ---------------------------------------
 <S^2> = 0.7550
 SCF time:  CPU 55.21 s  wall 14.51 s
 SCF   energy in the final basis set = -286.85771614
 Total energy in the final basis set = -286.85771614
 
 --------------------------------------------------------------
 
                    Orbital Energies (a.u.)
 --------------------------------------------------------------
 
 Alpha MOs
 -- Occupied --
-14.331 -10.230 -10.230 -10.226 -10.222 -10.221 -10.206  -0.975
 -0.868  -0.756  -0.666  -0.617  -0.582  -0.548  -0.522  -0.472
 -0.438  -0.422  -0.398  -0.375  -0.339  -0.324  -0.276  -0.268
 -0.182
 -- Virtual --
 -0.021  -0.001   0.017   0.019   0.025   0.045   0.049   0.063
  0.069   0.074   0.086   0.096   0.102   0.107   0.112   0.115
  0.121   0.131   0.150   0.164   0.166   0.173   0.181   0.184
  0.189   0.199   0.210   0.213   0.228   0.239   0.246   0.259
  0.263   0.272   0.282   0.294   0.301   0.314   0.325   0.337
  0.358   0.388   0.440   0.456   0.615   0.648   0.665   0.679
  0.700   0.723   0.733   0.743   0.749   0.756   0.781   0.796
  0.801   0.838   0.863   0.887   0.909   0.920   0.954   0.974
  0.983   1.025   1.032   1.065   1.073   1.123   1.145   1.178
  1.200   1.243   1.291   1.352   1.411   1.434   1.476   1.542
  1.552   1.597   1.642   1.669   1.744   1.769   1.823   1.838
  1.887   1.904   1.945   1.992   2.009   2.044   2.100   2.151
  2.170   2.204   2.260   2.303   2.347   2.353   2.364   2.382
  2.400   2.417   2.450   2.472   2.497   2.507   2.534   2.547
  2.583   2.614   2.635   2.655   2.705   2.735   2.764   2.799
  2.848   2.888   2.984   3.035   3.108   3.269   3.294   3.379
  3.427   3.620   3.700   4.158   4.379   4.461   4.583   4.651
  4.677   4.871
 
 Beta MOs
 -- Occupied --
-14.331 -10.231 -10.230 -10.226 -10.220 -10.219 -10.193  -0.971
 -0.864  -0.746  -0.656  -0.612  -0.579  -0.545  -0.511  -0.470
 -0.434  -0.416  -0.394  -0.371  -0.328  -0.312  -0.273  -0.266
 -- Virtual --
 -0.056  -0.016  -0.000   0.019   0.020   0.026   0.046   0.050
  0.064   0.069   0.080   0.087   0.098   0.102   0.107   0.115
  0.117   0.124   0.133   0.152   0.167   0.168   0.174   0.181
  0.184   0.190   0.200   0.213   0.214   0.232   0.241   0.249
  0.260   0.265   0.274   0.285   0.296   0.307   0.318   0.329
  0.339   0.360   0.390   0.447   0.460   0.618   0.653   0.668
  0.697   0.715   0.727   0.738   0.747   0.754   0.768   0.783
  0.799   0.807   0.842   0.868   0.888   0.911   0.924   0.959
  0.977   0.985   1.026   1.035   1.068   1.077   1.130   1.151
  1.185   1.204   1.248   1.295   1.356   1.413   1.442   1.481
  1.544   1.557   1.607   1.646   1.672   1.748   1.781   1.829
  1.846   1.897   1.912   1.950   1.999   2.017   2.051   2.109
  2.157   2.176   2.216   2.263   2.306   2.354   2.356   2.367
  2.383   2.409   2.420   2.454   2.475   2.500   2.517   2.540
  2.559   2.588   2.619   2.642   2.660   2.709   2.738   2.769
  2.801   2.852   2.891   2.988   3.039   3.110   3.270   3.296
  3.381   3.429   3.622   3.705   4.160   4.386   4.474   4.587
  4.654   4.682   4.876
 --------------------------------------------------------------
 
          Ground-State Mulliken Net Atomic Charges

     Atom                 Charge (a.u.)    Spin (a.u.)
  --------------------------------------------------------
      1 C                    -0.066580       0.007417
      2 C                    -0.083376       0.025219
      3 C                    -0.108017       0.138034
      4 C                    -0.054561       1.044470
      5 C                    -0.132911      -0.120506
      6 N                    -0.197818       0.025305
      7 H                     0.132055       0.004336
      8 H                     0.138896       0.002365
      9 H                     0.134783       0.006935
     10 H                     0.136362      -0.043111
     11 H                     0.133238       0.008009
     12 C                    -0.172293      -0.099517
     13 H                     0.140222       0.001045
  --------------------------------------------------------
  Sum of atomic charges =    -0.000000
  Sum of spin   charges =     1.000000

 -----------------------------------------------------------------
                    Cartesian Multipole Moments
 -----------------------------------------------------------------
    Charge (ESU x 10^10)
                 0.0000
    Dipole Moment (Debye)
         X      -0.6824      Y      -3.0192      Z       0.1772
       Tot       3.1004
    Quadrupole Moments (Debye-Ang)
        XX     -37.7153     XY      -3.0227     YY     -45.1847
        XZ       1.1092     YZ       0.5359     ZZ     -42.0311
    Octopole Moments (Debye-Ang^2)
       XXX      -2.0792    XXY      -5.6023    XYY      -9.1065
       YYY     -40.8118    XXZ       3.3546    XYZ       1.9829
       YYZ       3.7729    XZZ      -8.3957    YZZ     -11.2851
       ZZZ       2.2994
    Hexadecapole Moments (Debye-Ang^3)
      XXXX    -262.3509   XXXY     -11.3037   XXYY     -90.9018
      XYYY     -26.0811   YYYY    -298.9723   XXXZ      21.6121
      XXYZ       9.6455   XYYZ      12.6950   YYYZ      22.6638
      XXZZ     -73.1713   XYZZ      -4.6779   YYZZ     -73.1446
      XZZZ      23.8031   YZZZ      17.3773   ZZZZ    -167.3516
 -----------------------------------------------------------------
 Calculating analytic gradient of the SCF energy
 Gradient of SCF Energy
            1           2           3           4           5           6
    1  -0.0014218  -0.0002086   0.0001451   0.0005378   0.0002920   0.0008105
    2   0.0004815   0.0001930  -0.0002306   0.0006685  -0.0006660  -0.0000876
    3  -0.0005548   0.0001808   0.0005971   0.0003311   0.0004166   0.0004857
            7           8           9          10          11          12
    1   0.0002280  -0.0000175  -0.0000520  -0.0001378  -0.0000845  -0.0000107
    2   0.0000264  -0.0001892  -0.0000810  -0.0001703   0.0000849   0.0001672
    3   0.0000850  -0.0000006  -0.0001796  -0.0001695  -0.0002339  -0.0010043
           13
    1  -0.0000805
    2  -0.0001967
    3   0.0000464
 Max gradient component =       1.422E-03
 RMS gradient           =       4.213E-04
 Gradient time:  CPU 17.43 s  wall 4.43 s
 Geometry Optimization Parameters
   NAtoms,    NIC,     NZ,  NCons,   NDum,   NFix, NCnnct, MaxDiis
       13     128       0       0       0       0       0       0

 Cartesian Hessian Update
 Hessian Updated using Powell/Murtagh-Sargent Update
  Mixing factors:     0.999502 Powell
                      0.000498 Murtagh-Sargent


** GEOMETRY OPTIMIZATION IN DELOCALIZED INTERNAL COORDINATES **
   Searching for a Transition State

   Optimization Cycle:   3

                       Coordinates (Angstroms)
     ATOM                X               Y               Z
      1  C         1.5356854029    0.5895184714   -0.1579817776
      2  C         0.8933248073   -0.7438086032    0.0258135765
      3  C        -0.4058739531   -0.6677344022   -0.7052915728
      4  C        -1.0353967362    0.6149659139    0.8636344055
      5  C        -0.6145700626    0.8911119992   -0.5808974068
      6  N         0.7341452293    1.5133182128   -0.5416296938
      7  H         2.5855309757    0.7936438808    0.0470240707
      8  H         1.4616866034   -1.6675928747    0.0704259201
      9  H        -0.7949676470   -1.3618923389   -1.4440474015
     10  H        -1.9339707311    0.9414934118    1.3703292022
     11  H        -1.2980377802    1.4165806534   -1.2471130483
     12  C        -0.4609079182   -0.7379367092    0.8299639729
     13  H        -0.6827841114   -1.5821883040    1.4738234695
   Point Group: c1    Number of degrees of freedom:    33


   Energy is   -286.857716140

 Hessian Updated using Powell/Murtagh-Sargent Update
  Mixing factors:     0.906185 Powell
                      0.093815 Murtagh-Sargent

 33 Hessian modes will be used to form the next step
  Hessian Eigenvalues:
    -0.000413    0.008397    0.009885    0.013016    0.017108    0.023061
     0.025266    0.031236    0.036908    0.039102    0.042123    0.044973
     0.049937    0.061372    0.081647    0.092068    0.099286    0.107278
     0.115484    0.136939    0.174841    0.188024    0.212738    0.264417
     0.276273    0.297305    0.348846    0.353684    0.356873    0.359289
     0.361173    0.372272    0.581719

 Transition State Search - Taking P-RFO Step
 Searching for Lamda that Maximizes Along the Lowest mode
 Value Taken    Lamda =   0.00006927
 Searching for Lamda that Minimizes Along All other modes
 Value Taken    Lamda =  -0.00001245
 Calculated Step too Large.  Step scaled by  0.263660
 Step Taken.  Stepsize is  0.100000

                             Maximum     Tolerance    Cnvgd?
         Gradient           0.000882      0.000010      NO
         Displacement       0.050193      0.001200      NO
         Energy change      0.000013      0.000001      NO


 New Cartesian Coordinates Obtained by Inverse Iteration

 Displacement from previous Coordinates is:  0.062700
 ----------------------------------------------------------------
             Standard Nuclear Orientation (Angstroms)
    I     Atom           X                Y                Z
 ----------------------------------------------------------------
    1      C       1.5381606700     0.5883749005    -0.1597937516
    2      C       0.8930456187    -0.7436209210     0.0265567835
    3      C      -0.4075959216    -0.6649746685    -0.7027087532
    4      C      -1.0316030470     0.6186250402     0.8678797125
    5      C      -0.6123122692     0.8939743235    -0.5785776182
    6      N       0.7373795870     1.5130178224    -0.5430622150
    7      H       2.5888976056     0.7905044234     0.0419626110
    8      H       1.4600055696    -1.6683004130     0.0689803000
    9      H      -0.7996354390    -1.3590985117    -1.4398668206
   10      H      -1.9490935736     0.9245041503     1.3539597295
   11      H      -1.2966304578     1.4207780558    -1.2425708113
   12      C      -0.4567627466    -0.7353582746     0.8335869474
   13      H      -0.6799915173    -1.5789466160     1.4777076027
 ----------------------------------------------------------------
 Nuclear Repulsion Energy =   281.6954806688 hartrees
 There are       25 alpha and       24 beta electrons
 Applying Cartesian multipole field
    Component          Value
    ---------          -----
     (2,0,0)        1.00000E-11
     (0,2,0)        2.00000E-11
     (0,0,2)       -3.00000E-11
 Nucleus-field energy     =     0.0000000024 hartrees
 Requested basis set is 6-31+G(d,p)
 There are 53 shells and 163 basis functions
 A cutoff of  1.0D-14 yielded   1401 shell pairs
 There are     13507 function pairs
 Smallest overlap matrix eigenvalue = 2.01E-05
 Guess MOs from SCF MO coefficient file
 Reading MOs from coefficient file
 Reading MOs from coefficient file
 An unrestricted hybrid HF-DFT SCF calculation will be
 performed using Pulay DIIS extrapolation
 Exchange:     0.2000 Hartree-Fock + 0.0800 Slater + 0.7200 B88
 Correlation:  0.1900 VWN1RPA + 0.8100 LYP
 Using SG-1 standard quadrature grid
 SCF converges when DIIS error is below 1.0E-08
 Geometry optimization detected.  Setting ReadMinima to 0
 Setting SaveMinima to 0
Using Q-Chem read-in guess as SCF_GUESS READ specified.

 using 4 threads for integral computing
 -------------------------------------------------------
 OpenMP Integral computing Module                
 Release: version 1.0, May 2013, Q-Chem Inc. Pittsburgh 
 -------------------------------------------------------
 -------------------------------------------------------
 OpenMP BLAS3 based DFT computing Module                
 Release: version 1.0, May 2013, Q-Chem Inc. Pittsburgh 
 -------------------------------------------------------
 ---------------------------------------
  Cycle       Energy         DIIS Error
 ---------------------------------------
    1    -286.8570736629      1.53E-04
    2    -286.8576915209      2.66E-05
    3    -286.8576973225      2.99E-05
    4    -286.8577003680      1.36E-05
    5    -286.8577010772      4.95E-06
    6    -286.8577012147      1.65E-06
    7    -286.8577012426      3.61E-07
    8    -286.8577012440      1.75E-07
    9    -286.8577012445      4.57E-08
   10    -286.8577012446      1.78E-08
   11    -286.8577012447      7.25E-09 Convergence criterion met
 ---------------------------------------
 <S^2> = 0.7549
 SCF time:  CPU 55.00 s  wall 14.19 s
 SCF   energy in the final basis set = -286.85770124
 Total energy in the final basis set = -286.85770124
 
 --------------------------------------------------------------
 
                    Orbital Energies (a.u.)
 --------------------------------------------------------------
 
 Alpha MOs
 -- Occupied --
-14.332 -10.230 -10.230 -10.226 -10.222 -10.221 -10.206  -0.975
 -0.869  -0.756  -0.666  -0.617  -0.583  -0.548  -0.521  -0.472
 -0.438  -0.422  -0.398  -0.375  -0.339  -0.325  -0.276  -0.268
 -0.182
 -- Virtual --
 -0.022  -0.001   0.017   0.019   0.025   0.045   0.050   0.063
  0.069   0.074   0.086   0.097   0.102   0.107   0.112   0.115
  0.121   0.131   0.150   0.164   0.166   0.173   0.180   0.184
  0.189   0.199   0.210   0.213   0.227   0.239   0.246   0.259
  0.263   0.272   0.282   0.294   0.302   0.315   0.326   0.337
  0.357   0.388   0.439   0.455   0.615   0.646   0.665   0.678
  0.700   0.722   0.733   0.744   0.749   0.756   0.781   0.796
  0.801   0.837   0.863   0.887   0.909   0.920   0.954   0.974
  0.983   1.026   1.032   1.067   1.071   1.122   1.145   1.175
  1.200   1.244   1.290   1.353   1.409   1.432   1.475   1.541
  1.553   1.596   1.641   1.668   1.745   1.768   1.823   1.837
  1.888   1.908   1.946   1.991   2.010   2.046   2.099   2.149
  2.170   2.204   2.260   2.303   2.345   2.355   2.364   2.380
  2.399   2.416   2.449   2.473   2.497   2.506   2.534   2.545
  2.585   2.613   2.638   2.653   2.705   2.735   2.764   2.799
  2.850   2.886   2.983   3.032   3.108   3.270   3.296   3.380
  3.426   3.620   3.695   4.158   4.379   4.459   4.584   4.649
  4.675   4.868
 
 Beta MOs
 -- Occupied --
-14.331 -10.231 -10.230 -10.226 -10.221 -10.219 -10.193  -0.972
 -0.864  -0.746  -0.656  -0.612  -0.579  -0.546  -0.510  -0.470
 -0.434  -0.416  -0.395  -0.371  -0.328  -0.312  -0.273  -0.266
 -- Virtual --
 -0.056  -0.016  -0.000   0.019   0.020   0.026   0.046   0.050
  0.063   0.069   0.080   0.087   0.098   0.102   0.107   0.115
  0.117   0.124   0.133   0.152   0.167   0.167   0.174   0.181
  0.184   0.190   0.201   0.213   0.214   0.231   0.241   0.249
  0.260   0.265   0.274   0.286   0.295   0.308   0.318   0.330
  0.339   0.360   0.391   0.446   0.459   0.619   0.651   0.668
  0.696   0.714   0.726   0.737   0.747   0.754   0.767   0.782
  0.799   0.807   0.841   0.868   0.888   0.912   0.923   0.959
  0.977   0.985   1.027   1.034   1.070   1.076   1.129   1.151
  1.183   1.204   1.249   1.295   1.356   1.412   1.440   1.480
  1.543   1.558   1.606   1.645   1.671   1.749   1.781   1.829
  1.846   1.896   1.915   1.950   1.997   2.019   2.053   2.107
  2.154   2.175   2.216   2.264   2.306   2.353   2.358   2.367
  2.382   2.407   2.420   2.453   2.476   2.499   2.517   2.539
  2.556   2.590   2.618   2.645   2.658   2.708   2.737   2.768
  2.801   2.853   2.890   2.987   3.036   3.109   3.271   3.298
  3.383   3.427   3.622   3.700   4.160   4.386   4.472   4.587
  4.652   4.680   4.873
 --------------------------------------------------------------
 
          Ground-State Mulliken Net Atomic Charges

     Atom                 Charge (a.u.)    Spin (a.u.)
  --------------------------------------------------------
      1 C                    -0.065341       0.005315
      2 C                    -0.083179       0.020713
      3 C                    -0.107250       0.139842
      4 C                    -0.053592       1.041680
      5 C                    -0.136539      -0.117464
      6 N                    -0.196991       0.024985
      7 H                     0.132182       0.004298
      8 H                     0.138935       0.002332
      9 H                     0.134831       0.007358
     10 H                     0.136030      -0.042326
     11 H                     0.133461       0.007374
     12 C                    -0.172943      -0.094919
     13 H                     0.140396       0.000811
  --------------------------------------------------------
  Sum of atomic charges =    -0.000000
  Sum of spin   charges =     1.000000

 -----------------------------------------------------------------
                    Cartesian Multipole Moments
 -----------------------------------------------------------------
    Charge (ESU x 10^10)
                 0.0000
    Dipole Moment (Debye)
         X      -0.6877      Y      -3.0415      Z       0.1524
       Tot       3.1220
    Quadrupole Moments (Debye-Ang)
        XX     -37.6451     XY      -3.0053     YY     -45.2213
        XZ       1.1301     YZ       0.4765     ZZ     -42.1108
    Octopole Moments (Debye-Ang^2)
       XXX      -2.3917    XXY      -5.7045    XYY      -9.1310
       YYY     -40.9969    XXZ       3.2796    XYZ       2.0631
       YYZ       3.6328    XZZ      -8.3683    YZZ     -11.4659
       ZZZ       2.0326
    Hexadecapole Moments (Debye-Ang^3)
      XXXX    -261.7996   XXXY     -11.3191   XXYY     -91.0414
      XYYY     -26.0646   YYYY    -298.8401   XXXZ      21.6118
      XXYZ       9.5863   XYYZ      12.9004   YYYZ      22.6300
      XXZZ     -73.3378   XYZZ      -4.5256   YYZZ     -73.3400
      XZZZ      24.1408   YZZZ      17.2243   ZZZZ    -167.8227
 -----------------------------------------------------------------
 Calculating analytic gradient of the SCF energy
 Gradient of SCF Energy
            1           2           3           4           5           6
    1  -0.0010635  -0.0001838   0.0001233   0.0004336   0.0001808   0.0006344
    2   0.0003711   0.0001614  -0.0001921   0.0006143  -0.0005346  -0.0000941
    3  -0.0004104   0.0001408   0.0004001   0.0003564   0.0003248   0.0003752
            7           8           9          10          11          12
    1   0.0001698  -0.0000179  -0.0000317  -0.0000948  -0.0000554  -0.0000259
    2   0.0000130  -0.0001431  -0.0000561  -0.0001740   0.0000670   0.0001126
    3   0.0000716  -0.0000016  -0.0001424  -0.0001857  -0.0001732  -0.0007821
           13
    1  -0.0000688
    2  -0.0001454
    3   0.0000266
 Max gradient component =       1.063E-03
 RMS gradient           =       3.297E-04
 Gradient time:  CPU 17.51 s  wall 4.43 s
 Geometry Optimization Parameters
   NAtoms,    NIC,     NZ,  NCons,   NDum,   NFix, NCnnct, MaxDiis
       13     128       0       0       0       0       0       0

 Cartesian Hessian Update
 Hessian Updated using Powell/Murtagh-Sargent Update
  Mixing factors:     0.998916 Powell
                      0.001084 Murtagh-Sargent


** GEOMETRY OPTIMIZATION IN DELOCALIZED INTERNAL COORDINATES **
   Searching for a Transition State

   Optimization Cycle:   4

                       Coordinates (Angstroms)
     ATOM                X               Y               Z
      1  C         1.5381606700    0.5883749005   -0.1597937516
      2  C         0.8930456187   -0.7436209210    0.0265567835
      3  C        -0.4075959216   -0.6649746685   -0.7027087532
      4  C        -1.0316030470    0.6186250402    0.8678797125
      5  C        -0.6123122692    0.8939743235   -0.5785776182
      6  N         0.7373795870    1.5130178224   -0.5430622150
      7  H         2.5888976056    0.7905044234    0.0419626110
      8  H         1.4600055696   -1.6683004130    0.0689803000
      9  H        -0.7996354390   -1.3590985117   -1.4398668206
     10  H        -1.9490935736    0.9245041503    1.3539597295
     11  H        -1.2966304578    1.4207780558   -1.2425708113
     12  C        -0.4567627466   -0.7353582746    0.8335869474
     13  H        -0.6799915173   -1.5789466160    1.4777076027
   Point Group: c1    Number of degrees of freedom:    33


   Energy is   -286.857701245

 Hessian Updated using Powell/Murtagh-Sargent Update
  Mixing factors:     0.853652 Powell
                      0.146348 Murtagh-Sargent

 33 Hessian modes will be used to form the next step
  Hessian Eigenvalues:
    -0.000005    0.008397    0.009884    0.013016    0.017110    0.023070
     0.025266    0.031246    0.036919    0.039107    0.042124    0.044974
     0.049938    0.061372    0.081702    0.092073    0.099287    0.107283
     0.115485    0.136963    0.174851    0.188042    0.212738    0.264427
     0.276295    0.297308    0.348846    0.353684    0.356873    0.359289
     0.361173    0.372333    0.581768
**WARNING** Magnitude of eigenvalue   1 too small.  Replaced by    -0.000100

 Transition State Search - Taking P-RFO Step
 Searching for Lamda that Maximizes Along the Lowest mode
 Value Taken    Lamda =   0.00013277
 Searching for Lamda that Minimizes Along All other modes
 Value Taken    Lamda =  -0.00000784
 Calculated Step too Large.  Step scaled by  0.132389
 Step Taken.  Stepsize is  0.100000

                             Maximum     Tolerance    Cnvgd?
         Gradient           0.000661      0.000010      NO
         Displacement       0.049738      0.001200      NO
         Energy change      0.000015      0.000001      NO


 New Cartesian Coordinates Obtained by Inverse Iteration

 Displacement from previous Coordinates is:  0.063715
 ----------------------------------------------------------------
             Standard Nuclear Orientation (Angstroms)
    I     Atom           X                Y                Z
 ----------------------------------------------------------------
    1      C       1.5404616362     0.5873000541    -0.1616762162
    2      C       0.8927512379    -0.7433856362     0.0273478443
    3      C      -0.4094267305    -0.6622008780    -0.6998587238
    4      C      -1.0278290475     0.6224732995     0.8722853093
    5      C      -0.6099758173     0.8968350216    -0.5761299305
    6      N       0.7406146395     1.5128725886    -0.5442905372
    7      H       2.5921699506     0.7873422096     0.0368211366
    8      H       1.4582559867    -1.6690221608     0.0675652697
    9      H      -0.8045285725    -1.3562163514    -1.4354779334
   10      H      -1.9636843626     0.9069433650     1.3368769086
   11      H      -1.2951118180     1.4249270708    -1.2380723300
   12      C      -0.4526405341    -0.7326976206     0.8371373108
   13      H      -0.6771924895    -1.5756916509     1.4815256085
 ----------------------------------------------------------------
 Nuclear Repulsion Energy =   281.7001417128 hartrees
 There are       25 alpha and       24 beta electrons
 Applying Cartesian multipole field
    Component          Value
    ---------          -----
     (2,0,0)        1.00000E-11
     (0,2,0)        2.00000E-11
     (0,0,2)       -3.00000E-11
 Nucleus-field energy     =     0.0000000024 hartrees
 Requested basis set is 6-31+G(d,p)
 There are 53 shells and 163 basis functions
 A cutoff of  1.0D-14 yielded   1401 shell pairs
 There are     13507 function pairs
 Smallest overlap matrix eigenvalue = 2.02E-05
 Guess MOs from SCF MO coefficient file
 Reading MOs from coefficient file
 Reading MOs from coefficient file
 An unrestricted hybrid HF-DFT SCF calculation will be
 performed using Pulay DIIS extrapolation
 Exchange:     0.2000 Hartree-Fock + 0.0800 Slater + 0.7200 B88
 Correlation:  0.1900 VWN1RPA + 0.8100 LYP
 Using SG-1 standard quadrature grid
 SCF converges when DIIS error is below 1.0E-08
 Geometry optimization detected.  Setting ReadMinima to 0
 Setting SaveMinima to 0
Using Q-Chem read-in guess as SCF_GUESS READ specified.

 using 4 threads for integral computing
 -------------------------------------------------------
 OpenMP Integral computing Module                
 Release: version 1.0, May 2013, Q-Chem Inc. Pittsburgh 
 -------------------------------------------------------
 -------------------------------------------------------
 OpenMP BLAS3 based DFT computing Module                
 Release: version 1.0, May 2013, Q-Chem Inc. Pittsburgh 
 -------------------------------------------------------
 ---------------------------------------
  Cycle       Energy         DIIS Error
 ---------------------------------------
    1    -286.8570748468      1.55E-04
    2    -286.8576728545      2.64E-05
    3    -286.8576791266      2.76E-05
    4    -286.8576817725      1.33E-05
    5    -286.8576824551      5.15E-06
    6    -286.8576825960      1.69E-06
    7    -286.8576826243      3.62E-07
    8    -286.8576826258      1.74E-07
    9    -286.8576826263      4.70E-08
   10    -286.8576826264      1.81E-08
   11    -286.8576826265      7.52E-09 Convergence criterion met
 ---------------------------------------
 <S^2> = 0.7548
 SCF time:  CPU 54.76 s  wall 14.08 s
 SCF   energy in the final basis set = -286.85768263
 Total energy in the final basis set = -286.85768263
 
 --------------------------------------------------------------
 
                    Orbital Energies (a.u.)
 --------------------------------------------------------------
 
 Alpha MOs
 -- Occupied --
-14.332 -10.230 -10.230 -10.226 -10.222 -10.221 -10.206  -0.975
 -0.869  -0.756  -0.666  -0.617  -0.583  -0.548  -0.521  -0.472
 -0.438  -0.422  -0.398  -0.375  -0.339  -0.325  -0.277  -0.268
 -0.183
 -- Virtual --
 -0.022  -0.001   0.017   0.019   0.025   0.045   0.050   0.062
  0.069   0.074   0.086   0.097   0.102   0.107   0.112   0.115
  0.121   0.131   0.150   0.164   0.165   0.173   0.180   0.183
  0.189   0.199   0.210   0.213   0.227   0.239   0.246   0.259
  0.263   0.272   0.283   0.294   0.302   0.315   0.326   0.337
  0.357   0.389   0.437   0.454   0.615   0.643   0.664   0.677
  0.700   0.722   0.733   0.744   0.749   0.756   0.780   0.796
  0.801   0.837   0.862   0.886   0.909   0.920   0.954   0.974
  0.984   1.027   1.032   1.068   1.070   1.122   1.145   1.172
  1.201   1.245   1.290   1.354   1.408   1.431   1.475   1.540
  1.555   1.595   1.641   1.667   1.745   1.767   1.823   1.837
  1.888   1.911   1.946   1.989   2.012   2.048   2.097   2.146
  2.169   2.204   2.261   2.303   2.343   2.357   2.363   2.379
  2.398   2.416   2.448   2.474   2.497   2.506   2.534   2.542
  2.587   2.612   2.640   2.650   2.705   2.735   2.764   2.799
  2.851   2.885   2.982   3.029   3.107   3.270   3.298   3.382
  3.424   3.619   3.689   4.158   4.379   4.457   4.584   4.647
  4.674   4.865
 
 Beta MOs
 -- Occupied --
-14.331 -10.231 -10.230 -10.226 -10.221 -10.220 -10.193  -0.972
 -0.865  -0.747  -0.656  -0.612  -0.579  -0.546  -0.510  -0.470
 -0.434  -0.416  -0.395  -0.371  -0.328  -0.313  -0.273  -0.266
 -- Virtual --
 -0.055  -0.017  -0.000   0.019   0.020   0.026   0.046   0.050
  0.063   0.069   0.079   0.087   0.099   0.102   0.107   0.115
  0.117   0.123   0.133   0.152   0.167   0.167   0.174   0.181
  0.184   0.190   0.201   0.213   0.214   0.231   0.241   0.250
  0.260   0.265   0.274   0.286   0.295   0.308   0.318   0.331
  0.339   0.360   0.391   0.445   0.458   0.619   0.649   0.668
  0.696   0.713   0.726   0.737   0.748   0.754   0.767   0.782
  0.798   0.807   0.841   0.867   0.888   0.912   0.923   0.959
  0.977   0.986   1.028   1.034   1.071   1.074   1.128   1.151
  1.181   1.205   1.251   1.294   1.357   1.411   1.438   1.480
  1.543   1.559   1.606   1.645   1.671   1.749   1.780   1.829
  1.846   1.896   1.918   1.951   1.996   2.020   2.055   2.106
  2.152   2.174   2.216   2.264   2.306   2.351   2.360   2.366
  2.381   2.406   2.419   2.452   2.477   2.499   2.516   2.539
  2.553   2.593   2.617   2.648   2.655   2.708   2.737   2.768
  2.801   2.855   2.888   2.986   3.033   3.109   3.272   3.300
  3.385   3.426   3.621   3.694   4.160   4.386   4.471   4.588
  4.651   4.679   4.870
 --------------------------------------------------------------
 
          Ground-State Mulliken Net Atomic Charges

     Atom                 Charge (a.u.)    Spin (a.u.)
  --------------------------------------------------------
      1 C                    -0.064089       0.003274
      2 C                    -0.083171       0.016350
      3 C                    -0.106392       0.141287
      4 C                    -0.052901       1.038644
      5 C                    -0.140184      -0.114247
      6 N                    -0.196157       0.024643
      7 H                     0.132283       0.004261
      8 H                     0.138981       0.002293
      9 H                     0.134893       0.007785
     10 H                     0.135715      -0.041373
     11 H                     0.133689       0.006747
     12 C                    -0.173245      -0.090236
     13 H                     0.140578       0.000572
  --------------------------------------------------------
  Sum of atomic charges =    -0.000000
  Sum of spin   charges =     1.000000

 -----------------------------------------------------------------
                    Cartesian Multipole Moments
 -----------------------------------------------------------------
    Charge (ESU x 10^10)
                -0.0000
    Dipole Moment (Debye)
         X      -0.6920      Y      -3.0642      Z       0.1268
       Tot       3.1440
    Quadrupole Moments (Debye-Ang)
        XX     -37.5815     XY      -2.9845     YY     -45.2575
        XZ       1.1535     YZ       0.4170     ZZ     -42.1905
    Octopole Moments (Debye-Ang^2)
       XXX      -2.6953    XXY      -5.8197    XYY      -9.1508
       YYY     -41.1899    XXZ       3.1898    XYZ       2.1453
       YYZ       3.4891    XZZ      -8.3317    YZZ     -11.6467
       ZZZ       1.7540
    Hexadecapole Moments (Debye-Ang^3)
      XXXX    -261.2800   XXXY     -11.3226   XXYY     -91.1923
      XYYY     -26.0491   YYYY    -298.7169   XXXZ      21.6300
      XXYZ       9.5126   XYYZ      13.1057   YYYZ      22.5928
      XXZZ     -73.5163   XYZZ      -4.3683   YYZZ     -73.5296
      XZZZ      24.4843   YZZZ      17.0695   ZZZZ    -168.2622
 -----------------------------------------------------------------
 Calculating analytic gradient of the SCF energy
 Gradient of SCF Energy
            1           2           3           4           5           6
    1  -0.0009425  -0.0001964   0.0001161   0.0004453   0.0001150   0.0005869
    2   0.0003439   0.0001612  -0.0001934   0.0006891  -0.0005186  -0.0001155
    3  -0.0003613   0.0001309   0.0003026   0.0004585   0.0002954   0.0003398
            7           8           9          10          11          12
    1   0.0001484  -0.0000181  -0.0000205  -0.0000876  -0.0000442  -0.0000397
    2   0.0000089  -0.0001256  -0.0000490  -0.0002222   0.0000621   0.0000836
    3   0.0000647  -0.0000036  -0.0001312  -0.0002417  -0.0001495  -0.0007252
           13
    1  -0.0000627
    2  -0.0001246
    3   0.0000205
 Max gradient component =       9.425E-04
 RMS gradient           =       3.141E-04
 Gradient time:  CPU 17.41 s  wall 4.41 s
 Geometry Optimization Parameters
   NAtoms,    NIC,     NZ,  NCons,   NDum,   NFix, NCnnct, MaxDiis
       13     128       0       0       0       0       0       0

 Cartesian Hessian Update
 Hessian Updated using Powell/Murtagh-Sargent Update
  Mixing factors:     0.998154 Powell
                      0.001846 Murtagh-Sargent


** GEOMETRY OPTIMIZATION IN DELOCALIZED INTERNAL COORDINATES **
   Searching for a Transition State

   Optimization Cycle:   5

                       Coordinates (Angstroms)
     ATOM                X               Y               Z
      1  C         1.5404616362    0.5873000541   -0.1616762162
      2  C         0.8927512379   -0.7433856362    0.0273478443
      3  C        -0.4094267305   -0.6622008780   -0.6998587238
      4  C        -1.0278290475    0.6224732995    0.8722853093
      5  C        -0.6099758173    0.8968350216   -0.5761299305
      6  N         0.7406146395    1.5128725886   -0.5442905372
      7  H         2.5921699506    0.7873422096    0.0368211366
      8  H         1.4582559867   -1.6690221608    0.0675652697
      9  H        -0.8045285725   -1.3562163514   -1.4354779334
     10  H        -1.9636843626    0.9069433650    1.3368769086
     11  H        -1.2951118180    1.4249270708   -1.2380723300
     12  C        -0.4526405341   -0.7326976206    0.8371373108
     13  H        -0.6771924895   -1.5756916509    1.4815256085
   Point Group: c1    Number of degrees of freedom:    33


   Energy is   -286.857682627

 Hessian Updated using Powell/Murtagh-Sargent Update
  Mixing factors:     0.795614 Powell
                      0.204386 Murtagh-Sargent

 33 Hessian modes will be used to form the next step
  Hessian Eigenvalues:
     0.000503    0.008400    0.009884    0.013016    0.017115    0.023086
     0.025266    0.031266    0.036936    0.039113    0.042126    0.044974
     0.049940    0.061373    0.081782    0.092080    0.099288    0.107288
     0.115486    0.136993    0.174864    0.188060    0.212738    0.264434
     0.276319    0.297311    0.348846    0.353685    0.356874    0.359289
     0.361173    0.372401    0.581830
**WARNING** Hessian does not have the Desired Local Structure

 Transition State Search - Taking P-RFO Step
 Searching for Lamda that Maximizes Along the Lowest mode
 Value Taken    Lamda =   0.00058538
 Searching for Lamda that Minimizes Along All other modes
 Value Taken    Lamda =  -0.00000724
 Calculated Step too Large.  Step scaled by  0.037485
 Step Taken.  Stepsize is  0.100000

                             Maximum     Tolerance    Cnvgd?
         Gradient           0.000590      0.000010      NO
         Displacement       0.049493      0.001200      NO
         Energy change      0.000019      0.000001      NO


 New Cartesian Coordinates Obtained by Inverse Iteration

 Displacement from previous Coordinates is:  0.065347
 ----------------------------------------------------------------
             Standard Nuclear Orientation (Angstroms)
    I     Atom           X                Y                Z
 ----------------------------------------------------------------
    1      C       1.5426971654     0.5862322088    -0.1635900084
    2      C       0.8924464043    -0.7431177377     0.0281224749
    3      C      -0.4113789383    -0.6593536893    -0.6968029013
    4      C      -1.0242441782     0.6264061751     0.8767592567
    5      C      -0.6075957525     0.8997520673    -0.5735921347
    6      N       0.7438561764     1.5127923782    -0.5453559481
    7      H       2.5954039795     0.7841283931     0.0316562826
    8      H       1.4564307199    -1.6697606112     0.0660759214
    9      H      -0.8097328725    -1.3532513835    -1.4308005336
   10      H      -1.9778556805     0.8886630138     1.3189400690
   11      H      -1.2934580927     1.4292153468    -1.2335506719
   12      C      -0.4484480480    -0.7299167309     0.8407340185
   13      H      -0.6742568040    -1.5723101195     1.4854578915
 ----------------------------------------------------------------
 Nuclear Repulsion Energy =   281.7086124840 hartrees
 There are       25 alpha and       24 beta electrons
 Applying Cartesian multipole field
    Component          Value
    ---------          -----
     (2,0,0)        1.00000E-11
     (0,2,0)        2.00000E-11
     (0,0,2)       -3.00000E-11
 Nucleus-field energy     =     0.0000000024 hartrees
 Requested basis set is 6-31+G(d,p)
 There are 53 shells and 163 basis functions
 A cutoff of  1.0D-14 yielded   1401 shell pairs
 There are     13507 function pairs
 Smallest overlap matrix eigenvalue = 2.03E-05
 Guess MOs from SCF MO coefficient file
 Reading MOs from coefficient file
 Reading MOs from coefficient file
 An unrestricted hybrid HF-DFT SCF calculation will be
 performed using Pulay DIIS extrapolation
 Exchange:     0.2000 Hartree-Fock + 0.0800 Slater + 0.7200 B88
 Correlation:  0.1900 VWN1RPA + 0.8100 LYP
 Using SG-1 standard quadrature grid
 SCF converges when DIIS error is below 1.0E-08
 Geometry optimization detected.  Setting ReadMinima to 0
 Setting SaveMinima to 0
Using Q-Chem read-in guess as SCF_GUESS READ specified.

 using 4 threads for integral computing
 -------------------------------------------------------
 OpenMP Integral computing Module                
 Release: version 1.0, May 2013, Q-Chem Inc. Pittsburgh 
 -------------------------------------------------------
 -------------------------------------------------------
 OpenMP BLAS3 based DFT computing Module                
 Release: version 1.0, May 2013, Q-Chem Inc. Pittsburgh 
 -------------------------------------------------------
 ---------------------------------------
  Cycle       Energy         DIIS Error
 ---------------------------------------
    1    -286.8570454776      1.57E-04
    2    -286.8576459985      2.63E-05
    3    -286.8576524712      2.71E-05
    4    -286.8576550333      1.32E-05
    5    -286.8576557093      5.18E-06
    6    -286.8576558508      1.72E-06
    7    -286.8576558793      3.62E-07
    8    -286.8576558808      1.74E-07
    9    -286.8576558813      4.69E-08
   10    -286.8576558814      1.80E-08
   11    -286.8576558815      7.39E-09 Convergence criterion met
 ---------------------------------------
 <S^2> = 0.7547
 SCF time:  CPU 55.33 s  wall 14.01 s
 SCF   energy in the final basis set = -286.85765588
 Total energy in the final basis set = -286.85765588
 
 --------------------------------------------------------------
 
                    Orbital Energies (a.u.)
 --------------------------------------------------------------
 
 Alpha MOs
 -- Occupied --
-14.332 -10.231 -10.230 -10.226 -10.223 -10.222 -10.206  -0.976
 -0.869  -0.756  -0.666  -0.617  -0.583  -0.548  -0.520  -0.472
 -0.438  -0.422  -0.398  -0.375  -0.339  -0.325  -0.277  -0.268
 -0.184
 -- Virtual --
 -0.022  -0.001   0.017   0.019   0.026   0.045   0.050   0.062
  0.069   0.074   0.086   0.097   0.102   0.107   0.112   0.115
  0.121   0.131   0.150   0.164   0.165   0.173   0.180   0.183
  0.189   0.199   0.210   0.213   0.226   0.239   0.247   0.259
  0.263   0.272   0.283   0.294   0.303   0.315   0.327   0.337
  0.357   0.389   0.436   0.454   0.616   0.641   0.664   0.676
  0.700   0.722   0.732   0.744   0.749   0.756   0.780   0.795
  0.801   0.836   0.861   0.886   0.909   0.919   0.954   0.975
  0.985   1.028   1.031   1.067   1.070   1.121   1.145   1.169
  1.202   1.247   1.289   1.355   1.407   1.430   1.474   1.539
  1.557   1.595   1.640   1.666   1.746   1.766   1.823   1.837
  1.887   1.915   1.947   1.988   2.013   2.050   2.095   2.144
  2.168   2.204   2.261   2.303   2.341   2.359   2.363   2.379
  2.397   2.415   2.447   2.475   2.496   2.505   2.534   2.539
  2.589   2.611   2.642   2.648   2.705   2.735   2.763   2.799
  2.852   2.884   2.981   3.025   3.107   3.271   3.301   3.384
  3.423   3.619   3.683   4.158   4.378   4.456   4.585   4.645
  4.673   4.862
 
 Beta MOs
 -- Occupied --
-14.331 -10.231 -10.230 -10.226 -10.221 -10.220 -10.193  -0.972
 -0.865  -0.747  -0.656  -0.612  -0.580  -0.546  -0.509  -0.470
 -0.434  -0.416  -0.395  -0.371  -0.328  -0.313  -0.274  -0.266
 -- Virtual --
 -0.055  -0.017  -0.001   0.019   0.020   0.026   0.046   0.051
  0.063   0.069   0.079   0.087   0.099   0.102   0.107   0.114
  0.117   0.123   0.133   0.152   0.167   0.167   0.174   0.181
  0.184   0.190   0.201   0.213   0.215   0.230   0.241   0.250
  0.260   0.265   0.274   0.287   0.295   0.308   0.318   0.332
  0.340   0.360   0.391   0.444   0.457   0.619   0.647   0.667
  0.695   0.712   0.725   0.737   0.748   0.754   0.767   0.781
  0.798   0.808   0.840   0.867   0.888   0.912   0.923   0.959
  0.977   0.987   1.029   1.034   1.071   1.074   1.126   1.152
  1.178   1.206   1.253   1.294   1.358   1.410   1.436   1.479
  1.542   1.561   1.605   1.644   1.670   1.750   1.779   1.828
  1.846   1.895   1.921   1.952   1.995   2.022   2.058   2.104
  2.149   2.173   2.216   2.265   2.306   2.348   2.362   2.366
  2.380   2.405   2.419   2.451   2.478   2.499   2.516   2.540
  2.550   2.595   2.616   2.649   2.655   2.708   2.737   2.767
  2.801   2.856   2.887   2.985   3.030   3.108   3.272   3.303
  3.387   3.425   3.620   3.688   4.160   4.386   4.470   4.588
  4.649   4.677   4.866
 --------------------------------------------------------------
 
          Ground-State Mulliken Net Atomic Charges

     Atom                 Charge (a.u.)    Spin (a.u.)
  --------------------------------------------------------
      1 C                    -0.062803       0.001335
      2 C                    -0.083351       0.012112
      3 C                    -0.105451       0.142468
      4 C                    -0.052520       1.035210
      5 C                    -0.143792      -0.110818
      6 N                    -0.195333       0.024272
      7 H                     0.132373       0.004223
      8 H                     0.139025       0.002247
      9 H                     0.134977       0.008204
     10 H                     0.135440      -0.040264
     11 H                     0.133919       0.006128
     12 C                    -0.173249      -0.085447
     13 H                     0.140766       0.000330
  --------------------------------------------------------
  Sum of atomic charges =     0.000000
  Sum of spin   charges =     1.000000

 -----------------------------------------------------------------
                    Cartesian Multipole Moments
 -----------------------------------------------------------------
    Charge (ESU x 10^10)
                 0.0000
    Dipole Moment (Debye)
         X      -0.6951      Y      -3.0874      Z       0.1005
       Tot       3.1662
    Quadrupole Moments (Debye-Ang)
        XX     -37.5240     XY      -2.9606     YY     -45.2932
        XZ       1.1801     YZ       0.3573     ZZ     -42.2700
    Octopole Moments (Debye-Ang^2)
       XXX      -2.9858    XXY      -5.9467    XYY      -9.1663
       YYY     -41.3880    XXZ       3.0859    XYZ       2.2303
       YYZ       3.3421    XZZ      -8.2860    YZZ     -11.8276
       ZZZ       1.4680
    Hexadecapole Moments (Debye-Ang^3)
      XXXX    -260.8073   XXXY     -11.3087   XXYY     -91.3551
      XYYY     -26.0326   YYYY    -298.5890   XXXZ      21.6699
      XXYZ       9.4265   XYYZ      13.3130   YYYZ      22.5554
      XXZZ     -73.7121   XYZZ      -4.2047   YYZZ     -73.7109
      XZZZ      24.8340   YZZZ      16.9148   ZZZZ    -168.6763
 -----------------------------------------------------------------
 Calculating analytic gradient of the SCF energy
 Gradient of SCF Energy
            1           2           3           4           5           6
    1  -0.0009293  -0.0002348   0.0001060   0.0005422   0.0000604   0.0006017
    2   0.0003573   0.0001764  -0.0002157   0.0008729  -0.0005694  -0.0001524
    3  -0.0003541   0.0001354   0.0002415   0.0006480   0.0002896   0.0003378
            7           8           9          10          11          12
    1   0.0001431  -0.0000182  -0.0000122  -0.0001129  -0.0000381  -0.0000510
    2   0.0000087  -0.0001204  -0.0000513  -0.0003224   0.0000690   0.0000619
    3   0.0000604  -0.0000077  -0.0001312  -0.0003498  -0.0001396  -0.0007546
           13
    1  -0.0000569
    2  -0.0001145
    3   0.0000242
 Max gradient component =       9.293E-04
 RMS gradient           =       3.450E-04
 Gradient time:  CPU 17.30 s  wall 4.41 s
 Geometry Optimization Parameters
   NAtoms,    NIC,     NZ,  NCons,   NDum,   NFix, NCnnct, MaxDiis
       13     128       0       0       0       0       0       0

 Cartesian Hessian Update
 Hessian Updated using Powell/Murtagh-Sargent Update
  Mixing factors:     0.997304 Powell
                      0.002696 Murtagh-Sargent


** GEOMETRY OPTIMIZATION IN DELOCALIZED INTERNAL COORDINATES **
   Searching for a Transition State

   Optimization Cycle:   6

                       Coordinates (Angstroms)
     ATOM                X               Y               Z
      1  C         1.5426971654    0.5862322088   -0.1635900084
      2  C         0.8924464043   -0.7431177377    0.0281224749
      3  C        -0.4113789383   -0.6593536893   -0.6968029013
      4  C        -1.0242441782    0.6264061751    0.8767592567
      5  C        -0.6075957525    0.8997520673   -0.5735921347
      6  N         0.7438561764    1.5127923782   -0.5453559481
      7  H         2.5954039795    0.7841283931    0.0316562826
      8  H         1.4564307199   -1.6697606112    0.0660759214
      9  H        -0.8097328725   -1.3532513835   -1.4308005336
     10  H        -1.9778556805    0.8886630138    1.3189400690
     11  H        -1.2934580927    1.4292153468   -1.2335506719
     12  C        -0.4484480480   -0.7299167309    0.8407340185
     13  H        -0.6742568040   -1.5723101195    1.4854578915
[...]
   12      C      -0.3823661472    -0.6887704934     0.9510658830
   13      H      -0.5694571332    -1.4856880896     1.6658449782
 ----------------------------------------------------------------
 Nuclear Repulsion Energy =   280.5485200187 hartrees
 There are       25 alpha and       24 beta electrons
 Applying Cartesian multipole field
    Component          Value
    ---------          -----
     (2,0,0)        1.00000E-11
     (0,2,0)        2.00000E-11
     (0,0,2)       -3.00000E-11
 Nucleus-field energy     =     0.0000000018 hartrees
 Requested basis set is 6-31+G(d,p)
 There are 53 shells and 163 basis functions
 A cutoff of  1.0D-14 yielded   1404 shell pairs
 There are     13506 function pairs
 Smallest overlap matrix eigenvalue = 2.31E-05
 Guess MOs from SCF MO coefficient file
 Reading MOs from coefficient file
 Reading MOs from coefficient file
 An unrestricted hybrid HF-DFT SCF calculation will be
 performed using Pulay DIIS extrapolation
 Exchange:     0.2000 Hartree-Fock + 0.0800 Slater + 0.7200 B88
 Correlation:  0.1900 VWN1RPA + 0.8100 LYP
 Using SG-1 standard quadrature grid
 SCF converges when DIIS error is below 1.0E-08
 Geometry optimization detected.  Setting ReadMinima to 0
 Setting SaveMinima to 0
Using Q-Chem read-in guess as SCF_GUESS READ specified.

 using 4 threads for integral computing
 -------------------------------------------------------
 OpenMP Integral computing Module                
 Release: version 1.0, May 2013, Q-Chem Inc. Pittsburgh 
 -------------------------------------------------------
 -------------------------------------------------------
 OpenMP BLAS3 based DFT computing Module                
 Release: version 1.0, May 2013, Q-Chem Inc. Pittsburgh 
 -------------------------------------------------------
 ---------------------------------------
  Cycle       Energy         DIIS Error
 ---------------------------------------
    1    -286.8438241889      1.30E-05
    2    -286.8438084820      2.41E-06
    3    -286.8438084881      2.88E-06
    4    -286.8438085180      7.87E-07
    5    -286.8438085207      3.30E-07
    6    -286.8438085216      1.45E-07
    7    -286.8438085220      9.38E-08
    8    -286.8438085221      3.05E-08
    9    -286.8438085221      2.15E-08
   10    -286.8438085221      7.78E-09 Convergence criterion met
 ---------------------------------------
 <S^2> = 0.7807
 SCF time:  CPU 49.49 s  wall 12.46 s
 SCF   energy in the final basis set = -286.84380852
 Total energy in the final basis set = -286.84380852
 
 --------------------------------------------------------------
 
                    Orbital Energies (a.u.)
 --------------------------------------------------------------
 
 Alpha MOs
 -- Occupied --
-14.334 -10.234 -10.231 -10.229 -10.225 -10.222 -10.199  -0.969
 -0.850  -0.750  -0.690  -0.601  -0.587  -0.546  -0.524  -0.474
 -0.436  -0.418  -0.409  -0.387  -0.351  -0.307  -0.287  -0.266
 -0.152
 -- Virtual --
 -0.025  -0.009   0.000   0.020   0.026   0.031   0.048   0.048
  0.068   0.071   0.074   0.091   0.103   0.106   0.109   0.115
  0.123   0.129   0.143   0.154   0.167   0.177   0.183   0.185
  0.190   0.199   0.208   0.211   0.228   0.233   0.240   0.246
  0.258   0.268   0.281   0.290   0.301   0.318   0.330   0.353
  0.373   0.385   0.414   0.459   0.617   0.654   0.691   0.698
  0.699   0.715   0.724   0.738   0.752   0.758   0.787   0.795
  0.799   0.816   0.863   0.900   0.912   0.934   0.972   0.986
  1.009   1.015   1.036   1.064   1.088   1.117   1.133   1.162
  1.187   1.256   1.288   1.298   1.383   1.419   1.436   1.517
  1.530   1.611   1.616   1.711   1.717   1.775   1.802   1.832
  1.887   1.915   1.945   1.990   1.999   2.078   2.116   2.137
  2.150   2.221   2.231   2.263   2.278   2.360   2.370   2.379
  2.403   2.420   2.472   2.488   2.500   2.517   2.525   2.554
  2.578   2.595   2.627   2.648   2.684   2.745   2.759   2.775
  2.825   2.875   2.956   3.059   3.110   3.294   3.311   3.337
  3.475   3.626   3.692   4.154   4.388   4.472   4.575   4.639
  4.713   4.851
 
 Beta MOs
 -- Occupied --
-14.334 -10.236 -10.232 -10.228 -10.225 -10.214 -10.189  -0.965
 -0.844  -0.743  -0.680  -0.597  -0.577  -0.544  -0.516  -0.469
 -0.432  -0.413  -0.407  -0.385  -0.346  -0.291  -0.277  -0.262
 -- Virtual --
 -0.043  -0.019  -0.001   0.002   0.020   0.027   0.035   0.048
  0.049   0.070   0.072   0.078   0.092   0.103   0.106   0.110
  0.116   0.128   0.130   0.144   0.155   0.167   0.177   0.184
  0.189   0.191   0.202   0.210   0.216   0.232   0.235   0.243
  0.247   0.261   0.272   0.281   0.291   0.304   0.322   0.332
  0.357   0.375   0.388   0.420   0.462   0.620   0.661   0.692
  0.703   0.708   0.734   0.742   0.745   0.753   0.768   0.791
  0.797   0.804   0.819   0.865   0.904   0.914   0.936   0.974
  0.988   1.010   1.020   1.038   1.068   1.091   1.122   1.140
  1.168   1.192   1.260   1.296   1.300   1.385   1.422   1.445
  1.521   1.537   1.618   1.621   1.718   1.723   1.781   1.807
  1.849   1.891   1.924   1.946   1.999   2.002   2.083   2.125
  2.139   2.158   2.229   2.235   2.270   2.285   2.362   2.374
  2.383   2.407   2.427   2.476   2.496   2.502   2.524   2.530
  2.558   2.589   2.602   2.631   2.654   2.690   2.749   2.763
  2.779   2.827   2.877   2.959   3.061   3.111   3.295   3.312
  3.338   3.477   3.629   3.696   4.154   4.394   4.478   4.588
  4.645   4.716   4.855
 --------------------------------------------------------------
 
          Ground-State Mulliken Net Atomic Charges

     Atom                 Charge (a.u.)    Spin (a.u.)
  --------------------------------------------------------
      1 C                    -0.063613       0.042036
      2 C                    -0.017033      -0.033110
      3 C                    -0.277473       0.641403
      4 C                    -0.132407       0.739543
      5 C                     0.013397      -0.124136
      6 N                    -0.206555      -0.002906
      7 H                     0.134929       0.001368
      8 H                     0.131544       0.003579
      9 H                     0.147188      -0.027941
     10 H                     0.138889      -0.030606
     11 H                     0.130435       0.008203
     12 C                    -0.139961      -0.229995
     13 H                     0.140660       0.012561
  --------------------------------------------------------
  Sum of atomic charges =    -0.000000
  Sum of spin   charges =     1.000000

 -----------------------------------------------------------------
                    Cartesian Multipole Moments
 -----------------------------------------------------------------
    Charge (ESU x 10^10)
                -0.0000
    Dipole Moment (Debye)
         X      -0.4196      Y      -2.8618      Z       0.5612
       Tot       2.9463
    Quadrupole Moments (Debye-Ang)
        XX     -38.6308     XY      -3.3753     YY     -45.0473
        XZ       1.4884     YZ       0.3770     ZZ     -41.7087
    Octopole Moments (Debye-Ang^2)
       XXX       0.1742    XXY      -4.7360    XYY      -8.7781
       YYY     -37.9647    XXZ       3.8275    XYZ       1.3459
       YYZ       4.6658    XZZ      -8.7150    YZZ     -10.4981
       ZZZ       7.1408
    Hexadecapole Moments (Debye-Ang^3)
      XXXX    -261.7439   XXXY     -10.7882   XXYY     -88.3838
      XYYY     -25.3527   YYYY    -288.4093   XXXZ      20.4097
      XXYZ      10.0914   XYYZ      11.7358   YYYZ      22.3566
      XXZZ     -74.5245   XYZZ      -3.8364   YYZZ     -72.4068
      XZZZ      20.9856   YZZZ      15.2615   ZZZZ    -189.9085
 -----------------------------------------------------------------
 Calculating analytic gradient of the SCF energy
 Gradient of SCF Energy
            1           2           3           4           5           6
    1  -0.0000019  -0.0000029  -0.0000026  -0.0000104   0.0000002  -0.0000063
    2   0.0000060   0.0000057  -0.0000025   0.0000010  -0.0000024   0.0000038
    3   0.0000102   0.0000141  -0.0000086  -0.0000043  -0.0000047   0.0000048
            7           8           9          10          11          12
    1  -0.0000042   0.0000070   0.0000146  -0.0000120  -0.0000013   0.0000191
    2   0.0000128   0.0000065  -0.0000027  -0.0000088  -0.0000068  -0.0000089
    3   0.0000125   0.0000107  -0.0000058  -0.0000090  -0.0000063  -0.0000101
           13
    1   0.0000008
    2  -0.0000037
    3  -0.0000034
 Max gradient component =       1.906E-05
 RMS gradient           =       7.944E-06
 Gradient time:  CPU 17.32 s  wall 4.40 s
 Geometry Optimization Parameters
   NAtoms,    NIC,     NZ,  NCons,   NDum,   NFix, NCnnct, MaxDiis
       13     128       0       0       0       0       0       0

 Cartesian Hessian Update
 Hessian Updated using Powell/Murtagh-Sargent Update
**WARNING** Small Scalar Product
 Hessian Update Skipped this cycle


** GEOMETRY OPTIMIZATION IN DELOCALIZED INTERNAL COORDINATES **
   Searching for a Transition State

   Optimization Cycle:  83

                       Coordinates (Angstroms)
     ATOM                X               Y               Z
      1  C         1.5126256955    0.5718827943   -0.1265345956
      2  C         0.8242103590   -0.7654870928    0.0075501159
      3  C        -0.3373483257   -0.6220407174   -0.9227065200
      4  C        -1.1017192754    0.5040942641    0.7909218149
      5  C        -0.6327356438    0.8668113360   -0.6144183946
      6  N         0.7199768901    1.5058017760   -0.5041400591
      7  H         2.5549161358    0.7612122999    0.1212627937
      8  H         1.4016104120   -1.6860700303    0.0411042303
      9  H        -0.8272480085   -1.3411343797   -1.5629885816
     10  H        -1.8723948755    0.9418594009    1.4085591551
     11  H        -1.3062060044    1.4370082431   -1.2514671036
     12  C        -0.3823661472   -0.6887704934    0.9510658830
     13  H        -0.5694571332   -1.4856880896    1.6658449782
   Point Group: c1    Number of degrees of freedom:    33


   Energy is   -286.843808522

 Hessian Updated using Powell/Murtagh-Sargent Update
**WARNING** Small Scalar Product
 Hessian Update Skipped this cycle

 33 Hessian modes will be used to form the next step
  Hessian Eigenvalues:
    -0.003245    0.001756    0.012990    0.013230    0.017679    0.020003
     0.025493    0.030074    0.036477    0.041083    0.042832    0.043627
     0.047078    0.073739    0.086993    0.097718    0.102354    0.114093
     0.115338    0.136953    0.173767    0.181390    0.209513    0.265688
     0.276140    0.297359    0.348860    0.353710    0.356817    0.359288
     0.361159    0.372695    0.582148

 Transition State Search - Taking P-RFO Step
 Searching for Lamda that Maximizes Along the Lowest mode
 Value Taken    Lamda =   0.00000000
 Searching for Lamda that Minimizes Along All other modes
 Value Taken    Lamda =   0.00000000
 Step Taken.  Stepsize is  0.000343

                             Maximum     Tolerance    Cnvgd?
         Gradient           0.000010      0.000010     YES
         Displacement       0.000177      0.001200     YES
         Energy change     -0.000000      0.000001     YES


                       Distance Matrix (Angstroms)
             C (  1)   C (  2)   C (  3)   C (  4)   C (  5)   N (  6)
   C (  2)  1.510117
   C (  3)  2.341313  1.495049
   C (  4)  2.771484  2.436127  2.188370
   C (  5)  2.219817  2.274628  1.548863  1.525284
   N (  6)  1.281828  2.330546  2.412643  2.449322  1.500100
   H (  7)  1.087942  2.310646  3.371714  3.726330  3.273149  2.076667
   H (  8)  2.266887  1.087193  2.255009  3.409649  3.329486  3.309073
   H (  9)  3.346348  2.350591  1.080305  3.003514  2.410943  3.408828
   H ( 10)  3.735205  3.485619  3.199524  1.080303  2.373779  3.270602
   H ( 11)  3.155904  3.312821  2.299228  2.254661  1.088356  2.160705
   C ( 12)  2.518226  1.533602  1.875501  1.402156  2.221094  2.854633
   H ( 13)  3.432389  2.282748  2.738679  2.237862  3.276867  3.914139
             H (  7)   H (  8)   H (  9)   H ( 10)   H ( 11)   C ( 12)
   H (  8)  2.706609
   H (  9)  4.323841  2.767653
   H ( 10)  4.614201  4.415321  3.890307
   H ( 11)  4.153234  4.330892  2.836287  2.764323
   C ( 12)  3.379149  2.237232  2.635141  2.255757  3.197431
   H ( 13)  4.146806  2.562234  3.242332  2.767098  4.194718  1.086734

 
 Final energy is   -286.843808522148     


 ******************************
 **  OPTIMIZATION CONVERGED  **
 ******************************

                       Coordinates (Angstroms)
     ATOM                X               Y               Z
      1  C         1.5126256955    0.5718827943   -0.1265345956
      2  C         0.8242103590   -0.7654870928    0.0075501159
      3  C        -0.3373483257   -0.6220407174   -0.9227065200
      4  C        -1.1017192754    0.5040942641    0.7909218149
      5  C        -0.6327356438    0.8668113360   -0.6144183946
      6  N         0.7199768901    1.5058017760   -0.5041400591
      7  H         2.5549161358    0.7612122999    0.1212627937
      8  H         1.4016104120   -1.6860700303    0.0411042303
      9  H        -0.8272480085   -1.3411343797   -1.5629885816
     10  H        -1.8723948755    0.9418594009    1.4085591551
     11  H        -1.3062060044    1.4370082431   -1.2514671036
     12  C        -0.3823661472   -0.6887704934    0.9510658830
     13  H        -0.5694571332   -1.4856880896    1.6658449782

Z-matrix Print:
$molecule
0 2
N 
C  1 1.281828
H  2 1.087942 1 122.190111
C  1 1.500100 2 105.600135 3 -174.620062 0
H  4 1.088356 1 112.201330 2 -159.479636 0
C  2 1.510117 1 112.923254 3 176.664696 0
H  6 1.087193 2 120.698545 1 162.568191 0
C  6 1.495049 2 102.354609 1 24.761718 0
H  8 1.080305 6 131.090102 2 144.985697 0
C  4 1.525284 1 108.109012 2 68.323803 0
H  10 1.080303 4 130.522851 1 108.286452 0
C  10 1.402156 4 98.615048 1 -80.493991 0
H  12 1.086734 10 127.636894 4 -161.351641 0
$end

 
 --------------------------------------------------------------
 
                    Orbital Energies (a.u.)
 --------------------------------------------------------------
 
 Alpha MOs
 -- Occupied --
-14.334 -10.234 -10.231 -10.229 -10.225 -10.222 -10.199  -0.969
 -0.850  -0.750  -0.690  -0.601  -0.587  -0.546  -0.524  -0.474
 -0.436  -0.418  -0.409  -0.387  -0.351  -0.307  -0.287  -0.266
 -0.152
 -- Virtual --
 -0.025  -0.009   0.000   0.020   0.026   0.031   0.048   0.048
  0.068   0.071   0.074   0.091   0.103   0.106   0.109   0.115
  0.123   0.129   0.143   0.154   0.167   0.177   0.183   0.185
  0.190   0.199   0.208   0.211   0.228   0.233   0.240   0.246
  0.258   0.268   0.281   0.290   0.301   0.318   0.330   0.353
  0.373   0.385   0.414   0.459   0.617   0.654   0.691   0.698
  0.699   0.715   0.724   0.738   0.752   0.758   0.787   0.795
  0.799   0.816   0.863   0.900   0.912   0.934   0.972   0.986
  1.009   1.015   1.036   1.064   1.088   1.117   1.133   1.162
  1.187   1.256   1.288   1.298   1.383   1.419   1.436   1.517
  1.530   1.611   1.616   1.711   1.717   1.775   1.802   1.832
  1.887   1.915   1.945   1.990   1.999   2.078   2.116   2.137
  2.150   2.221   2.231   2.263   2.278   2.360   2.370   2.379
  2.403   2.420   2.472   2.488   2.500   2.517   2.525   2.554
  2.578   2.595   2.627   2.648   2.684   2.745   2.759   2.775
  2.825   2.875   2.956   3.059   3.110   3.294   3.311   3.337
  3.475   3.626   3.692   4.154   4.388   4.472   4.575   4.639
  4.713   4.851
 
 Beta MOs
 -- Occupied --
-14.334 -10.236 -10.232 -10.228 -10.225 -10.214 -10.189  -0.965
 -0.844  -0.743  -0.680  -0.597  -0.577  -0.544  -0.516  -0.469
 -0.432  -0.413  -0.407  -0.385  -0.346  -0.291  -0.277  -0.262
 -- Virtual --
 -0.043  -0.019  -0.001   0.002   0.020   0.027   0.035   0.048
  0.049   0.070   0.072   0.078   0.092   0.103   0.106   0.110
  0.116   0.128   0.130   0.144   0.155   0.167   0.177   0.184
  0.189   0.191   0.202   0.210   0.216   0.232   0.235   0.243
  0.247   0.261   0.272   0.281   0.291   0.304   0.322   0.332
  0.357   0.375   0.388   0.420   0.462   0.620   0.661   0.692
  0.703   0.708   0.734   0.742   0.745   0.753   0.768   0.791
  0.797   0.804   0.819   0.865   0.904   0.914   0.936   0.974
  0.988   1.010   1.020   1.038   1.068   1.091   1.122   1.140
  1.168   1.192   1.260   1.296   1.300   1.385   1.422   1.445
  1.521   1.537   1.618   1.621   1.718   1.723   1.781   1.807
  1.849   1.891   1.924   1.946   1.999   2.002   2.083   2.125
  2.139   2.158   2.229   2.235   2.270   2.285   2.362   2.374
  2.383   2.407   2.427   2.476   2.496   2.502   2.524   2.530
  2.558   2.589   2.602   2.631   2.654   2.690   2.749   2.763
  2.779   2.827   2.877   2.959   3.061   3.111   3.295   3.312
  3.338   3.477   3.629   3.696   4.154   4.394   4.478   4.588
  4.645   4.716   4.855
 --------------------------------------------------------------
 
          Ground-State Mulliken Net Atomic Charges

     Atom                 Charge (a.u.)    Spin (a.u.)
  --------------------------------------------------------
      1 C                    -0.063613       0.042036
      2 C                    -0.017033      -0.033110
      3 C                    -0.277473       0.641403
      4 C                    -0.132407       0.739543
      5 C                     0.013397      -0.124136
      6 N                    -0.206555      -0.002906
      7 H                     0.134929       0.001368
      8 H                     0.131544       0.003579
      9 H                     0.147188      -0.027941
     10 H                     0.138889      -0.030606
     11 H                     0.130435       0.008203
     12 C                    -0.139961      -0.229995
     13 H                     0.140660       0.012561
  --------------------------------------------------------
  Sum of atomic charges =    -0.000000
  Sum of spin   charges =     1.000000

 -----------------------------------------------------------------
                    Cartesian Multipole Moments
 -----------------------------------------------------------------
    Charge (ESU x 10^10)
                -0.0000
    Dipole Moment (Debye)
         X      -0.4196      Y      -2.8618      Z       0.5612
       Tot       2.9463
    Quadrupole Moments (Debye-Ang)
        XX     -38.6308     XY      -3.3753     YY     -45.0473
        XZ       1.4884     YZ       0.3770     ZZ     -41.7087
    Octopole Moments (Debye-Ang^2)
       XXX       0.1742    XXY      -4.7360    XYY      -8.7781
       YYY     -37.9647    XXZ       3.8275    XYZ       1.3459
       YYZ       4.6658    XZZ      -8.7150    YZZ     -10.4981
       ZZZ       7.1408
    Hexadecapole Moments (Debye-Ang^3)
      XXXX    -261.7439   XXXY     -10.7882   XXYY     -88.3838
      XYYY     -25.3527   YYYY    -288.4093   XXXZ      20.4097
      XXYZ      10.0914   XYYZ      11.7358   YYYZ      22.3566
      XXZZ     -74.5245   XYZZ      -3.8364   YYZZ     -72.4068
      XZZZ      20.9856   YZZZ      15.2615   ZZZZ    -189.9085
 -----------------------------------------------------------------
Archival summary:
1\1\c8-66\TS\ProcedureUnspecified\6-31+G**\166(2)\hpark21\FriMar407:05:312022FriMar407:05:312022\0\\#,TS,ProcedureUnspecified,6-31+G**,\\0,2\N\C,1,1.28183\H,2,1.08794,1,122.19\C,1,1.5001,2,105.6,3,-174.62,0\H,4,1.08836,1,112.201,2,-159.48,0\C,2,1.51012,1,112.923,3,176.665,0\H,6,1.08719,2,120.699,1,162.568,0\C,6,1.49505,2,102.355,1,24.7617,0\H,8,1.0803,6,131.09,2,144.986,0\C,4,1.52528,1,108.109,2,68.3238,0\H,10,1.0803,4,130.523,1,108.286,0\C,10,1.40216,4,98.615,1,-80.494,0\H,12,1.08673,10,127.637,4,-161.352,0\\\@

 Total job time:  1668.89s(wall), 6473.21s(cpu) 
 Fri Mar  4 07:05:31 2022

        *************************************************************
        *                                                           *
        *  Thank you very much for using Q-Chem.  Have a nice day.  *
        *                                                           *
        *************************************************************


