
Running Job 1 of 1 qcts1.in
qchem qcts1.in_52528.0 ./qcts1.d/ 1
/home/leeping/opt/qchem/5.0.2-openmp/exe/qcprog.exe_s qcts1.in_52528.0 ./qcts1.d/
Check license passed

                  Welcome to Q-Chem
     A Quantum Leap Into The Future Of Chemistry


 Q-Chem 5.0, Q-Chem, Inc., Pleasanton, CA (2017)

 Yihan Shao,  Zhengting Gan,  E. Epifanovsky,  A. T. B. Gilbert,  M. Wormit,  
 J. Kussmann,  A. W. Lange,  A. Behn,  Jia Deng,  Xintian Feng,  D. Ghosh,  
 M. Goldey,  P. R. Horn,  L. D. Jacobson,  I. Kaliman,  T. Kus,  A. Landau,  
 Jie Liu,  E. I. Proynov,  R. M. Richard,  R. P. Steele,  E. J. Sundstrom,  
 H. L. Woodcock III,  P. M. Zimmerman,  D. Zuev,  B. Albrecht,  E. Alguire,  
 S. A. Baeppler,  D. Barton,  Z. Benda,  Y. A. Bernard,  E. J. Berquist,  
 K. B. Bravaya,  H. Burton,  D. Casanova,  Chun-Min Chang,  Yunqing Chen,  
 A. Chien,  K. D. Closser,  M. P. Coons,  S. Dasgupta,  A. L. Dempwolff,  
 M. Diedenhofen,  Hainam Do,  R. G. Edgar,  Po-Tung Fang,  S. Fatehi,  
 Qingguo Feng,  J. Fosso-Tande,  Qinghui Ge,  A. Ghysels,  G. Gidofalvi,  
 J. Gomes,  J. Gonthier,  A. Gunina,  M. W. D. Hanson-Heine,  
 P. H. P. Harbach,  A. W. Hauser,  J. E. Herr,  E. G. Hohenstein,  
 Z. C. Holden,  Kerwin Hui,  T.-C. Jagau,  Hyunjun Ji,  B. Kaduk,  
 K. Khistyaev,  Jaehoon Kim,  P. Klunzinger,  K. Koh,  D. Kosenkov,  
 L. Koulias,  T. Kowalczyk,  C. M. Krauter,  A. Kunitsa,  Ka Un Lao,  
 A. Laurent,  K. V. Lawler,  Joonho Lee,  D. Lefrancois,  S. Lehtola,  
 D. S. Levine,  Yi-Pei Li,  You-Sheng Lin,  Fenglai Liu,  E. Livshits,  
 A. Luenser,  P. Manohar,  E. Mansoor,  S. F. Manzer,  Shan-Ping Mao,  
 Yuezhi Mao,  N. Mardirossian,  A. V. Marenich,  T. Markovich,  
 L. A. Martinez-Martinez,  S. A. Maurer,  N. J. Mayhall,  S. C. McKenzie,  
 J.-M. Mewes,  A. F. Morrison,  J. W. Mullinax,  K. Nanda,  
 T. S. Nguyen-Beck,  R. Olivares-Amaya,  J. A. Parkhill,  T. M. Perrine,  
 F. Plasser,  S. Prager,  A. Prociuk,  E. Ramos,  D. R. Rehn,  F. Rob,  
 M. Schneider,  N. Sergueev,  S. M. Sharada,  S. Sharma,  D. W. Small,  
 T. Stauch,  T. Stein,  Yu-Chuan Su,  A. J. W. Thom,  A. Tkatchenko,  
 T. Tsuchimochi,  L. Vogt,  O. Vydrov,  M. A. Watson,  J. Wenzel,  
 M. de Wergifosse,  T. A. Wesolowski,  A. White,  J. Witte,  A. Yamada,  
 Jun Yang,  K. Yao,  S. Yeganeh,  S. R. Yost,  Zhi-Qiang You,  A. Zech,  
 Igor Ying Zhang,  Xing Zhang,  Yan Zhao,  Ying Zhu,  B. R. Brooks,  
 G. K. L. Chan,  C. J. Cramer,  M. S. Gordon,  W. J. Hehre,  A. Klamt,  
 M. W. Schmidt,  C. D. Sherrill,  D. G. Truhlar,  A. Aspuru-Guzik,  R. Baer,  
 A. T. Bell,  N. A. Besley,  Jeng-Da Chai,  R. A. DiStasio Jr.,  A. Dreuw,  
 B. D. Dunietz,  T. R. Furlani,  Chao-Ping Hsu,  Yousung Jung,  Jing Kong,  
 D. S. Lambrecht,  WanZhen Liang,  C. Ochsenfeld,  V. A. Rassolov,  
 L. V. Slipchenko,  J. E. Subotnik,  T. Van Voorhis,  J. M. Herbert,  
 A. I. Krylov,  P. M. W. Gill,  M. Head-Gordon

 Contributors to earlier versions of Q-Chem not listed above: 
 R. D. Adamson,  B. Austin,  J. Baker,  G. J. O. Beran,  K. Brandhorst,  
 S. T. Brown,  E. F. C. Byrd,  A. K. Chakraborty,  C.-L. Cheng,  
 Siu Hung Chien,  D. M. Chipman,  D. L. Crittenden,  H. Dachsel,  
 R. J. Doerksen,  A. D. Dutoi,  L. Fusti-Molnar,  W. A. Goddard III,  
 A. Golubeva-Zadorozhnaya,  S. R. Gwaltney,  G. Hawkins,  A. Heyden,  
 S. Hirata,  G. Kedziora,  F. J. Keil,  C. Kelley,  Jihan Kim,  R. A. King,  
 R. Z. Khaliullin,  P. P. Korambath,  W. Kurlancheek,  A. M. Lee,  M. S. Lee,  
 S. V. Levchenko,  Ching Yeh Lin,  D. Liotard,  R. C. Lochan,  I. Lotan,  
 P. E. Maslen,  N. Nair,  D. P. O'Neill,  D. Neuhauser,  E. Neuscamman,  
 C. M. Oana,  R. Olson,  B. Peters,  R. Peverati,  P. A. Pieniazek,  
 Y. M. Rhee,  J. Ritchie,  M. A. Rohrdanz,  E. Rosta,  N. J. Russ,  
 H. F. Schaefer III,  N. E. Schultz,  N. Shenvi,  A. C. Simmonett,  A. Sodt,  
 D. Stuck,  K. S. Thanthiriwatte,  V. Vanovschi,  Tao Wang,  A. Warshel,  
 C. F. Williams,  Q. Wu,  X. Xu,  W. Zhang

 Please cite Q-Chem as follows:
 Y. Shao et al., Mol. Phys. 113, 184-215 (2015)
 DOI: 10.1080/00268976.2014.952696

 Q-Chem 5.0.2 for Intel X86 EM64T Linux

 Parts of Q-Chem use Armadillo 5.200.1 (Boston Tea Smuggler).
 http://arma.sourceforge.net/

 Q-Chem begins on Fri Mar  4 06:22:57 2022  

Host: 
0

     Scratch files written to ./qcts1.d//
 Dec517 15110_ 26548  26544 5633   
Processing $rem in /home/leeping/opt/qchem/5.0.2-openmp/config/preferences.
 MEM_STATIC 2000
 MEM_TOTAL  8000
 SYMMETRY   OFF
 SYM_IGNORE TRUE 

Checking the input file for inconsistencies... 	...done.

--------------------------------------------------------------
User input:
--------------------------------------------------------------
$molecule
0 2
C        1.5299284714    0.5921932666   -0.1546403636
C        0.8938036152   -0.7439933803    0.0246917941
C       -0.4027000747   -0.6733633792   -0.7095373695
C       -1.0425876342    0.6084717781    0.8558604760
C       -0.6187523129    0.8852342133   -0.5850591414
N        0.7276677004    1.5146299450   -0.5380684068
H        2.5783974638    0.7999288264    0.0566902427
H        1.4648546506   -1.6661954627    0.0737171237
H       -0.7860695375   -1.3672088890   -1.4520124631
H       -1.9018337010    0.9741392775    1.4013047100
H       -1.3005949966    1.4075603001   -1.2564752454
C       -0.4695131421   -0.7429648525    0.8222042915
H       -0.6887364236   -1.5889523321    1.4653780685
$end

$rem
method                b3lyp
basis                 6-31g(d)
unrestricted          true
symmetry              off
sym_ignore            true
incdft                false
incfock               0
scf_convergence       6
thresh                14
jobtype               sp
scf_guess             read
scf_algorithm         diis
max_scf_cycles        100
stability_analysis    true
max_cis_cycles        100
cis_n_roots           4
$end

--------------------------------------------------------------
 ----------------------------------------------------------------
             Standard Nuclear Orientation (Angstroms)
    I     Atom           X                Y                Z
 ----------------------------------------------------------------
    1      C       1.5299284714     0.5921932666    -0.1546403636
    2      C       0.8938036152    -0.7439933803     0.0246917941
    3      C      -0.4027000747    -0.6733633792    -0.7095373695
    4      C      -1.0425876342     0.6084717781     0.8558604760
    5      C      -0.6187523129     0.8852342133    -0.5850591414
    6      N       0.7276677004     1.5146299450    -0.5380684068
    7      H       2.5783974638     0.7999288264     0.0566902427
    8      H       1.4648546506    -1.6661954627     0.0737171237
    9      H      -0.7860695375    -1.3672088890    -1.4520124631
   10      H      -1.9018337010     0.9741392775     1.4013047100
   11      H      -1.3005949966     1.4075603001    -1.2564752454
   12      C      -0.4695131421    -0.7429648525     0.8222042915
   13      H      -0.6887364236    -1.5889523321     1.4653780685
 ----------------------------------------------------------------
 Nuclear Repulsion Energy =   281.7331701809 hartrees
 There are       25 alpha and       24 beta electrons
 Requested basis set is 6-31G(d)
 There are 40 shells and 117 basis functions

 Total QAlloc Memory Limit   8000 MB
 Mega-Array Size      1956 MB
 MEM_STATIC part      2000 MB

                       Distance Matrix (Angstroms)
             C (  1)   C (  2)   C (  3)   C (  4)   C (  5)   N (  6)
   C (  2)  1.490708
   C (  3)  2.375836  1.491644
   C (  4)  2.763913  2.503920  2.122034
   C (  5)  2.210874  2.305212  1.578417  1.527247
   N (  6)  1.281222  2.333598  2.468694  2.428572  1.487008
   H (  7)  1.089542  2.285296  3.412424  3.713066  3.262037  2.071168
   H (  8)  2.270837  1.085799  2.255430  3.474640  3.359345  3.321954
   H (  9)  3.299436  2.321858  1.086123  3.048835  2.419319  3.381078
   H ( 10)  3.787326  3.558459  3.068765  1.081446  2.366399  3.311733
   H ( 11)  3.144953  3.329558  2.331437  2.273120  1.090199  2.154396
   C ( 12)  2.595118  1.579449  1.534777  1.468308  2.157242  2.894878
   H ( 13)  3.507753  2.300862  2.377052  2.307682  3.214155  3.956289
             H (  7)   H (  8)   H (  9)   H ( 10)   H ( 11)   C ( 12)
   H (  8)  2.705926
   H (  9)  4.276951  2.735672
   H ( 10)  4.680898  4.479782  3.855938
   H ( 11)  4.140073  4.343397  2.828836  2.759191
   C ( 12)  3.500899  2.270323  2.379485  2.309837  3.104249
   H ( 13)  4.285478  2.565276  2.927424  2.836397  4.094135  1.085093

 
 A cutoff of  1.0D-14 yielded    811 shell pairs
 There are      7083 function pairs
 Smallest overlap matrix eigenvalue = 1.18E-03

 Scale SEOQF with 1.000000e-01/1.000000e-01/1.000000e+00

 Standard Electronic Orientation quadrupole field applied
 Nucleus-field energy     =    -0.0000000202 hartrees
 Guess MOs from SCF MO coefficient file
 Reading MOs from coefficient file
 Reading MOs from coefficient file
 An unrestricted hybrid HF-DFT SCF calculation will be
 performed using Pulay DIIS extrapolation
 Exchange:     0.2000 Hartree-Fock + 0.0800 Slater + 0.7200 B88
 Correlation:  0.1900 VWN1RPA + 0.8100 LYP
 Using SG-1 standard quadrature grid
 SCF converges when DIIS error is below 1.0E-06
Using Q-Chem read-in guess as SCF_GUESS READ specified.

 -------------------------------------------------------
 OpenMP BLAS3 based DFT computing Module                
 -------------------------------------------------------
 ---------------------------------------
  Cycle       Energy         DIIS Error
 ---------------------------------------
    1    -286.8364398341      7.13E-10
    2    -286.8364398341      1.02E-09 Convergence criterion met
 ---------------------------------------
 <S^2> = 0.7551
 SCF time:  CPU 3.17 s  wall 3.30 s
 SCF   energy in the final basis set = -286.83643983
 Total energy in the final basis set = -286.83643983
 
 Direct TDDFT/TDA calculation will be performed
 Exchange:     0.2000 Hartree-Fock + 0.0800 Slater + 0.7200 B88
 Correlation:  0.1900 VWN1RPA + 0.8100 LYP
 Using SG-1 standard quadrature grid
 CIS energy converged when residual is below 10e- 6
 ---------------------------------------------------
 Iter    Rts Conv    Rts Left    Ttl Dev     Max Dev
 ---------------------------------------------------
   1         0           4      0.003734    0.001193
   2         0           4      0.001872    0.000555
   3         0           4      0.001278    0.000603
   4         0           4      0.000801    0.000406
   5         0           4      0.000350    0.000150
   6         0           4      0.000090    0.000042
   7         1           3      0.000021    0.000011
   8         2           2      0.000007    0.000004
   9         4           0      0.000002    0.000001    Roots Converged
 ---------------------------------------------------
 
 ---------------------------------------------------
         TDDFT/TDA Excitation Energies              
 ---------------------------------------------------

 Excited state   1: excitation energy (eV) =    3.3979
 Total energy for state  1:                  -286.71156769 au
    <S**2>     :  0.8304
    Trans. Mom.: -0.2291 X  -0.0396 Y   0.1775 Z
    Strength   :     0.0071242255
    S(  1) --> V(  1) amplitude =  0.9872 alpha

 Excited state   2: excitation energy (eV) =    4.2886
 Total energy for state  2:                  -286.67883516 au
    <S**2>     :  2.2129
    Trans. Mom.:  0.0123 X   0.0079 Y  -0.0359 Z
    Strength   :     0.0001581826
    D( 23) --> V(  1) amplitude =  0.5295 alpha
    D( 24) --> V(  1) amplitude =  0.1763 alpha
    D( 23) --> S(  1) amplitude =  0.6330 beta
    D( 23) --> V(  1) amplitude =  0.4011 beta
    D( 24) --> S(  1) amplitude =  0.2171 beta
    D( 24) --> V(  1) amplitude =  0.1582 beta

 Excited state   3: excitation energy (eV) =    4.4057
 Total energy for state  3:                  -286.67453494 au
    <S**2>     :  1.7009
    Trans. Mom.:  0.1239 X   0.0692 Y   0.0295 Z
    Strength   :     0.0022684131
    D( 24) --> V(  1) amplitude =  0.3527 alpha
    D( 23) --> S(  1) amplitude = -0.2890 beta
    D( 24) --> S(  1) amplitude =  0.7900 beta
    D( 24) --> V(  1) amplitude =  0.3492 beta

 Excited state   4: excitation energy (eV) =    4.8839
 Total energy for state  4:                  -286.65695814 au
    <S**2>     :  1.7614
    Trans. Mom.: -0.0427 X  -0.0442 Y  -0.1186 Z
    Strength   :     0.0021347969
    D( 23) --> V(  1) amplitude = -0.2612 alpha
    D( 24) --> V(  1) amplitude =  0.6301 alpha
    D( 23) --> S(  1) amplitude =  0.2771 beta
    D( 23) --> V(  1) amplitude = -0.2539 beta
    D( 24) --> S(  1) amplitude = -0.4433 beta
    D( 24) --> V(  1) amplitude =  0.4052 beta
 
 ---------------------------------------------------

 Stability analysis will be performed
 ---------------------------------------------------
 Iter    Rts Conv    Rts Left    Ttl Dev     Max Dev
 ---------------------------------------------------
   1         0           8      0.005137    0.000846
   2         0           8      0.002315    0.000718
   3         0           8      0.000906    0.000207
   4         0           8      0.000347    0.000099
   5         2           6      0.000127    0.000043
   6         3           5      0.000043    0.000014
   7         4           4      0.000014    0.000005
   8         7           1      0.000005    0.000002
   9         8           0      0.000003    0.000001    Roots Converged
 UKS-> UKS   stable,    smallest eigenvalue:      0.1034567
 UKS->CUKS   stable,    smallest eigenvalue:      0.1239406
 ---------------------------------------------------
  SETman timing summary (seconds)
  CPU time                76.74s
  System time              0.00s
  Wall time               76.98s
 
 --------------------------------------------------------------
 
                    Orbital Energies (a.u.)
 --------------------------------------------------------------
 
 Alpha MOs
 -- Occupied --
-14.316 -10.220 -10.219 -10.215 -10.211 -10.210 -10.194  -0.963
 -0.857  -0.746  -0.656  -0.607  -0.573  -0.539  -0.515  -0.462
 -0.430  -0.412  -0.387  -0.365  -0.329  -0.313  -0.264  -0.255
 -0.170
 -- Virtual --
 -0.001   0.091   0.110   0.136   0.144   0.152   0.157   0.166
  0.182   0.201   0.217   0.245   0.278   0.327   0.372   0.384
  0.483   0.520   0.530   0.551   0.553   0.580   0.586   0.599
  0.615   0.619   0.669   0.679   0.708   0.757   0.777   0.797
  0.816   0.830   0.840   0.842   0.856   0.880   0.911   0.922
  0.944   1.010   1.063   1.142   1.155   1.220   1.280   1.365
  1.450   1.474   1.505   1.546   1.602   1.661   1.665   1.711
  1.795   1.812   1.875   1.884   1.919   1.937   2.005   2.020
  2.051   2.142   2.187   2.233   2.261   2.296   2.370   2.428
  2.472   2.488   2.522   2.529   2.579   2.617   2.624   2.681
  2.741   2.803   2.836   2.929   2.960   3.950   4.129   4.244
  4.353   4.476   4.520   4.662
 
 Beta MOs
 -- Occupied --
-14.316 -10.221 -10.219 -10.216 -10.209 -10.208 -10.181  -0.959
 -0.852  -0.735  -0.646  -0.602  -0.569  -0.537  -0.504  -0.460
 -0.426  -0.406  -0.383  -0.361  -0.318  -0.301  -0.261  -0.253
 -- Virtual --
 -0.038   0.008   0.094   0.114   0.140   0.149   0.155   0.159
  0.170   0.186   0.203   0.222   0.249   0.284   0.330   0.375
  0.393   0.486   0.524   0.542   0.554   0.562   0.584   0.592
  0.612   0.620   0.644   0.673   0.689   0.712   0.760   0.780
  0.800   0.817   0.834   0.841   0.844   0.860   0.883   0.914
  0.930   0.946   1.015   1.074   1.152   1.156   1.226   1.285
  1.368   1.452   1.485   1.512   1.550   1.606   1.667   1.674
  1.715   1.798   1.827   1.883   1.893   1.934   1.942   2.011
  2.031   2.065   2.152   2.196   2.238   2.272   2.303   2.385
  2.439   2.481   2.493   2.526   2.539   2.583   2.621   2.629
  2.685   2.748   2.808   2.843   2.931   2.961   3.952   4.135
  4.257   4.362   4.480   4.524   4.665
 --------------------------------------------------------------
 
          Ground-State Mulliken Net Atomic Charges

     Atom                 Charge (a.u.)    Spin (a.u.)
  --------------------------------------------------------
      1 C                     0.095478       0.016435
      2 C                    -0.192622       0.054662
      3 C                    -0.104647       0.105079
      4 C                    -0.068366       0.957701
      5 C                    -0.101310      -0.054180
      6 N                    -0.340122       0.014086
      7 H                     0.142909       0.004195
      8 H                     0.147841       0.001682
      9 H                     0.149130       0.005859
     10 H                     0.142541      -0.045079
     11 H                     0.140791       0.008713
     12 C                    -0.160036      -0.070899
     13 H                     0.148411       0.001746
  --------------------------------------------------------
  Sum of atomic charges =    -0.000000
  Sum of spin   charges =     1.000000

 -----------------------------------------------------------------
                    Cartesian Multipole Moments
 -----------------------------------------------------------------
    Charge (ESU x 10^10)
                -0.0000
    Dipole Moment (Debye)
         X      -0.6207      Y      -2.6446      Z       0.2479
       Tot       2.7278
    Quadrupole Moments (Debye-Ang)
        XX     -37.0403     XY      -2.6710     YY     -43.3593
        XZ       0.8493     YZ       0.7422     ZZ     -40.5569
    Octopole Moments (Debye-Ang^2)
       XXX      -1.9944    XXY      -5.0061    XYY      -8.1284
       YYY     -36.1048    XXZ       3.2593    XYZ       1.4607
       YYZ       4.0469    XZZ      -7.7257    YZZ      -9.5443
       ZZZ       3.2023
    Hexadecapole Moments (Debye-Ang^3)
      XXXX    -252.0818   XXXY      -9.7963   XXYY     -85.8038
      XYYY     -22.4692   YYYY    -277.0484   XXXZ      19.9171
      XXYZ       9.1378   XYYZ      11.0428   YYYZ      22.6047
      XXZZ     -68.7897   XYZZ      -4.2394   YYZZ     -66.7918
      XZZZ      21.2581   YZZZ      18.3150   ZZZZ    -153.1244
 -----------------------------------------------------------------
Archival summary:
1\1\c8-66\SP\ProcedureUnspecified\6-31G*\166(2)\hpark21\FriMar406:24:182022FriMar406:24:182022\0\\#,ProcedureUnspecified,6-31G*,\\0,2\N\C,1,1.28122\H,2,1.08954,1,121.557\C,1,1.48701,2,105.765,3,-174.265,0\H,4,1.0902,1,112.518,2,-156.752,0\C,2,1.49071,1,114.465,3,177.607,0\H,6,1.0858,2,122.84,1,162.595,0\C,6,1.49164,2,105.619,1,17.2541,0\H,8,1.08612,6,127.809,2,128.72,0\C,4,1.52725,1,107.347,2,69.6095,0\H,10,1.08145,4,129.426,1,120.211,0\C,10,1.46831,4,92.112,1,-91.5567,0\H,12,1.08509,10,128.693,4,-160.131,0\\\@

 Total job time:  80.89s(wall), 80.08s(cpu) 
 Fri Mar  4 06:24:18 2022

        *************************************************************
        *                                                           *
        *  Thank you very much for using Q-Chem.  Have a nice day.  *
        *                                                           *
        *************************************************************


