13
image # 1 Energy = -286.83651
C 1.54423   0.58582   -0.16482  
C 0.89339   -0.74333  0.02745   
C -0.41163  -0.65684  -0.69473  
C -1.01906  0.62932   0.88133   
C -0.60347  0.90238   -0.57009  
N 0.74810   1.51502   -0.54184  
H 2.59850   0.78069   0.02889   
H 1.45580   -1.67137  0.06321   
H -0.81249  -1.34788  -1.43074  
H -1.98400  0.87700   1.30904   
H -1.28984  1.43280   -1.22975  
C -0.44622  -0.72970  0.83963   
H -0.67331  -1.57389  1.48242   
13
image # 2 Energy = -286.83449
C 1.55352   0.57775   -0.16104  
C 0.92872   -0.75515  0.02934   
C -0.42033  -0.66198  -0.71310  
C -1.02680  0.62088   0.87367   
C -0.60280  0.89661   -0.56161  
N 0.73612   1.52784   -0.53518  
H 2.60091   0.78902   0.01719   
H 1.47291   -1.65753  0.04372   
H -0.80186  -1.35037  -1.42249  
H -1.98196  0.90706   1.33074   
H -1.28551  1.42089   -1.23722  
C -0.47056  -0.74754  0.86305   
H -0.70718  -1.56726  1.47373   
13
image # 3 Energy = -286.83448
C 1.53436   0.59831   -0.16977  
C 0.91719   -0.75404  0.02069   
C -0.40060  -0.67123  -0.69057  
C -1.04155  0.61363   0.86970   
C -0.60312  0.89304   -0.55888  
N 0.74654   1.51327   -0.51778  
H 2.61239   0.79936   0.00899   
H 1.49960   -1.65924  0.02738   
H -0.79293  -1.35563  -1.41987  
H -1.97326  0.93918   1.35453   
H -1.28204  1.40900   -1.24252  
C -0.48097  -0.74599  0.83959   
H -0.74429  -1.57916  1.47997   
13
image # 4 Energy = -286.83363
C 1.55034   0.58985   -0.16451  
C 0.92851   -0.74382  0.01115   
C -0.38865  -0.66700  -0.68087  
C -1.07097  0.60861   0.87569   
C -0.60744  0.88692   -0.56627  
N 0.73469   1.52034   -0.51064  
H 2.60755   0.80623   0.00016   
H 1.52264   -1.65912  0.01381   
H -0.78560  -1.36683  -1.42292  
H -1.94562  0.96691   1.37432   
H -1.27614  1.39512   -1.24609  
C -0.50515  -0.75385  0.84231   
H -0.77619  -1.58296  1.47619   
13
image # 5 Energy = -286.83398
C 1.54974   0.60437   -0.15892  
C 0.91111   -0.74701  0.00846   
C -0.36912  -0.68550  -0.67578  
C -1.08057  0.58642   0.83816   
C -0.60176  0.87488   -0.54594  
N 0.71977   1.51753   -0.50233  
H 2.60399   0.81675   -0.00314  
H 1.54371   -1.65406  0.00771   
H -0.76621  -1.37181  -1.42276  
H -1.91379  1.03138   1.43480   
H -1.28316  1.38613   -1.26843  
C -0.52231  -0.76706  0.82884   
H -0.80608  -1.59183  1.46253   
13
image # 6 Energy = -286.83270
C 1.55180   0.61085   -0.15681  
C 0.94510   -0.74951  -0.00502  
C -0.36996  -0.68517  -0.68003  
C -1.12477  0.56868   0.83647   
C -0.61959  0.87122   -0.57027  
N 0.71457   1.51642   -0.49180  
H 2.59048   0.82384   0.00545   
H 1.55090   -1.64935  0.01539   
H -0.75300  -1.38008  -1.43058  
H -1.84498  1.07163   1.47053   
H -1.27722  1.36920   -1.27204  
C -0.56352  -0.76408  0.82567   
H -0.81595  -1.60418  1.45709   
13
image # 7 Energy = -286.83283
C 1.54508   0.60260   -0.15994  
C 0.96399   -0.74475  -0.03173  
C -0.35835  -0.69771  -0.67313  
C -1.14739  0.55578   0.82955   
C -0.61582  0.86705   -0.56570  
N 0.70541   1.52258   -0.48550  
H 2.59812   0.83274   0.00860   
H 1.56531   -1.64974  0.01329   
H -0.74606  -1.37843  -1.42631  
H -1.81843  1.09606   1.49098   
H -1.27569  1.36139   -1.27783  
C -0.60419  -0.76063  0.82110   
H -0.82902  -1.60844  1.46142   
13
image # 8 Energy = -286.83433
C 1.53792   0.59940   -0.15880  
C 0.98940   -0.74066  -0.06129  
C -0.34886  -0.70680  -0.66893  
C -1.17670  0.54008   0.81757   
C -0.61567  0.85969   -0.56775  
N 0.69639   1.52565   -0.48209  
H 2.59347   0.83925   0.02096   
H 1.56758   -1.64909  0.02606   
H -0.73829  -1.37793  -1.42811  
H -1.76806  1.12532   1.51946   
H -1.27750  1.35507   -1.28500  
C -0.65409  -0.75763  0.81143   
H -0.82293  -1.61478  1.46201   
13
image # 9 Energy = -286.84000
C 1.52735   0.59709   -0.15111  
C 1.01539   -0.73122  -0.11105  
C -0.33406  -0.71820  -0.66641  
C -1.21212  0.52153   0.80005   
C -0.62181  0.85139   -0.57958  
N 0.67671   1.52886   -0.48569  
H 2.57871   0.84591   0.05523   
H 1.55402   -1.65425  0.06939   
H -0.72709  -1.37697  -1.43880  
H -1.67208  1.16258   1.56154   
H -1.28555  1.35033   -1.29656  
C -0.73557  -0.75591  0.79193   
H -0.78116  -1.62438  1.45727   
13
image # 10 Energy = -286.84696
C 1.51984   0.59423   -0.14666  
C 1.04735   -0.72658  -0.16655  
C -0.32791  -0.72516  -0.65872  
C -1.23263  0.51499   0.79498   
C -0.62914  0.84284   -0.58931  
N 0.65983   1.53046   -0.48890  
H 2.56433   0.85220   0.09146   
H 1.53650   -1.65611  0.11442   
H -0.71676  -1.37485  -1.44840  
H -1.58819  1.18454   1.58871   
H -1.29478  1.34730   -1.30776  
C -0.81733  -0.75987  0.77027   
H -0.73814  -1.62732  1.45305   
13
image # 11 Energy = -286.85155
C 1.51712   0.59147   -0.14567  
C 1.07329   -0.72969  -0.21858  
C -0.32784  -0.72907  -0.65179  
C -1.24177  0.51310   0.79511   
C -0.63891  0.83407   -0.59654  
N 0.64394   1.52941   -0.48631  
H 2.54990   0.86120   0.12600   
H 1.52329   -1.65039  0.15318   
H -0.70467  -1.37212  -1.45634  
H -1.51269  1.20315   1.61108   
H -1.30243  1.34027   -1.31936  
C -0.88368  -0.77325  0.75094   
H -0.71237  -1.62141  1.44519   
13
image # 12 Energy = -286.85304
C 1.51839   0.59082   -0.15055  
C 1.08938   -0.73573  -0.25735  
C -0.33347  -0.72996  -0.65066  
C -1.23637  0.51460   0.80045   
C -0.64800  0.82627   -0.60105  
N 0.63132   1.52545   -0.47556  
H 2.53410   0.87298   0.15574   
H 1.51846   -1.63795  0.17936   
H -0.69306  -1.37187  -1.46503  
H -1.44697  1.21285   1.62440   
H -1.30741  1.32683   -1.32915  
C -0.93088  -0.78666  0.73939   
H -0.71224  -1.61076  1.43719   
13
image # 13 Energy = -286.85480
C 1.52118   0.59244   -0.15853  
C 1.09479   -0.74020  -0.28108  
C -0.34151  -0.73142  -0.65493  
C -1.22342  0.51771   0.80661   
C -0.65398  0.82000   -0.60366  
N 0.62156   1.52134   -0.46215  
H 2.51641   0.88492   0.18101   
H 1.51812   -1.62244  0.19746   
H -0.68437  -1.37406  -1.47628  
H -1.38835  1.21483   1.63120   
H -1.31169  1.31069   -1.33700  
C -0.95914  -0.79583  0.73201   
H -0.72634  -1.60102  1.43273   
13
image # 14 Energy = -286.85521
C 1.52287   0.59623   -0.16996  
C 1.09645   -0.74248  -0.29617  
C -0.35054  -0.73428  -0.66005  
C -1.21050  0.51830   0.80631   
C -0.65740  0.81379   -0.60514  
N 0.61381   1.51820   -0.44598  
H 2.49939   0.89876   0.20190   
H 1.52757   -1.60404  0.20586   
H -0.67651  -1.37734  -1.48712  
H -1.33111  1.21952   1.64139   
H -1.31453  1.28943   -1.34264  
C -0.97463  -0.80512  0.72481   
H -0.76156  -1.59401  1.43431   
13
image # 15 Energy = -286.85307
C 1.52388   0.60215   -0.17964  
C 1.09810   -0.74152  -0.30838  
C -0.35393  -0.73907  -0.66359  
C -1.19686  0.52007   0.80885   
C -0.65778  0.80807   -0.60534  
N 0.60676   1.51754   -0.43489  
H 2.48433   0.91184   0.21833   
H 1.54332   -1.58687  0.20697   
H -0.67162  -1.38095  -1.49676  
H -1.27795  1.21724   1.64521   
H -1.31821  1.26866   -1.34670  
C -0.98730  -0.80811  0.72132   
H -0.80940  -1.59205  1.44222   
13
image # 16 Energy = -286.85930
C 1.54208   0.59335   -0.18597  
C 1.11105   -0.74318  -0.30742  
C -0.34211  -0.73218  -0.64000  
C -1.22145  0.52100   0.81407   
C -0.64660  0.81601   -0.58940  
N 0.62557   1.51681   -0.43361  
H 2.52566   0.89305   0.16252   
H 1.56312   -1.61093  0.15972   
H -0.68786  -1.37347  -1.46412  
H -1.42379  1.21128   1.62544   
H -1.29794  1.29220   -1.33433  
C -0.97292  -0.79748  0.74291   
H -0.79142  -1.58945  1.45778   
13
image # 17 Energy = -286.86060
C 1.55281   0.58833   -0.18798  
C 1.11919   -0.74360  -0.30438  
C -0.32999  -0.72741  -0.62672  
C -1.23830  0.51901   0.81289   
C -0.64267  0.82236   -0.58072  
N 0.63967   1.51965   -0.44209  
H 2.55246   0.87923   0.13018   
H 1.57341   -1.62762  0.13568   
H -0.69942  -1.36454  -1.44145  
H -1.51631  1.20400   1.60950   
H -1.28917  1.31059   -1.32302  
C -0.95957  -0.79094  0.75674   
H -0.77855  -1.59200  1.46894   
13
image # 18 Energy = -286.86179
C 1.56673   0.58532   -0.19280  
C 1.13051   -0.73841  -0.30449  
C -0.32742  -0.72525  -0.61443  
C -1.24739  0.51845   0.81353   
C -0.63810  0.82804   -0.57476  
N 0.65050   1.52045   -0.44249  
H 2.56727   0.87074   0.10368   
H 1.59000   -1.63765  0.11149   
H -0.70763  -1.35890  -1.42483  
H -1.58209  1.19611   1.59566   
H -1.28045  1.31709   -1.31271  
C -0.94957  -0.78670  0.76838   
H -0.78846  -1.59224  1.48124   
13
image # 19 Energy = -286.86337
C 1.57464   0.58590   -0.19972  
C 1.13350   -0.74119  -0.29225  
C -0.31336  -0.71723  -0.59674  
C -1.25501  0.51860   0.81536   
C -0.62114  0.82977   -0.55865  
N 0.66461   1.52348   -0.44307  
H 2.59205   0.86356   0.06563   
H 1.61616   -1.64536  0.06664   
H -0.71691  -1.35601  -1.40466  
H -1.66576  1.18216   1.57294   
H -1.27235  1.32463   -1.30101  
C -0.92911  -0.77423  0.78608   
H -0.82291  -1.59703  1.49694   
13
image # 20 Energy = -286.86506
C 1.58636   0.58345   -0.21007  
C 1.14256   -0.74151  -0.30333  
C -0.30339  -0.72326  -0.58842  
C -1.25890  0.52045   0.81962   
C -0.62035  0.83619   -0.55243  
N 0.67270   1.52419   -0.43517  
H 2.60853   0.86365   0.04323   
H 1.64221   -1.64790  0.03641   
H -0.71679  -1.34684  -1.38216  
H -1.71483  1.17584   1.56024   
H -1.26020  1.31922   -1.28932  
C -0.93527  -0.77098  0.79947   
H -0.85763  -1.59535  1.50947   
13
image # 21 Energy = -286.86639
C 1.59825   0.58627   -0.21532  
C 1.14713   -0.73967  -0.28444  
C -0.30177  -0.71818  -0.56835  
C -1.25363  0.52903   0.82982   
C -0.60491  0.83439   -0.53250  
N 0.68349   1.52642   -0.42417  
H 2.62636   0.86553   0.00151   
H 1.68065   -1.64839  -0.02351  
H -0.71738  -1.35256  -1.36659  
H -1.77745  1.16490   1.53760   
H -1.24880  1.31293   -1.28347  
C -0.91608  -0.76585  0.81698   
H -0.93020  -1.59742  1.51997   
13
image # 22 Energy = -286.86839
C 1.60872   0.59328   -0.22426  
C 1.15985   -0.74169  -0.29638  
C -0.29467  -0.72023  -0.55546  
C -1.26066  0.52859   0.83790   
C -0.59874  0.83299   -0.52303  
N 0.68828   1.52260   -0.41058  
H 2.63570   0.86989   -0.01739  
H 1.70854   -1.64528  -0.05537  
H -0.71251  -1.35202  -1.35341  
H -1.79692  1.16648   1.53146   
H -1.23966  1.30238   -1.28146  
C -0.93626  -0.76465  0.82933   
H -0.97520  -1.59400  1.52594   
13
image # 23 Energy = -286.87023
C 1.61492   0.58919   -0.23264  
C 1.17328   -0.74285  -0.30646  
C -0.28960  -0.72290  -0.53854  
C -1.26797  0.53625   0.83859   
C -0.59884  0.82864   -0.51324  
N 0.68843   1.52692   -0.39685  
H 2.64735   0.87725   -0.03294  
H 1.73362   -1.63948  -0.08470  
H -0.70658  -1.35262  -1.34238  
H -1.80829  1.17277   1.53172   
H -1.22872  1.28964   -1.27879  
C -0.95074  -0.76821  0.82856   
H -1.01940  -1.59531  1.53449   
13
image # 24 Energy = -286.87054
C 1.63074   0.59735   -0.23958  
C 1.17226   -0.72895  -0.31659  
C -0.28048  -0.72397  -0.52085  
C -1.27304  0.54059   0.83709   
C -0.58849  0.82211   -0.49504  
N 0.69420   1.52103   -0.38641  
H 2.65355   0.88158   -0.05483  
H 1.76705   -1.64592  -0.11963  
H -0.69750  -1.35389  -1.32540  
H -1.83019  1.17890   1.53069   
H -1.22246  1.27943   -1.27706  
C -0.96651  -0.77637  0.83848   
H -1.07029  -1.59154  1.53535   
13
image # 25 Energy = -286.87178
C 1.60202   0.59392   -0.24982  
C 1.18840   -0.71807  -0.30789  
C -0.28310  -0.72970  -0.51324  
C -1.27569  0.54877   0.84232   
C -0.57850  0.81652   -0.48153  
N 0.70871   1.51726   -0.37267  
H 2.67842   0.89394   -0.07597  
H 1.79461   -1.63996  -0.16391  
H -0.68529  -1.35623  -1.30723  
H -1.84343  1.18190   1.52645   
H -1.21159  1.26425   -1.27468  
C -0.97456  -0.77967  0.84703   
H -1.12985  -1.59188  1.53662   
13
image # 26 Energy = -286.87360
C 1.63255   0.59435   -0.24365  
C 1.20578   -0.72701  -0.32475  
C -0.26378  -0.73703  -0.48560  
C -1.28296  0.53809   0.85403   
C -0.58182  0.81859   -0.47963  
N 0.69776   1.52498   -0.36841  
H 2.67126   0.89538   -0.09174  
H 1.80854   -1.62826  -0.18986  
H -0.67990  -1.35962  -1.30177  
H -1.83871  1.18607   1.52471   
H -1.20201  1.25319   -1.27313  
C -1.00945  -0.76587  0.84824   
H -1.16496  -1.59147  1.53605   
13
image # 27 Energy = -286.87450
C 1.64226   0.60261   -0.25131  
C 1.22041   -0.73874  -0.32405  
C -0.26978  -0.74177  -0.48278  
C -1.29407  0.54195   0.85547   
C -0.57193  0.80996   -0.46582  
N 0.69390   1.52667   -0.35064  
H 2.67560   0.90446   -0.10892  
H 1.83236   -1.61373  -0.22272  
H -0.66712  -1.36288  -1.28936  
H -1.83239  1.19843   1.53085   
H -1.19209  1.23593   -1.27733  
C -1.02421  -0.77150  0.85515   
H -1.21817  -1.59035  1.53479   
13
image # 28 Energy = -286.87338
C 1.64651   0.60321   -0.25409  
C 1.22495   -0.73430  -0.33036  
C -0.25924  -0.74659  -0.46757  
C -1.30830  0.56833   0.86233   
C -0.57007  0.80617   -0.46218  
N 0.69186   1.52598   -0.33781  
H 2.67899   0.91196   -0.12334  
H 1.85424   -1.60801  -0.24786  
H -0.65893  -1.36636  -1.28070  
H -1.82231  1.20231   1.53115   
H -1.18148  1.22081   -1.27568  
C -1.04006  -0.79868  0.85824   
H -1.25889  -1.58421  1.52946   
13
image # 29 Energy = -286.87544
C 1.64946   0.60542   -0.26153  
C 1.23178   -0.73262  -0.33577  
C -0.25652  -0.74991  -0.45519  
C -1.31082  0.54142   0.85811   
C -0.56839  0.79968   -0.45331  
N 0.69116   1.52436   -0.32184  
H 2.68430   0.92133   -0.13650  
H 1.87854   -1.60095  -0.27329  
H -0.64892  -1.36980  -1.27200  
H -1.81527  1.21799   1.54133   
H -1.17038  1.20390   -1.27641  
C -1.06131  -0.77246  0.85517   
H -1.30362  -1.58836  1.53124   
