13   
From qcopt_rct.out: Frame 2 / 2, Energy=    -286.8365051348
C        1.5442260122    0.5858170099   -0.1648227007
C        0.8933928188   -0.7433281533    0.0274524181
C       -0.4116294351   -0.6568399607   -0.6947308194
C       -1.0190626743    0.6293213101    0.8813309350
C       -0.6034654431    0.9023794952   -0.5700925198
N        0.7480965927    1.5150152936   -0.5418434138
H        2.5985034105    0.7806894678    0.0288947196
H        1.4558011547   -1.6713749082    0.0632118031
H       -0.8124854917   -1.3478788806   -1.4307367237
H       -1.9839980831    0.8769962878    1.3090357089
H       -1.2898439338    1.4327961462   -1.2297459986
C       -0.4462241013   -0.7297048709    0.8396281663
H       -0.6733108267   -1.5738882364    1.4824184246
13   
From qcopt_prd.out: Frame 2 / 2, Energy=    -286.8754384525
C        1.6494487275    0.6054411519   -0.2615320750
C        1.2317930440   -0.7326055633   -0.3357574464
C       -0.2565087456   -0.7499215861   -0.4551801250
C       -1.3108294902    0.5414139655    0.8580944143
C       -0.5684004711    0.7996665876   -0.4533208391
N        0.6911363387    1.5243658134   -0.3218646161
H        2.6842795910    0.9213727104   -0.1365103474
H        1.8785702535   -1.6009209963   -0.2732544161
H       -0.6488940997   -1.3698362146   -1.2719798781
H       -1.8152971487    1.2179822822    1.5413063884
H       -1.1704008222    1.2038596386   -1.2764390577
C       -1.0613004182   -0.7724592818    0.8551761103
H       -1.3035967591   -1.5883585073    1.5312618878
