
Running Job 1 of 1 optimize.in
qchem optimize.in_18600.0 ./optimize.d/ 1
/home/leeping/opt/qchem/5.0.2-openmp/exe/qcprog.exe_s optimize.in_18600.0 ./optimize.d/
Check license passed

                  Welcome to Q-Chem
     A Quantum Leap Into The Future Of Chemistry


 Q-Chem 5.0, Q-Chem, Inc., Pleasanton, CA (2017)

 Yihan Shao,  Zhengting Gan,  E. Epifanovsky,  A. T. B. Gilbert,  M. Wormit,  
 J. Kussmann,  A. W. Lange,  A. Behn,  Jia Deng,  Xintian Feng,  D. Ghosh,  
 M. Goldey,  P. R. Horn,  L. D. Jacobson,  I. Kaliman,  T. Kus,  A. Landau,  
 Jie Liu,  E. I. Proynov,  R. M. Richard,  R. P. Steele,  E. J. Sundstrom,  
 H. L. Woodcock III,  P. M. Zimmerman,  D. Zuev,  B. Albrecht,  E. Alguire,  
 S. A. Baeppler,  D. Barton,  Z. Benda,  Y. A. Bernard,  E. J. Berquist,  
 K. B. Bravaya,  H. Burton,  D. Casanova,  Chun-Min Chang,  Yunqing Chen,  
 A. Chien,  K. D. Closser,  M. P. Coons,  S. Dasgupta,  A. L. Dempwolff,  
 M. Diedenhofen,  Hainam Do,  R. G. Edgar,  Po-Tung Fang,  S. Fatehi,  
 Qingguo Feng,  J. Fosso-Tande,  Qinghui Ge,  A. Ghysels,  G. Gidofalvi,  
 J. Gomes,  J. Gonthier,  A. Gunina,  M. W. D. Hanson-Heine,  
 P. H. P. Harbach,  A. W. Hauser,  J. E. Herr,  E. G. Hohenstein,  
 Z. C. Holden,  Kerwin Hui,  T.-C. Jagau,  Hyunjun Ji,  B. Kaduk,  
 K. Khistyaev,  Jaehoon Kim,  P. Klunzinger,  K. Koh,  D. Kosenkov,  
 L. Koulias,  T. Kowalczyk,  C. M. Krauter,  A. Kunitsa,  Ka Un Lao,  
 A. Laurent,  K. V. Lawler,  Joonho Lee,  D. Lefrancois,  S. Lehtola,  
 D. S. Levine,  Yi-Pei Li,  You-Sheng Lin,  Fenglai Liu,  E. Livshits,  
 A. Luenser,  P. Manohar,  E. Mansoor,  S. F. Manzer,  Shan-Ping Mao,  
 Yuezhi Mao,  N. Mardirossian,  A. V. Marenich,  T. Markovich,  
 L. A. Martinez-Martinez,  S. A. Maurer,  N. J. Mayhall,  S. C. McKenzie,  
 J.-M. Mewes,  A. F. Morrison,  J. W. Mullinax,  K. Nanda,  
 T. S. Nguyen-Beck,  R. Olivares-Amaya,  J. A. Parkhill,  T. M. Perrine,  
 F. Plasser,  S. Prager,  A. Prociuk,  E. Ramos,  D. R. Rehn,  F. Rob,  
 M. Schneider,  N. Sergueev,  S. M. Sharada,  S. Sharma,  D. W. Small,  
 T. Stauch,  T. Stein,  Yu-Chuan Su,  A. J. W. Thom,  A. Tkatchenko,  
 T. Tsuchimochi,  L. Vogt,  O. Vydrov,  M. A. Watson,  J. Wenzel,  
 M. de Wergifosse,  T. A. Wesolowski,  A. White,  J. Witte,  A. Yamada,  
 Jun Yang,  K. Yao,  S. Yeganeh,  S. R. Yost,  Zhi-Qiang You,  A. Zech,  
 Igor Ying Zhang,  Xing Zhang,  Yan Zhao,  Ying Zhu,  B. R. Brooks,  
 G. K. L. Chan,  C. J. Cramer,  M. S. Gordon,  W. J. Hehre,  A. Klamt,  
 M. W. Schmidt,  C. D. Sherrill,  D. G. Truhlar,  A. Aspuru-Guzik,  R. Baer,  
 A. T. Bell,  N. A. Besley,  Jeng-Da Chai,  R. A. DiStasio Jr.,  A. Dreuw,  
 B. D. Dunietz,  T. R. Furlani,  Chao-Ping Hsu,  Yousung Jung,  Jing Kong,  
 D. S. Lambrecht,  WanZhen Liang,  C. Ochsenfeld,  V. A. Rassolov,  
 L. V. Slipchenko,  J. E. Subotnik,  T. Van Voorhis,  J. M. Herbert,  
 A. I. Krylov,  P. M. W. Gill,  M. Head-Gordon

 Contributors to earlier versions of Q-Chem not listed above: 
 R. D. Adamson,  B. Austin,  J. Baker,  G. J. O. Beran,  K. Brandhorst,  
 S. T. Brown,  E. F. C. Byrd,  A. K. Chakraborty,  C.-L. Cheng,  
 Siu Hung Chien,  D. M. Chipman,  D. L. Crittenden,  H. Dachsel,  
 R. J. Doerksen,  A. D. Dutoi,  L. Fusti-Molnar,  W. A. Goddard III,  
 A. Golubeva-Zadorozhnaya,  S. R. Gwaltney,  G. Hawkins,  A. Heyden,  
 S. Hirata,  G. Kedziora,  F. J. Keil,  C. Kelley,  Jihan Kim,  R. A. King,  
 R. Z. Khaliullin,  P. P. Korambath,  W. Kurlancheek,  A. M. Lee,  M. S. Lee,  
 S. V. Levchenko,  Ching Yeh Lin,  D. Liotard,  R. C. Lochan,  I. Lotan,  
 P. E. Maslen,  N. Nair,  D. P. O'Neill,  D. Neuhauser,  E. Neuscamman,  
 C. M. Oana,  R. Olson,  B. Peters,  R. Peverati,  P. A. Pieniazek,  
 Y. M. Rhee,  J. Ritchie,  M. A. Rohrdanz,  E. Rosta,  N. J. Russ,  
 H. F. Schaefer III,  N. E. Schultz,  N. Shenvi,  A. C. Simmonett,  A. Sodt,  
 D. Stuck,  K. S. Thanthiriwatte,  V. Vanovschi,  Tao Wang,  A. Warshel,  
 C. F. Williams,  Q. Wu,  X. Xu,  W. Zhang

 Please cite Q-Chem as follows:
 Y. Shao et al., Mol. Phys. 113, 184-215 (2015)
 DOI: 10.1080/00268976.2014.952696

 Q-Chem 5.0.2 for Intel X86 EM64T Linux

 Parts of Q-Chem use Armadillo 5.200.1 (Boston Tea Smuggler).
 http://arma.sourceforge.net/

 Q-Chem begins on Wed Mar  2 12:43:01 2022  

Host: 
0

     Scratch files written to ./optimize.d//
 Dec517 15110_ 26548  26544 5633   
Processing $rem in /home/leeping/opt/qchem/5.0.2-openmp/config/preferences.
 MEM_STATIC 2000
 MEM_TOTAL  8000
 SYMMETRY   OFF
 SYM_IGNORE TRUE 

Checking the input file for inconsistencies... 	...done.

--------------------------------------------------------------
User input:
--------------------------------------------------------------
$molecule
0 2
C        1.5953634426    0.3477174267    0.4386172245
C        1.2099226352   -0.9556867766    0.1860617932
C       -0.0918997649   -1.4408740635   -0.1953800545
C       -1.3486149852    0.7292625838   -0.2462227673
C       -0.3744798668    1.6453504102    0.1029430103
N        0.9379269961    1.5301650247    0.4155429285
H        2.6452269771    0.4696487451    0.7144154812
H        1.9899443681   -1.7059729163    0.2906697537
H       -0.1716686725   -2.5157835074   -0.3450325069
H       -2.3347673097    1.1432683327   -0.4425845824
H       -0.7130837002    2.6830591646    0.1399434110
C       -1.2197927979   -0.6992142018   -0.3849399394
H       -2.1240773219   -1.2309402222   -0.6740337519
$end

$rem
method                b3lyp
basis                 6-31g(d)
unrestricted          true
symmetry              off
sym_ignore            true
incdft                false
incfock               0
scf_convergence       8
thresh                14
jobtype               opt
scf_guess             read
scf_algorithm         diis
max_scf_cycles        100
geom_opt_tol_gradient 600
geom_opt_tol_displacement 2400
geom_opt_tol_energy   200
geom_opt_max_cycles   100
$end

--------------------------------------------------------------
 ----------------------------------------------------------------
             Standard Nuclear Orientation (Angstroms)
    I     Atom           X                Y                Z
 ----------------------------------------------------------------
    1      C       1.5953634426     0.3477174267     0.4386172245
    2      C       1.2099226352    -0.9556867766     0.1860617932
    3      C      -0.0918997649    -1.4408740635    -0.1953800545
    4      C      -1.3486149852     0.7292625838    -0.2462227673
    5      C      -0.3744798668     1.6453504102     0.1029430103
    6      N       0.9379269961     1.5301650247     0.4155429285
    7      H       2.6452269771     0.4696487451     0.7144154812
    8      H       1.9899443681    -1.7059729163     0.2906697537
    9      H      -0.1716686725    -2.5157835074    -0.3450325069
   10      H      -2.3347673097     1.1432683327    -0.4425845824
   11      H      -0.7130837002     2.6830591646     0.1399434110
   12      C      -1.2197927979    -0.6992142018    -0.3849399394
   13      H      -2.1240773219    -1.2309402222    -0.6740337519
 ----------------------------------------------------------------
 Nuclear Repulsion Energy =   260.7206747907 hartrees
 There are       25 alpha and       24 beta electrons
 Requested basis set is 6-31G(d)
 There are 40 shells and 117 basis functions

 Total QAlloc Memory Limit   8000 MB
 Mega-Array Size      1956 MB
 MEM_STATIC part      2000 MB
 A cutoff of  1.0D-14 yielded    791 shell pairs
 There are      7063 function pairs
 
 -------------------------------------------------------
 OpenMP Integral Computing Module                       
 Release: version 1.0, May 2013, Q-Chem Inc. Pittsburgh 
 -------------------------------------------------------
 Integral Job Info:
 Integral job number is                      11
 Integral operator is                         1
 short-range coefficients                     0
 long-range coefficients              100000000
 Omega coefficients                           0
 if combine SR and LR in K                    0
 Integral screening is                        0
 Integral computing path is                   2
 max size of driver memory is            800000
 size of driver memory is                593474
 size of scratch memory is              2361544
 max col of scratch BK array               1296
 max len of scratch array in speh3          155
 max len of scratch index in speh4           18
 max int batch size is                      520
 min int batch size is                       52
 fixed nKL is                                52
 max L of basis functions is                  2
 order of int derivative is                   0
 number of shells is                         40
 number of basis is                         117
 number of cartesian basis is               117
 number of contracted shell pairs           791
 number of primitive shell pairs           3395
 maxK2 (contraction) of shell pair           36
 max number of K2 of shell pair               1
 max number of CS2 of shell pair             94
 max number of PS2 of shell pair            402
 mem total for path MDJ                  535308
 -------------------------------------------------------
 Smallest overlap matrix eigenvalue = 1.33E-03

 Scale SEOQF with 1.000000e-01/1.000000e-01/1.000000e+00

 Standard Electronic Orientation quadrupole field applied
 Nucleus-field energy     =     0.0000000022 hartrees
 Guess MOs from SCF MO coefficient file
 Reading MOs from coefficient file
 Reading MOs from coefficient file
 An unrestricted hybrid HF-DFT SCF calculation will be
 performed using Pulay DIIS extrapolation
 Exchange:     0.2000 Hartree-Fock + 0.0800 Slater + 0.7200 B88
 Correlation:  0.1900 VWN1RPA + 0.8100 LYP
 Using SG-1 standard quadrature grid
 SCF converges when DIIS error is below 1.0E-08
Using Q-Chem read-in guess as SCF_GUESS READ specified.

 using 4 threads for integral computing
 -------------------------------------------------------
 OpenMP Integral computing Module                
 Release: version 1.0, May 2013, Q-Chem Inc. Pittsburgh 
 -------------------------------------------------------
 -------------------------------------------------------
 OpenMP BLAS3 based DFT computing Module                
 Release: version 1.0, May 2013, Q-Chem Inc. Pittsburgh 
 -------------------------------------------------------
 ---------------------------------------
  Cycle       Energy         DIIS Error
 ---------------------------------------
    1    -286.9243498978      6.57E-10
    2    -286.9243498978      9.44E-10 Convergence criterion met
 ---------------------------------------
 <S^2> = 0.7684
 SCF time:  CPU 5.11 s  wall 1.83 s
 SCF   energy in the final basis set = -286.92434990
 Total energy in the final basis set = -286.92434990
 
 --------------------------------------------------------------
 
                    Orbital Energies (a.u.)
 --------------------------------------------------------------
 
 Alpha MOs
 -- Occupied --
-14.322 -10.232 -10.232 -10.212 -10.211 -10.201 -10.200  -0.922
 -0.818  -0.784  -0.693  -0.667  -0.551  -0.537  -0.518  -0.449
 -0.439  -0.414  -0.394  -0.386  -0.349  -0.322  -0.299  -0.251
 -0.161
 -- Virtual --
 -0.072   0.077   0.097   0.101   0.117   0.142   0.181   0.184
  0.193   0.213   0.266   0.320   0.356   0.390   0.412   0.483
  0.497   0.521   0.547   0.576   0.584   0.587   0.591   0.610
  0.619   0.624   0.646   0.658   0.714   0.718   0.833   0.840
  0.847   0.854   0.868   0.872   0.885   0.922   0.965   0.975
  1.024   1.027   1.043   1.127   1.177   1.185   1.300   1.303
  1.326   1.401   1.429   1.480   1.482   1.546   1.574   1.586
  1.682   1.732   1.769   1.829   1.850   1.919   1.925   2.030
  2.046   2.048   2.100   2.141   2.141   2.191   2.247   2.391
  2.410   2.414   2.446   2.545   2.576   2.601   2.614   2.739
  2.749   2.807   3.052   3.250   3.250   4.018   4.046   4.102
  4.196   4.239   4.532   4.595
 
 Beta MOs
 -- Occupied --
-14.314 -10.233 -10.233 -10.210 -10.210 -10.196 -10.196  -0.911
 -0.809  -0.777  -0.681  -0.665  -0.546  -0.535  -0.514  -0.447
 -0.438  -0.411  -0.383  -0.373  -0.348  -0.295  -0.276  -0.241
 -- Virtual --
 -0.078  -0.070   0.078   0.118   0.124   0.125   0.142   0.182
  0.187   0.196   0.219   0.268   0.324   0.360   0.393   0.415
  0.486   0.505   0.525   0.551   0.587   0.588   0.592   0.596
  0.614   0.623   0.629   0.649   0.676   0.716   0.729   0.834
  0.843   0.846   0.869   0.875   0.880   0.887   0.925   0.967
  0.979   1.026   1.030   1.045   1.133   1.180   1.189   1.311
  1.315   1.333   1.411   1.429   1.489   1.492   1.560   1.582
  1.597   1.685   1.737   1.781   1.831   1.853   1.922   1.933
  2.036   2.058   2.061   2.110   2.141   2.146   2.203   2.259
  2.399   2.422   2.425   2.449   2.558   2.578   2.611   2.624
  2.743   2.761   2.810   3.054   3.253   3.253   4.030   4.053
  4.109   4.200   4.239   4.537   4.601
 --------------------------------------------------------------
 
          Ground-State Mulliken Net Atomic Charges

     Atom                 Charge (a.u.)    Spin (a.u.)
  --------------------------------------------------------
      1 C                     0.035686      -0.113771
      2 C                    -0.131550       0.348875
      3 C                    -0.111217       0.091360
      4 C                    -0.131242       0.345162
      5 C                     0.035358      -0.111472
      6 N                    -0.423394       0.386837
      7 H                     0.142641       0.003459
      8 H                     0.134359      -0.018419
      9 H                     0.141926      -0.006524
     10 H                     0.134313      -0.018249
     11 H                     0.142675       0.003345
     12 C                    -0.111562       0.096148
     13 H                     0.142007      -0.006751
  --------------------------------------------------------
  Sum of atomic charges =    -0.000000
  Sum of spin   charges =     1.000000

 -----------------------------------------------------------------
                    Cartesian Multipole Moments
 -----------------------------------------------------------------
    Charge (ESU x 10^10)
                -0.0000
    Dipole Moment (Debye)
         X      -1.1411      Y      -1.8630      Z      -0.5075
       Tot       2.2429
    Quadrupole Moments (Debye-Ang)
        XX     -36.8948     XY      -3.6620     YY     -39.9718
        XZ       1.1746     YZ      -0.5058     ZZ     -43.1286
    Octopole Moments (Debye-Ang^2)
       XXX      -9.9751    XXY      -9.5855    XYY     -12.1404
       YYY     -26.2539    XXZ      -2.1053    XYZ      -2.2135
       YYZ      -4.9861    XZZ      -3.5123    YZZ      -5.9937
       ZZZ      -4.3462
    Hexadecapole Moments (Debye-Ang^3)
      XXXX    -357.2137   XXXY      -1.4462   XXYY    -134.4835
      XYYY     -19.2794   YYYY    -396.0876   XXXZ     -31.0478
      XXYZ      -8.1140   XYYZ     -16.1625   YYYZ     -23.3025
      XXZZ     -78.5704   XYZZ       1.6581   YYZZ     -85.4188
      XZZZ     -45.3502   YZZZ     -22.2693   ZZZZ     -71.5708
 -----------------------------------------------------------------
 Calculating analytic gradient of the SCF energy
 Gradient of SCF Energy
            1           2           3           4           5           6
    1  -0.0000910   0.0001390   0.0001052   0.0000568  -0.0000690   0.0001490
    2   0.0001399  -0.0000082   0.0000416  -0.0000031   0.0002455  -0.0002441
    3   0.0000034  -0.0000031  -0.0000002   0.0000599   0.0000550  -0.0000287
            7           8           9          10          11          12
    1   0.0000011  -0.0000438   0.0000017  -0.0000198   0.0000406  -0.0002609
    2   0.0000006  -0.0000281   0.0000166  -0.0000122  -0.0000133  -0.0001584
    3   0.0000037   0.0000230  -0.0000174  -0.0000434  -0.0000334   0.0000480
           13
    1  -0.0000089
    2   0.0000232
    3  -0.0000669
 Max gradient component =       2.609E-04
 RMS gradient           =       9.161E-05
 Gradient time:  CPU 7.61 s  wall 2.09 s
 Geometry Optimization Parameters
   NAtoms,    NIC,     NZ,  NCons,   NDum,   NFix, NCnnct, MaxDiis
       13      82       0       0       0       0       0       0


** GEOMETRY OPTIMIZATION IN DELOCALIZED INTERNAL COORDINATES **
   Searching for a Minimum

   Optimization Cycle:   1

                       Coordinates (Angstroms)
     ATOM                X               Y               Z
      1  C         1.5953634426    0.3477174267    0.4386172245
      2  C         1.2099226352   -0.9556867766    0.1860617932
      3  C        -0.0918997649   -1.4408740635   -0.1953800545
      4  C        -1.3486149852    0.7292625838   -0.2462227673
      5  C        -0.3744798668    1.6453504102    0.1029430103
      6  N         0.9379269961    1.5301650247    0.4155429285
      7  H         2.6452269771    0.4696487451    0.7144154812
      8  H         1.9899443681   -1.7059729163    0.2906697537
      9  H        -0.1716686725   -2.5157835074   -0.3450325069
     10  H        -2.3347673097    1.1432683327   -0.4425845824
     11  H        -0.7130837002    2.6830591646    0.1399434110
     12  C        -1.2197927979   -0.6992142018   -0.3849399394
     13  H        -2.1240773219   -1.2309402222   -0.6740337519
   Point Group: c1    Number of degrees of freedom:    33


   Energy is   -286.924349898


 Attempting to Generate Delocalized Internal Coordinates

 33 Hessian modes will be used to form the next step
  Hessian Eigenvalues:
     0.018548    0.019878    0.020877    0.021833    0.022018    0.022683
     0.023098    0.023791    0.024010    0.025332    0.159999    0.160000
     0.160000    0.160000    0.160000    0.160000    0.220000    0.220000
     0.220000    0.233949    0.345468    0.345617    0.350209    0.350290
     0.351140    0.351220    0.382483    0.389566    0.467066    0.484514
     0.506852    0.534038    0.538683

 Minimum Search - Taking Simple RFO Step
 Searching for Lamda that Minimizes Along All modes
 Value Taken    Lamda =  -0.00000103
 Step Taken.  Stepsize is  0.005366

                             Maximum     Tolerance    Cnvgd?
         Gradient           0.000142      0.000600     YES
         Displacement       0.003054      0.002400      NO
         Energy change     *********      0.000002      NO


 New Cartesian Coordinates Obtained by Inverse Iteration

 Displacement from previous Coordinates is:  0.004450
 ----------------------------------------------------------------
             Standard Nuclear Orientation (Angstroms)
    I     Atom           X                Y                Z
 ----------------------------------------------------------------
    1      C       1.5953155496     0.3477177795     0.4385640753
    2      C       1.2097611176    -0.9556693691     0.1859891990
    3      C      -0.0919509526    -1.4409605500    -0.1954368234
    4      C      -1.3483283787     0.7293698579    -0.2472354634
    5      C      -0.3743724391     1.6451857148     0.1025696355
    6      N       0.9378288038     1.5303270601     0.4157697953
    7      H       2.6451874724     0.4694992997     0.7143865479
    8      H       1.9900469550    -1.7057417101     0.2903215260
    9      H      -0.1720895274    -2.5159998530    -0.3441110610
   10      H      -2.3346214820     1.1434292783    -0.4425944428
   11      H      -0.7135512296     2.6826988382     0.1409379000
   12      C      -1.2193138397    -0.6989513690    -0.3857749158
   13      H      -2.1239120493    -1.2309049772    -0.6733859726
 ----------------------------------------------------------------
 Nuclear Repulsion Energy =   260.7304097878 hartrees
 There are       25 alpha and       24 beta electrons
 Applying Cartesian multipole field
    Component          Value
    ---------          -----
     (2,0,0)        1.00000E-11
     (0,2,0)        2.00000E-11
     (0,0,2)       -3.00000E-10
 Nucleus-field energy     =     0.0000000022 hartrees
 Requested basis set is 6-31G(d)
 There are 40 shells and 117 basis functions
 A cutoff of  1.0D-14 yielded    791 shell pairs
 There are      7063 function pairs
 Smallest overlap matrix eigenvalue = 1.33E-03
 Guess MOs from SCF MO coefficient file
 Reading MOs from coefficient file
 Reading MOs from coefficient file
 An unrestricted hybrid HF-DFT SCF calculation will be
 performed using Pulay DIIS extrapolation
 Exchange:     0.2000 Hartree-Fock + 0.0800 Slater + 0.7200 B88
 Correlation:  0.1900 VWN1RPA + 0.8100 LYP
 Using SG-1 standard quadrature grid
 SCF converges when DIIS error is below 1.0E-08
 Geometry optimization detected.  Setting ReadMinima to 0
 Setting SaveMinima to 0
Using Q-Chem read-in guess as SCF_GUESS READ specified.

 using 4 threads for integral computing
 -------------------------------------------------------
 OpenMP Integral computing Module                
 Release: version 1.0, May 2013, Q-Chem Inc. Pittsburgh 
 -------------------------------------------------------
 -------------------------------------------------------
 OpenMP BLAS3 based DFT computing Module                
 Release: version 1.0, May 2013, Q-Chem Inc. Pittsburgh 
 -------------------------------------------------------
 ---------------------------------------
  Cycle       Energy         DIIS Error
 ---------------------------------------
    1    -286.9245435152      2.76E-05
    2    -286.9243503666      5.46E-06
    3    -286.9243502596      9.37E-06
    4    -286.9243504483      1.34E-06
    5    -286.9243504522      5.73E-07
    6    -286.9243504537      2.23E-07
    7    -286.9243504544      1.43E-07
    8    -286.9243504548      7.64E-08
    9    -286.9243504551      6.88E-08
   10    -286.9243504554      2.78E-08
   11    -286.9243504555      1.22E-08
   12    -286.9243504555      1.00E-08
   13    -286.9243504555      1.87E-09 Convergence criterion met
 ---------------------------------------
 <S^2> = 0.7684
 SCF time:  CPU 33.02 s  wall 18.75 s
 SCF   energy in the final basis set = -286.92435046
 Total energy in the final basis set = -286.92435046
 
 --------------------------------------------------------------
 
                    Orbital Energies (a.u.)
 --------------------------------------------------------------
 
 Alpha MOs
 -- Occupied --
-14.322 -10.232 -10.232 -10.212 -10.211 -10.201 -10.200  -0.922
 -0.818  -0.784  -0.693  -0.667  -0.551  -0.537  -0.518  -0.449
 -0.439  -0.414  -0.394  -0.386  -0.349  -0.322  -0.299  -0.251
 -0.161
 -- Virtual --
 -0.072   0.077   0.097   0.101   0.117   0.142   0.181   0.184
  0.193   0.213   0.266   0.320   0.356   0.390   0.412   0.483
  0.496   0.521   0.547   0.576   0.584   0.587   0.591   0.610
  0.619   0.624   0.646   0.658   0.714   0.718   0.833   0.840
  0.847   0.854   0.868   0.872   0.885   0.922   0.965   0.975
  1.024   1.027   1.043   1.127   1.177   1.185   1.300   1.303
  1.326   1.401   1.429   1.480   1.482   1.546   1.574   1.586
  1.682   1.732   1.769   1.829   1.850   1.919   1.925   2.030
  2.046   2.048   2.100   2.141   2.141   2.191   2.247   2.391
  2.410   2.414   2.446   2.545   2.577   2.601   2.614   2.739
  2.749   2.807   3.052   3.250   3.250   4.018   4.046   4.102
  4.196   4.239   4.532   4.595
 
 Beta MOs
 -- Occupied --
-14.314 -10.233 -10.233 -10.210 -10.210 -10.196 -10.196  -0.911
 -0.809  -0.777  -0.681  -0.665  -0.546  -0.535  -0.514  -0.447
 -0.438  -0.411  -0.383  -0.373  -0.348  -0.295  -0.276  -0.241
 -- Virtual --
 -0.078  -0.070   0.078   0.118   0.124   0.125   0.142   0.182
  0.187   0.196   0.219   0.268   0.324   0.360   0.393   0.415
  0.486   0.505   0.525   0.551   0.587   0.588   0.592   0.596
  0.614   0.624   0.629   0.649   0.676   0.716   0.729   0.834
  0.843   0.846   0.869   0.875   0.880   0.887   0.925   0.967
  0.979   1.026   1.030   1.045   1.133   1.180   1.189   1.311
  1.315   1.333   1.411   1.429   1.489   1.492   1.560   1.582
  1.597   1.685   1.737   1.781   1.831   1.853   1.922   1.933
  2.036   2.058   2.061   2.110   2.141   2.147   2.203   2.259
  2.399   2.422   2.426   2.448   2.558   2.579   2.611   2.624
  2.743   2.761   2.810   3.054   3.253   3.254   4.030   4.053
  4.109   4.200   4.239   4.537   4.601
 --------------------------------------------------------------
 
          Ground-State Mulliken Net Atomic Charges

     Atom                 Charge (a.u.)    Spin (a.u.)
  --------------------------------------------------------
      1 C                     0.035600      -0.113521
      2 C                    -0.131529       0.348508
      3 C                    -0.111222       0.091824
      4 C                    -0.131208       0.345381
      5 C                     0.035393      -0.111647
      6 N                    -0.423397       0.386914
      7 H                     0.142648       0.003446
      8 H                     0.134346      -0.018403
      9 H                     0.141949      -0.006546
     10 H                     0.134346      -0.018259
     11 H                     0.142616       0.003354
     12 C                    -0.111504       0.095678
     13 H                     0.141962      -0.006728
  --------------------------------------------------------
  Sum of atomic charges =     0.000000
  Sum of spin   charges =     1.000000

 -----------------------------------------------------------------
                    Cartesian Multipole Moments
 -----------------------------------------------------------------
    Charge (ESU x 10^10)
                 0.0000
    Dipole Moment (Debye)
         X      -1.1415      Y      -1.8638      Z      -0.5062
       Tot       2.2434
    Quadrupole Moments (Debye-Ang)
        XX     -36.8924     XY      -3.6619     YY     -39.9741
        XZ       1.1696     YZ      -0.5076     ZZ     -43.1307
    Octopole Moments (Debye-Ang^2)
       XXX      -9.9827    XXY      -9.5832    XYY     -12.1471
       YYY     -26.2735    XXZ      -2.0892    XYZ      -2.2145
       YYZ      -4.9703    XZZ      -3.5142    YZZ      -5.9946
       ZZZ      -4.3140
    Hexadecapole Moments (Debye-Ang^3)
      XXXX    -357.1100   XXXY      -1.4511   XXYY    -134.4603
      XYYY     -19.2684   YYYY    -396.1116   XXXZ     -31.0961
      XXYZ      -8.1135   XYYZ     -16.1874   YYYZ     -23.3016
      XXZZ     -78.5674   XYZZ       1.6550   YYZZ     -85.4309
      XZZZ     -45.3871   YZZZ     -22.2675   ZZZZ     -71.6079
 -----------------------------------------------------------------
 Calculating analytic gradient of the SCF energy
 Gradient of SCF Energy
            1           2           3           4           5           6
    1  -0.0000496   0.0000012   0.0000086   0.0000702  -0.0000707   0.0000749
    2   0.0001266  -0.0000578   0.0000646   0.0000554   0.0000196  -0.0001166
    3   0.0000231   0.0000076  -0.0000082   0.0000553  -0.0000916   0.0000077
            7           8           9          10          11          12
    1   0.0000092  -0.0000217  -0.0000051  -0.0000081   0.0000098  -0.0000267
    2  -0.0000102  -0.0000138  -0.0000077   0.0000056  -0.0000131  -0.0000695
    3   0.0000034   0.0000057  -0.0000084   0.0000071   0.0000114  -0.0000179
           13
    1   0.0000080
    2   0.0000171
    3   0.0000049
 Max gradient component =       1.266E-04
 RMS gradient           =       4.491E-05
 Gradient time:  CPU 7.22 s  wall 2.16 s
 Geometry Optimization Parameters
   NAtoms,    NIC,     NZ,  NCons,   NDum,   NFix, NCnnct, MaxDiis
       13      82       0       0       0       0       0       0

 Cartesian Hessian Update
 Hessian Updated using BFGS Update


** GEOMETRY OPTIMIZATION IN DELOCALIZED INTERNAL COORDINATES **
   Searching for a Minimum

   Optimization Cycle:   2

                       Coordinates (Angstroms)
     ATOM                X               Y               Z
      1  C         1.5953155496    0.3477177795    0.4385640753
      2  C         1.2097611176   -0.9556693691    0.1859891990
      3  C        -0.0919509526   -1.4409605500   -0.1954368234
      4  C        -1.3483283787    0.7293698579   -0.2472354634
      5  C        -0.3743724391    1.6451857148    0.1025696355
      6  N         0.9378288038    1.5303270601    0.4157697953
      7  H         2.6451874724    0.4694992997    0.7143865479
      8  H         1.9900469550   -1.7057417101    0.2903215260
      9  H        -0.1720895274   -2.5159998530   -0.3441110610
     10  H        -2.3346214820    1.1434292783   -0.4425944428
     11  H        -0.7135512296    2.6826988382    0.1409379000
     12  C        -1.2193138397   -0.6989513690   -0.3857749158
     13  H        -2.1239120493   -1.2309049772   -0.6733859726
   Point Group: c1    Number of degrees of freedom:    33


   Energy is   -286.924350456

 Hessian Updated using BFGS Update

 28 Hessian modes will be used to form the next step
  Hessian Eigenvalues:
     0.014952    0.019853    0.020774    0.021812    0.022048    0.022345
     0.023452    0.023937    0.024499    0.031099    0.155797    0.160576
     0.202627    0.220159    0.231771    0.344892    0.345521    0.350219
     0.350717    0.351156    0.351240    0.378228    0.388656    0.478370
     0.489051    0.500152    0.528691    0.547763

 Minimum Search - Taking Simple RFO Step
 Searching for Lamda that Minimizes Along All modes
 Value Taken    Lamda =   0.00000000
 Step Taken.  Stepsize is  0.002867

                             Maximum     Tolerance    Cnvgd?
         Gradient           0.000082      0.000600     YES
         Displacement       0.001946      0.002400     YES
         Energy change     -0.000001      0.000002     YES


                       Distance Matrix (Angstroms)
             C (  1)   C (  2)   C (  3)   C (  4)   C (  5)   N (  6)
   C (  2)  1.382485
   C (  3)  2.539330  1.440641
   C (  4)  3.046476  3.093681  2.508287
   C (  5)  2.382433  3.046455  3.113337  1.381909
   N (  6)  1.353282  2.511359  3.203525  2.511498  1.353942
   H (  7)  1.092309  2.090636  3.459706  4.115874  3.297620  2.032142
   H (  8)  2.096303  1.087354  2.154248  4.166952  4.105416  3.405149
   H (  9)  3.455022  2.150616  1.088226  3.453310  4.189977  4.264047
   H ( 10)  4.105363  4.167011  3.430704  1.087375  2.095600  3.405203
   H ( 11)  3.297208  4.115687  4.183790  2.090243  1.092222  2.032375
   C ( 12)  3.114031  2.508630  1.362994  1.440812  2.539170  3.203970
   H ( 13)  4.190601  3.453644  2.097957  2.150770  3.454692  4.264378
             H (  7)   H (  8)   H (  9)   H ( 10)   H ( 11)   C ( 12)
   H (  8)  2.310998
   H (  9)  4.239183  2.394547
   H ( 10)  5.156674  5.230459  4.251784
   H ( 11)  4.063031  5.156566  5.249278  2.310353
   C ( 12)  4.184496  3.430850  2.097637  2.154415  3.459593
   H ( 13)  5.249914  4.251924  2.359979  2.394812  4.238931  1.088114

 
 Final energy is   -286.924350455531     


 ******************************
 **  OPTIMIZATION CONVERGED  **
 ******************************

                       Coordinates (Angstroms)
     ATOM                X               Y               Z
      1  C         1.5953155496    0.3477177795    0.4385640753
      2  C         1.2097611176   -0.9556693691    0.1859891990
      3  C        -0.0919509526   -1.4409605500   -0.1954368234
      4  C        -1.3483283787    0.7293698579   -0.2472354634
      5  C        -0.3743724391    1.6451857148    0.1025696355
      6  N         0.9378288038    1.5303270601    0.4157697953
      7  H         2.6451874724    0.4694992997    0.7143865479
      8  H         1.9900469550   -1.7057417101    0.2903215260
      9  H        -0.1720895274   -2.5159998530   -0.3441110610
     10  H        -2.3346214820    1.1434292783   -0.4425944428
     11  H        -0.7135512296    2.6826988382    0.1409379000
     12  C        -1.2193138397   -0.6989513690   -0.3857749158
     13  H        -2.1239120493   -1.2309049772   -0.6733859726

Z-matrix Print:
$molecule
0 2
N 
C  1 1.353282
H  2 1.092309 1 111.949822
C  1 1.353942 2 123.291443 3 179.986906 0
H  4 1.092222 1 111.926945 2 -179.954500 0
C  4 1.381909 1 133.266886 2 0.110608 0
H  6 1.087375 4 115.619718 1 179.907688 0
C  2 1.382485 1 133.260089 3 -179.925039 0
H  8 1.087354 2 115.638335 1 179.944107 0
C  8 1.440641 2 128.166310 1 -0.112661 0
H  10 1.088226 8 115.816319 2 -179.964698 0
C  10 1.362994 8 126.937759 2 -0.004098 0
H  12 1.088114 10 117.283444 8 -179.948241 0
$end

 
 --------------------------------------------------------------
 
                    Orbital Energies (a.u.)
 --------------------------------------------------------------
 
 Alpha MOs
 -- Occupied --
-14.322 -10.232 -10.232 -10.212 -10.211 -10.201 -10.200  -0.922
 -0.818  -0.784  -0.693  -0.667  -0.551  -0.537  -0.518  -0.449
 -0.439  -0.414  -0.394  -0.386  -0.349  -0.322  -0.299  -0.251
 -0.161
 -- Virtual --
 -0.072   0.077   0.097   0.101   0.117   0.142   0.181   0.184
  0.193   0.213   0.266   0.320   0.356   0.390   0.412   0.483
  0.496   0.521   0.547   0.576   0.584   0.587   0.591   0.610
  0.619   0.624   0.646   0.658   0.714   0.718   0.833   0.840
  0.847   0.854   0.868   0.872   0.885   0.922   0.965   0.975
  1.024   1.027   1.043   1.127   1.177   1.185   1.300   1.303
  1.326   1.401   1.429   1.480   1.482   1.546   1.574   1.586
  1.682   1.732   1.769   1.829   1.850   1.919   1.925   2.030
  2.046   2.048   2.100   2.141   2.141   2.191   2.247   2.391
  2.410   2.414   2.446   2.545   2.577   2.601   2.614   2.739
  2.749   2.807   3.052   3.250   3.250   4.018   4.046   4.102
  4.196   4.239   4.532   4.595
 
 Beta MOs
 -- Occupied --
-14.314 -10.233 -10.233 -10.210 -10.210 -10.196 -10.196  -0.911
 -0.809  -0.777  -0.681  -0.665  -0.546  -0.535  -0.514  -0.447
 -0.438  -0.411  -0.383  -0.373  -0.348  -0.295  -0.276  -0.241
 -- Virtual --
 -0.078  -0.070   0.078   0.118   0.124   0.125   0.142   0.182
  0.187   0.196   0.219   0.268   0.324   0.360   0.393   0.415
  0.486   0.505   0.525   0.551   0.587   0.588   0.592   0.596
  0.614   0.624   0.629   0.649   0.676   0.716   0.729   0.834
  0.843   0.846   0.869   0.875   0.880   0.887   0.925   0.967
  0.979   1.026   1.030   1.045   1.133   1.180   1.189   1.311
  1.315   1.333   1.411   1.429   1.489   1.492   1.560   1.582
  1.597   1.685   1.737   1.781   1.831   1.853   1.922   1.933
  2.036   2.058   2.061   2.110   2.141   2.147   2.203   2.259
  2.399   2.422   2.426   2.448   2.558   2.579   2.611   2.624
  2.743   2.761   2.810   3.054   3.253   3.254   4.030   4.053
  4.109   4.200   4.239   4.537   4.601
 --------------------------------------------------------------
 
          Ground-State Mulliken Net Atomic Charges

     Atom                 Charge (a.u.)    Spin (a.u.)
  --------------------------------------------------------
      1 C                     0.035600      -0.113521
      2 C                    -0.131529       0.348508
      3 C                    -0.111222       0.091824
      4 C                    -0.131208       0.345381
      5 C                     0.035393      -0.111647
      6 N                    -0.423397       0.386914
      7 H                     0.142648       0.003446
      8 H                     0.134346      -0.018403
      9 H                     0.141949      -0.006546
     10 H                     0.134346      -0.018259
     11 H                     0.142616       0.003354
     12 C                    -0.111504       0.095678
     13 H                     0.141962      -0.006728
  --------------------------------------------------------
  Sum of atomic charges =     0.000000
  Sum of spin   charges =     1.000000

 -----------------------------------------------------------------
                    Cartesian Multipole Moments
 -----------------------------------------------------------------
    Charge (ESU x 10^10)
                 0.0000
    Dipole Moment (Debye)
         X      -1.1415      Y      -1.8638      Z      -0.5062
       Tot       2.2434
    Quadrupole Moments (Debye-Ang)
        XX     -36.8924     XY      -3.6619     YY     -39.9741
        XZ       1.1696     YZ      -0.5076     ZZ     -43.1307
    Octopole Moments (Debye-Ang^2)
       XXX      -9.9827    XXY      -9.5832    XYY     -12.1471
       YYY     -26.2735    XXZ      -2.0892    XYZ      -2.2145
       YYZ      -4.9703    XZZ      -3.5142    YZZ      -5.9946
       ZZZ      -4.3140
    Hexadecapole Moments (Debye-Ang^3)
      XXXX    -357.1100   XXXY      -1.4511   XXYY    -134.4603
      XYYY     -19.2684   YYYY    -396.1116   XXXZ     -31.0961
      XXYZ      -8.1135   XYYZ     -16.1874   YYYZ     -23.3016
      XXZZ     -78.5674   XYZZ       1.6550   YYZZ     -85.4309
      XZZZ     -45.3871   YZZZ     -22.2675   ZZZZ     -71.6079
 -----------------------------------------------------------------
Archival summary:
1\1\c8-85\OPT\ProcedureUnspecified\6-31G*\166(2)\hpark21\WedMar212:43:332022WedMar212:43:332022\0\\#,OPT,ProcedureUnspecified,6-31G*,\\0,2\N\C,1,1.35328\H,2,1.09231,1,111.95\C,1,1.35394,2,123.291,3,179.987,0\H,4,1.09222,1,111.927,2,-179.954,0\C,4,1.38191,1,133.267,2,0.110608,0\H,6,1.08738,4,115.62,1,179.908,0\C,2,1.38248,1,133.26,3,-179.925,0\H,8,1.08735,2,115.638,1,179.944,0\C,8,1.44064,2,128.166,1,-0.112661,0\H,10,1.08823,8,115.816,2,-179.965,0\C,10,1.36299,8,126.938,2,-0.00409762,0\H,12,1.08811,10,117.283,8,-179.948,0\\\@

 Total job time:  32.70s(wall), 56.43s(cpu) 
 Wed Mar  2 12:43:33 2022

        *************************************************************
        *                                                           *
        *  Thank you very much for using Q-Chem.  Have a nice day.  *
        *                                                           *
        *************************************************************


