13   
From optimize.out: Frame 1 / 2, Energy=    -286.9243498978
C        0.0356860000   -0.1137710000    0.0000000000
C       -0.1315500000    0.3488750000    0.0000000000
C       -0.1112170000    0.0913600000   -0.0000000000
C       -0.1312420000    0.3451620000   -0.0000000000
C        0.0353580000   -0.1114720000    0.0000000000
N       -0.4233940000    0.3868370000    0.0000000000
H        0.1426410000    0.0034590000    0.0000000000
H        0.1343590000   -0.0184190000    0.0000000000
H        0.1419260000   -0.0065240000   -0.0000000000
H        0.1343130000   -0.0182490000   -0.0000000000
H        0.1426750000    0.0033450000    0.0000000000
C       -0.1115620000    0.0961480000   -0.0000000000
H        0.1420070000   -0.0067510000   -0.0000000000
