13   
Frame   0 IRC: Energy =  -286.9462030877 ; +0.0000 kcal/mol
C       -0.2352180000   -0.1138530000   -0.0000000000
C       -0.1655420000    0.0797450000   -0.0000000000
C       -0.1642750000    0.0774330000    0.0000000000
C        0.1002820000    0.3711890000    0.0000000000
C       -0.2344800000   -0.1149550000    0.0000000000
N       -0.1763940000    0.3753720000    0.0000000000
H        0.1269850000    0.0032670000   -0.0000000000
H        0.1327430000   -0.0068050000   -0.0000000000
H        0.1327190000   -0.0067100000    0.0000000000
H        0.1274140000   -0.0187140000    0.0000000000
H        0.1270200000    0.0033170000    0.0000000000
C        0.1013640000    0.3693500000   -0.0000000000
H        0.1273840000   -0.0186360000   -0.0000000000
13   
Frame   1 IRC: Energy =  -286.9462026443 ; +0.0003 kcal/mol
C       -0.2351870000   -0.1139690000   -0.0000000000
C       -0.1654930000    0.0794280000   -0.0000000000
C       -0.1642960000    0.0778090000    0.0000000000
C        0.1002680000    0.3709760000    0.0000000000
C       -0.2345290000   -0.1147990000    0.0000000000
N       -0.1763410000    0.3752710000    0.0000000000
H        0.1269760000    0.0032730000   -0.0000000000
H        0.1327450000   -0.0067920000   -0.0000000000
H        0.1327180000   -0.0067270000    0.0000000000
H        0.1274230000   -0.0187050000    0.0000000000
H        0.1270110000    0.0033100000    0.0000000000
C        0.1013170000    0.3695710000   -0.0000000000
H        0.1273890000   -0.0186440000   -0.0000000000
13   
Frame   2 IRC: Energy =  -286.9462014342 ; +0.0010 kcal/mol
C       -0.2348750000   -0.1146380000   -0.0000000000
C       -0.1653850000    0.0779220000   -0.0000000000
C       -0.1647590000    0.0792490000    0.0000000000
C        0.1005080000    0.3700660000    0.0000000000
C       -0.2345750000   -0.1141970000    0.0000000000
N       -0.1763310000    0.3749960000    0.0000000000
H        0.1269350000    0.0033030000   -0.0000000000
H        0.1327320000   -0.0067300000   -0.0000000000
H        0.1326790000   -0.0067920000    0.0000000000
H        0.1274640000   -0.0186660000    0.0000000000
H        0.1269940000    0.0032810000    0.0000000000
C        0.1012200000    0.3709050000   -0.0000000000
H        0.1273920000   -0.0186990000   -0.0000000000
13   
Frame   3 IRC: Energy =  -286.9461976361 ; +0.0034 kcal/mol
C       -0.2336320000   -0.1181590000   -0.0000000000
C       -0.1651680000    0.0702920000   -0.0000000000
C       -0.1658310000    0.0869120000    0.0000000000
C        0.1010190000    0.3640500000    0.0000000000
C       -0.2349360000   -0.1105330000    0.0000000000
N       -0.1764380000    0.3744310000    0.0000000000
H        0.1268730000    0.0034650000   -0.0000000000
H        0.1327320000   -0.0064040000   -0.0000000000
H        0.1326020000   -0.0071280000    0.0000000000
H        0.1275370000   -0.0184140000    0.0000000000
H        0.1270590000    0.0031090000    0.0000000000
C        0.1008190000    0.3773470000   -0.0000000000
H        0.1273640000   -0.0189690000   -0.0000000000
13   
Frame   4 IRC: Energy =  -286.9461817938 ; +0.0134 kcal/mol
C       -0.2309220000   -0.1283350000   -0.0000000000
C       -0.1645400000    0.0476690000   -0.0000000000
C       -0.1670590000    0.1100400000    0.0000000000
C        0.1017660000    0.3447150000    0.0000000000
C       -0.2367680000   -0.0986430000    0.0000000000
N       -0.1764310000    0.3730720000    0.0000000000
H        0.1267650000    0.0039350000   -0.0000000000
H        0.1328250000   -0.0054270000   -0.0000000000
H        0.1324710000   -0.0081290000    0.0000000000
H        0.1276010000   -0.0176000000    0.0000000000
H        0.1272930000    0.0025590000    0.0000000000
C        0.0997280000    0.3958880000   -0.0000000000
H        0.1272710000   -0.0197460000   -0.0000000000
13   
Frame   5 IRC: Energy =  -286.9461625266 ; +0.0255 kcal/mol
C       -0.2294710000   -0.1348060000   -0.0000000000
C       -0.1632970000    0.0322260000   -0.0000000000
C       -0.1676470000    0.1260490000    0.0000000000
C        0.1022120000    0.3305620000    0.0000000000
C       -0.2384160000   -0.0899540000    0.0000000000
N       -0.1764660000    0.3726260000    0.0000000000
H        0.1266960000    0.0042320000   -0.0000000000
H        0.1329290000   -0.0047480000   -0.0000000000
H        0.1324290000   -0.0088120000    0.0000000000
H        0.1276320000   -0.0170020000    0.0000000000
H        0.1274910000    0.0021550000    0.0000000000
C        0.0987790000    0.4077140000   -0.0000000000
H        0.1271290000   -0.0202430000   -0.0000000000
13   
Frame   6 IRC: Energy =  -286.9461105962 ; +0.0580 kcal/mol
C       -0.2280460000   -0.1435930000   -0.0000000000
C       -0.1604220000    0.0097910000   -0.0000000000
C       -0.1675550000    0.1497490000    0.0000000000
C        0.1036170000    0.3089140000    0.0000000000
C       -0.2432440000   -0.0765830000    0.0000000000
N       -0.1756670000    0.3720010000    0.0000000000
H        0.1264220000    0.0046310000   -0.0000000000
H        0.1331220000   -0.0037630000   -0.0000000000
H        0.1324490000   -0.0098100000    0.0000000000
H        0.1276930000   -0.0160910000    0.0000000000
H        0.1274900000    0.0015410000    0.0000000000
C        0.0970500000    0.4241410000   -0.0000000000
H        0.1270910000   -0.0209270000   -0.0000000000
13   
Frame   7 IRC: Energy =  -286.9459617010 ; +0.1515 kcal/mol
C       -0.2282270000   -0.1499180000   -0.0000000000
C       -0.1540030000   -0.0107050000   -0.0000000000
C       -0.1691090000    0.1716160000    0.0000000000
C        0.1067780000    0.2887230000    0.0000000000
C       -0.2498680000   -0.0644170000    0.0000000000
N       -0.1748500000    0.3725170000    0.0000000000
H        0.1258460000    0.0049180000   -0.0000000000
H        0.1332590000   -0.0028680000   -0.0000000000
H        0.1324670000   -0.0107320000    0.0000000000
H        0.1279020000   -0.0152400000    0.0000000000
H        0.1273570000    0.0009900000    0.0000000000
C        0.0955880000    0.4365580000   -0.0000000000
H        0.1268600000   -0.0214400000   -0.0000000000
13   
Frame   8 IRC: Energy =  -286.9455594044 ; +0.4039 kcal/mol
C       -0.2241290000   -0.1665300000   -0.0000000000
C       -0.1551230000   -0.0782110000   -0.0000000000
C       -0.1721940000    0.2560100000    0.0000000000
C        0.1052700000    0.2111000000    0.0000000000
C       -0.2501700000   -0.0067830000    0.0000000000
N       -0.1732650000    0.3530950000    0.0000000000
H        0.1257000000    0.0058660000   -0.0000000000
H        0.1334990000    0.0003130000   -0.0000000000
H        0.1320880000   -0.0143840000    0.0000000000
H        0.1285140000   -0.0117180000    0.0000000000
H        0.1279310000   -0.0015890000    0.0000000000
C        0.0957110000    0.4759250000   -0.0000000000
H        0.1261690000   -0.0230930000   -0.0000000000
13   
Frame   9 IRC: Energy =  -286.9449071734 ; +0.8132 kcal/mol
C       -0.2173680000   -0.1714620000   -0.0000000000
C       -0.1523130000   -0.1248430000   -0.0000000000
C       -0.1675970000    0.3288370000    0.0000000000
C        0.0940420000    0.1365050000    0.0000000000
C       -0.2431290000    0.0570410000    0.0000000000
N       -0.1707510000    0.3224010000    0.0000000000
H        0.1264620000    0.0065510000   -0.0000000000
H        0.1339930000    0.0033340000   -0.0000000000
H        0.1312870000   -0.0176340000    0.0000000000
H        0.1293920000   -0.0077310000    0.0000000000
H        0.1283950000   -0.0044550000    0.0000000000
C        0.0819230000    0.4955310000   -0.0000000000
H        0.1256630000   -0.0240720000   -0.0000000000
13   
Frame  10 IRC: Energy =  -286.9441126221 ; +1.3118 kcal/mol
C       -0.2049930000   -0.1673060000   -0.0000000000
C       -0.1460050000   -0.1510130000   -0.0000000000
C       -0.1633780000    0.3809770000    0.0000000000
C        0.0853350000    0.0727650000    0.0000000000
C       -0.2388930000    0.1169020000    0.0000000000
N       -0.1667950000    0.2864710000    0.0000000000
H        0.1278830000    0.0069320000   -0.0000000000
H        0.1345850000    0.0061160000   -0.0000000000
H        0.1303550000   -0.0200570000    0.0000000000
H        0.1302390000   -0.0037760000    0.0000000000
H        0.1287070000   -0.0071840000    0.0000000000
C        0.0573930000    0.5037450000   -0.0000000000
H        0.1255690000   -0.0245730000   -0.0000000000
13   
Frame  11 IRC: Energy =  -286.9431428502 ; +1.9203 kcal/mol
C       -0.1869730000   -0.1600630000   -0.0000000000
C       -0.1381080000   -0.1637770000   -0.0000000000
C       -0.1677740000    0.4085170000    0.0000000000
C        0.0862960000    0.0268340000    0.0000000000
C       -0.2417660000    0.1607900000    0.0000000000
N       -0.1617650000    0.2532190000    0.0000000000
H        0.1297500000    0.0072120000   -0.0000000000
H        0.1351450000    0.0086610000   -0.0000000000
H        0.1295950000   -0.0213630000    0.0000000000
H        0.1308150000   -0.0005420000    0.0000000000
H        0.1289180000   -0.0091180000    0.0000000000
C        0.0297910000    0.5146420000   -0.0000000000
H        0.1260750000   -0.0250120000   -0.0000000000
13   
Frame  12 IRC: Energy =  -286.9417724386 ; +2.7803 kcal/mol
C       -0.1667800000   -0.1546060000   -0.0000000000
C       -0.1288090000   -0.1711580000   -0.0000000000
C       -0.1801530000    0.4149300000    0.0000000000
C        0.0935320000   -0.0013720000    0.0000000000
C       -0.2497090000    0.1840670000    0.0000000000
N       -0.1562930000    0.2264430000    0.0000000000
H        0.1317830000    0.0077400000    0.0000000000
H        0.1356500000    0.0112780000   -0.0000000000
H        0.1290940000   -0.0216160000    0.0000000000
H        0.1310830000    0.0016860000    0.0000000000
H        0.1290910000   -0.0100350000    0.0000000000
C        0.0039850000    0.5384930000   -0.0000000000
H        0.1275260000   -0.0258500000   -0.0000000000
13   
Frame  13 IRC: Energy =  -286.9397628974 ; +4.0413 kcal/mol
C       -0.1481520000   -0.1518130000   -0.0000000000
C       -0.1180380000   -0.1784610000   -0.0000000000
C       -0.1970940000    0.4070460000    0.0000000000
C        0.1022620000   -0.0178830000    0.0000000000
C       -0.2587340000    0.1900970000    0.0000000000
N       -0.1506760000    0.2050140000    0.0000000000
H        0.1338370000    0.0086860000    0.0000000000
H        0.1361220000    0.0141140000   -0.0000000000
H        0.1288550000   -0.0210370000    0.0000000000
H        0.1311300000    0.0030660000    0.0000000000
H        0.1292390000   -0.0100800000    0.0000000000
C       -0.0186790000    0.5785580000   -0.0000000000
H        0.1299280000   -0.0273080000   -0.0000000000
13   
Frame  14 IRC: Energy =  -286.9369721600 ; +5.7925 kcal/mol
C       -0.1342470000   -0.1504480000   -0.0000000000
C       -0.1075320000   -0.1872080000   -0.0000000000
C       -0.2131880000    0.3894970000    0.0000000000
C        0.1089420000   -0.0280210000    0.0000000000
C       -0.2667810000    0.1838360000    0.0000000000
N       -0.1447740000    0.1861300000    0.0000000000
H        0.1357050000    0.0100890000    0.0000000000
H        0.1365950000    0.0173260000   -0.0000000000
H        0.1288240000   -0.0198160000    0.0000000000
H        0.1310560000    0.0039150000    0.0000000000
H        0.1293760000   -0.0095370000    0.0000000000
C       -0.0371460000    0.6336390000   -0.0000000000
H        0.1331710000   -0.0294020000   -0.0000000000
13   
Frame  15 IRC: Energy =  -286.9334239554 ; +8.0190 kcal/mol
C       -0.1263970000   -0.1487860000    0.0000000000
C       -0.0987720000   -0.1973160000   -0.0000000000
C       -0.2254180000    0.3665260000    0.0000000000
C        0.1121470000   -0.0358480000    0.0000000000
C       -0.2726370000    0.1701260000    0.0000000000
N       -0.1387760000    0.1673930000    0.0000000000
H        0.1373770000    0.0119480000    0.0000000000
H        0.1370500000    0.0208590000   -0.0000000000
H        0.1290040000   -0.0181450000    0.0000000000
H        0.1309270000    0.0045020000    0.0000000000
H        0.1294960000   -0.0086450000    0.0000000000
C       -0.0509350000    0.6993670000   -0.0000000000
H        0.1369350000   -0.0319830000   -0.0000000000
13   
Frame  16 IRC: Energy =  -286.9292680653 ; +10.6269 kcal/mol
C       -0.1246560000   -0.1456550000    0.0000000000
C       -0.0928940000   -0.2083160000   -0.0000000000
C       -0.2322860000    0.3421230000    0.0000000000
C        0.1112940000   -0.0439680000    0.0000000000
C       -0.2765490000    0.1531390000    0.0000000000
N       -0.1327950000    0.1480040000    0.0000000000
H        0.1388220000    0.0142130000    0.0000000000
H        0.1375630000    0.0248030000   -0.0000000000
H        0.1293880000   -0.0162240000    0.0000000000
H        0.1308250000    0.0050520000    0.0000000000
H        0.1296230000   -0.0076090000    0.0000000000
C       -0.0591430000    0.7692320000   -0.0000000000
H        0.1408070000   -0.0347960000   -0.0000000000
13   
Frame  17 IRC: Energy =  -286.9245440000 ; +13.5913 kcal/mol
C       -0.1278180000   -0.1413470000    0.0000000000
C       -0.0897260000   -0.2196970000   -0.0000000000
C       -0.2336390000    0.3215910000    0.0000000000
C        0.1071550000   -0.0550260000    0.0000000000
C       -0.2784660000    0.1380980000    0.0000000000
N       -0.1275940000    0.1280670000    0.0000000000
H        0.1400140000    0.0170380000    0.0000000000
H        0.1380770000    0.0290980000   -0.0000000000
H        0.1298270000   -0.0144260000    0.0000000000
H        0.1309000000    0.0057490000    0.0000000000
H        0.1297130000   -0.0065670000    0.0000000000
C       -0.0622670000    0.8348270000   -0.0000000000
H        0.1438240000   -0.0374050000   -0.0000000000
13   
Frame  18 IRC: Energy =  -286.9235380000 ; +14.2226 kcal/mol
C       -0.1305740000   -0.1407240000    0.0000000000
C       -0.0871310000   -0.2223750000   -0.0000000000
C       -0.2334240000    0.3155230000    0.0000000000
C        0.1069620000   -0.0556010000    0.0000000000
C       -0.2814280000    0.1318900000    0.0000000000
N       -0.1275410000    0.1250420000    0.0000000000
H        0.1402730000    0.0177700000    0.0000000000
H        0.1383240000    0.0297370000   -0.0000000000
H        0.1298940000   -0.0138480000    0.0000000000
H        0.1307040000    0.0055130000    0.0000000000
H        0.1295550000   -0.0062970000    0.0000000000
C       -0.0605680000    0.8515150000   -0.0000000000
H        0.1449550000   -0.0381440000   -0.0000000000
13   
Frame  19 IRC: Energy =  -286.9217300000 ; +15.3571 kcal/mol
C       -0.1317620000   -0.1357860000    0.0000000000
C       -0.0831730000   -0.2234060000   -0.0000000000
C       -0.2387330000    0.2943520000    0.0000000000
C        0.1078290000   -0.0530970000    0.0000000000
C       -0.2821210000    0.1189240000    0.0000000000
N       -0.1230610000    0.1155520000    0.0000000000
H        0.1407220000    0.0180150000    0.0000000000
H        0.1382510000    0.0311010000   -0.0000000000
H        0.1299340000   -0.0122720000    0.0000000000
H        0.1305220000    0.0051330000    0.0000000000
H        0.1294730000   -0.0058230000    0.0000000000
C       -0.0648590000    0.8871350000   -0.0000000000
H        0.1469770000   -0.0398280000   -0.0000000000
13   
Frame  20 IRC: Energy =  -286.9207480000 ; +15.9733 kcal/mol
C       -0.1349410000   -0.1352630000    0.0000000000
C       -0.0815000000   -0.2249080000   -0.0000000000
C       -0.2380580000    0.2870000000    0.0000000000
C        0.1075980000   -0.0527950000    0.0000000000
C       -0.2851380000    0.1119670000    0.0000000000
N       -0.1232150000    0.1129170000    0.0000000000
H        0.1409370000    0.0187240000    0.0000000000
H        0.1384970000    0.0315340000   -0.0000000000
H        0.1299550000   -0.0115740000    0.0000000000
H        0.1303370000    0.0048560000    0.0000000000
H        0.1293400000   -0.0055090000    0.0000000000
C       -0.0618740000    0.9036380000   -0.0000000000
H        0.1480620000   -0.0405870000   -0.0000000000
13   
Frame  21 IRC: Energy =  -286.9189500000 ; +17.1016 kcal/mol
C       -0.1364750000   -0.1293220000    0.0000000000
C       -0.0790470000   -0.2248430000   -0.0000000000
C       -0.2427080000    0.2657880000    0.0000000000
C        0.1081660000   -0.0504400000    0.0000000000
C       -0.2860250000    0.0995040000    0.0000000000
N       -0.1185240000    0.1032060000    0.0000000000
H        0.1413280000    0.0187080000    0.0000000000
H        0.1384220000    0.0328230000   -0.0000000000
H        0.1300070000   -0.0099260000    0.0000000000
H        0.1301880000    0.0044470000    0.0000000000
H        0.1292690000   -0.0050590000    0.0000000000
C       -0.0645400000    0.9372840000   -0.0000000000
H        0.1499390000   -0.0421690000   -0.0000000000
13   
Frame  22 IRC: Energy =  -286.9180520000 ; +17.6651 kcal/mol
C       -0.1396900000   -0.1287560000    0.0000000000
C       -0.0783270000   -0.2251780000   -0.0000000000
C       -0.2416630000    0.2581470000    0.0000000000
C        0.1078950000   -0.0497700000    0.0000000000
C       -0.2890810000    0.0929390000    0.0000000000
N       -0.1188980000    0.1008650000    0.0000000000
H        0.1414760000    0.0193560000    0.0000000000
H        0.1386630000    0.0330290000   -0.0000000000
H        0.1300050000   -0.0091880000    0.0000000000
H        0.1300320000    0.0041750000    0.0000000000
H        0.1291730000   -0.0047510000    0.0000000000
C       -0.0604770000    0.9519810000   -0.0000000000
H        0.1508930000   -0.0428490000   -0.0000000000
13   
Frame  23 IRC: Energy =  -286.9163480000 ; +18.7344 kcal/mol
C       -0.1413170000   -0.1223940000    0.0000000000
C       -0.0774080000   -0.2232830000   -0.0000000000
C       -0.2453060000    0.2369440000    0.0000000000
C        0.1079210000   -0.0471400000    0.0000000000
C       -0.2899810000    0.0812010000    0.0000000000
N       -0.1143400000    0.0917340000    0.0000000000
H        0.1418980000    0.0190920000    0.0000000000
H        0.1386080000    0.0341560000   -0.0000000000
H        0.1300660000   -0.0075330000    0.0000000000
H        0.1299280000    0.0037430000    0.0000000000
H        0.1291170000   -0.0043170000    0.0000000000
C       -0.0616580000    0.9819910000   -0.0000000000
H        0.1524710000   -0.0441940000   -0.0000000000
13   
Frame  24 IRC: Energy =  -286.9154300000 ; +19.3104 kcal/mol
C       -0.1446840000   -0.1214670000    0.0000000000
C       -0.0774190000   -0.2220710000   -0.0000000000
C       -0.2440080000    0.2274940000    0.0000000000
C        0.1074320000   -0.0458690000    0.0000000000
C       -0.2930740000    0.0743580000    0.0000000000
N       -0.1146840000    0.0891730000    0.0000000000
H        0.1420650000    0.0196940000    0.0000000000
H        0.1388520000    0.0341900000   -0.0000000000
H        0.1300410000   -0.0066560000    0.0000000000
H        0.1297960000    0.0034460000    0.0000000000
H        0.1290380000   -0.0039880000    0.0000000000
C       -0.0567390000    0.9965460000   -0.0000000000
H        0.1533840000   -0.0448490000   -0.0000000000
13   
Frame  25 IRC: Energy =  -286.9137360000 ; +20.3734 kcal/mol
C       -0.1465250000   -0.1147320000    0.0000000000
C       -0.0777910000   -0.2180380000   -0.0000000000
C       -0.2462480000    0.2054280000    0.0000000000
C        0.1067650000   -0.0430250000    0.0000000000
C       -0.2945570000    0.0629150000    0.0000000000
N       -0.1104590000    0.0804660000    0.0000000000
H        0.1425290000    0.0192760000    0.0000000000
H        0.1388750000    0.0351190000   -0.0000000000
H        0.1301250000   -0.0049370000    0.0000000000
H        0.1297220000    0.0029760000    0.0000000000
H        0.1289910000   -0.0035350000    0.0000000000
C       -0.0561610000    1.0240090000   -0.0000000000
H        0.1547330000   -0.0459220000   -0.0000000000
13   
Frame  26 IRC: Energy =  -286.9130220000 ; +20.8215 kcal/mol
C       -0.1493920000   -0.1140750000    0.0000000000
C       -0.0782690000   -0.2158390000   -0.0000000000
C       -0.2447110000    0.1973090000    0.0000000000
C        0.1062080000   -0.0418080000    0.0000000000
C       -0.2972870000    0.0577670000    0.0000000000
N       -0.1110690000    0.0786480000    0.0000000000
H        0.1426370000    0.0198110000    0.0000000000
H        0.1390920000    0.0348970000   -0.0000000000
H        0.1300930000   -0.0041940000    0.0000000000
H        0.1296300000    0.0027410000    0.0000000000
H        0.1289580000   -0.0032700000    0.0000000000
C       -0.0512760000    1.0343540000   -0.0000000000
H        0.1553870000   -0.0463410000   -0.0000000000
13   
Frame  27 IRC: Energy =  -286.9114550000 ; +21.8048 kcal/mol
C       -0.1507810000   -0.1071450000    0.0000000000
C       -0.0794410000   -0.2098960000   -0.0000000000
C       -0.2459630000    0.1756040000    0.0000000000
C        0.1049170000   -0.0390170000    0.0000000000
C       -0.2989840000    0.0475570000    0.0000000000
N       -0.1069870000    0.0706800000    0.0000000000
H        0.1430950000    0.0191780000    0.0000000000
H        0.1391590000    0.0356260000   -0.0000000000
H        0.1302070000   -0.0025590000    0.0000000000
H        0.1295880000    0.0022900000    0.0000000000
H        0.1289360000   -0.0028360000    0.0000000000
C       -0.0501810000    1.0575330000   -0.0000000000
H        0.1564350000   -0.0470160000   -0.0000000000
13   
Frame  28 IRC: Energy =  -286.9109050000 ; +22.1499 kcal/mol
C       -0.1531950000   -0.1066670000    0.0000000000
C       -0.0799430000   -0.2073190000   -0.0000000000
C       -0.2444470000    0.1690020000    0.0000000000
C        0.1044100000   -0.0380500000    0.0000000000
C       -0.3014310000    0.0439270000    0.0000000000
N       -0.1077470000    0.0693930000    0.0000000000
H        0.1431390000    0.0196710000    0.0000000000
H        0.1393510000    0.0352520000   -0.0000000000
H        0.1301860000   -0.0019590000    0.0000000000
H        0.1295280000    0.0021170000    0.0000000000
H        0.1289370000   -0.0026330000    0.0000000000
C       -0.0457000000    1.0645040000   -0.0000000000
H        0.1569120000   -0.0472380000   -0.0000000000
13   
Frame  29 IRC: Energy =  -286.9094910000 ; +23.0372 kcal/mol
C       -0.1544030000   -0.1001130000    0.0000000000
C       -0.0814150000   -0.1997700000   -0.0000000000
C       -0.2447690000    0.1483970000    0.0000000000
C        0.1025430000   -0.0351530000    0.0000000000
C       -0.3030860000    0.0349570000    0.0000000000
N       -0.1040020000    0.0627470000    0.0000000000
H        0.1436490000    0.0189170000    0.0000000000
H        0.1394540000    0.0357980000   -0.0000000000
H        0.1303200000   -0.0004870000    0.0000000000
H        0.1295010000    0.0017000000    0.0000000000
H        0.1289160000   -0.0022210000    0.0000000000
C       -0.0443940000    1.0827380000   -0.0000000000
H        0.1576860000   -0.0475130000   -0.0000000000
13   
Frame  30 IRC: Energy =  -286.9090060000 ; +23.3415 kcal/mol
C       -0.1566680000   -0.0996230000    0.0000000000
C       -0.0818550000   -0.1966670000   -0.0000000000
C       -0.2432960000    0.1421720000    0.0000000000
C        0.1019710000   -0.0341810000    0.0000000000
C       -0.3053000000    0.0320030000    0.0000000000
N       -0.1047430000    0.0617100000    0.0000000000
H        0.1436960000    0.0193850000    0.0000000000
H        0.1396300000    0.0353360000   -0.0000000000
H        0.1303090000    0.0000560000    0.0000000000
H        0.1294620000    0.0015540000    0.0000000000
H        0.1289270000   -0.0020470000    0.0000000000
C       -0.0402120000    1.0879110000   -0.0000000000
H        0.1580800000   -0.0476090000   -0.0000000000
13   
Frame  31 IRC: Energy =  -286.9076590000 ; +24.1868 kcal/mol
C       -0.1580930000   -0.0935250000    0.0000000000
C       -0.0832090000   -0.1877940000   -0.0000000000
C       -0.2428410000    0.1226850000    0.0000000000
C        0.0996140000   -0.0312760000    0.0000000000
C       -0.3071500000    0.0241250000    0.0000000000
N       -0.1013460000    0.0563060000    0.0000000000
H        0.1442280000    0.0186240000    0.0000000000
H        0.1397800000    0.0357190000   -0.0000000000
H        0.1304640000    0.0013690000    0.0000000000
H        0.1294230000    0.0011780000    0.0000000000
H        0.1289100000   -0.0016520000    0.0000000000
C       -0.0384680000    1.1017770000   -0.0000000000
H        0.1586870000   -0.0475360000   -0.0000000000
13   
Frame  32 IRC: Energy =  -286.9072620000 ; +24.4359 kcal/mol
C       -0.1601770000   -0.0932830000    0.0000000000
C       -0.0834060000   -0.1847560000   -0.0000000000
C       -0.2415150000    0.1177210000    0.0000000000
C        0.0991190000   -0.0304420000    0.0000000000
C       -0.3090340000    0.0220530000    0.0000000000
N       -0.1021690000    0.0557380000    0.0000000000
H        0.1442600000    0.0190960000    0.0000000000
H        0.1399300000    0.0351990000   -0.0000000000
H        0.1304580000    0.0017890000    0.0000000000
H        0.1293970000    0.0010720000    0.0000000000
H        0.1289320000   -0.0015210000    0.0000000000
C       -0.0347890000    1.1048680000   -0.0000000000
H        0.1589930000   -0.0475360000   -0.0000000000
13   
Frame  33 IRC: Energy =  -286.9059820000 ; +25.2391 kcal/mol
C       -0.1617290000   -0.0879170000    0.0000000000
C       -0.0843090000   -0.1755520000   -0.0000000000
C       -0.2408550000    0.1005870000    0.0000000000
C        0.0966420000   -0.0276950000    0.0000000000
C       -0.3108090000    0.0155770000    0.0000000000
N       -0.0988860000    0.0516820000    0.0000000000
H        0.1447900000    0.0183470000    0.0000000000
H        0.1401010000    0.0355540000   -0.0000000000
H        0.1306310000    0.0028440000    0.0000000000
H        0.1293290000    0.0007610000    0.0000000000
H        0.1289150000   -0.0011710000    0.0000000000
C       -0.0332550000    1.1141900000   -0.0000000000
H        0.1594360000   -0.0472070000   -0.0000000000
13   
Frame  34 IRC: Energy =  -286.9056330000 ; +25.4581 kcal/mol
C       -0.1637130000   -0.0879050000    0.0000000000
C       -0.0842150000   -0.1727390000   -0.0000000000
C       -0.2397460000    0.0967220000    0.0000000000
C        0.0963430000   -0.0269990000    0.0000000000
C       -0.3125090000    0.0141620000    0.0000000000
N       -0.0998110000    0.0514820000    0.0000000000
H        0.1448010000    0.0188420000    0.0000000000
H        0.1402370000    0.0350050000   -0.0000000000
H        0.1306320000    0.0031630000    0.0000000000
H        0.1293100000    0.0006860000    0.0000000000
H        0.1289540000   -0.0010740000    0.0000000000
C       -0.0299720000    1.1158110000   -0.0000000000
H        0.1596900000   -0.0471560000   -0.0000000000
13   
Frame  35 IRC: Energy =  -286.9043800000 ; +26.2444 kcal/mol
C       -0.1654480000   -0.0835880000    0.0000000000
C       -0.0847430000   -0.1640000000   -0.0000000000
C       -0.2391900000    0.0825980000    0.0000000000
C        0.0942250000   -0.0244850000    0.0000000000
C       -0.3141010000    0.0090650000    0.0000000000
N       -0.0966080000    0.0487570000    0.0000000000
H        0.1453690000    0.0181620000    0.0000000000
H        0.1404340000    0.0354340000   -0.0000000000
H        0.1308040000    0.0039240000    0.0000000000
H        0.1292000000    0.0004430000    0.0000000000
H        0.1289150000   -0.0007780000    0.0000000000
C       -0.0288230000    1.1211710000   -0.0000000000
H        0.1599660000   -0.0467030000   -0.0000000000
13   
Frame  36 IRC: Energy =  -286.9040240000 ; +26.4678 kcal/mol
C       -0.1674430000   -0.0837220000    0.0000000000
C       -0.0844210000   -0.1613090000   -0.0000000000
C       -0.2383130000    0.0794220000    0.0000000000
C        0.0942150000   -0.0238890000    0.0000000000
C       -0.3157900000    0.0080770000    0.0000000000
N       -0.0976400000    0.0487880000    0.0000000000
H        0.1453630000    0.0187000000    0.0000000000
H        0.1405760000    0.0348590000   -0.0000000000
H        0.1308110000    0.0041760000    0.0000000000
H        0.1291850000    0.0003890000    0.0000000000
H        0.1289770000   -0.0007050000    0.0000000000
C       -0.0257140000    1.1218410000   -0.0000000000
H        0.1601930000   -0.0466270000   -0.0000000000
13   
Frame  37 IRC: Energy =  -286.9027350000 ; +27.2767 kcal/mol
C       -0.1692240000   -0.0804120000    0.0000000000
C       -0.0849370000   -0.1534670000   -0.0000000000
C       -0.2380110000    0.0682830000    0.0000000000
C        0.0929010000   -0.0217460000    0.0000000000
C       -0.3173010000    0.0042500000    0.0000000000
N       -0.0944870000    0.0470430000    0.0000000000
H        0.1459990000    0.0180960000    0.0000000000
H        0.1408240000    0.0354260000   -0.0000000000
H        0.1309720000    0.0046650000    0.0000000000
H        0.1290300000    0.0002110000    0.0000000000
H        0.1289090000   -0.0004630000    0.0000000000
C       -0.0249800000    1.1242560000   -0.0000000000
H        0.1603060000   -0.0461410000   -0.0000000000
13   
Frame  38 IRC: Energy =  -286.9023110000 ; +27.5427 kcal/mol
C       -0.1713510000   -0.0807870000    0.0000000000
C       -0.0844800000   -0.1506640000   -0.0000000000
C       -0.2373310000    0.0654100000    0.0000000000
C        0.0932970000   -0.0211240000    0.0000000000
C       -0.3191250000    0.0034640000    0.0000000000
N       -0.0957010000    0.0473510000    0.0000000000
H        0.1460090000    0.0187140000    0.0000000000
H        0.1410010000    0.0348130000   -0.0000000000
H        0.1309830000    0.0048690000    0.0000000000
H        0.1290180000    0.0001650000    0.0000000000
H        0.1289940000   -0.0004010000    0.0000000000
C       -0.0218330000    1.1242400000   -0.0000000000
H        0.1605200000   -0.0460500000   -0.0000000000
13   