13   
Frame   0 IRC: Energy =  -286.9462030877 ; +0.0000 kcal/mol
C        1.4590727568    0.8320084931   -0.2138011157
C        0.2495064295   -1.4019177979   -0.3183714406
C       -1.0125901323   -1.0486075364    0.0633252545
C       -1.4714426484    0.2703698080    0.4188854643
C       -0.7482559236    1.4503701221    0.4515044901
N        0.5451336609    1.7504915536    0.1825522642
H        2.4413332823    1.2773898842   -0.3788855924
H        0.4234767287   -2.4495068089   -0.5534868658
H       -1.7588205901   -1.8387162351    0.1066704063
H       -2.5188970166    0.3563580719    0.6965546020
H       -1.3182673966    2.3304766482    0.7532831342
C        1.3904792442   -0.5308395084   -0.4453777349
H        2.3192716050   -0.9978766949   -0.7628528659
13   
Frame   1 IRC: Energy =  -286.9462026443 ; +0.0003 kcal/mol
C        1.4590393205    0.8320371286   -0.2135553607
C        0.2493869055   -1.4017961830   -0.3190415221
C       -1.0124778498   -1.0487547204    0.0638097983
C       -1.4712363057    0.2701918423    0.4197686468
C       -0.7483755726    1.4504987493    0.4507120418
N        0.5449821360    1.7507689039    0.1817120120
H        2.4418994079    1.2769383753   -0.3764278490
H        0.4231386422   -2.4492751975   -0.5548296662
H       -1.7586228960   -1.8389271114    0.1073487454
H       -2.5184930492    0.3561379525    0.6981246658
H       -1.3186916808    2.3307989802    0.7514009055
C        1.3902300056   -0.5307367533   -0.4461288850
H        2.3192209364   -0.9978819665   -0.7628935326
13   
Frame   2 IRC: Energy =  -286.9462014342 ; +0.0010 kcal/mol
C        1.4591380547    0.8319429986   -0.2127938266
C        0.2493703135   -1.4014354401   -0.3194521460
C       -1.0125379714   -1.0484741684    0.0629949942
C       -1.4714382115    0.2702279625    0.4206156627
C       -0.7485752112    1.4504740435    0.4501588438
N        0.5443670393    1.7507858424    0.1788850758
H        2.4419507387    1.2769051275   -0.3760855104
H        0.4226117500   -2.4490307479   -0.5551552416
H       -1.7584711058   -1.8389149745    0.1058508562
H       -2.5181804366    0.3557892247    0.7008115584
H       -1.3185516869    2.3308188933    0.7513824598
C        1.3905863910   -0.5309076007   -0.4456028832
H        2.3197303361   -0.9981811609   -0.7616098433
13   
Frame   3 IRC: Energy =  -286.9461976361 ; +0.0034 kcal/mol
C        1.4587641153    0.8325296601   -0.2139362621
C        0.2497650103   -1.4007987808   -0.3190655619
C       -1.0127322827   -1.0479916698    0.0619892213
C       -1.4720810776    0.2706629912    0.4208718720
C       -0.7492042105    1.4501232673    0.4506203825
N        0.5442436414    1.7498494462    0.1761718071
H        2.4423445859    1.2769525976   -0.3747236222
H        0.4224282854   -2.4488235847   -0.5534846772
H       -1.7581636133   -1.8389651153    0.1041901546
H       -2.5185655277    0.3556714933    0.7021617500
H       -1.3180820239    2.3307708171    0.7526825294
C        1.3910253459   -0.5313404673   -0.4459995706
H        2.3202577516   -0.9986406549   -0.7614780229
13   
Frame   4 IRC: Energy =  -286.9461817938 ; +0.0134 kcal/mol
C        1.4575324563    0.8344351635   -0.2154747201
C        0.2507623318   -1.4005809161   -0.3170380215
C       -1.0134617191   -1.0475016946    0.0588988164
C       -1.4723914719    0.2721094404    0.4184797298
C       -0.7507695466    1.4492999250    0.4528610205
N        0.5451673453    1.7485497264    0.1738954502
H        2.4399279600    1.2795481459   -0.3826802006
H        0.4236589508   -2.4491750092   -0.5492576733
H       -1.7595009999   -1.8378787716    0.0991570735
H       -2.5190276156    0.3557429623    0.7002502400
H       -1.3156666327    2.3298011301    0.7613567606
C        1.3923468835   -0.5337124153   -0.4421786701
H        2.3214220581   -1.0006376869   -0.7582698053
13   
Frame   5 IRC: Energy =  -286.9461625266 ; +0.0255 kcal/mol
C        1.4565235427    0.8360964257   -0.2182393099
C        0.2512329267   -1.4007465142   -0.3155389741
C       -1.0142323272   -1.0477948874    0.0568473917
C       -1.4721726181    0.2729266134    0.4169512984
C       -0.7514936542    1.4483704592    0.4559795025
N        0.5467666980    1.7482763736    0.1740091180
H        2.4382951437    1.2808641060   -0.3910867698
H        0.4252548174   -2.4493862650   -0.5471605229
H       -1.7614213017   -1.8370114353    0.0954293963
H       -2.5192976463    0.3559924324    0.6975612948
H       -1.3144203634    2.3288533343    0.7675086060
C        1.3928000920   -0.5348820211   -0.4385374730
H        2.3221646903   -1.0015586216   -0.7537235580
13   
Frame   6 IRC: Energy =  -286.9461105962 ; +0.0580 kcal/mol
C        1.4541032759    0.8389361715   -0.2193527600
C        0.2515784316   -1.4023843766   -0.3129429311
C       -1.0142508569   -1.0508543947    0.0586157935
C       -1.4699183021    0.2738765563    0.4148140517
C       -0.7518489839    1.4467063777    0.4579053976
N        0.5510841399    1.7511661069    0.1798968208
H        2.4351799620    1.2817239200   -0.4037263739
H        0.4262704454   -2.4497453227   -0.5508018431
H       -1.7643475475   -1.8369080422    0.0949531523
H       -2.5185540226    0.3583378835    0.6900416690
H       -1.3137821049    2.3265871270    0.7724373846
C        1.3918016108   -0.5360375272   -0.4343768548
H        2.3226839524   -1.0014044795   -0.7474635067
13   
Frame   7 IRC: Energy =  -286.9459617010 ; +0.1515 kcal/mol
C        1.4511512429    0.8411328405   -0.2198146414
C        0.2500446056   -1.4019832866   -0.3162650619
C       -1.0140867824   -1.0551018834    0.0601635263
C       -1.4668063396    0.2741349085    0.4150248945
C       -0.7503563899    1.4440118250    0.4607350800
N        0.5589153166    1.7546787270    0.1908324586
H        2.4329657716    1.2784922651   -0.4143177388
H        0.4264966676   -2.4488424944   -0.5556725585
H       -1.7634856676   -1.8410088869    0.0998838440
H       -2.5174361417    0.3621632829    0.6822327589
H       -1.3143943446    2.3242075722    0.7696399358
C        1.3861077295   -0.5336766799   -0.4349616040
H        2.3208843320   -0.9982081900   -0.7374808934
13   
Frame   8 IRC: Energy =  -286.9455594044 ; +0.4039 kcal/mol
C        1.4574350188    0.8407725556   -0.1868788983
C        0.2505387144   -1.3939429689   -0.3292539335
C       -1.0079817356   -1.0616644340    0.0989767933
C       -1.4664783571    0.2736562369    0.4170754540
C       -0.7574660418    1.4437576832    0.4471168679
N        0.5785524376    1.7385480600    0.2472622865
H        2.4521258791    1.2658684758   -0.3425044469
H        0.4246037725   -2.4410970374   -0.5709258036
H       -1.7430858681   -1.8574509778    0.1744205229
H       -2.5248190644    0.3681447953    0.6523585348
H       -1.3302293337    2.3370760956    0.6936445040
C        1.3693941164   -0.5281053170   -0.4843108621
H        2.2974104617   -0.9855631675   -0.8169810191
13   
Frame   9 IRC: Energy =  -286.9449071734 ; +0.8132 kcal/mol
C        1.4628322763    0.8381575358   -0.1582329328
C        0.2524322547   -1.3853661565   -0.3386454243
C       -1.0000050514   -1.0638494619    0.1372602563
C       -1.4686130644    0.2728072272    0.4179067767
C       -0.7643529180    1.4448740235    0.4286577145
N        0.5895506966    1.7183491652    0.2932655502
H        2.4727529463    1.2463578338   -0.2518722813
H        0.4243488359   -2.4329200052   -0.5815674306
H       -1.7199553776   -1.8689451408    0.2476978611
H       -2.5323538296    0.3692628965    0.6289398049
H       -1.3398394148    2.3497099867    0.6180265862
C        1.3528187690   -0.5197674321   -0.5351157843
H        2.2703838770   -0.9686704722   -0.9063206965
13   
Frame  10 IRC: Energy =  -286.9441126221 ; +1.3118 kcal/mol
C        1.4677976022    0.8319665367   -0.1267706878
C        0.2551851619   -1.3772223183   -0.3447331026
C       -0.9900012401   -1.0629530308    0.1721647604
C       -1.4715966264    0.2724123673    0.4155786987
C       -0.7700305710    1.4465105116    0.4067100423
N        0.5949391623    1.6965993115    0.3333301915
H        2.4902550354    1.2190095648   -0.1557438850
H        0.4268406813   -2.4256446146   -0.5854152341
H       -1.6943326555   -1.8760283173    0.3186208300
H       -2.5393372059    0.3678310363    0.6074626219
H       -1.3439589433    2.3609245557    0.5460527606
C        1.3359334495   -0.5087434457   -0.5833365711
H        2.2383061494   -0.9446621572   -1.0039204247
13   
Frame  11 IRC: Energy =  -286.9431428502 ; +1.9203 kcal/mol
C        1.4708098034    0.8239922477   -0.0988396503
C        0.2589534668   -1.3705590697   -0.3464523891
C       -0.9786262709   -1.0600019657    0.2008207266
C       -1.4747209546    0.2729871730    0.4092842479
C       -0.7738357281    1.4481667263    0.3852310375
N        0.5964960167    1.6756257899    0.3664952327
H        2.5035552191    1.1820441654   -0.0561592805
H        0.4343640820   -2.4209659126   -0.5770050218
H       -1.6674590227   -1.8791291629    0.3840699406
H       -2.5456883523    0.3656022490    0.5842950143
H       -1.3432890558    2.3702402891    0.4846477342
C        1.3187591321   -0.4951964784   -0.6291056765
H        2.2006816642   -0.9128060511   -1.1072819156
13   
Frame  12 IRC: Energy =  -286.9417724386 ; +2.7803 kcal/mol
C        1.4728405432    0.8137188955   -0.0708936590
C        0.2636977981   -1.3664567144   -0.3434140174
C       -0.9668773876   -1.0560384914    0.2222915322
C       -1.4772991892    0.2746017020    0.3983804155
C       -0.7755354109    1.4495161090    0.3665516286
N        0.5962889492    1.6556103354    0.3956304012
H        2.5115910696    1.1401494586    0.0369674352
H        0.4479673245   -2.4198522527   -0.5542404170
H       -1.6415187556   -1.8786624756    0.4413578412
H       -2.5511630382    0.3639656145    0.5559421098
H       -1.3386952339    2.3779070863    0.4365436386
C        1.3023334471   -0.4810270939   -0.6700775382
H        2.1563698839   -0.8734321733   -1.2150393706
13   
Frame  13 IRC: Energy =  -286.9397628974 ; +4.0413 kcal/mol
C        1.4739765773    0.8030762767   -0.0463141175
C        0.2691522436   -1.3646506853   -0.3369948126
C       -0.9553472125   -1.0520162166    0.2377621876
C       -1.4788762357    0.2767267629    0.3837754214
C       -0.7753028720    1.4503903312    0.3517964776
N        0.5958692480    1.6369924963    0.4217766733
H        2.5152087746    1.0945598690    0.1230095687
H        0.4670827801   -2.4212696377   -0.5194087331
H       -1.6173329002   -1.8757376287    0.4908661595
H       -2.5554600824    0.3630516964    0.5223997227
H       -1.3314231352    2.3841449865    0.4012002867
C        1.2864801556   -0.4665984528   -0.7078260248
H        2.1059726587   -0.8286697979   -1.3220428093
13   
Frame  14 IRC: Energy =  -286.9369721600 ; +5.7925 kcal/mol
C        1.4748900198    0.7912789498   -0.0214371141
C        0.2750514706   -1.3651362113   -0.3282745933
C       -0.9439309863   -1.0489369819    0.2500359740
C       -1.4785651017    0.2787079905    0.3662791533
C       -0.7729249766    1.4505473467    0.3395567260
N        0.5963211708    1.6192072457    0.4480835471
H        2.5158002419    1.0478733569    0.2000118477
H        0.4899878578   -2.4240651138   -0.4776614865
H       -1.5949769663   -1.8714874165    0.5348561642
H       -2.5577352665    0.3629776268    0.4839810836
H       -1.3220600764    2.3889890169    0.3733800471
C        1.2703831301   -0.4521374367   -0.7419319861
H        2.0477594828   -0.7778183731   -1.4268793631
13   
Frame  15 IRC: Energy =  -286.9334239554 ; +8.0190 kcal/mol
C        1.4755654107    0.7791368573    0.0023732057
C        0.2815464192   -1.3668974619   -0.3180708133
C       -0.9323285791   -1.0475588037    0.2619987127
C       -1.4756055914    0.2797757401    0.3473352404
C       -0.7679894564    1.4496474271    0.3292483057
N        0.5983989207    1.6024270548    0.4758589817
H        2.5143272454    0.9981398652    0.2705470227
H        0.5153268672   -2.4265783806   -0.4341532629
H       -1.5737598704   -1.8671678445    0.5758193407
H       -2.5573216271    0.3633874051    0.4411630866
H       -1.3108441709    2.3921210092    0.3481803611
C        1.2523583704   -0.4364004001   -0.7729145757
H        1.9803260617   -0.7200324680   -1.5273856055
13   
Frame  16 IRC: Energy =  -286.9292680653 ; +10.6269 kcal/mol
C        1.4755326419    0.7646068291    0.0277244975
C        0.2887595317   -1.3687509345   -0.3082226071
C       -0.9204026742   -1.0484635362    0.2759343318
C       -1.4695706828    0.2794892117    0.3278670492
C       -0.7598161563    1.4474677738    0.3193222440
N        0.6022968120    1.5855220778    0.5075975552
H        2.5120601760    0.9438091822    0.3335962762
H        0.5444721730   -2.4271535723   -0.3941941072
H       -1.5524131474   -1.8639304372    0.6167191599
H       -2.5537192159    0.3645734296    0.3942151567
H       -1.2969873222    2.3937286149    0.3206645455
C        1.2293355122   -0.4179296771   -0.7996557664
H        1.9004523520   -0.6529689618   -1.6215683353
13   
Frame  17 IRC: Energy =  -286.9245440000 ; +13.5913 kcal/mol
C        1.4732327741    0.7490946432    0.0507816783
C        0.2971517583   -1.3656276080   -0.2967871832
C       -0.9063747309   -1.0511118634    0.2972294363
C       -1.4598353499    0.2757681164    0.3098430089
C       -0.7460301268    1.4420804299    0.3120709925
N        0.6088516881    1.5669280265    0.5463389957
H        2.5082261514    0.8776686136    0.3874931280
H        0.5796293907   -2.4194469308   -0.3636482489
H       -1.5298370560   -1.8633591417    0.6573479773
H       -2.5464810399    0.3622161102    0.3390998174
H       -1.2749862225    2.3931686949    0.2848355692
C        1.1945336641   -0.3921818758   -0.8206955969
H        1.8019190994   -0.5751972148   -1.7039095747
13   
Frame  18 IRC: Energy =  -286.9235380000 ; +14.2226 kcal/mol
C        1.4745333545    0.7446234966    0.0537546476
C        0.3011856880   -1.3675479977   -0.2938230464
C       -0.9039192176   -1.0496755147    0.2959763367
C       -1.4613907624    0.2778121572    0.3061313055
C       -0.7485252148    1.4415831251    0.3093337945
N        0.6116094238    1.5670738271    0.5485047612
H        2.5090290144    0.8694329483    0.3990127762
H        0.5864095644   -2.4204498856   -0.3518938673
H       -1.5297593635   -1.8645499657    0.6594814439
H       -2.5414301656    0.3620510236    0.3346118021
H       -1.2716299177    2.3912217208    0.2830484390
C        1.1923769457   -0.3909539006   -0.8240358709
H        1.7815106508   -0.5606210343   -1.7201025220
13   
Frame  19 IRC: Energy =  -286.9217300000 ; +15.3571 kcal/mol
C        1.4775019690    0.7409742753    0.0624125729
C        0.3041245193   -1.3705452616   -0.2868169321
C       -0.9019371577   -1.0524572838    0.2942303369
C       -1.4550740265    0.2751753426    0.2986823197
C       -0.7405023104    1.4412466768    0.3054122664
N        0.6124613209    1.5627964002    0.5485905966
H        2.5080300171    0.8536071889    0.4187497512
H        0.5987190835   -2.4227054805   -0.3306878964
H       -1.5261016885   -1.8619353493    0.6604983741
H       -2.5412410874    0.3624084425    0.3272435868
H       -1.2686821132    2.3925858165    0.2800488064
C        1.1889974589   -0.3879311996   -0.8272983021
H        1.7437040150   -0.5332195680   -1.7510654805
13   
Frame  20 IRC: Energy =  -286.9207480000 ; +15.9733 kcal/mol
C        1.4791529621    0.7365128159    0.0650459901
C        0.3078039516   -1.3729175495   -0.2839965809
C       -0.8993335872   -1.0513810311    0.2924929010
C       -1.4565962591    0.2772666671    0.2951453700
C       -0.7431240946    1.4407981206    0.3025899779
N        0.6154679795    1.5630437553    0.5499467280
H        2.5086690877    0.8459779568    0.4294050998
H        0.6049811297   -2.4234108449   -0.3197245829
H       -1.5260137799   -1.8630513646    0.6620586482
H       -2.5362475902    0.3622231067    0.3237256458
H       -1.2654925415    2.3905802992    0.2786259070
C        1.1876740605   -0.3869043941   -0.8296604551
H        1.7230586816   -0.5187375375   -1.7656546491
13   
Frame  21 IRC: Energy =  -286.9189500000 ; +17.1016 kcal/mol
C        1.4822478413    0.7327621287    0.0733262583
C        0.3110880098   -1.3756888767   -0.2776635138
C       -0.8975461306   -1.0540019716    0.2900453300
C       -1.4501413358    0.2744206773    0.2877307159
C       -0.7348157609    1.4404130376    0.2984155969
N        0.6164613240    1.5589315772    0.5487340688
H        2.5077180582    0.8304788759    0.4484131264
H        0.6171101689   -2.4255547590   -0.2991571898
H       -1.5222799618   -1.8605686717    0.6623966229
H       -2.5359722393    0.3624804439    0.3178701350
H       -1.2627124625    2.3918942310    0.2761840092
C        1.1859757447   -0.3852270362   -0.8325031919
H        1.6828667440   -0.4903396564   -1.7937919679
13   
Frame  22 IRC: Energy =  -286.9180520000 ; +17.6651 kcal/mol
C        1.4838890224    0.7284386269    0.0754312493
C        0.3144672097   -1.3781686181   -0.2752308427
C       -0.8949443923   -1.0530375402    0.2880106396
C       -1.4516704779    0.2765557961    0.2844958839
C       -0.7376661092    1.4399953910    0.2956204938
N        0.6196166282    1.5592205947    0.5494579874
H        2.5082108254    0.8234473433    0.4579871147
H        0.6227885579   -2.4258797099   -0.2893372714
H       -1.5221275955   -1.8616491522    0.6635616374
H       -2.5311690185    0.3622617310    0.3153103455
H       -1.2597422304    2.3898845392    0.2751272681
C        1.1854756053   -0.3844968483   -0.8342440501
H        1.6628719749   -0.4765721535   -1.8061904555
13   
Frame  23 IRC: Energy =  -286.9163480000 ; +18.7344 kcal/mol
C        1.4871285477    0.7244880903    0.0829749942
C        0.3179708323   -1.3804745536   -0.2698577190
C       -0.8932063305   -1.0554689337    0.2850267069
C       -1.4452482307    0.2735598779    0.2772539017
C       -0.7292086557    1.4396587147    0.2913180844
N        0.6204560892    1.5552407914    0.5472908315
H        2.5068516570    0.8079866247    0.4759941332
H        0.6346544823   -2.4275098727   -0.2697848606
H       -1.5181860083   -1.8592115808    0.6634176128
H       -2.5309749310    0.3624575162    0.3109886879
H       -1.2572021357    2.3912255379    0.2732745341
C        1.1851856392   -0.3838214187   -0.8371127678
H        1.6217790441   -0.4481307934   -1.8307841394
13   
Frame  24 IRC: Energy =  -286.9154300000 ; +19.3104 kcal/mol
C        1.4889763874    0.7197858688    0.0850096537
C        0.3214103922   -1.3831535442   -0.2674488029
C       -0.8904767038   -1.0547580504    0.2825474806
C       -1.4465145201    0.2755536337    0.2737425737
C       -0.7316151266    1.4392676872    0.2882177429
N        0.6236213890    1.5553113336    0.5474273641
H        2.5069593593    0.8000206862    0.4860491357
H        0.6407994121   -2.4274327272   -0.2594967557
H       -1.5175714508   -1.8600149305    0.6642919261
H       -2.5262162304    0.3622224733    0.3089533203
H       -1.2542268871    2.3893392777    0.2724058597
C        1.1853314767   -0.3831586918   -0.8386941054
H        1.5995225021   -0.4329830165   -1.8430053927
13   
Frame  25 IRC: Energy =  -286.9137360000 ; +20.3734 kcal/mol
C        1.4922760592    0.7148046154    0.0919115827
C        0.3257184264   -1.3850957025   -0.2629508141
C       -0.8882964618   -1.0565743519    0.2786252034
C       -1.4405798283    0.2729283999    0.2661437568
C       -0.7237775906    1.4389838281    0.2832893279
N        0.6248065958    1.5513738425    0.5444224883
H        2.5049208235    0.7826660795    0.5047191309
H        0.6536312894   -2.4281314258   -0.2394068657
H       -1.5131871722   -1.8577956996    0.6640095954
H       -2.5253161279    0.3622904216    0.3060565807
H       -1.2514187212    2.3903954061    0.2710979150
C        1.1862132063   -0.3831960677   -0.8425205720
H        1.5550095012   -0.4026493455   -1.8653973292
13   
Frame  26 IRC: Energy =  -286.9130220000 ; +20.8215 kcal/mol
C        1.4936677489    0.7105102695    0.0930389960
C        0.3286076256   -1.3873863108   -0.2613076704
C       -0.8858232566   -1.0559291280    0.2762659883
C       -1.4419116076    0.2747796800    0.2632891364
C       -0.7262506607    1.4387374711    0.2805809091
N        0.6276728429    1.5514357797    0.5442563624
H        2.5046534108    0.7755899323    0.5129042418
H        0.6587654454   -2.4274230031   -0.2311734506
H       -1.5124788813   -1.8584391442    0.6646338109
H       -2.5212382354    0.3620732823    0.3050294051
H       -1.2489536563    2.3887614363    0.2706350984
C        1.1867999647   -0.3825575565   -0.8438942766
H        1.5364892596   -0.3901527087   -1.8742585508
13   
Frame  27 IRC: Energy =  -286.9114550000 ; +21.8048 kcal/mol
C        1.4964645772    0.7049742819    0.0991761131
C        0.3333403016   -1.3884561294   -0.2579914574
C       -0.8835569041   -1.0571939474    0.2716700051
C       -1.4362597038    0.2722475379    0.2555457054
C       -0.7186100697    1.4386136500    0.2752752833
N        0.6288304821    1.5472051526    0.5403879437
H        2.5013643351    0.7561397752    0.5317276930
H        0.6724158017   -2.4267926409   -0.2111307617
H       -1.5074376366   -1.8561129311    0.6641845434
H       -2.5202862888    0.3620949225    0.3038893149
H       -1.2462345215    2.3899164579    0.2699902048
C        1.1883332281   -0.3829358029   -0.8491530116
H        1.4916363988   -0.3597003262   -1.8935715759
13   
Frame  28 IRC: Energy =  -286.9109050000 ; +22.1499 kcal/mol
C        1.4973147774    0.7010293448    0.0995988688
C        0.3358634173   -1.3903100757   -0.2569553692
C       -0.8813546634   -1.0564493232    0.2694350037
C       -1.4376589163    0.2740078784    0.2531993469
C       -0.7212113289    1.4384739555    0.2728673146
N        0.6314551928    1.5472456934    0.5400715322
H        2.5007930636    0.7495877697    0.5386200733
H        0.6768785596   -2.4255771172   -0.2043819690
H       -1.5066759605   -1.8566673945    0.6646944048
H       -2.5167384515    0.3618977113    0.3036245148
H       -1.2441558722    2.3884865747    0.2698264948
C        1.1890522336   -0.3822788588   -0.8506456967
H        1.4764379487   -0.3494461583   -1.8999545189
13   
Frame  29 IRC: Energy =  -286.9094910000 ; +23.0372 kcal/mol
C        1.4995893157    0.6947622836    0.1047753176
C        0.3408528141   -1.3903266722   -0.2549812449
C       -0.8790236396   -1.0571487404    0.2642102853
C       -1.4324837364    0.2716767756    0.2453695941
C       -0.7138749073    1.4386210071    0.2672416942
N        0.6321736687    1.5428321986    0.5355159209
H        2.4956439466    0.7277035222    0.5576084029
H        0.6913593143   -2.4231690014   -0.1843523460
H       -1.5009745570   -1.8540918992    0.6640584834
H       -2.5158940979    0.3619557865    0.3044978875
H       -1.2416570760    2.3898522984    0.2699055390
C        1.1907272831   -0.3825555416   -0.8574787166
H        1.4335616717   -0.3201120173   -1.9163708173
13   
Frame  30 IRC: Energy =  -286.9090060000 ; +23.3415 kcal/mol
C        1.5001268690    0.6906852506    0.1048377891
C        0.3433099537   -1.3918323967   -0.2543159285
C       -0.8769465698   -1.0563566942    0.2618150505
C       -1.4337866542    0.2733146144    0.2430419913
C       -0.7161934772    1.4385758986    0.2647981003
N        0.6344693924    1.5426938176    0.5349120908
H        2.4944367884    0.7203417270    0.5645186794
H        0.6960458105   -2.4213200823   -0.1776979716
H       -1.4998819644   -1.8544052276    0.6644343357
H       -2.5127051021    0.3617931047    0.3049168198
H       -1.2397907121    2.3886912844    0.2699822953
C        1.1915184764   -0.3817519918   -0.8594076425
H        1.4193971893   -0.3104293047   -1.9218356095
13   
Frame  31 IRC: Energy =  -286.9076590000 ; +24.1868 kcal/mol
C        1.5014727005    0.6830296333    0.1090234829
C        0.3488717868   -1.3906007106   -0.2537911281
C       -0.8744157490   -1.0560922165    0.2554289717
C       -1.4294879172    0.2714922885    0.2347376425
C       -0.7097447275    1.4391592065    0.2584317433
N        0.6349369203    1.5379862616    0.5294580886
H        2.4864902502    0.6940239313    0.5851316158
H        0.7124223218   -2.4161908029   -0.1561661046
H       -1.4933177348   -1.8515364705    0.6635206356
H       -2.5116705363    0.3619300006    0.3085052486
H       -1.2373526255    2.3902495623    0.2709060926
C        1.1931663000   -0.3816074308   -0.8685528280
H        1.3786290104   -0.2818432528   -1.9366334610
13   
Frame  32 IRC: Energy =  -286.9072620000 ; +24.4359 kcal/mol
C        1.5015999233    0.6790744481    0.1086239993
C        0.3510619255   -1.3917065293   -0.2535464566
C       -0.8725744900   -1.0552196306    0.2530540328
C       -1.4308717087    0.2730745357    0.2326944217
C       -0.7120462215    1.4392395227    0.2561685422
N        0.6368508276    1.5378075369    0.5287359859
H        2.4846893536    0.6865540585    0.5914633465
H        0.7168478983   -2.4137232977   -0.1501560045
H       -1.4921416236   -1.8516906850    0.6637381543
H       -2.5089379234    0.3618239378    0.3096176187
H       -1.2358080194    2.3893396415    0.2712007352
C        1.1938900342   -0.3806115655   -0.8707103559
H        1.3674400243   -0.2739619731   -1.9408840197
13   
Frame  33 IRC: Energy =  -286.9059820000 ; +25.2391 kcal/mol
C        1.5015552180    0.6703796117    0.1118657828
C        0.3568353150   -1.3887610301   -0.2545877450
C       -0.8703451066   -1.0539140308    0.2455904121
C       -1.4275153943    0.2716138174    0.2241692682
C       -0.7063254715    1.4403523569    0.2493208892
N        0.6366544042    1.5327257354    0.5223037589
H        2.4732732920    0.6558672528    0.6133587704
H        0.7348605538   -2.4053428789   -0.1270797779
H       -1.4849415312   -1.8484394463    0.6620792204
H       -2.5081761277    0.3621446665    0.3165218617
H       -1.2336819550    2.3913572766    0.2729231701
C        1.1953424844   -0.3799826670   -0.8820877970
H        1.3324643188   -0.2480006641   -1.9543778140
13   
Frame  34 IRC: Energy =  -286.9056330000 ; +25.4581 kcal/mol
C        1.5012808535    0.6664489425    0.1110919083
C        0.3588525208   -1.3895012887   -0.2546696806
C       -0.8687150572   -1.0528804585    0.2431554786
C       -1.4290779985    0.2732145260    0.2223612784
C       -0.7088199543    1.4405412146    0.2471735103
N        0.6383502565    1.5325211594    0.5214781461
H        2.4708199315    0.6481174812    0.6193744300
H        0.7391543418   -2.4021914017   -0.1213572302
H       -1.4837639567   -1.8485164921    0.6620872781
H       -2.5057441605    0.3620976869    0.3183316831
H       -1.2323561147    2.3906267668    0.2733710305
C        1.1960027643   -0.3788177459   -0.8845093805
H        1.3240165736   -0.2416603903   -1.9578884522
13   
Frame  35 IRC: Energy =  -286.9043800000 ; +26.2444 kcal/mol
C        1.4998960337    0.6570155338    0.1135493376
C        0.3644073029   -1.3847846548   -0.2570367638
C       -0.8671875168   -1.0506907419    0.2349138633
C       -1.4267879190    0.2720392609    0.2140733492
C       -0.7037027389    1.4420958383    0.2402743045
N        0.6371595125    1.5272494702    0.5142727114
H        2.4560003143    0.6143363011    0.6416262971
H        0.7579790059   -2.3904961106   -0.0971121745
H       -1.4765158285   -1.8450837195    0.6591557316
H       -2.5054671997    0.3626365254    0.3285678690
H       -1.2305664314    2.3931426961    0.2755308570
C        1.1973456163   -0.3778285816   -0.8973502538
H        1.2974398486   -0.2196318173   -1.9704651287
13   
Frame  36 IRC: Energy =  -286.9040240000 ; +26.4678 kcal/mol
C        1.4992248556    0.6528423272    0.1124804540
C        0.3663979127   -1.3851636969   -0.2573584907
C       -0.8657362371   -1.0494361621    0.2322369897
C       -1.4286130542    0.2737122501    0.2123792859
C       -0.7064869416    1.4423684753    0.2381015221
N        0.6387750262    1.5269612860    0.5132587618
H        2.4526644732    0.6057331854    0.6478109121
H        0.7624737630   -2.3863962131   -0.0910641652
H       -1.4753158684   -1.8451213727    0.6588186994
H       -2.5031688252    0.3626474530    0.3312204543
H       -1.2293231339    2.3925677032    0.2760689145
C        1.1980341100   -0.3764875563   -0.9001533579
H        1.2910739196   -0.2142276790   -1.9737999801
13   
Frame  37 IRC: Energy =  -286.9027350000 ; +27.2767 kcal/mol
C        1.4967366919    0.6429260652    0.1144990001
C        0.3714579313   -1.3788504460   -0.2606325886
C       -0.8651470267   -1.0465998214    0.2235993053
C       -1.4273760618    0.2726862320    0.2047336539
C       -0.7018155880    1.4441728254    0.2315446553
N        0.6366072329    1.5215982349    0.5055535701
H        2.4350938131    0.5704181368    0.6694706541
H        0.7812919044   -2.3716618460   -0.0661015221
H       -1.4685959788   -1.8418658595    0.6542392440
H       -2.5033896978    0.3633407899    0.3443367632
H       -1.2276605678    2.3954811808    0.2781293039
C        1.1994858154   -0.3753872250   -0.9136366691
H        1.2733115319   -0.1962582670   -1.9857353701
13   
Frame  38 IRC: Energy =  -286.9023110000 ; +27.5427 kcal/mol
C        1.4956980389    0.6380857227    0.1131732032
C        0.3735218594   -1.3787885492   -0.2611482594
C       -0.8638499107   -1.0450924515    0.2204610780
C       -1.4295845711    0.2744941336    0.2030563287
C       -0.7049374295    1.4445019800    0.2292149526
N        0.6381592376    1.5211676862    0.5042283142
H        2.4304357500    0.5601905190    0.6762926545
H        0.7863651397   -2.3660941599   -0.0590461100
H       -1.4673297976   -1.8418898131    0.6532979102
H       -2.5011062742    0.3634068147    0.3481600040
H       -1.2263520061    2.3950922395    0.2786758500
C        1.2003409245   -0.3738122508   -0.9169931089
H        1.2686390390   -0.1912618712   -1.9893728170
13   