
Running Job 1 of 1 irc_reactant.in
qchem irc_reactant.in_9052.0 ./irc_reactant.d/ 1
/home/leeping/opt/qchem/5.0.2-openmp/exe/qcprog.exe_s irc_reactant.in_9052.0 ./irc_reactant.d/
Check license passed

                  Welcome to Q-Chem
     A Quantum Leap Into The Future Of Chemistry


 Q-Chem 5.0, Q-Chem, Inc., Pleasanton, CA (2017)

 Yihan Shao,  Zhengting Gan,  E. Epifanovsky,  A. T. B. Gilbert,  M. Wormit,  
 J. Kussmann,  A. W. Lange,  A. Behn,  Jia Deng,  Xintian Feng,  D. Ghosh,  
 M. Goldey,  P. R. Horn,  L. D. Jacobson,  I. Kaliman,  T. Kus,  A. Landau,  
 Jie Liu,  E. I. Proynov,  R. M. Richard,  R. P. Steele,  E. J. Sundstrom,  
 H. L. Woodcock III,  P. M. Zimmerman,  D. Zuev,  B. Albrecht,  E. Alguire,  
 S. A. Baeppler,  D. Barton,  Z. Benda,  Y. A. Bernard,  E. J. Berquist,  
 K. B. Bravaya,  H. Burton,  D. Casanova,  Chun-Min Chang,  Yunqing Chen,  
 A. Chien,  K. D. Closser,  M. P. Coons,  S. Dasgupta,  A. L. Dempwolff,  
 M. Diedenhofen,  Hainam Do,  R. G. Edgar,  Po-Tung Fang,  S. Fatehi,  
 Qingguo Feng,  J. Fosso-Tande,  Qinghui Ge,  A. Ghysels,  G. Gidofalvi,  
 J. Gomes,  J. Gonthier,  A. Gunina,  M. W. D. Hanson-Heine,  
 P. H. P. Harbach,  A. W. Hauser,  J. E. Herr,  E. G. Hohenstein,  
 Z. C. Holden,  Kerwin Hui,  T.-C. Jagau,  Hyunjun Ji,  B. Kaduk,  
 K. Khistyaev,  Jaehoon Kim,  P. Klunzinger,  K. Koh,  D. Kosenkov,  
 L. Koulias,  T. Kowalczyk,  C. M. Krauter,  A. Kunitsa,  Ka Un Lao,  
 A. Laurent,  K. V. Lawler,  Joonho Lee,  D. Lefrancois,  S. Lehtola,  
 D. S. Levine,  Yi-Pei Li,  You-Sheng Lin,  Fenglai Liu,  E. Livshits,  
 A. Luenser,  P. Manohar,  E. Mansoor,  S. F. Manzer,  Shan-Ping Mao,  
 Yuezhi Mao,  N. Mardirossian,  A. V. Marenich,  T. Markovich,  
 L. A. Martinez-Martinez,  S. A. Maurer,  N. J. Mayhall,  S. C. McKenzie,  
 J.-M. Mewes,  A. F. Morrison,  J. W. Mullinax,  K. Nanda,  
 T. S. Nguyen-Beck,  R. Olivares-Amaya,  J. A. Parkhill,  T. M. Perrine,  
 F. Plasser,  S. Prager,  A. Prociuk,  E. Ramos,  D. R. Rehn,  F. Rob,  
 M. Schneider,  N. Sergueev,  S. M. Sharada,  S. Sharma,  D. W. Small,  
 T. Stauch,  T. Stein,  Yu-Chuan Su,  A. J. W. Thom,  A. Tkatchenko,  
 T. Tsuchimochi,  L. Vogt,  O. Vydrov,  M. A. Watson,  J. Wenzel,  
 M. de Wergifosse,  T. A. Wesolowski,  A. White,  J. Witte,  A. Yamada,  
 Jun Yang,  K. Yao,  S. Yeganeh,  S. R. Yost,  Zhi-Qiang You,  A. Zech,  
 Igor Ying Zhang,  Xing Zhang,  Yan Zhao,  Ying Zhu,  B. R. Brooks,  
 G. K. L. Chan,  C. J. Cramer,  M. S. Gordon,  W. J. Hehre,  A. Klamt,  
 M. W. Schmidt,  C. D. Sherrill,  D. G. Truhlar,  A. Aspuru-Guzik,  R. Baer,  
 A. T. Bell,  N. A. Besley,  Jeng-Da Chai,  R. A. DiStasio Jr.,  A. Dreuw,  
 B. D. Dunietz,  T. R. Furlani,  Chao-Ping Hsu,  Yousung Jung,  Jing Kong,  
 D. S. Lambrecht,  WanZhen Liang,  C. Ochsenfeld,  V. A. Rassolov,  
 L. V. Slipchenko,  J. E. Subotnik,  T. Van Voorhis,  J. M. Herbert,  
 A. I. Krylov,  P. M. W. Gill,  M. Head-Gordon

 Contributors to earlier versions of Q-Chem not listed above: 
 R. D. Adamson,  B. Austin,  J. Baker,  G. J. O. Beran,  K. Brandhorst,  
 S. T. Brown,  E. F. C. Byrd,  A. K. Chakraborty,  C.-L. Cheng,  
 Siu Hung Chien,  D. M. Chipman,  D. L. Crittenden,  H. Dachsel,  
 R. J. Doerksen,  A. D. Dutoi,  L. Fusti-Molnar,  W. A. Goddard III,  
 A. Golubeva-Zadorozhnaya,  S. R. Gwaltney,  G. Hawkins,  A. Heyden,  
 S. Hirata,  G. Kedziora,  F. J. Keil,  C. Kelley,  Jihan Kim,  R. A. King,  
 R. Z. Khaliullin,  P. P. Korambath,  W. Kurlancheek,  A. M. Lee,  M. S. Lee,  
 S. V. Levchenko,  Ching Yeh Lin,  D. Liotard,  R. C. Lochan,  I. Lotan,  
 P. E. Maslen,  N. Nair,  D. P. O'Neill,  D. Neuhauser,  E. Neuscamman,  
 C. M. Oana,  R. Olson,  B. Peters,  R. Peverati,  P. A. Pieniazek,  
 Y. M. Rhee,  J. Ritchie,  M. A. Rohrdanz,  E. Rosta,  N. J. Russ,  
 H. F. Schaefer III,  N. E. Schultz,  N. Shenvi,  A. C. Simmonett,  A. Sodt,  
 D. Stuck,  K. S. Thanthiriwatte,  V. Vanovschi,  Tao Wang,  A. Warshel,  
 C. F. Williams,  Q. Wu,  X. Xu,  W. Zhang

 Please cite Q-Chem as follows:
 Y. Shao et al., Mol. Phys. 113, 184-215 (2015)
 DOI: 10.1080/00268976.2014.952696

 Q-Chem 5.0.2 for Intel X86 EM64T Linux

 Parts of Q-Chem use Armadillo 5.200.1 (Boston Tea Smuggler).
 http://arma.sourceforge.net/

 Q-Chem begins on Tue Mar  1 18:47:48 2022  

Host: 
0

     Scratch files written to ./irc_reactant.d//
 Dec517 15110_ 26548  26544 5633   
Processing $rem in /home/leeping/opt/qchem/5.0.2-openmp/config/preferences.
 MEM_STATIC 2000
 MEM_TOTAL  8000
 SYMMETRY   OFF
 SYM_IGNORE TRUE 

Checking the input file for inconsistencies... 	...done.

--------------------------------------------------------------
User input:
--------------------------------------------------------------
$molecule
0 2
C        1.4590727568    0.8320084931   -0.2138011157
C        0.2495064295   -1.4019177979   -0.3183714406
C       -1.0125901323   -1.0486075364    0.0633252545
C       -1.4714426484    0.2703698080    0.4188854643
C       -0.7482559236    1.4503701221    0.4515044901
N        0.5451336609    1.7504915536    0.1825522642
H        2.4413332823    1.2773898842   -0.3788855924
H        0.4234767287   -2.4495068089   -0.5534868658
H       -1.7588205901   -1.8387162351    0.1066704063
H       -2.5188970166    0.3563580719    0.6965546020
H       -1.3182673966    2.3304766482    0.7532831342
C        1.3904792442   -0.5308395084   -0.4453777349
H        2.3192716050   -0.9978766949   -0.7628528659
$end

$rem
method                b3lyp
basis                 6-31+g(d,p)
unrestricted          true
symmetry              off
sym_ignore            true
incdft                false
incfock               0
scf_convergence       8
thresh                14
jobtype               sp
scf_guess             read
scf_algorithm         diis
max_scf_cycles        100
scf_final_print       1
$end

--------------------------------------------------------------
 ----------------------------------------------------------------
             Standard Nuclear Orientation (Angstroms)
    I     Atom           X                Y                Z
 ----------------------------------------------------------------
    1      C       1.4590727568     0.8320084931    -0.2138011157
    2      C       0.2495064295    -1.4019177979    -0.3183714406
    3      C      -1.0125901323    -1.0486075364     0.0633252545
    4      C      -1.4714426484     0.2703698080     0.4188854643
    5      C      -0.7482559236     1.4503701221     0.4515044901
    6      N       0.5451336609     1.7504915536     0.1825522642
    7      H       2.4413332823     1.2773898842    -0.3788855924
    8      H       0.4234767287    -2.4495068089    -0.5534868658
    9      H      -1.7588205901    -1.8387162351     0.1066704063
   10      H      -2.5188970166     0.3563580719     0.6965546020
   11      H      -1.3182673966     2.3304766482     0.7532831342
   12      C       1.3904792442    -0.5308395084    -0.4453777349
   13      H       2.3192716050    -0.9978766949    -0.7628528659
 ----------------------------------------------------------------
 Nuclear Repulsion Energy =   260.5235471667 hartrees
 There are       25 alpha and       24 beta electrons
 Requested basis set is 6-31+G(d,p)
 There are 53 shells and 163 basis functions

 Total QAlloc Memory Limit   8000 MB
 Mega-Array Size      1956 MB
 MEM_STATIC part      2000 MB

                       Distance Matrix (Angstroms)
             C (  1)   C (  2)   C (  3)   C (  4)   C (  5)   N (  6)
   C (  2)  2.542521
   C (  3)  3.118114  1.365067
   C (  4)  3.050189  2.510331  1.441066
   C (  5)  2.386902  3.118298  2.542724  1.384364
   N (  6)  1.354988  3.205621  3.205569  2.512607  1.354719
   H (  7)  1.091079  3.462146  4.187529  4.118294  3.300447  2.033374
   H (  8)  3.457772  1.087652  2.098872  3.454556  4.194282  4.265740
   H (  9)  4.194080  2.098769  1.087663  2.151350  3.458069  4.265721
   H ( 10)  4.108435  3.433026  2.154964  1.087039  2.095729  3.405303
   H ( 11)  3.300648  4.187735  3.462324  2.092684  1.091133  2.033317
   C ( 12)  1.384084  1.441085  2.510300  3.095074  3.050209  2.512643
   H ( 13)  2.095204  2.155166  3.433139  4.168269  4.108321  3.405126
             H (  7)   H (  8)   H (  9)   H ( 10)   H ( 11)   C ( 12)
   H (  8)  4.241697
   H (  9)  5.252349  2.360359
   H ( 10)  5.158368  4.253592  2.396671
   H ( 11)  4.065144  5.252577  4.241976  2.311249
   C ( 12)  2.092465  2.151294  3.454474  4.168255  4.118401
   H ( 13)  2.310664  2.396894  4.253695  5.231797  5.158323  1.087000

 
 A cutoff of  1.0D-14 yielded   1361 shell pairs
 There are     13409 function pairs
 
 -------------------------------------------------------
 OpenMP Integral Computing Module                       
 Release: version 1.0, May 2013, Q-Chem Inc. Pittsburgh 
 -------------------------------------------------------
 Integral Job Info:
 Integral job number is                      11
 Integral operator is                         1
 short-range coefficients                     0
 long-range coefficients              100000000
 Omega coefficients                           0
 if combine SR and LR in K                    0
 Integral screening is                        0
 Integral computing path is                   2
 max size of driver memory is            800000
 size of driver memory is                593474
 size of scratch memory is              2361544
 max col of scratch BK array               1296
 max len of scratch array in speh3          155
 max len of scratch index in speh4           18
 max int batch size is                      520
 min int batch size is                       52
 fixed nKL is                                52
 max L of basis functions is                  2
 order of int derivative is                   0
 number of shells is                         53
 number of basis is                         163
 number of cartesian basis is               163
 number of contracted shell pairs          1361
 number of primitive shell pairs           4562
 maxK2 (contraction) of shell pair           36
 max number of K2 of shell pair               1
 max number of CS2 of shell pair            136
 max number of PS2 of shell pair            696
 mem total for path MDJ                  535308
 -------------------------------------------------------
 Smallest overlap matrix eigenvalue = 9.06E-06

 Scale SEOQF with 1.000000e-01/1.000000e-01/1.000000e-01

 Standard Electronic Orientation quadrupole field applied
 Nucleus-field energy     =     0.0000000073 hartrees
 Guess MOs from SCF MO coefficient file
 Reading MOs from coefficient file
 Reading MOs from coefficient file
 An unrestricted hybrid HF-DFT SCF calculation will be
 performed using Pulay DIIS extrapolation
 Exchange:     0.2000 Hartree-Fock + 0.0800 Slater + 0.7200 B88
 Correlation:  0.1900 VWN1RPA + 0.8100 LYP
 Using SG-1 standard quadrature grid
 SCF converges when DIIS error is below 1.0E-08
Using Q-Chem read-in guess as SCF_GUESS READ specified.

 using 4 threads for integral computing
 -------------------------------------------------------
 OpenMP Integral computing Module                
 Release: version 1.0, May 2013, Q-Chem Inc. Pittsburgh 
 -------------------------------------------------------
 -------------------------------------------------------
 OpenMP BLAS3 based DFT computing Module                
 Release: version 1.0, May 2013, Q-Chem Inc. Pittsburgh 
 -------------------------------------------------------
 ---------------------------------------
  Cycle       Energy         DIIS Error
 ---------------------------------------
    1    -286.9462030877      1.69E-10
    2    -286.9462030877      3.27E-10 Convergence criterion met
 ---------------------------------------
 One-Electron    Energy =  -901.3842901712
 Total Coulomb   Energy =   395.5192118305
 Alpha Exchange  Energy =    -4.0233329989
 Beta  Exchange  Energy =    -3.9193111843
 DFT   Exchange  Energy =   -31.5581447116
 DFT Correlation Energy =    -2.1038830262
 Nuclear Repu.   Energy =   260.5235471740
 Nuclear Attr.   Energy = -1185.5095448511
 Kinetic         Energy =   284.1252546799
 <S^2> = 0.7675
 SCF time:  CPU 9.83 s  wall 3.66 s
 Final Alpha MO Eigenvalues
            1           2           3           4           5           6
    1 -14.3369647 -10.2434082 -10.2433398 -10.2230879 -10.2223804 -10.2121788
            7           8           9          10          11          12
    1 -10.2121722  -0.9342898  -0.8293029  -0.7952485  -0.7033314  -0.6777170
           13          14          15          16          17          18
    1  -0.5617943  -0.5469078  -0.5269757  -0.4578395  -0.4492180  -0.4231916
           19          20          21          22          23          24
    1  -0.4054542  -0.3954858  -0.3585033  -0.3331532  -0.3102640  -0.2632264
           25          26          27          28          29          30
    1  -0.1739494  -0.0870439  -0.0024001   0.0154746   0.0232059   0.0452071
 Final Beta MO Eigenvalues
            1           2           3           4           5           6
    1 -14.3293419 -10.2448321 -10.2447506 -10.2216404 -10.2209479 -10.2077381
            7           8           9          10          11          12
    1 -10.2077234  -0.9232448  -0.8202739  -0.7880457  -0.6916850  -0.6756451
           13          14          15          16          17          18
    1  -0.5568157  -0.5442800  -0.5236141  -0.4558128  -0.4477080  -0.4199376
           19          20          21          22          23          24
    1  -0.3922787  -0.3840587  -0.3573866  -0.3066731  -0.2873543  -0.2539949
           25          26          27          28          29
    1  -0.0934120  -0.0852029  -0.0020297   0.0156866   0.0230038
 SCF   energy in the final basis set = -286.94620309
 Total energy in the final basis set = -286.94620309
 
 --------------------------------------------------------------
 
                    Orbital Energies (a.u.)
 --------------------------------------------------------------
 
 Alpha MOs
 -- Occupied --
-14.337 -10.243 -10.243 -10.223 -10.222 -10.212 -10.212  -0.934
 -0.829  -0.795  -0.703  -0.678  -0.562  -0.547  -0.527  -0.458
 -0.449  -0.423  -0.405  -0.395  -0.359  -0.333  -0.310  -0.263
 -0.174
 -- Virtual --
 -0.087  -0.002   0.015   0.023   0.045   0.050   0.054   0.063
  0.072   0.075   0.077   0.083   0.091   0.094   0.128   0.132
  0.133   0.134   0.139   0.143   0.164   0.183   0.183   0.184
  0.205   0.207   0.213   0.228   0.229   0.247   0.247   0.259
  0.264   0.266   0.291   0.292   0.302   0.308   0.339   0.391
  0.408   0.411   0.460   0.595   0.613   0.623   0.647   0.682
  0.694   0.702   0.702   0.733   0.735   0.755   0.774   0.777
  0.894   0.914   0.919   0.940   0.943   0.977   0.978   0.998
  1.001   1.022   1.037   1.109   1.114   1.124   1.164   1.192
  1.217   1.265   1.275   1.279   1.298   1.339   1.365   1.382
  1.428   1.462   1.499   1.597   1.676   1.727   1.784   1.843
  1.853   1.893   1.905   1.943   1.950   1.976   2.003   2.029
  2.075   2.101   2.132   2.257   2.293   2.361   2.383   2.393
  2.399   2.418   2.449   2.450   2.455   2.472   2.503   2.512
  2.525   2.562   2.620   2.624   2.664   2.737   2.755   2.842
  3.009   3.072   3.117   3.244   3.261   3.290   3.346   3.350
  3.405   3.652   3.759   4.179   4.224   4.306   4.381   4.409
  4.649   4.713
 
 Beta MOs
 -- Occupied --
-14.329 -10.245 -10.245 -10.222 -10.221 -10.208 -10.208  -0.923
 -0.820  -0.788  -0.692  -0.676  -0.557  -0.544  -0.524  -0.456
 -0.448  -0.420  -0.392  -0.384  -0.357  -0.307  -0.287  -0.254
 -- Virtual --
 -0.093  -0.085  -0.002   0.016   0.023   0.045   0.050   0.058
  0.064   0.075   0.081   0.085   0.091   0.096   0.103   0.129
  0.132   0.133   0.140   0.142   0.143   0.165   0.183   0.184
  0.190   0.205   0.209   0.213   0.227   0.231   0.250   0.253
  0.259   0.268   0.269   0.292   0.293   0.307   0.310   0.338
  0.394   0.412   0.414   0.464   0.597   0.616   0.625   0.655
  0.686   0.703   0.704   0.706   0.736   0.751   0.757   0.776
  0.788   0.895   0.917   0.920   0.940   0.944   0.978   0.978
  1.001   1.025   1.028   1.039   1.115   1.118   1.130   1.163
  1.194   1.220   1.270   1.286   1.291   1.306   1.346   1.374
  1.387   1.429   1.467   1.513   1.608   1.679   1.733   1.796
  1.845   1.855   1.894   1.914   1.951   1.957   1.988   2.008
  2.037   2.080   2.114   2.131   2.259   2.294   2.364   2.386
  2.405   2.409   2.419   2.453   2.453   2.464   2.476   2.505
  2.518   2.527   2.572   2.624   2.624   2.670   2.749   2.757
  2.847   3.011   3.074   3.122   3.247   3.263   3.291   3.347
  3.351   3.405   3.654   3.761   4.192   4.231   4.314   4.385
  4.409   4.652   4.719
 --------------------------------------------------------------
 
          Ground-State Mulliken Net Atomic Charges

     Atom                 Charge (a.u.)    Spin (a.u.)
  --------------------------------------------------------
      1 C                    -0.235218      -0.113853
      2 C                    -0.165543       0.079747
      3 C                    -0.164275       0.077432
      4 C                     0.100282       0.371189
      5 C                    -0.234480      -0.114955
      6 N                    -0.176394       0.375372
      7 H                     0.126985       0.003267
      8 H                     0.132743      -0.006805
      9 H                     0.132719      -0.006710
     10 H                     0.127414      -0.018714
     11 H                     0.127020       0.003317
     12 C                     0.101364       0.369349
     13 H                     0.127384      -0.018636
  --------------------------------------------------------
  Sum of atomic charges =     0.000000
  Sum of spin   charges =     1.000000

 -----------------------------------------------------------------
                    Cartesian Multipole Moments
 -----------------------------------------------------------------
    Charge (ESU x 10^10)
                 0.0000
    Dipole Moment (Debye)
         X      -0.7120      Y      -2.2826      Z      -0.2385
       Tot       2.4030
    Quadrupole Moments (Debye-Ang)
        XX     -36.4476     XY      -2.1065     YY     -43.4948
        XZ      -2.5650     YZ       0.8288     ZZ     -44.3680
    Octopole Moments (Debye-Ang^2)
       XXX      -4.3908    XXY      -6.4352    XYY      -9.6647
       YYY     -39.0614    XXZ      -1.0046    XYZ      -1.2884
       YYZ      -2.5503    XZZ      -1.9858    YZZ      -5.9553
       ZZZ      -1.8382
    Hexadecapole Moments (Debye-Ang^3)
      XXXX    -370.2061   XXXY      -3.2816   XXYY    -128.5691
      XYYY     -29.8135   YYYY    -444.4013   XXXZ      28.7033
      XXYZ      -8.6869   XYYZ       6.2227   YYYZ     -26.2995
      XXZZ     -85.2375   XYZZ      -5.4377   YYZZ     -88.4898
      XZZZ      46.2293   YZZZ     -33.5415   ZZZZ     -91.6469
 -----------------------------------------------------------------
 Mayer SCF Bond Order, atomic valence on the diagonal:

            1           2           3           4           5           6
    1   4.1212672   0.1885705   0.0566660  -0.0251950   0.1060088   1.3009012
    2   0.1885705   4.2897753   1.8047777  -0.0225268   0.0566819  -0.0138583
    3   0.0566660   1.8047777   4.2899932   1.3100782   0.1885846  -0.0138997
    4  -0.0251950  -0.0225268   1.3100782   3.6233274   1.4586074  -0.0514900
    5   0.1060088   0.0566819   0.1885846   1.4586074   4.1219458   1.3032007
    6   1.3009012  -0.0138583  -0.0138997  -0.0514900   1.3032007   2.4018002
    7   0.9611873   0.0387285  -0.0032755   0.0017556   0.0036145  -0.0456512
    8   0.0086089   0.8134579   0.0568650   0.0077434   0.0008620  -0.0000827
    9   0.0008649   0.0569909   0.8131510   0.0550288   0.0086082  -0.0000827
   10  -0.0000591   0.0036364   0.0573307   0.8197360   0.0599144   0.0100037
   11   0.0036974  -0.0032568   0.0386888  -0.0180313   0.9609529  -0.0456363
   12   1.4602662   1.3087794  -0.0226179   0.0877313  -0.0250259  -0.0516110
   13   0.0597501   0.0577942   0.0036442  -0.0001101  -0.0000639   0.0100065
            7           8           9          10          11          12
    1   0.9611873   0.0086089   0.0008649  -0.0000591   0.0036974   1.4602662
    2   0.0387285   0.8134579   0.0569909   0.0036364  -0.0032568   1.3087794
    3  -0.0032755   0.0568650   0.8131510   0.0573307   0.0386888  -0.0226179
    4   0.0017556   0.0077434   0.0550288   0.8197360  -0.0180313   0.0877313
    5   0.0036145   0.0008620   0.0086082   0.0599144   0.9609529  -0.0250259
    6  -0.0456512  -0.0000827  -0.0000827   0.0100037  -0.0456363  -0.0516110
    7   0.9417908   0.0016429   0.0000342   0.0001844   0.0016246  -0.0182127
    8   0.0016429   0.9472773   0.0010228   0.0018140   0.0000342   0.0548098
    9   0.0000342   0.0010228   0.9472877   0.0004979   0.0016435   0.0077147
   10   0.0001844   0.0018140   0.0004979   0.9531068   0.0001588  -0.0001147
   11   0.0016246   0.0000342   0.0016435   0.0001588   0.9417883   0.0017274
   12  -0.0182127   0.0548098   0.0077147  -0.0001147   0.0017274   3.6228588
   13   0.0001581   0.0004991   0.0018134   0.0000042   0.0001853   0.8194123
           13
    1   0.0597501
    2   0.0577942
    3   0.0036442
    4  -0.0001101
    5  -0.0000639
    6   0.0100065
    7   0.0001581
    8   0.0004991
    9   0.0018134
   10   0.0000042
   11   0.0001853
   12   0.8194123
   13   0.9530933


Archival summary:
1\1\c8-68\SP\ProcedureUnspecified\6-31+G**\166(2)\hpark21\TueMar118:47:552022TueMar118:47:552022\0\\#,ProcedureUnspecified,6-31+G**,\\0,2\N\C,1,1.35472\H,2,1.09113,1,112.022\C,1,1.35499,2,123.495,3,-179.919,0\H,4,1.09108,1,112.011,2,179.972,0\C,4,1.38408,1,133.076,2,0.00271659,0\H,6,1.087,4,115.441,1,-179.989,0\C,2,1.38436,1,133.071,3,-179.988,0\H,8,1.08704,2,115.463,1,179.979,0\C,8,1.44107,2,128.29,1,-0.117492,0\H,10,1.08766,8,115.887,2,-179.956,0\C,10,1.36507,8,126.89,2,0.0203633,0\H,12,1.08765,10,117.234,8,-179.966,0\\\@

 Total job time:  6.71s(wall), 11.75s(cpu) 
 Tue Mar  1 18:47:55 2022

        *************************************************************
        *                                                           *
        *  Thank you very much for using Q-Chem.  Have a nice day.  *
        *                                                           *
        *************************************************************


