
Running Job 1 of 1 irc_product.in
qchem irc_product.in_9137.0 ./irc_product.d/ 1
/home/leeping/opt/qchem/5.0.2-openmp/exe/qcprog.exe_s irc_product.in_9137.0 ./irc_product.d/
Check license passed

                  Welcome to Q-Chem
     A Quantum Leap Into The Future Of Chemistry


 Q-Chem 5.0, Q-Chem, Inc., Pleasanton, CA (2017)

 Yihan Shao,  Zhengting Gan,  E. Epifanovsky,  A. T. B. Gilbert,  M. Wormit,  
 J. Kussmann,  A. W. Lange,  A. Behn,  Jia Deng,  Xintian Feng,  D. Ghosh,  
 M. Goldey,  P. R. Horn,  L. D. Jacobson,  I. Kaliman,  T. Kus,  A. Landau,  
 Jie Liu,  E. I. Proynov,  R. M. Richard,  R. P. Steele,  E. J. Sundstrom,  
 H. L. Woodcock III,  P. M. Zimmerman,  D. Zuev,  B. Albrecht,  E. Alguire,  
 S. A. Baeppler,  D. Barton,  Z. Benda,  Y. A. Bernard,  E. J. Berquist,  
 K. B. Bravaya,  H. Burton,  D. Casanova,  Chun-Min Chang,  Yunqing Chen,  
 A. Chien,  K. D. Closser,  M. P. Coons,  S. Dasgupta,  A. L. Dempwolff,  
 M. Diedenhofen,  Hainam Do,  R. G. Edgar,  Po-Tung Fang,  S. Fatehi,  
 Qingguo Feng,  J. Fosso-Tande,  Qinghui Ge,  A. Ghysels,  G. Gidofalvi,  
 J. Gomes,  J. Gonthier,  A. Gunina,  M. W. D. Hanson-Heine,  
 P. H. P. Harbach,  A. W. Hauser,  J. E. Herr,  E. G. Hohenstein,  
 Z. C. Holden,  Kerwin Hui,  T.-C. Jagau,  Hyunjun Ji,  B. Kaduk,  
 K. Khistyaev,  Jaehoon Kim,  P. Klunzinger,  K. Koh,  D. Kosenkov,  
 L. Koulias,  T. Kowalczyk,  C. M. Krauter,  A. Kunitsa,  Ka Un Lao,  
 A. Laurent,  K. V. Lawler,  Joonho Lee,  D. Lefrancois,  S. Lehtola,  
 D. S. Levine,  Yi-Pei Li,  You-Sheng Lin,  Fenglai Liu,  E. Livshits,  
 A. Luenser,  P. Manohar,  E. Mansoor,  S. F. Manzer,  Shan-Ping Mao,  
 Yuezhi Mao,  N. Mardirossian,  A. V. Marenich,  T. Markovich,  
 L. A. Martinez-Martinez,  S. A. Maurer,  N. J. Mayhall,  S. C. McKenzie,  
 J.-M. Mewes,  A. F. Morrison,  J. W. Mullinax,  K. Nanda,  
 T. S. Nguyen-Beck,  R. Olivares-Amaya,  J. A. Parkhill,  T. M. Perrine,  
 F. Plasser,  S. Prager,  A. Prociuk,  E. Ramos,  D. R. Rehn,  F. Rob,  
 M. Schneider,  N. Sergueev,  S. M. Sharada,  S. Sharma,  D. W. Small,  
 T. Stauch,  T. Stein,  Yu-Chuan Su,  A. J. W. Thom,  A. Tkatchenko,  
 T. Tsuchimochi,  L. Vogt,  O. Vydrov,  M. A. Watson,  J. Wenzel,  
 M. de Wergifosse,  T. A. Wesolowski,  A. White,  J. Witte,  A. Yamada,  
 Jun Yang,  K. Yao,  S. Yeganeh,  S. R. Yost,  Zhi-Qiang You,  A. Zech,  
 Igor Ying Zhang,  Xing Zhang,  Yan Zhao,  Ying Zhu,  B. R. Brooks,  
 G. K. L. Chan,  C. J. Cramer,  M. S. Gordon,  W. J. Hehre,  A. Klamt,  
 M. W. Schmidt,  C. D. Sherrill,  D. G. Truhlar,  A. Aspuru-Guzik,  R. Baer,  
 A. T. Bell,  N. A. Besley,  Jeng-Da Chai,  R. A. DiStasio Jr.,  A. Dreuw,  
 B. D. Dunietz,  T. R. Furlani,  Chao-Ping Hsu,  Yousung Jung,  Jing Kong,  
 D. S. Lambrecht,  WanZhen Liang,  C. Ochsenfeld,  V. A. Rassolov,  
 L. V. Slipchenko,  J. E. Subotnik,  T. Van Voorhis,  J. M. Herbert,  
 A. I. Krylov,  P. M. W. Gill,  M. Head-Gordon

 Contributors to earlier versions of Q-Chem not listed above: 
 R. D. Adamson,  B. Austin,  J. Baker,  G. J. O. Beran,  K. Brandhorst,  
 S. T. Brown,  E. F. C. Byrd,  A. K. Chakraborty,  C.-L. Cheng,  
 Siu Hung Chien,  D. M. Chipman,  D. L. Crittenden,  H. Dachsel,  
 R. J. Doerksen,  A. D. Dutoi,  L. Fusti-Molnar,  W. A. Goddard III,  
 A. Golubeva-Zadorozhnaya,  S. R. Gwaltney,  G. Hawkins,  A. Heyden,  
 S. Hirata,  G. Kedziora,  F. J. Keil,  C. Kelley,  Jihan Kim,  R. A. King,  
 R. Z. Khaliullin,  P. P. Korambath,  W. Kurlancheek,  A. M. Lee,  M. S. Lee,  
 S. V. Levchenko,  Ching Yeh Lin,  D. Liotard,  R. C. Lochan,  I. Lotan,  
 P. E. Maslen,  N. Nair,  D. P. O'Neill,  D. Neuhauser,  E. Neuscamman,  
 C. M. Oana,  R. Olson,  B. Peters,  R. Peverati,  P. A. Pieniazek,  
 Y. M. Rhee,  J. Ritchie,  M. A. Rohrdanz,  E. Rosta,  N. J. Russ,  
 H. F. Schaefer III,  N. E. Schultz,  N. Shenvi,  A. C. Simmonett,  A. Sodt,  
 D. Stuck,  K. S. Thanthiriwatte,  V. Vanovschi,  Tao Wang,  A. Warshel,  
 C. F. Williams,  Q. Wu,  X. Xu,  W. Zhang

 Please cite Q-Chem as follows:
 Y. Shao et al., Mol. Phys. 113, 184-215 (2015)
 DOI: 10.1080/00268976.2014.952696

 Q-Chem 5.0.2 for Intel X86 EM64T Linux

 Parts of Q-Chem use Armadillo 5.200.1 (Boston Tea Smuggler).
 http://arma.sourceforge.net/

 Q-Chem begins on Tue Mar  1 18:48:10 2022  

Host: 
0

     Scratch files written to ./irc_product.d//
 Dec517 15110_ 26548  26544 5633   
Processing $rem in /home/leeping/opt/qchem/5.0.2-openmp/config/preferences.
 MEM_STATIC 2000
 MEM_TOTAL  8000
 SYMMETRY   OFF
 SYM_IGNORE TRUE 

Checking the input file for inconsistencies... 	...done.

--------------------------------------------------------------
User input:
--------------------------------------------------------------
$molecule
0 2
C        1.3903493882    0.0814682049    0.3758648818
C        0.4737582429   -1.0392664178   -0.0968126950
C       -0.9551984259   -0.9984758147    0.2927672981
C       -1.5301987174    0.2624326007    0.4077373892
C       -0.7285230016    1.3646594294    0.1545045873
N        0.6562574432    1.2314302915   -0.2016231060
H        2.3337166659    0.1346278017    0.9008095744
H        0.9394358433   -2.0196644457   -0.1997041251
H       -1.5059102586   -1.9166459800    0.4655425598
H       -2.5738416823    0.3934902827    0.6790054032
H       -1.0857532281    2.3879526240    0.1850166851
C        1.0172947116    0.0483537604   -1.0168851368
H        1.5686130190    0.0696376630   -1.9462233158
$end

$rem
method                b3lyp
basis                 6-31+g(d,p)
unrestricted          true
symmetry              off
sym_ignore            true
incdft                false
incfock               0
scf_convergence       8
thresh                14
jobtype               sp
scf_guess             core
scf_guess_mix         5
scf_algorithm         diis
max_scf_cycles        100
$end

--------------------------------------------------------------
 ----------------------------------------------------------------
             Standard Nuclear Orientation (Angstroms)
    I     Atom           X                Y                Z
 ----------------------------------------------------------------
    1      C       1.3903493882     0.0814682049     0.3758648818
    2      C       0.4737582429    -1.0392664178    -0.0968126950
    3      C      -0.9551984259    -0.9984758147     0.2927672981
    4      C      -1.5301987174     0.2624326007     0.4077373892
    5      C      -0.7285230016     1.3646594294     0.1545045873
    6      N       0.6562574432     1.2314302915    -0.2016231060
    7      H       2.3337166659     0.1346278017     0.9008095744
    8      H       0.9394358433    -2.0196644457    -0.1997041251
    9      H      -1.5059102586    -1.9166459800     0.4655425598
   10      H      -2.5738416823     0.3934902827     0.6790054032
   11      H      -1.0857532281     2.3879526240     0.1850166851
   12      C       1.0172947116     0.0483537604    -1.0168851368
   13      H       1.5686130190     0.0696376630    -1.9462233158
 ----------------------------------------------------------------
 Nuclear Repulsion Energy =   277.5140448710 hartrees
 There are       25 alpha and       24 beta electrons
 Requested basis set is 6-31+G(d,p)
 There are 53 shells and 163 basis functions

 Total QAlloc Memory Limit   8000 MB
 Mega-Array Size      1956 MB
 MEM_STATIC part      2000 MB

                       Distance Matrix (Angstroms)
             C (  1)   C (  2)   C (  3)   C (  4)   C (  5)   N (  6)
   C (  2)  1.523026
   C (  3)  2.583559  1.481673
   C (  4)  2.926323  2.442301  1.390587
   C (  5)  2.487006  2.699537  2.378005  1.386259
   N (  6)  1.481484  2.280429  2.795298  2.467968  1.436034
   H (  7)  1.080895  2.415103  3.531374  3.897345  3.383380  2.287401
   H (  8)  2.224716  1.090240  2.207939  3.417023  3.789617  3.263405
   H (  9)  3.519776  2.237214  1.084514  2.179980  3.386450  3.876914
   H ( 10)  3.987990  3.455800  2.169506  1.086256  2.150226  3.451259
   H ( 11)  3.389303  3.775889  3.390657  2.182882  1.084285  2.126414
   C ( 12)  1.442227  1.524757  2.588778  2.926620  2.480462  1.481442
   H ( 13)  2.328951  2.418408  3.538866  3.896272  3.371494  2.285998
             H (  7)   H (  8)   H (  9)   H ( 10)   H ( 11)   C ( 12)
   H (  8)  2.792154
   H (  9)  4.374919  2.536313
   H ( 10)  4.919384  4.351846  2.553972
   H ( 11)  4.157235  4.865849  4.334143  2.536989
   C ( 12)  2.327652  2.224982  3.524965  3.986405  3.367655
   H ( 13)  2.948763  2.794884  4.383450  4.914940  4.118547  1.080775

 
 A cutoff of  1.0D-14 yielded   1383 shell pairs
 There are     13441 function pairs
 
 -------------------------------------------------------
 OpenMP Integral Computing Module                       
 Release: version 1.0, May 2013, Q-Chem Inc. Pittsburgh 
 -------------------------------------------------------
 Integral Job Info:
 Integral job number is                      11
 Integral operator is                         1
 short-range coefficients                     0
 long-range coefficients              100000000
 Omega coefficients                           0
 if combine SR and LR in K                    0
 Integral screening is                        0
 Integral computing path is                   2
 max size of driver memory is            800000
 size of driver memory is                593474
 size of scratch memory is              2361544
 max col of scratch BK array               1296
 max len of scratch array in speh3          155
 max len of scratch index in speh4           18
 max int batch size is                      520
 min int batch size is                       52
 fixed nKL is                                52
 max L of basis functions is                  2
 order of int derivative is                   0
 number of shells is                         53
 number of basis is                         163
 number of cartesian basis is               163
 number of contracted shell pairs          1383
 number of primitive shell pairs           4712
 maxK2 (contraction) of shell pair           36
 max number of K2 of shell pair               1
 max number of CS2 of shell pair            128
 max number of PS2 of shell pair            666
 mem total for path MDJ                  535308
 -------------------------------------------------------
 Smallest overlap matrix eigenvalue = 2.66E-05

 Scale SEOQF with 1.000000e-01/1.000000e-01/1.000000e-01

 Standard Electronic Orientation quadrupole field applied
 Nucleus-field energy     =     0.0000000042 hartrees
 Guess MOs from core Hamiltonian diagonalization
 Mixing HOMO and LUMO in initial guess
 Adding  50% of the LUMO to the HOMO
 An unrestricted hybrid HF-DFT SCF calculation will be
 performed using Pulay DIIS extrapolation
 Exchange:     0.2000 Hartree-Fock + 0.0800 Slater + 0.7200 B88
 Correlation:  0.1900 VWN1RPA + 0.8100 LYP
 Using SG-1 standard quadrature grid
 SCF converges when DIIS error is below 1.0E-08
 using 4 threads for integral computing
 -------------------------------------------------------
 OpenMP Integral computing Module                
 Release: version 1.0, May 2013, Q-Chem Inc. Pittsburgh 
 -------------------------------------------------------
 -------------------------------------------------------
 OpenMP BLAS3 based DFT computing Module                
 Release: version 1.0, May 2013, Q-Chem Inc. Pittsburgh 
 -------------------------------------------------------
 ---------------------------------------
  Cycle       Energy         DIIS Error
 ---------------------------------------
    1    -230.0544808754      1.01E-01
    2    -197.5103777353      8.27E-02
    3    -244.1976553324      7.57E-02
    4    -278.3457195971      4.70E-02
    5    -282.9614022764      2.90E-02
    6    -286.4924291487      9.00E-03
    7    -286.3304393965      1.14E-02
    8    -286.8337838783      1.91E-03
    9    -286.8433784364      1.27E-03
   10    -286.8497555955      2.10E-04
   11    -286.8500486584      1.11E-04
   12    -286.8501120202      3.87E-05
   13    -286.8501300634      9.57E-06
   14    -286.8501341855      5.16E-06
   15    -286.8501360406      1.35E-06
   16    -286.8501367249      3.90E-07
   17    -286.8501367346      2.38E-07
   18    -286.8501367350      7.52E-08
   19    -286.8501367353      1.96E-08
   20    -286.8501367355      6.22E-09 Convergence criterion met
 ---------------------------------------
 <S^2> = 0.7760
 SCF time:  CPU 102.10 s  wall 58.69 s
 SCF   energy in the final basis set = -286.85013674
 Total energy in the final basis set = -286.85013674
 
 --------------------------------------------------------------
 
                    Orbital Energies (a.u.)
 --------------------------------------------------------------
 
 Alpha MOs
 -- Occupied --
-14.359 -10.239 -10.238 -10.227 -10.220 -10.203 -10.192  -1.015
 -0.811  -0.799  -0.648  -0.638  -0.603  -0.548  -0.493  -0.474
 -0.471  -0.406  -0.400  -0.388  -0.367  -0.293  -0.284  -0.252
 -0.183
 -- Virtual --
  0.004   0.005   0.018   0.027   0.028   0.041   0.046   0.062
  0.068   0.078   0.083   0.086   0.097   0.114   0.122   0.131
  0.135   0.145   0.151   0.158   0.164   0.179   0.179   0.186
  0.190   0.197   0.207   0.210   0.216   0.226   0.250   0.254
  0.263   0.273   0.281   0.299   0.314   0.318   0.331   0.334
  0.355   0.365   0.454   0.487   0.629   0.640   0.649   0.673
  0.701   0.709   0.720   0.741   0.745   0.749   0.767   0.779
  0.828   0.843   0.873   0.902   0.908   0.934   0.978   0.989
  1.009   1.038   1.055   1.057   1.081   1.100   1.175   1.187
  1.211   1.225   1.255   1.344   1.382   1.395   1.411   1.514
  1.559   1.582   1.615   1.669   1.749   1.761   1.808   1.826
  1.844   1.925   1.959   1.965   2.013   2.030   2.043   2.054
  2.090   2.213   2.233   2.273   2.317   2.363   2.387   2.390
  2.403   2.433   2.477   2.485   2.494   2.517   2.535   2.549
  2.570   2.613   2.637   2.656   2.727   2.732   2.743   2.887
  2.924   2.945   2.950   3.033   3.209   3.278   3.293   3.382
  3.475   3.584   3.770   4.227   4.303   4.387   4.526   4.597
  4.724   4.738
 
 Beta MOs
 -- Occupied --
-14.359 -10.237 -10.237 -10.228 -10.212 -10.195 -10.194  -1.012
 -0.802  -0.791  -0.638  -0.631  -0.599  -0.545  -0.491  -0.469
 -0.466  -0.402  -0.388  -0.386  -0.353  -0.291  -0.269  -0.250
 -- Virtual --
 -0.079   0.005   0.011   0.019   0.027   0.034   0.042   0.046
  0.063   0.072   0.079   0.083   0.091   0.097   0.115   0.126
  0.136   0.136   0.145   0.152   0.162   0.168   0.180   0.182
  0.186   0.196   0.198   0.207   0.217   0.219   0.230   0.253
  0.256   0.264   0.280   0.287   0.301   0.316   0.322   0.333
  0.337   0.357   0.366   0.458   0.493   0.633   0.650   0.652
  0.675   0.709   0.712   0.743   0.748   0.755   0.758   0.765
  0.783   0.840   0.845   0.876   0.904   0.909   0.940   0.979
  0.992   1.012   1.040   1.057   1.061   1.090   1.104   1.177
  1.190   1.213   1.228   1.258   1.358   1.391   1.400   1.422
  1.517   1.568   1.587   1.628   1.672   1.755   1.774   1.814
  1.830   1.847   1.928   1.966   1.972   2.017   2.031   2.050
  2.070   2.102   2.216   2.238   2.275   2.318   2.369   2.391
  2.394   2.407   2.434   2.482   2.488   2.505   2.520   2.544
  2.555   2.579   2.616   2.641   2.661   2.733   2.737   2.749
  2.890   2.927   2.948   2.952   3.039   3.211   3.279   3.294
  3.384   3.477   3.586   3.773   4.229   4.316   4.390   4.533
  4.601   4.733   4.742
 --------------------------------------------------------------
 
          Ground-State Mulliken Net Atomic Charges

     Atom                 Charge (a.u.)    Spin (a.u.)
  --------------------------------------------------------
      1 C                    -0.084025       0.071898
      2 C                    -0.088099      -0.070613
      3 C                    -0.150882       0.680169
      4 C                     0.115548      -0.302350
      5 C                    -0.242037       0.644676
      6 N                    -0.274463      -0.039380
      7 H                     0.143221      -0.002924
      8 H                     0.132030       0.001314
      9 H                     0.127091      -0.032476
     10 H                     0.126408       0.009378
     11 H                     0.131587      -0.031952
     12 C                    -0.079538       0.075307
     13 H                     0.143159      -0.003047
  --------------------------------------------------------
  Sum of atomic charges =    -0.000000
  Sum of spin   charges =     1.000000

 -----------------------------------------------------------------
                    Cartesian Multipole Moments
 -----------------------------------------------------------------
    Charge (ESU x 10^10)
                -0.0000
    Dipole Moment (Debye)
         X       0.2439      Y      -1.7007      Z      -0.0589
       Tot       1.7191
    Quadrupole Moments (Debye-Ang)
        XX     -37.8598     XY      -2.8924     YY     -41.7591
        XZ      -1.1540     YZ       0.6393     ZZ     -42.3316
    Octopole Moments (Debye-Ang^2)
       XXX      -2.7557    XXY      -6.6401    XYY      -8.4866
       YYY     -21.6068    XXZ       4.0086    XYZ       1.1279
       YYZ       2.2314    XZZ       4.5595    YZZ      -4.5335
       ZZZ      -4.5832
    Hexadecapole Moments (Debye-Ang^3)
      XXXX    -336.9227   XXXY       0.1964   XXYY    -108.1950
      XYYY     -11.9491   YYYY    -275.8692   XXXZ      32.4071
      XXYZ       2.0319   XYYZ      10.8569   YYYZ       4.7549
      XXZZ     -75.3674   XYZZ       1.8563   YYZZ     -72.9493
      XZZZ      30.8436   YZZZ       1.6320   ZZZZ    -117.7487
 -----------------------------------------------------------------
Archival summary:
1\1\c8-68\SP\ProcedureUnspecified\6-31+G**\166(2)\hpark21\TueMar118:49:142022TueMar118:49:142022\0\\#,ProcedureUnspecified,6-31+G**,\\0,2\N\C,1,1.43603\H,2,1.08428,1,114.346\C,2,1.38626,1,121.951,3,178.772,0\H,4,1.08626,2,120.351,1,179.758,0\C,4,1.39059,2,117.822,1,-0.684975,0\H,6,1.08451,4,122.992,2,-179.61,0\C,1,1.48144,2,116.46,3,-144.712,0\H,8,1.08077,1,125.577,2,127.583,0\C,8,1.44223,1,60.8738,2,-106.697,0\H,10,1.0809,8,134.097,1,-112.974,0\C,6,1.48167,4,116.454,2,-0.140317,0\H,12,1.09024,6,117.484,4,-179.52,0\\\@

 Total job time:  63.97s(wall), 104.05s(cpu) 
 Tue Mar  1 18:49:14 2022

        *************************************************************
        *                                                           *
        *  Thank you very much for using Q-Chem.  Have a nice day.  *
        *                                                           *
        *************************************************************


