
Running Job 1 of 1 qcfsm.in
qchem qcfsm.in_40066.0 ./qcfsm.d/ 1
/home/leeping/opt/qchem/5.0.2-openmp/exe/qcprog.exe_s qcfsm.in_40066.0 ./qcfsm.d/
Check license passed

                  Welcome to Q-Chem
     A Quantum Leap Into The Future Of Chemistry


 Q-Chem 5.0, Q-Chem, Inc., Pleasanton, CA (2017)

 Yihan Shao,  Zhengting Gan,  E. Epifanovsky,  A. T. B. Gilbert,  M. Wormit,  
 J. Kussmann,  A. W. Lange,  A. Behn,  Jia Deng,  Xintian Feng,  D. Ghosh,  
 M. Goldey,  P. R. Horn,  L. D. Jacobson,  I. Kaliman,  T. Kus,  A. Landau,  
 Jie Liu,  E. I. Proynov,  R. M. Richard,  R. P. Steele,  E. J. Sundstrom,  
 H. L. Woodcock III,  P. M. Zimmerman,  D. Zuev,  B. Albrecht,  E. Alguire,  
 S. A. Baeppler,  D. Barton,  Z. Benda,  Y. A. Bernard,  E. J. Berquist,  
 K. B. Bravaya,  H. Burton,  D. Casanova,  Chun-Min Chang,  Yunqing Chen,  
 A. Chien,  K. D. Closser,  M. P. Coons,  S. Dasgupta,  A. L. Dempwolff,  
 M. Diedenhofen,  Hainam Do,  R. G. Edgar,  Po-Tung Fang,  S. Fatehi,  
 Qingguo Feng,  J. Fosso-Tande,  Qinghui Ge,  A. Ghysels,  G. Gidofalvi,  
 J. Gomes,  J. Gonthier,  A. Gunina,  M. W. D. Hanson-Heine,  
 P. H. P. Harbach,  A. W. Hauser,  J. E. Herr,  E. G. Hohenstein,  
 Z. C. Holden,  Kerwin Hui,  T.-C. Jagau,  Hyunjun Ji,  B. Kaduk,  
 K. Khistyaev,  Jaehoon Kim,  P. Klunzinger,  K. Koh,  D. Kosenkov,  
 L. Koulias,  T. Kowalczyk,  C. M. Krauter,  A. Kunitsa,  Ka Un Lao,  
 A. Laurent,  K. V. Lawler,  Joonho Lee,  D. Lefrancois,  S. Lehtola,  
 D. S. Levine,  Yi-Pei Li,  You-Sheng Lin,  Fenglai Liu,  E. Livshits,  
 A. Luenser,  P. Manohar,  E. Mansoor,  S. F. Manzer,  Shan-Ping Mao,  
 Yuezhi Mao,  N. Mardirossian,  A. V. Marenich,  T. Markovich,  
 L. A. Martinez-Martinez,  S. A. Maurer,  N. J. Mayhall,  S. C. McKenzie,  
 J.-M. Mewes,  A. F. Morrison,  J. W. Mullinax,  K. Nanda,  
 T. S. Nguyen-Beck,  R. Olivares-Amaya,  J. A. Parkhill,  T. M. Perrine,  
 F. Plasser,  S. Prager,  A. Prociuk,  E. Ramos,  D. R. Rehn,  F. Rob,  
 M. Schneider,  N. Sergueev,  S. M. Sharada,  S. Sharma,  D. W. Small,  
 T. Stauch,  T. Stein,  Yu-Chuan Su,  A. J. W. Thom,  A. Tkatchenko,  
 T. Tsuchimochi,  L. Vogt,  O. Vydrov,  M. A. Watson,  J. Wenzel,  
 M. de Wergifosse,  T. A. Wesolowski,  A. White,  J. Witte,  A. Yamada,  
 Jun Yang,  K. Yao,  S. Yeganeh,  S. R. Yost,  Zhi-Qiang You,  A. Zech,  
 Igor Ying Zhang,  Xing Zhang,  Yan Zhao,  Ying Zhu,  B. R. Brooks,  
 G. K. L. Chan,  C. J. Cramer,  M. S. Gordon,  W. J. Hehre,  A. Klamt,  
 M. W. Schmidt,  C. D. Sherrill,  D. G. Truhlar,  A. Aspuru-Guzik,  R. Baer,  
 A. T. Bell,  N. A. Besley,  Jeng-Da Chai,  R. A. DiStasio Jr.,  A. Dreuw,  
 B. D. Dunietz,  T. R. Furlani,  Chao-Ping Hsu,  Yousung Jung,  Jing Kong,  
 D. S. Lambrecht,  WanZhen Liang,  C. Ochsenfeld,  V. A. Rassolov,  
 L. V. Slipchenko,  J. E. Subotnik,  T. Van Voorhis,  J. M. Herbert,  
 A. I. Krylov,  P. M. W. Gill,  M. Head-Gordon

 Contributors to earlier versions of Q-Chem not listed above: 
 R. D. Adamson,  B. Austin,  J. Baker,  G. J. O. Beran,  K. Brandhorst,  
 S. T. Brown,  E. F. C. Byrd,  A. K. Chakraborty,  C.-L. Cheng,  
 Siu Hung Chien,  D. M. Chipman,  D. L. Crittenden,  H. Dachsel,  
 R. J. Doerksen,  A. D. Dutoi,  L. Fusti-Molnar,  W. A. Goddard III,  
 A. Golubeva-Zadorozhnaya,  S. R. Gwaltney,  G. Hawkins,  A. Heyden,  
 S. Hirata,  G. Kedziora,  F. J. Keil,  C. Kelley,  Jihan Kim,  R. A. King,  
 R. Z. Khaliullin,  P. P. Korambath,  W. Kurlancheek,  A. M. Lee,  M. S. Lee,  
 S. V. Levchenko,  Ching Yeh Lin,  D. Liotard,  R. C. Lochan,  I. Lotan,  
 P. E. Maslen,  N. Nair,  D. P. O'Neill,  D. Neuhauser,  E. Neuscamman,  
 C. M. Oana,  R. Olson,  B. Peters,  R. Peverati,  P. A. Pieniazek,  
 Y. M. Rhee,  J. Ritchie,  M. A. Rohrdanz,  E. Rosta,  N. J. Russ,  
 H. F. Schaefer III,  N. E. Schultz,  N. Shenvi,  A. C. Simmonett,  A. Sodt,  
 D. Stuck,  K. S. Thanthiriwatte,  V. Vanovschi,  Tao Wang,  A. Warshel,  
 C. F. Williams,  Q. Wu,  X. Xu,  W. Zhang

 Please cite Q-Chem as follows:
 Y. Shao et al., Mol. Phys. 113, 184-215 (2015)
 DOI: 10.1080/00268976.2014.952696

 Q-Chem 5.0.2 for Intel X86 EM64T Linux

 Parts of Q-Chem use Armadillo 5.200.1 (Boston Tea Smuggler).
 http://arma.sourceforge.net/

 Q-Chem begins on Tue Mar  1 12:29:19 2022  

Host: 
0

     Scratch files written to ./qcfsm.d//
 Dec517 15110_ 26548  26544 5633   
Processing $rem in /home/leeping/opt/qchem/5.0.2-openmp/config/preferences.
 MEM_STATIC 2000
 MEM_TOTAL  8000
 SYMMETRY   OFF
 SYM_IGNORE TRUE 
 Now reading second FSM geometry

Checking the input file for inconsistencies... 	...done.

--------------------------------------------------------------
User input:
--------------------------------------------------------------
$molecule
0 2
C        1.4290409253    0.8425477252   -0.3246602406
C        0.2764252582   -1.4166417549   -0.2009983396
C       -0.9825037337   -1.0610192085    0.1814165965
C       -1.4662441652    0.2729491519    0.4324253416
C       -0.7712537347    1.4643933569    0.3440875518
N        0.5057467515    1.7716834584    0.0154935518
H        2.3963098658    1.2941117913   -0.5561172666
H        0.4716942959   -2.4770649763   -0.3478083011
H       -1.7079322776   -1.8610482251    0.3148013813
H       -2.5088850571    0.3578922540    0.7291584482
H       -1.3561086328    2.3547969810    0.5854078242
C        1.3911211359   -0.5349034973   -0.4356078185
H        2.3225893691   -1.0076970562   -0.7375987295
****
C        1.2969194027   -0.2268038259    0.0036942257
C        0.3292090009   -1.3240394185    0.2277080706
C       -0.9950402145   -1.0798868525    0.3090785989
C       -1.5135242948    0.2810738631    0.3173389562
C       -0.6956382713    1.3359663353    0.1452551787
N        0.6854041423    1.1862498578   -0.1351236651
H        2.2194177859   -0.2548285212    0.5889823118
H        0.7255345344   -2.3282296796    0.3610373333
H       -1.6912650551   -1.8990463278    0.4685390324
H       -2.5586747706    0.4479039054    0.5623730734
H       -1.0179251019    2.3635020456    0.2902173331
C        1.2238779015    0.5378451929   -1.2474390585
H        1.9917049405    0.9602934252   -1.8916613906
$end

$rem
method                b3lyp
basis                 6-31g(d)
unrestricted          true
symmetry              off
sym_ignore            true
incdft                false
incfock               0
scf_convergence       8
thresh                14
jobtype               fsm
scf_guess             core
scf_guess_mix         5
scf_algorithm         diis
max_scf_cycles        100
fsm_nnode             21
fsm_ngrad             6
fsm_mode              2
fsm_opt_mode          2
$end

--------------------------------------------------------------
 ----------------------------------------------------------------
             Standard Nuclear Orientation (Angstroms)
    I     Atom           X                Y                Z
 ----------------------------------------------------------------
    1      C       1.4290409253     0.8425477252    -0.3246602406
    2      C       0.2764252582    -1.4166417549    -0.2009983396
    3      C      -0.9825037337    -1.0610192085     0.1814165965
    4      C      -1.4662441652     0.2729491519     0.4324253416
    5      C      -0.7712537347     1.4643933569     0.3440875518
    6      N       0.5057467515     1.7716834584     0.0154935518
    7      H       2.3963098658     1.2941117913    -0.5561172666
    8      H       0.4716942959    -2.4770649763    -0.3478083011
    9      H      -1.7079322776    -1.8610482251     0.3148013813
   10      H      -2.5088850571     0.3578922540     0.7291584482
   11      H      -1.3561086328     2.3547969810     0.5854078242
   12      C       1.3911211359    -0.5349034973    -0.4356078185
   13      H       2.3225893691    -1.0076970562    -0.7375987295
 ----------------------------------------------------------------
 Nuclear Repulsion Energy =   260.7254511958 hartrees
 There are       25 alpha and       24 beta electrons
 Requested basis set is 6-31G(d)
 There are 40 shells and 117 basis functions

 Total QAlloc Memory Limit   8000 MB
 Mega-Array Size      1956 MB
 MEM_STATIC part      2000 MB
 beginning FSman 

*******************************************
*******************************************
******** Starting FSM Calculation *********
*******************************************
*******************************************
-FSM parameters:
 Maximum displacement of each coordinate during optimization (Angstrom)      0.05
 Maximum optimization steps for each new node                                6
 The scaling factor for optimization (hartrees/Angstrom^2)                   1.75
 The number of LST interpolations used for reparameterization                100
-Aligning product structure to maximum coincidence with the reactant structure
 Total R --> P Distance 3.701897
 New node interpolation distace (Angstroms): 0.18
-Performing force calculation on reactant structure in state:0
 ----------------------------------------------------------------
             Standard Nuclear Orientation (Angstroms)
    I     Atom           X                Y                Z
 ----------------------------------------------------------------
    1      C       1.4290409253     0.8425477252    -0.3246602406
    2      C       0.2764252582    -1.4166417549    -0.2009983396
    3      C      -0.9825037337    -1.0610192085     0.1814165965
    4      C      -1.4662441652     0.2729491519     0.4324253416
    5      C      -0.7712537347     1.4643933569     0.3440875518
    6      N       0.5057467515     1.7716834584     0.0154935518
    7      H       2.3963098658     1.2941117913    -0.5561172666
    8      H       0.4716942959    -2.4770649763    -0.3478083011
    9      H      -1.7079322776    -1.8610482251     0.3148013813
   10      H      -2.5088850571     0.3578922540     0.7291584482
   11      H      -1.3561086328     2.3547969810     0.5854078242
   12      C       1.3911211359    -0.5349034973    -0.4356078185
   13      H       2.3225893691    -1.0076970562    -0.7375987295
 ----------------------------------------------------------------
 Nuclear Repulsion Energy =   260.7254511958 hartrees
 There are       25 alpha and       24 beta electrons

                       Distance Matrix (Angstroms)
             C (  1)   C (  2)   C (  3)   C (  4)   C (  5)   N (  6)
   C (  2)  2.539242
   C (  3)  3.113716  1.362942
   C (  4)  3.046358  2.508553  1.441000
   C (  5)  2.382270  3.113698  2.539448  1.382156
   N (  6)  1.353318  3.203884  3.204157  2.511729  1.353932
   H (  7)  1.092287  3.459509  4.184134  4.115740  3.297397  2.032005
   H (  8)  3.454979  1.088201  2.097607  3.453541  4.190314  4.264389
   H (  9)  4.190339  2.097909  1.088156  2.150859  3.454965  4.264587
   H ( 10)  4.105202  3.431052  2.154802  1.087366  2.095707  3.405309
   H ( 11)  3.297299  4.184179  3.459854  2.090365  1.092295  2.032567
   C ( 12)  1.382432  1.440504  2.508309  3.093646  3.046470  2.511518
   H ( 13)  2.095794  2.154522  3.430900  4.167046  4.105258  3.404853
             H (  7)   H (  8)   H (  9)   H ( 10)   H ( 11)   C ( 12)
   H (  8)  4.239023
   H (  9)  5.249604  2.359936
   H ( 10)  5.156489  4.252140  2.395186
   H ( 11)  4.063099  5.249633  4.239146  2.310235
   C ( 12)  2.090508  2.150592  3.453390  4.166991  4.115837
   H ( 13)  2.310129  2.395160  4.252159  5.230617  5.156504  1.087366

 
 Requested basis set is 6-31G(d)
 There are 40 shells and 117 basis functions
 A cutoff of  1.0D-14 yielded    791 shell pairs
 There are      7063 function pairs
 
 -------------------------------------------------------
 OpenMP Integral Computing Module                       
 Release: version 1.0, May 2013, Q-Chem Inc. Pittsburgh 
 -------------------------------------------------------
 Integral Job Info:
 Integral job number is                      11
 Integral operator is                         1
 short-range coefficients                     0
 long-range coefficients              100000000
 Omega coefficients                           0
 if combine SR and LR in K                    0
 Integral screening is                        0
 Integral computing path is                   2
 max size of driver memory is            800000
 size of driver memory is                593474
 size of scratch memory is              2361544
 max col of scratch BK array               1296
 max len of scratch array in speh3          155
 max len of scratch index in speh4           18
 max int batch size is                      520
 min int batch size is                       52
 fixed nKL is                                52
 max L of basis functions is                  2
 order of int derivative is                   0
 number of shells is                         40
 number of basis is                         117
 number of cartesian basis is               117
 number of contracted shell pairs           791
 number of primitive shell pairs           3395
 maxK2 (contraction) of shell pair           36
 max number of K2 of shell pair               1
 max number of CS2 of shell pair             94
 max number of PS2 of shell pair            402
 mem total for path MDJ                  535308
 -------------------------------------------------------
 Smallest overlap matrix eigenvalue = 1.33E-03

 Scale SEOQF with 1.000000e-01/1.000000e-01/1.000000e+00

 Standard Electronic Orientation quadrupole field applied
 Nucleus-field energy     =     0.0000000017 hartrees
 Guess MOs from core Hamiltonian diagonalization
 Mixing HOMO and LUMO in initial guess
 Adding  50% of the LUMO to the HOMO
 An unrestricted hybrid HF-DFT SCF calculation will be
 performed using Pulay DIIS extrapolation
 Exchange:     0.2000 Hartree-Fock + 0.0800 Slater + 0.7200 B88
 Correlation:  0.1900 VWN1RPA + 0.8100 LYP
 Using SG-1 standard quadrature grid
 SCF converges when DIIS error is below 1.0E-08
 using 4 threads for integral computing
 -------------------------------------------------------
 OpenMP Integral computing Module                
 Release: version 1.0, May 2013, Q-Chem Inc. Pittsburgh 
 -------------------------------------------------------
 -------------------------------------------------------
 OpenMP BLAS3 based DFT computing Module                
 Release: version 1.0, May 2013, Q-Chem Inc. Pittsburgh 
 -------------------------------------------------------
 ---------------------------------------
  Cycle       Energy         DIIS Error
 ---------------------------------------
    1    -239.4879211723      1.26E-01
    2    -227.9091627392      1.03E-01
    3    -250.2609869307      1.03E-01
    4    -281.9141441250      4.85E-02
    5    -282.4531211984      4.74E-02
    6    -285.5301502295      2.31E-02
    7    -286.6136957113      1.25E-02
    8    -286.8607908563      4.94E-03
    9    -286.9210066339      8.97E-04
   10    -286.9229483362      7.37E-04
   11    -286.9239668344      1.87E-04
   12    -286.9241594331      9.65E-05
   13    -286.9242331348      5.53E-05
   14    -286.9243073149      1.18E-05
   15    -286.9243163882      4.31E-06
   16    -286.9243184948      1.34E-06
   17    -286.9243186141      7.46E-07
   18    -286.9243186390      2.82E-07
   19    -286.9243186435      1.85E-07
   20    -286.9243186452      1.67E-07
   21    -286.9243186465      7.24E-08
   22    -286.9243186469      1.64E-08
   23    -286.9243186469      3.26E-09 Convergence criterion met
 ---------------------------------------
 <S^2> = 0.7684
 SCF time:  CPU 59.90 s  wall 38.39 s
 SCF   energy in the final basis set = -286.92431865
 Total energy in the final basis set = -286.92431865
 
 --------------------------------------------------------------
 
                    Orbital Energies (a.u.)
 --------------------------------------------------------------
 
 Alpha MOs
 -- Occupied --
-14.322 -10.232 -10.232 -10.212 -10.211 -10.201 -10.200  -0.922
 -0.818  -0.784  -0.693  -0.667  -0.551  -0.537  -0.518  -0.449
 -0.439  -0.414  -0.394  -0.387  -0.349  -0.322  -0.299  -0.251
 -0.162
 -- Virtual --
 -0.072   0.077   0.097   0.101   0.117   0.142   0.181   0.184
  0.193   0.213   0.266   0.320   0.356   0.390   0.412   0.483
  0.497   0.521   0.547   0.576   0.584   0.587   0.591   0.610
  0.619   0.624   0.646   0.658   0.713   0.718   0.833   0.840
  0.847   0.854   0.868   0.872   0.885   0.922   0.965   0.975
  1.024   1.027   1.043   1.127   1.177   1.185   1.300   1.303
  1.326   1.402   1.429   1.480   1.482   1.546   1.574   1.586
  1.682   1.732   1.769   1.829   1.850   1.919   1.925   2.030
  2.046   2.048   2.100   2.141   2.141   2.191   2.247   2.391
  2.410   2.414   2.446   2.545   2.577   2.601   2.614   2.739
  2.749   2.808   3.052   3.249   3.250   4.018   4.046   4.102
  4.196   4.239   4.532   4.595
 
 Beta MOs
 -- Occupied --
-14.314 -10.233 -10.233 -10.210 -10.210 -10.196 -10.196  -0.911
 -0.809  -0.777  -0.681  -0.665  -0.546  -0.535  -0.514  -0.447
 -0.438  -0.411  -0.383  -0.373  -0.348  -0.295  -0.276  -0.241
 -- Virtual --
 -0.078  -0.070   0.078   0.118   0.124   0.125   0.142   0.182
  0.187   0.196   0.219   0.268   0.324   0.360   0.393   0.415
  0.486   0.505   0.525   0.551   0.587   0.588   0.592   0.596
  0.614   0.624   0.629   0.649   0.676   0.716   0.729   0.834
  0.843   0.846   0.869   0.875   0.880   0.887   0.925   0.967
  0.979   1.026   1.030   1.045   1.133   1.180   1.189   1.311
  1.315   1.333   1.411   1.429   1.489   1.492   1.560   1.582
  1.597   1.685   1.737   1.781   1.831   1.854   1.922   1.933
  2.036   2.058   2.061   2.110   2.141   2.147   2.203   2.259
  2.399   2.422   2.426   2.448   2.558   2.579   2.611   2.624
  2.742   2.761   2.810   3.054   3.252   3.254   4.030   4.053
  4.109   4.200   4.239   4.537   4.601
 --------------------------------------------------------------
 
          Ground-State Mulliken Net Atomic Charges

     Atom                 Charge (a.u.)    Spin (a.u.)
  --------------------------------------------------------
      1 C                     0.035856      -0.113376
      2 C                    -0.111013       0.092040
      3 C                    -0.111446       0.095443
      4 C                    -0.131421       0.345784
      5 C                     0.035276      -0.111877
      6 N                    -0.423383       0.386881
      7 H                     0.142592       0.003441
      8 H                     0.141942      -0.006555
      9 H                     0.141918      -0.006719
     10 H                     0.134408      -0.018279
     11 H                     0.142647       0.003365
     12 C                    -0.131725       0.348244
     13 H                     0.134349      -0.018392
  --------------------------------------------------------
  Sum of atomic charges =     0.000000
  Sum of spin   charges =     1.000000

 -----------------------------------------------------------------
                    Cartesian Multipole Moments
 -----------------------------------------------------------------
    Charge (ESU x 10^10)
                 0.0000
    Dipole Moment (Debye)
         X      -0.6156      Y      -2.1571      Z      -0.0190
       Tot       2.2433
    Quadrupole Moments (Debye-Ang)
        XX     -35.5406     XY      -1.9265     YY     -41.8129
        XZ      -2.3531     YZ       0.6663     ZZ     -42.6459
    Octopole Moments (Debye-Ang^2)
       XXX      -3.9780    XXY      -5.9737    XYY      -8.2443
       YYY     -36.8238    XXZ      -0.3564    XYZ      -0.5318
       YYZ       0.0775    XZZ      -1.6134    YZZ      -5.6428
       ZZZ      -0.1584
    Hexadecapole Moments (Debye-Ang^3)
      XXXX    -352.2359   XXXY      -1.4389   XXYY    -123.0050
      XYYY     -22.7494   YYYY    -428.0445   XXXZ      34.0294
      XXYZ      -4.5021   XYYZ      10.0255   YYYZ     -10.0098
      XXZZ     -76.9015   XYZZ      -2.3400   YYZZ     -83.4918
      XZZZ      50.1229   YZZZ     -15.7679   ZZZZ     -74.7294
 -----------------------------------------------------------------
 Calculating analytic gradient of the SCF energy
 Gradient of SCF Energy
            1           2           3           4           5           6
    1   0.0000099   0.0000825  -0.0000194  -0.0000246  -0.0000316   0.0000324
    2   0.0000758   0.0000620  -0.0000579   0.0000422  -0.0000272  -0.0000271
    3   0.0000472  -0.0000247   0.0000210  -0.0000322   0.0000124  -0.0000514
            7           8           9          10          11          12
    1  -0.0000130  -0.0000023   0.0000038  -0.0000006  -0.0000044  -0.0000490
    2   0.0000140  -0.0000103  -0.0000035  -0.0000139  -0.0000078  -0.0000624
    3  -0.0000211   0.0000087   0.0000129  -0.0000040   0.0000230   0.0000107
           13
    1   0.0000163
    2   0.0000161
    3  -0.0000026
 Max gradient component =       8.250E-05
 RMS gradient           =       3.290E-05
 Gradient time:  CPU 7.43 s  wall 3.38 s
-Performing force calculation on product structure in state0
 ----------------------------------------------------------------
             Standard Nuclear Orientation (Angstroms)
    I     Atom           X                Y                Z
 ----------------------------------------------------------------
    1      C       1.2969234825    -0.2267807064     0.0036812515
    2      C       0.3292380561    -1.3240135861     0.2278162410
    3      C      -0.9950133839    -1.0798771331     0.3091989103
    4      C      -1.5135211761     0.2810751917     0.3173526533
    5      C      -0.6956580649     1.3359668884     0.1451552625
    6      N       0.6853798597     1.1862500064    -0.1352454753
    7      H       2.2194372206    -0.2547376759     0.5889483745
    8      H       0.7255846260    -2.3281851430     0.3612238195
    9      H      -1.6912197763    -1.8990348067     0.4687491202
   10      H      -2.5586683615     0.4479084310     0.5623986284
   11      H      -1.0179592755     2.3635096889     0.2900351651
   12      C       1.2238367699     0.5377569098    -1.2475174711
   13      H       1.9916400238     0.9601619352    -1.8917964804
 ----------------------------------------------------------------
 Nuclear Repulsion Energy =   270.0711706724 hartrees
 There are       25 alpha and       24 beta electrons

                       Distance Matrix (Angstroms)
             C (  1)   C (  2)   C (  3)   C (  4)   C (  5)   N (  6)
   C (  2)  1.480058
   C (  3)  2.464567  1.349025
   C (  4)  2.873135  2.445422  1.456402
   C (  5)  2.536252  2.851796  2.439841  1.345863
   N (  6)  1.545944  2.561264  2.855973  2.420610  1.417147
   H (  7)  1.092864  2.201504  3.330437  3.780984  3.350384  2.225811
   H (  8)  2.206845  1.087772  2.126367  3.438569  3.936067  3.549557
   H (  9)  3.455680  2.114462  1.086821  2.192573  3.400161  3.941068
   H ( 10)  3.953854  3.404652  2.200740  1.086376  2.105599  3.399368
   H ( 11)  3.485726  3.926403  3.443517  2.140762  1.086606  2.113804
   C ( 12)  1.468114  2.538327  3.156486  3.163516  2.502226  1.395574
   H ( 13)  2.341858  3.531826  4.233939  4.198530  3.392930  2.200660
             H (  7)   H (  8)   H (  9)   H ( 10)   H ( 11)   C ( 12)
   H (  8)  2.565665
   H (  9)  4.243984  2.456965
   H ( 10)  4.829566  4.305053  2.503873
   H ( 11)  4.174363  5.005698  4.319086  2.473357
   C ( 12)  2.234250  3.324143  4.169062  4.194188  3.274613
   H ( 13)  2.771636  4.182371  5.225958  5.195266  3.973344  1.087678

 
 Applying Cartesian multipole field
    Component          Value
    ---------          -----
     (2,0,0)        1.00000E-11
     (0,2,0)        2.00000E-11
     (0,0,2)       -3.00000E-10
 Nucleus-field energy     =    -0.0000000105 hartrees
 Requested basis set is 6-31G(d)
 There are 40 shells and 117 basis functions
 A cutoff of  1.0D-14 yielded    801 shell pairs
 There are      7073 function pairs
 Smallest overlap matrix eigenvalue = 9.83E-04
 Guess MOs from core Hamiltonian diagonalization
 Mixing HOMO and LUMO in initial guess
 Adding  50% of the LUMO to the HOMO
 An unrestricted hybrid HF-DFT SCF calculation will be
 performed using Pulay DIIS extrapolation
 Exchange:     0.2000 Hartree-Fock + 0.0800 Slater + 0.7200 B88
 Correlation:  0.1900 VWN1RPA + 0.8100 LYP
 Using SG-1 standard quadrature grid
 SCF converges when DIIS error is below 1.0E-08
 using 4 threads for integral computing
 -------------------------------------------------------
 OpenMP Integral computing Module                
 Release: version 1.0, May 2013, Q-Chem Inc. Pittsburgh 
 -------------------------------------------------------
 -------------------------------------------------------
 OpenMP BLAS3 based DFT computing Module                
 Release: version 1.0, May 2013, Q-Chem Inc. Pittsburgh 
 -------------------------------------------------------
 ---------------------------------------
  Cycle       Energy         DIIS Error
 ---------------------------------------
    1    -236.3706009036      1.34E-01
    2    -234.8150670219      9.97E-02
    3    -255.1418908353      1.06E-01
    4    -277.8083469435      5.76E-02
    5    -266.1036908481      8.66E-02
    6    -284.5782415775      3.14E-02
    7    -285.9037857720      1.88E-02
    8    -286.3207025855      1.49E-02
    9    -286.8275728971      2.07E-03
   10    -286.8328816378      1.94E-03
   11    -286.8398657620      3.62E-04
   12    -286.8402307936      3.20E-04
   13    -286.8404275863      8.14E-05
   14    -286.8404662497      1.97E-05
   15    -286.8404738991      1.26E-05
   16    -286.8404787860      2.57E-06
   17    -286.8404821219      1.26E-06
   18    -286.8404832781      7.49E-07
   19    -286.8404840624      4.04E-07
   20    -286.8404847387      1.98E-07
   21    -286.8404848559      5.82E-08
   22    -286.8404848653      1.18E-08
   23    -286.8404848659      5.14E-09 Convergence criterion met
 ---------------------------------------
 <S^2> = 0.7531
 SCF time:  CPU 60.70 s  wall 46.35 s
 SCF   energy in the final basis set = -286.84048487
 Total energy in the final basis set = -286.84048487
 
 --------------------------------------------------------------
 
                    Orbital Energies (a.u.)
 --------------------------------------------------------------
 
 Alpha MOs
 -- Occupied --
-14.358 -10.230 -10.222 -10.220 -10.195 -10.193 -10.189  -0.983
 -0.807  -0.773  -0.662  -0.637  -0.570  -0.520  -0.493  -0.477
 -0.451  -0.424  -0.389  -0.368  -0.354  -0.308  -0.277  -0.223
 -0.188
 -- Virtual --
 -0.028   0.063   0.100   0.126   0.128   0.158   0.159   0.172
  0.188   0.192   0.255   0.276   0.319   0.333   0.440   0.482
  0.486   0.515   0.528   0.540   0.554   0.577   0.580   0.598
  0.613   0.630   0.642   0.669   0.691   0.720   0.757   0.789
  0.839   0.849   0.852   0.869   0.882   0.899   0.917   0.951
  0.968   1.012   1.075   1.106   1.129   1.160   1.195   1.281
  1.376   1.431   1.481   1.510   1.535   1.581   1.617   1.717
  1.742   1.787   1.844   1.862   1.891   1.909   1.980   2.000
  2.039   2.055   2.143   2.168   2.188   2.238   2.298   2.350
  2.385   2.465   2.538   2.547   2.580   2.612   2.655   2.681
  2.759   2.813   2.861   2.991   3.259   4.029   4.096   4.147
  4.227   4.286   4.398   4.599
 
 Beta MOs
 -- Occupied --
-14.355 -10.230 -10.220 -10.209 -10.195 -10.193 -10.189  -0.974
 -0.805  -0.770  -0.654  -0.636  -0.556  -0.515  -0.487  -0.474
 -0.442  -0.419  -0.384  -0.364  -0.351  -0.297  -0.270  -0.206
 -- Virtual --
 -0.051  -0.025   0.067   0.100   0.128   0.133   0.161   0.164
  0.178   0.188   0.199   0.258   0.280   0.327   0.342   0.443
  0.484   0.491   0.526   0.537   0.555   0.562   0.580   0.585
  0.605   0.624   0.632   0.645   0.672   0.693   0.724   0.770
  0.794   0.839   0.851   0.856   0.871   0.888   0.905   0.921
  0.952   0.979   1.016   1.079   1.111   1.135   1.162   1.201
  1.285   1.380   1.436   1.483   1.512   1.543   1.592   1.620
  1.723   1.756   1.794   1.851   1.884   1.897   1.923   1.984
  2.007   2.046   2.061   2.145   2.188   2.192   2.247   2.311
  2.358   2.396   2.470   2.542   2.554   2.584   2.620   2.658
  2.683   2.765   2.826   2.872   2.993   3.261   4.035   4.098
  4.151   4.244   4.296   4.400   4.601
 --------------------------------------------------------------
 
          Ground-State Mulliken Net Atomic Charges

     Atom                 Charge (a.u.)    Spin (a.u.)
  --------------------------------------------------------
      1 C                    -0.076092      -0.036744
      2 C                    -0.100426       0.029207
      3 C                    -0.134365      -0.010519
      4 C                    -0.123814       0.014852
      5 C                     0.023906       0.011028
      6 N                    -0.392164       0.120685
      7 H                     0.152258       0.003880
      8 H                     0.137756      -0.001592
      9 H                     0.133274       0.000597
     10 H                     0.133373       0.003096
     11 H                     0.148745      -0.000902
     12 C                    -0.055306       0.859792
     13 H                     0.152855       0.006619
  --------------------------------------------------------
  Sum of atomic charges =    -0.000000
  Sum of spin   charges =     1.000000

 -----------------------------------------------------------------
                    Cartesian Multipole Moments
 -----------------------------------------------------------------
    Charge (ESU x 10^10)
                 0.0000
    Dipole Moment (Debye)
         X      -0.1563      Y      -0.6937      Z       0.3505
       Tot       0.7927
    Quadrupole Moments (Debye-Ang)
        XX     -36.4284     XY      -1.4265     YY     -38.7310
        XZ      -1.5855     YZ      -1.2401     ZZ     -42.5607
    Octopole Moments (Debye-Ang^2)
       XXX      -5.9738    XXY      -4.4554    XYY      -6.0952
       YYY     -13.4401    XXZ       2.3906    XYZ      -2.5553
       YYZ       2.9117    XZZ       2.1763    YZZ      -1.4158
       ZZZ       3.9740
    Hexadecapole Moments (Debye-Ang^3)
      XXXX    -331.2354   XXXY      -4.2290   XXYY    -106.9319
      XYYY     -16.9656   YYYY    -290.6707   XXXZ      38.7757
      XXYZ       3.0947   XYYZ      12.4782   YYYZ      21.7696
      XXZZ     -74.4053   XYZZ       1.9654   YYZZ     -73.3524
      XZZZ      44.4311   YZZZ      22.2015   ZZZZ    -123.6547
 -----------------------------------------------------------------
 Calculating analytic gradient of the SCF energy
 Gradient of SCF Energy
            1           2           3           4           5           6
    1  -0.0000846  -0.0000242   0.0000092   0.0000039   0.0000017   0.0000098
    2   0.0000579  -0.0000109  -0.0000267   0.0000355   0.0000272  -0.0000779
    3   0.0000142   0.0000175  -0.0000099  -0.0000132  -0.0000236   0.0000732
            7           8           9          10          11          12
    1   0.0000073   0.0000169  -0.0000040  -0.0000087   0.0000070   0.0000487
    2   0.0000117  -0.0000020   0.0000116   0.0000087  -0.0000094  -0.0000336
    3   0.0000029   0.0000078   0.0000077  -0.0000292  -0.0000208  -0.0000561
           13
    1   0.0000169
    2   0.0000077
    3   0.0000296
 Max gradient component =       8.460E-05
 RMS gradient           =       3.084E-05
 Gradient time:  CPU 7.37 s  wall 8.77 s

STARTING FREEZING STRING ITERATION # 1
 The distance between the innermost nodes (Angstroms): 3.702
-Adding two new nodes
 The distance between the previous and current R_nodes (Angstroms): 0.1479
 The distance between the previous and current P_nodes (Angstroms): 0.1806
-Optimizing new reactant side node
 Using BFGS, step: 2 E_tol 0.0838
 max_steps 6, node_spacing 0.1763, sigma 0.7000
 ----------------------------------------------------------------
             Standard Nuclear Orientation (Angstroms)
    I     Atom           X                Y                Z
 ----------------------------------------------------------------
    1      C       1.4381080146     0.8322904007    -0.2978907381
    2      C       0.2683603527    -1.4238079676    -0.1715559938
    3      C      -0.9911627785    -1.0619087427     0.1902026650
    4      C      -1.4739851737     0.2730740543     0.4279729233
    5      C      -0.7787426279     1.4592123113     0.3370363118
    6      N       0.4990022563     1.7580882229     0.0078357494
    7      H       2.4098867945     1.2931528106    -0.4904672645
    8      H       0.4617840062    -2.4872012288    -0.3045688905
    9      H      -1.7180448665    -1.8605217129     0.3265935018
   10      H      -2.5169563922     0.3617906495     0.7231491615
   11      H      -1.3536608489     2.3567525867     0.5753875636
   12      C       1.4017378080    -0.5247604706    -0.5045032860
   13      H       2.3384148842    -0.9808951833    -0.8173336575
 ----------------------------------------------------------------
 Nuclear Repulsion Energy =   260.2614479889 hartrees
 There are       25 alpha and       24 beta electrons

                       Distance Matrix (Angstroms)
             C (  1)   C (  2)   C (  3)   C (  4)   C (  5)   N (  6)
   C (  2)  2.544455
   C (  3)  3.118907  1.359500
   C (  4)  3.052849  2.504917  1.439386
   C (  5)  2.389684  3.109163  2.534311  1.377881
   N (  6)  1.353695  3.195284  3.194719  2.504888  1.352898
   H (  7)  1.092627  3.474150  4.192465  4.119291  3.298438  2.028781
   H (  8)  3.460098  1.088995  2.094591  3.450064  4.186256  4.256931
   H (  9)  4.195536  2.093962  1.088459  2.149901  3.450077  4.255731
   H ( 10)  4.111743  3.427368  2.153833  1.087561  2.091603  3.399607
   H ( 11)  3.298571  4.181090  3.459338  2.092349  1.092209  2.028022
   C ( 12)  1.373171  1.484481  2.548944  3.126633  3.065751  2.507752
   H ( 13)  2.089980  2.213216  3.479624  4.202097  4.123514  3.400937
             H (  7)   H (  8)   H (  9)   H ( 10)   H ( 11)   C ( 12)
   H (  8)  4.256846
   H (  9)  5.258619  2.354304
   H ( 10)  5.158884  4.248041  2.394617
   H ( 11)  4.053589  5.247290  4.240292  2.314079
   C ( 12)  2.078791  2.185100  3.493998  4.201103  4.130557
   H ( 13)  2.298531  2.460412  4.305482  5.267876  5.168267  1.087789

 
 Applying Cartesian multipole field
    Component          Value
    ---------          -----
     (2,0,0)        1.00000E-11
     (0,2,0)        2.00000E-11
     (0,0,2)       -3.00000E-10
 Nucleus-field energy     =     0.0000000015 hartrees
 Requested basis set is 6-31G(d)
 There are 40 shells and 117 basis functions
 A cutoff of  1.0D-14 yielded    790 shell pairs
 There are      7062 function pairs
 Smallest overlap matrix eigenvalue = 1.43E-03
 Guess MOs from core Hamiltonian diagonalization
 Mixing HOMO and LUMO in initial guess
 Adding  50% of the LUMO to the HOMO
 An unrestricted hybrid HF-DFT SCF calculation will be
 performed using Pulay DIIS extrapolation
 Exchange:     0.2000 Hartree-Fock + 0.0800 Slater + 0.7200 B88
 Correlation:  0.1900 VWN1RPA + 0.8100 LYP
 Using SG-1 standard quadrature grid
 SCF converges when DIIS error is below 1.0E-08
 using 4 threads for integral computing
 -------------------------------------------------------
 OpenMP Integral computing Module                
 Release: version 1.0, May 2013, Q-Chem Inc. Pittsburgh 
 -------------------------------------------------------
 -------------------------------------------------------
 OpenMP BLAS3 based DFT computing Module                
 Release: version 1.0, May 2013, Q-Chem Inc. Pittsburgh 
 -------------------------------------------------------
 ---------------------------------------
  Cycle       Energy         DIIS Error
 ---------------------------------------
    1    -239.2138733930      1.26E-01
    2    -228.1634736254      1.03E-01
    3    -248.6891908539      1.05E-01
    4    -282.4313234204      4.81E-02
    5    -281.8855887004      4.57E-02
    6    -286.4569869236      1.34E-02
    7    -286.5688442439      1.24E-02
    8    -286.8916719159      3.65E-03
    9    -286.9138469699      2.14E-03
   10    -286.9211796443      3.21E-04
   11    -286.9215230441      1.61E-04
   12    -286.9216176386      8.20E-05
   13    -286.9216932779      2.97E-05
   14    -286.9217213433      1.59E-05
   15    -286.9217283989      4.75E-06
   16    -286.9217307990      2.06E-06
   17    -286.9217311246      1.31E-06
   18    -286.9217311808      7.39E-07
   19    -286.9217312151      5.44E-07
   20    -286.9217312341      1.66E-07
   21    -286.9217312369      5.72E-08
   22    -286.9217312371      1.11E-08
   23    -286.9217312371      5.37E-09 Convergence criterion met
 ---------------------------------------
 <S^2> = 0.7700
 SCF time:  CPU 59.05 s  wall 50.16 s
 SCF   energy in the final basis set = -286.92173124
 Total energy in the final basis set = -286.92173124
 
 --------------------------------------------------------------
 
                    Orbital Energies (a.u.)
 --------------------------------------------------------------
 
 Alpha MOs
 -- Occupied --
-14.322 -10.231 -10.229 -10.214 -10.212 -10.204 -10.200  -0.922
 -0.816  -0.784  -0.695  -0.664  -0.552  -0.535  -0.516  -0.450
 -0.438  -0.415  -0.394  -0.388  -0.346  -0.320  -0.299  -0.250
 -0.165
 -- Virtual --
 -0.069   0.077   0.094   0.100   0.117   0.142   0.177   0.183
  0.193   0.210   0.268   0.316   0.355   0.387   0.412   0.483
  0.496   0.512   0.552   0.576   0.580   0.586   0.589   0.609
  0.617   0.627   0.648   0.656   0.712   0.718   0.826   0.838
  0.848   0.852   0.866   0.873   0.885   0.924   0.959   0.973
  1.019   1.028   1.040   1.128   1.163   1.179   1.295   1.300
  1.331   1.380   1.428   1.467   1.483   1.543   1.577   1.593
  1.683   1.719   1.776   1.826   1.852   1.917   1.922   2.021
  2.027   2.058   2.098   2.140   2.151   2.186   2.248   2.383
  2.392   2.416   2.449   2.540   2.584   2.594   2.608   2.735
  2.743   2.804   3.041   3.218   3.258   4.013   4.039   4.100
  4.202   4.240   4.524   4.583
 
 Beta MOs
 -- Occupied --
-14.315 -10.233 -10.231 -10.212 -10.211 -10.199 -10.196  -0.910
 -0.807  -0.777  -0.683  -0.661  -0.547  -0.533  -0.512  -0.447
 -0.436  -0.412  -0.386  -0.372  -0.345  -0.294  -0.275  -0.241
 -- Virtual --
 -0.080  -0.067   0.078   0.117   0.120   0.125   0.142   0.180
  0.186   0.195   0.215   0.270   0.320   0.358   0.389   0.415
  0.485   0.504   0.515   0.556   0.584   0.586   0.591   0.593
  0.613   0.621   0.632   0.651   0.674   0.715   0.728   0.828
  0.841   0.848   0.867   0.875   0.879   0.888   0.927   0.963
  0.977   1.022   1.031   1.042   1.133   1.167   1.183   1.303
  1.311   1.343   1.388   1.429   1.478   1.490   1.557   1.586
  1.603   1.688   1.725   1.786   1.828   1.856   1.920   1.930
  2.028   2.041   2.069   2.109   2.142   2.155   2.197   2.260
  2.391   2.403   2.427   2.452   2.553   2.587   2.604   2.618
  2.739   2.755   2.807   3.043   3.221   3.261   4.025   4.046
  4.107   4.207   4.240   4.529   4.589
 --------------------------------------------------------------
 
          Ground-State Mulliken Net Atomic Charges

     Atom                 Charge (a.u.)    Spin (a.u.)
  --------------------------------------------------------
      1 C                     0.034504      -0.112541
      2 C                    -0.121757       0.123741
      3 C                    -0.107042       0.054853
      4 C                    -0.129249       0.362070
      5 C                     0.034482      -0.126045
      6 N                    -0.420727       0.389312
      7 H                     0.140259       0.003512
      8 H                     0.140822      -0.008155
      9 H                     0.143490      -0.004645
     10 H                     0.134130      -0.018966
     11 H                     0.142614       0.004153
     12 C                    -0.128982       0.351022
     13 H                     0.137455      -0.018312
  --------------------------------------------------------
  Sum of atomic charges =     0.000000
  Sum of spin   charges =     1.000000

 -----------------------------------------------------------------
                    Cartesian Multipole Moments
 -----------------------------------------------------------------
    Charge (ESU x 10^10)
                 0.0000
    Dipole Moment (Debye)
         X      -0.6211      Y      -2.1488      Z       0.0497
       Tot       2.2373
    Quadrupole Moments (Debye-Ang)
        XX     -35.4108     XY      -1.9026     YY     -41.7779
        XZ      -2.2956     YZ       0.7271     ZZ     -42.7033
    Octopole Moments (Debye-Ang^2)
       XXX      -3.5507    XXY      -5.9868    XYY      -8.2537
       YYY     -35.9832    XXZ      -0.2653    XYZ      -0.2733
       YYZ       0.4062    XZZ      -1.5195    YZZ      -5.5610
       ZZZ       0.2860
    Hexadecapole Moments (Debye-Ang^3)
      XXXX    -354.7882   XXXY      -1.6934   XXYY    -123.3343
      XYYY     -22.1728   YYYY    -424.8080   XXXZ      34.9531
      XXYZ      -3.8039   XYYZ      10.6636   YYYZ      -9.9481
      XXZZ     -77.5749   XYZZ      -2.6285   YYZZ     -83.5285
      XZZZ      51.2848   YZZZ     -15.2914   ZZZZ     -76.0059
 -----------------------------------------------------------------
 Calculating analytic gradient of the SCF energy
 Gradient of SCF Energy
            1           2           3           4           5           6
    1  -0.0020721  -0.0189928  -0.0006406   0.0037723  -0.0053482   0.0015803
    2  -0.0064779  -0.0084210  -0.0023122   0.0041582  -0.0048237  -0.0005144
    3   0.0097474   0.0158709  -0.0019149  -0.0005585   0.0021440  -0.0070334
            7           8           9          10          11          12
    1  -0.0001222  -0.0005777  -0.0005340   0.0000156   0.0009810   0.0195575
    2  -0.0005963  -0.0006084   0.0000400   0.0002313   0.0003272   0.0164570
    3   0.0001599  -0.0005080  -0.0013574  -0.0000628   0.0008934  -0.0169017
           13
    1   0.0023810
    2   0.0025402
    3  -0.0004790
 Max gradient component =       1.956E-02
 RMS gradient           =       7.037E-03
 Gradient time:  CPU 7.48 s  wall 2.68 s
 ----------------------------------------------------------------
             Standard Nuclear Orientation (Angstroms)
    I     Atom           X                Y                Z
 ----------------------------------------------------------------
    1      C       1.4435512301     0.8383988428    -0.3025607192
    2      C       0.2932292212    -1.4129444758    -0.1862121043
    3      C      -0.9909745689    -1.0587607140     0.1935010826
    4      C      -1.4800632734     0.2677339965     0.4281372451
    5      C      -0.7728164878     1.4646656516     0.3332918045
    6      N       0.4956443332     1.7563273873     0.0133803971
    7      H       2.4122882955     1.2935901523    -0.4810593115
    8      H       0.4617275325    -2.4868351894    -0.2972773936
    9      H      -1.7183349724    -1.8600841716     0.3295399845
   10      H      -2.5182571708     0.3618384803     0.7224398143
   11      H      -1.3548354663     2.3563373204     0.5728344223
   12      C       1.3767378080    -0.5439270883    -0.4962109521
   13      H       2.3368449333    -0.9810744741    -0.8279463733
 ----------------------------------------------------------------
 Nuclear Repulsion Energy =   260.3804190367 hartrees
 There are       25 alpha and       24 beta electrons

                       Distance Matrix (Angstroms)
             C (  1)   C (  2)   C (  3)   C (  4)   C (  5)   N (  6)
   C (  2)  2.530874
   C (  3)  3.126053  1.385210
   C (  4)  3.067100  2.519260  1.433126
   C (  5)  2.389310  3.112391  2.536694  1.393499
   N (  6)  1.356812  3.181995  3.188605  2.508257  1.340299
   H (  7)  1.085132  3.450025  4.191752  4.126672  3.292010  2.032762
   H (  8)  3.467158  1.092689  2.095377  3.447380  4.187610  4.254655
   H (  9)  4.204627  2.124223  1.090724  2.143386  3.456585  4.252069
   H ( 10)  4.119910  3.446732  2.151853  1.083197  2.101006  3.395728
   H ( 11)  3.301730  4.183271  3.455312  2.097351  1.091423  2.024173
   C ( 12)  1.397422  1.423124  2.519289  3.110390  3.056649  2.515389
   H ( 13)  2.093917  2.185109  3.481921  4.207857  4.123119  3.404588
             H (  7)   H (  8)   H (  9)   H ( 10)   H ( 11)   C ( 12)
   H (  8)  4.257943
   H (  9)  5.259732  2.353378
   H ( 10)  5.160121  4.246772  2.393990
   H ( 11)  4.053560  5.245314  4.239049  2.313862
   C ( 12)  2.109280  2.156782  3.463179  4.180491  4.125031
   H ( 13)  2.302199  2.462720  4.307774  5.270591  5.170010  1.105872

 
 Applying Cartesian multipole field
    Component          Value
    ---------          -----
     (2,0,0)        1.00000E-11
     (0,2,0)        2.00000E-11
     (0,0,2)       -3.00000E-10
 Nucleus-field energy     =     0.0000000015 hartrees
 Requested basis set is 6-31G(d)
 There are 40 shells and 117 basis functions
 A cutoff of  1.0D-14 yielded    790 shell pairs
 There are      7062 function pairs
 Smallest overlap matrix eigenvalue = 1.39E-03
 Guess MOs from core Hamiltonian diagonalization
 Mixing HOMO and LUMO in initial guess
 Adding  50% of the LUMO to the HOMO
 An unrestricted hybrid HF-DFT SCF calculation will be
 performed using Pulay DIIS extrapolation
 Exchange:     0.2000 Hartree-Fock + 0.0800 Slater + 0.7200 B88
 Correlation:  0.1900 VWN1RPA + 0.8100 LYP
 Using SG-1 standard quadrature grid
 SCF converges when DIIS error is below 1.0E-08
 using 4 threads for integral computing
 -------------------------------------------------------
 OpenMP Integral computing Module                
 Release: version 1.0, May 2013, Q-Chem Inc. Pittsburgh 
 -------------------------------------------------------
 -------------------------------------------------------
 OpenMP BLAS3 based DFT computing Module                
 Release: version 1.0, May 2013, Q-Chem Inc. Pittsburgh 
 -------------------------------------------------------
 ---------------------------------------
  Cycle       Energy         DIIS Error
 ---------------------------------------
    1    -239.5073951309      1.26E-01
    2    -228.5110389780      1.03E-01
    3    -251.1428577820      1.05E-01
    4    -283.2873677159      4.27E-02
    5    -282.3369899797      4.41E-02
    6    -286.3245491460      1.54E-02
    7    -286.5005467829      1.34E-02
    8    -286.8972819923      3.31E-03
    9    -286.9138091521      2.11E-03
   10    -286.9212342368      2.64E-04
   11    -286.9215057061      1.79E-04
   12    -286.9216085132      7.42E-05
   13    -286.9216704497      3.65E-05
   14    -286.9217022876      1.94E-05
   15    -286.9217170701      8.90E-06
   16    -286.9217216621      4.87E-06
   17    -286.9217232865      2.51E-06
   18    -286.9217238982      2.42E-06
   19    -286.9217242564      1.28E-06
   20    -286.9217244118      6.09E-07
   21    -286.9217244216      1.05E-07
   22    -286.9217244219      2.08E-08
   23    -286.9217244220      8.40E-09 Convergence criterion met
 ---------------------------------------
 <S^2> = 0.7678
 SCF time:  CPU 59.11 s  wall 40.13 s
 SCF   energy in the final basis set = -286.92172442
 Total energy in the final basis set = -286.92172442
 
 --------------------------------------------------------------
 
                    Orbital Energies (a.u.)
 --------------------------------------------------------------
 
 Alpha MOs
 -- Occupied --
-14.320 -10.235 -10.233 -10.214 -10.213 -10.203 -10.198  -0.923
 -0.816  -0.784  -0.688  -0.670  -0.552  -0.538  -0.514  -0.449
 -0.439  -0.414  -0.394  -0.384  -0.354  -0.321  -0.298  -0.247
 -0.157
 -- Virtual --
 -0.076   0.076   0.095   0.099   0.117   0.143   0.178   0.184
  0.192   0.220   0.259   0.319   0.356   0.387   0.412   0.485
  0.497   0.519   0.544   0.576   0.582   0.588   0.590   0.609
  0.618   0.620   0.646   0.657   0.706   0.717   0.824   0.838
  0.847   0.852   0.868   0.872   0.885   0.924   0.963   0.978
  1.019   1.028   1.032   1.123   1.165   1.182   1.300   1.311
  1.322   1.386   1.422   1.470   1.485   1.549   1.570   1.588
  1.682   1.738   1.774   1.831   1.844   1.909   1.921   2.017
  2.041   2.053   2.098   2.133   2.147   2.189   2.247   2.393
  2.397   2.410   2.438   2.540   2.574   2.601   2.608   2.733
  2.743   2.806   3.048   3.230   3.250   4.016   4.042   4.102
  4.186   4.242   4.526   4.588
 
 Beta MOs
 -- Occupied --
-14.313 -10.236 -10.235 -10.212 -10.211 -10.198 -10.194  -0.912
 -0.807  -0.777  -0.677  -0.668  -0.547  -0.535  -0.511  -0.447
 -0.438  -0.410  -0.382  -0.372  -0.352  -0.294  -0.275  -0.238
 -- Virtual --
 -0.075  -0.074   0.077   0.117   0.122   0.124   0.143   0.181
  0.187   0.195   0.225   0.261   0.324   0.359   0.389   0.415
  0.487   0.505   0.523   0.548   0.585   0.587   0.592   0.595
  0.614   0.623   0.625   0.648   0.675   0.708   0.728   0.827
  0.840   0.847   0.868   0.874   0.879   0.887   0.927   0.966
  0.982   1.021   1.030   1.035   1.129   1.169   1.186   1.310
  1.319   1.334   1.395   1.423   1.482   1.492   1.563   1.578
  1.598   1.686   1.741   1.787   1.833   1.848   1.912   1.929
  2.023   2.051   2.067   2.108   2.135   2.152   2.201   2.259
  2.401   2.407   2.421   2.440   2.552   2.577   2.611   2.618
  2.737   2.755   2.808   3.050   3.233   3.253   4.027   4.048
  4.109   4.191   4.243   4.531   4.594
 --------------------------------------------------------------
 
          Ground-State Mulliken Net Atomic Charges

     Atom                 Charge (a.u.)    Spin (a.u.)
  --------------------------------------------------------
      1 C                     0.036099      -0.098470
      2 C                    -0.115263       0.116385
      3 C                    -0.111899       0.085120
      4 C                    -0.136285       0.360862
      5 C                     0.042505      -0.115173
      6 N                    -0.421991       0.367905
      7 H                     0.146572       0.002885
      8 H                     0.141842      -0.007804
      9 H                     0.143141      -0.006164
     10 H                     0.133260      -0.019050
     11 H                     0.142682       0.003557
     12 C                    -0.134509       0.327510
     13 H                     0.133846      -0.017563
  --------------------------------------------------------
  Sum of atomic charges =    -0.000000
  Sum of spin   charges =     1.000000

 -----------------------------------------------------------------
                    Cartesian Multipole Moments
 -----------------------------------------------------------------
    Charge (ESU x 10^10)
                 0.0000
    Dipole Moment (Debye)
         X      -0.5504      Y      -2.0541      Z       0.0343
       Tot       2.1269
    Quadrupole Moments (Debye-Ang)
        XX     -35.3883     XY      -1.6830     YY     -41.7598
        XZ      -2.2992     YZ       0.6339     ZZ     -42.7459
    Octopole Moments (Debye-Ang^2)
       XXX      -3.1557    XXY      -5.3517    XYY      -8.2689
       YYY     -35.7874    XXZ      -0.2468    XYZ      -0.4028
       YYZ       0.4421    XZZ      -1.4736    YZZ      -5.4413
       ZZZ       0.3442
    Hexadecapole Moments (Debye-Ang^3)
      XXXX    -353.4908   XXXY       0.4463   XXYY    -122.9850
      XYYY     -21.1236   YYYY    -424.8947   XXXZ      34.8377
      XXYZ      -4.2038   XYYZ      10.6180   YYYZ     -10.6937
      XXZZ     -77.5305   XYZZ      -2.3411   YYZZ     -83.5813
      XZZZ      51.2394   YZZZ     -15.6770   ZZZZ     -76.1367
 -----------------------------------------------------------------
 Calculating analytic gradient of the SCF energy
 Gradient of SCF Energy
            1           2           3           4           5           6
    1   0.0142892   0.0279438  -0.0163349  -0.0050025   0.0085847  -0.0114285
    2   0.0127217   0.0094350   0.0042866  -0.0083827   0.0090209  -0.0038904
    3   0.0056375  -0.0005183   0.0042202   0.0005957  -0.0011738  -0.0027535
            7           8           9          10          11          12
    1  -0.0036861  -0.0024937  -0.0031546   0.0026415   0.0009507  -0.0244825
    2  -0.0010316  -0.0034007  -0.0001045   0.0000984  -0.0008503  -0.0182505
    3   0.0016903   0.0008488  -0.0007964  -0.0007577   0.0009981  -0.0038391
           13
    1   0.0121727
    2   0.0003482
    3  -0.0041518
 Max gradient component =       2.794E-02
 RMS gradient           =       8.981E-03
 Gradient time:  CPU 7.59 s  wall 2.10 s
 converged (energy) along this node, energy -286.9217244
done with opt_step_by_gradient, Reactant, iter1
-Optimizing new product side node
 Using BFGS, step: 2 E_tol 0.0838338
 max_steps 6, node_spacing 0.1762808, sigma 0.7000000
 ----------------------------------------------------------------
             Standard Nuclear Orientation (Angstroms)
    I     Atom           X                Y                Z
 ----------------------------------------------------------------
    1      C       1.3134152521    -0.1670719010     0.0410076432
    2      C       0.3223180332    -1.3344236314     0.1895989229
    3      C      -0.9983072658    -1.0794547856     0.2992215665
    4      C      -1.5143800143     0.2809259521     0.3237466384
    5      C      -0.7026384612     1.3439539523     0.1572640210
    6      N       0.6794708399     1.2204178407    -0.1100199751
    7      H       2.2548275672    -0.1817697537     0.5927310741
    8      H       0.7105139688    -2.3428925082     0.3132605244
    9      H      -1.6959060732    -1.8974208007     0.4590314330
   10      H      -2.5591716479     0.4433563159     0.5732055823
   11      H      -1.0408165880     2.3657599010     0.3079687975
   12      C       1.2172227576     0.4877429586    -1.2583632868
   13      H       2.0122960654     0.8606054196    -1.9011379327
 ----------------------------------------------------------------
 Nuclear Repulsion Energy =   268.6812878871 hartrees
 There are       25 alpha and       24 beta electrons

                       Distance Matrix (Angstroms)
             C (  1)   C (  2)   C (  3)   C (  4)   C (  5)   N (  6)
   C (  2)  1.538526
   C (  3)  2.498635  1.349473
   C (  4)  2.876990  2.449655  1.455187
   C (  5)  2.522139  2.867976  2.445502  1.347839
   N (  6)  1.532913  2.597026  2.876079  2.425650  1.413127
   H (  7)  1.091271  2.285983  3.387458  3.807015  3.356199  2.223002
   H (  8)  2.274161  1.087657  2.125216  3.440158  3.951477  3.588497
   H (  9)  3.496408  2.112531  1.086854  2.190080  3.403550  3.960701
   H ( 10)  3.956360  3.407439  2.197799  1.086371  2.104946  3.399916
   H ( 11)  3.468272  3.945061  3.445488  2.138000  1.086814  2.108533
   C ( 12)  1.458218  2.493540  3.129018  3.163463  2.534357  1.464473
   H ( 13)  2.305750  3.470642  4.203469  4.209939  3.441150  2.261414
             H (  7)   H (  8)   H (  9)   H ( 10)   H ( 11)   C ( 12)
   H (  8)  2.670854
   H (  9)  4.309249  2.451643
   H ( 10)  4.854457  4.303673  2.497499
   H ( 11)  4.175197  5.023803  4.315863  2.464019
   C ( 12)  2.225179  3.277080  4.138209  4.197353  3.328526
   H ( 13)  2.713807  4.106166  5.189207  5.214862  4.057972  1.088268

 
 Applying Cartesian multipole field
    Component          Value
    ---------          -----
     (2,0,0)        1.00000E-11
     (0,2,0)        2.00000E-11
     (0,0,2)       -3.00000E-10
 Nucleus-field energy     =    -0.0000000106 hartrees
 Requested basis set is 6-31G(d)
 There are 40 shells and 117 basis functions
 A cutoff of  1.0D-14 yielded    800 shell pairs
 There are      7072 function pairs
 Smallest overlap matrix eigenvalue = 1.02E-03
 Guess MOs from core Hamiltonian diagonalization
 Mixing HOMO and LUMO in initial guess
 Adding  50% of the LUMO to the HOMO
 An unrestricted hybrid HF-DFT SCF calculation will be
 performed using Pulay DIIS extrapolation
 Exchange:     0.2000 Hartree-Fock + 0.0800 Slater + 0.7200 B88
 Correlation:  0.1900 VWN1RPA + 0.8100 LYP
 Using SG-1 standard quadrature grid
 SCF converges when DIIS error is below 1.0E-08
 using 4 threads for integral computing
 -------------------------------------------------------
 OpenMP Integral computing Module                
 Release: version 1.0, May 2013, Q-Chem Inc. Pittsburgh 
 -------------------------------------------------------
 -------------------------------------------------------
 OpenMP BLAS3 based DFT computing Module                
 Release: version 1.0, May 2013, Q-Chem Inc. Pittsburgh 
 -------------------------------------------------------
 ---------------------------------------
  Cycle       Energy         DIIS Error
 ---------------------------------------
    1    -236.7305005604      1.34E-01
    2    -235.6237512549      9.93E-02
    3    -253.7024263390      1.07E-01
    4    -276.3892798773      6.38E-02
    5    -268.5068454594      8.24E-02
    6    -284.5945396675      3.10E-02
    7    -286.0036634987      1.79E-02
    8    -286.3636252925      1.46E-02
    9    -286.8175536652      2.61E-03
   10    -286.8213109299      2.71E-03
   11    -286.8340244529      4.67E-04
   12    -286.8344542859      3.74E-04
   13    -286.8347130791      9.33E-05
   14    -286.8347466747      4.39E-05
   15    -286.8347531443      1.23E-05
   16    -286.8347547500      3.15E-06
   17    -286.8347549688      1.36E-06
   18    -286.8347550055      5.27E-07
   19    -286.8347550182      9.92E-08
   20    -286.8347550254      4.84E-08
   21    -286.8347550294      2.61E-08
   22    -286.8347550326      1.29E-08
   23    -286.8347550333      5.55E-09 Convergence criterion met
 ---------------------------------------
 <S^2> = 0.7530
 SCF time:  CPU 60.12 s  wall 37.42 s
 SCF   energy in the final basis set = -286.83475503
 Total energy in the final basis set = -286.83475503
 
 --------------------------------------------------------------
 
                    Orbital Energies (a.u.)
 --------------------------------------------------------------
 
 Alpha MOs
 -- Occupied --
-14.358 -10.232 -10.226 -10.219 -10.200 -10.194 -10.188  -0.972
 -0.804  -0.770  -0.661  -0.628  -0.572  -0.520  -0.492  -0.472
 -0.451  -0.421  -0.384  -0.367  -0.348  -0.304  -0.277  -0.230
 -0.193
 -- Virtual --
 -0.029   0.067   0.100   0.121   0.128   0.157   0.158   0.166
  0.182   0.188   0.247   0.269   0.302   0.329   0.433   0.478
  0.485   0.508   0.526   0.538   0.564   0.577   0.584   0.592
  0.609   0.633   0.644   0.665   0.682   0.717   0.744   0.806
  0.840   0.848   0.854   0.864   0.880   0.897   0.920   0.952
  0.966   1.022   1.071   1.089   1.130   1.168   1.201   1.285
  1.394   1.434   1.482   1.507   1.538   1.575   1.625   1.708
  1.721   1.779   1.837   1.853   1.887   1.908   1.952   1.993
  2.033   2.069   2.137   2.171   2.182   2.215   2.274   2.336
  2.379   2.464   2.532   2.544   2.570   2.599   2.641   2.675
  2.745   2.769   2.846   2.979   3.245   4.012   4.096   4.158
  4.237   4.285   4.400   4.586
 
 Beta MOs
 -- Occupied --
-14.356 -10.233 -10.218 -10.212 -10.199 -10.194 -10.188  -0.964
 -0.801  -0.767  -0.654  -0.626  -0.556  -0.516  -0.487  -0.469
 -0.442  -0.416  -0.380  -0.363  -0.344  -0.296  -0.267  -0.208
 -- Virtual --
 -0.059  -0.027   0.072   0.100   0.127   0.131   0.159   0.161
  0.176   0.187   0.189   0.249   0.273   0.316   0.331   0.436
  0.480   0.487   0.529   0.533   0.550   0.572   0.578   0.588
  0.601   0.617   0.635   0.647   0.668   0.685   0.720   0.756
  0.811   0.840   0.850   0.859   0.867   0.884   0.902   0.924
  0.953   0.977   1.025   1.074   1.094   1.136   1.169   1.208
  1.289   1.397   1.440   1.484   1.511   1.547   1.585   1.628
  1.714   1.738   1.783   1.855   1.870   1.889   1.923   1.954
  2.001   2.042   2.073   2.140   2.185   2.190   2.226   2.283
  2.345   2.389   2.469   2.538   2.549   2.574   2.609   2.642
  2.677   2.753   2.777   2.858   2.981   3.246   4.019   4.097
  4.160   4.254   4.298   4.401   4.587
 --------------------------------------------------------------
 
          Ground-State Mulliken Net Atomic Charges

     Atom                 Charge (a.u.)    Spin (a.u.)
  --------------------------------------------------------
      1 C                    -0.067060      -0.039000
      2 C                    -0.110253       0.021505
      3 C                    -0.127912       0.005692
      4 C                    -0.122928       0.008304
      5 C                     0.029086       0.011574
      6 N                    -0.410856       0.107683
      7 H                     0.155487       0.003541
      8 H                     0.138585      -0.000692
      9 H                     0.134441      -0.000055
     10 H                     0.131969       0.002474
     11 H                     0.148479      -0.001033
     12 C                    -0.055785       0.871036
     13 H                     0.156747       0.008970
  --------------------------------------------------------
  Sum of atomic charges =    -0.000000
  Sum of spin   charges =     1.000000

 -----------------------------------------------------------------
                    Cartesian Multipole Moments
 -----------------------------------------------------------------
    Charge (ESU x 10^10)
                -0.0000
    Dipole Moment (Debye)
         X      -0.0565      Y      -0.8821      Z       0.3306
       Tot       0.9437
    Quadrupole Moments (Debye-Ang)
        XX     -36.1018     XY      -1.5903     YY     -39.1680
        XZ      -1.7555     YZ      -0.9944     ZZ     -42.4958
    Octopole Moments (Debye-Ang^2)
       XXX      -4.5200    XXY      -4.7914    XYY      -6.7468
       YYY     -15.2376    XXZ       2.0611    XYZ      -2.2098
       YYZ       3.2433    XZZ       2.5061    YZZ      -1.8219
       ZZZ       3.5825
    Hexadecapole Moments (Debye-Ang^3)
      XXXX    -330.3907   XXXY      -4.4332   XXYY    -108.3257
      XYYY     -18.6439   YYYY    -293.3665   XXXZ      37.6335
      XXYZ       2.5199   XYYZ      12.6793   YYYZ      19.5137
      XXZZ     -73.9999   XYZZ       1.5088   YYZZ     -74.3566
      XZZZ      43.4183   YZZZ      19.2516   ZZZZ    -123.4154
 -----------------------------------------------------------------
 Calculating analytic gradient of the SCF energy
 Gradient of SCF Energy
            1           2           3           4           5           6
    1   0.0204033  -0.0132132  -0.0030864  -0.0000995   0.0038175  -0.0155115
    2   0.0235996  -0.0198282   0.0008138  -0.0030747   0.0034636   0.0160768
    3   0.0072656  -0.0123987   0.0011101  -0.0017947  -0.0018404   0.0253085
            7           8           9          10          11          12
    1   0.0020357  -0.0017457   0.0004053   0.0001642  -0.0000261   0.0041296
    2   0.0027402  -0.0010885   0.0003798   0.0000825  -0.0001344  -0.0195699
    3  -0.0032105   0.0018691   0.0019702   0.0004506   0.0010650  -0.0203381
           13
    1   0.0027267
    2  -0.0034607
    3   0.0005433
 Max gradient component =       2.531E-02
 RMS gradient           =       9.884E-03
 Gradient time:  CPU 7.70 s  wall 3.26 s
 ----------------------------------------------------------------
             Standard Nuclear Orientation (Angstroms)
    I     Atom           X                Y                Z
 ----------------------------------------------------------------
    1      C       1.2870759537    -0.1872457957     0.0409473688
    2      C       0.3405050468    -1.3072087096     0.1976340464
    3      C      -0.9942049373    -1.0804822913     0.2948250550
    4      C      -1.5142690443     0.2854525561     0.3278807735
    5      C      -0.7097229798     1.3407989698     0.1631876776
    6      N       0.7012182351     1.2052336141    -0.1410050825
    7      H       2.2599842616    -0.1677103256     0.5999929058
    8      H       0.7098920784    -2.3442810693     0.2982889812
    9      H      -1.6972587374    -1.8975995848     0.4531566330
   10      H      -2.5594012646     0.4420670817     0.5749699459
   11      H      -1.0460375579     2.3664730697     0.3112232306
   12      C       1.2099565068     0.5037119287    -1.2288726175
   13      H       2.0111086616     0.8405232868    -1.9047141565
 ----------------------------------------------------------------
 Nuclear Repulsion Energy =   270.1737717434 hartrees
 There are       25 alpha and       24 beta electrons

                       Distance Matrix (Angstroms)
             C (  1)   C (  2)   C (  3)   C (  4)   C (  5)   N (  6)
   C (  2)  1.474742
   C (  3)  2.463040  1.357314
   C (  4)  2.855400  2.448208  1.461964
   C (  5)  2.517354  2.848879  2.441488  1.337226
   N (  6)  1.521622  2.560695  2.879046  2.444225  1.449712
   H (  7)  1.122258  2.268204  3.393527  3.811088  3.359399  2.205404
   H (  8)  2.247703  1.105485  2.121590  3.444309  3.951376  3.576606
   H (  9)  3.464315  2.136898  1.089511  2.194287  3.398019  3.966522
   H ( 10)  3.934031  3.407610  2.201472  1.085303  2.097282  3.424424
   H ( 11)  3.469575  3.928275  3.447384  2.133111  1.089509  2.146134
   C ( 12)  1.447692  2.463798  3.112821  3.145238  2.514700  1.390828
   H ( 13)  2.316491  3.438537  4.190483  4.209617  3.453899  2.226993
             H (  7)   H (  8)   H (  9)   H ( 10)   H ( 11)   C ( 12)
   H (  8)  2.689102
   H (  9)  4.321325  2.453137
   H ( 10)  4.857873  4.304482  2.496431
   H ( 11)  4.175554  5.027391  4.315849  2.462351
   C ( 12)  2.213169  3.270069  4.128852  4.179199  3.306249
   H ( 13)  2.711463  4.085262  5.177727  5.215090  4.072474  1.100931

 
 Applying Cartesian multipole field
    Component          Value
    ---------          -----
     (2,0,0)        1.00000E-11
     (0,2,0)        2.00000E-11
     (0,0,2)       -3.00000E-10
 Nucleus-field energy     =    -0.0000000102 hartrees
 Requested basis set is 6-31G(d)
 There are 40 shells and 117 basis functions
 A cutoff of  1.0D-14 yielded    800 shell pairs
 There are      7072 function pairs
 Smallest overlap matrix eigenvalue = 1.01E-03
 Guess MOs from core Hamiltonian diagonalization
 Mixing HOMO and LUMO in initial guess
 Adding  50% of the LUMO to the HOMO
 An unrestricted hybrid HF-DFT SCF calculation will be
 performed using Pulay DIIS extrapolation
 Exchange:     0.2000 Hartree-Fock + 0.0800 Slater + 0.7200 B88
 Correlation:  0.1900 VWN1RPA + 0.8100 LYP
 Using SG-1 standard quadrature grid
 SCF converges when DIIS error is below 1.0E-08
 using 4 threads for integral computing
 -------------------------------------------------------
 OpenMP Integral computing Module                
 Release: version 1.0, May 2013, Q-Chem Inc. Pittsburgh 
 -------------------------------------------------------
 -------------------------------------------------------
 OpenMP BLAS3 based DFT computing Module                
 Release: version 1.0, May 2013, Q-Chem Inc. Pittsburgh 
 -------------------------------------------------------
 ---------------------------------------
  Cycle       Energy         DIIS Error
 ---------------------------------------
    1    -236.1664842873      1.35E-01
    2    -230.2080656088      1.02E-01
    3    -250.3517965180      1.10E-01
    4    -281.0918678801      5.04E-02
    5    -273.8854624389      7.14E-02
    6    -285.7498870790      2.14E-02
    7    -286.4680957321      1.14E-02
    8    -286.7423268144      6.84E-03
    9    -286.8141344308      3.34E-03
   10    -286.8331975568      1.20E-03
   11    -286.8359439090      3.35E-04
   12    -286.8362698600      2.23E-04
   13    -286.8363932617      4.70E-05
   14    -286.8364048332      2.37E-05
   15    -286.8364073448      1.09E-05
   16    -286.8364086028      2.63E-06
   17    -286.8364090109      1.89E-06
   18    -286.8364091355      3.00E-07
   19    -286.8364092165      1.57E-07
   20    -286.8364092705      1.09E-07
   21    -286.8364093092      4.37E-08
   22    -286.8364093165      1.03E-08
   23    -286.8364093168      3.47E-09 Convergence criterion met
 ---------------------------------------
 <S^2> = 0.7530
 SCF time:  CPU 60.22 s  wall 45.55 s
 SCF   energy in the final basis set = -286.83640932
 Total energy in the final basis set = -286.83640932
 
 --------------------------------------------------------------
 
                    Orbital Energies (a.u.)
 --------------------------------------------------------------
 
 Alpha MOs
 -- Occupied --
-14.360 -10.229 -10.221 -10.220 -10.200 -10.195 -10.190  -0.988
 -0.808  -0.770  -0.657  -0.635  -0.568  -0.520  -0.492  -0.474
 -0.455  -0.422  -0.387  -0.365  -0.353  -0.306  -0.281  -0.225
 -0.187
 -- Virtual --
 -0.028   0.068   0.095   0.120   0.126   0.156   0.160   0.171
  0.186   0.189   0.249   0.275   0.318   0.333   0.433   0.476
  0.487   0.512   0.528   0.541   0.567   0.573   0.588   0.595
  0.614   0.630   0.644   0.666   0.691   0.717   0.756   0.799
  0.837   0.843   0.846   0.862   0.869   0.898   0.912   0.948
  0.967   1.016   1.070   1.089   1.123   1.170   1.211   1.288
  1.394   1.427   1.485   1.506   1.541   1.574   1.620   1.710
  1.739   1.793   1.842   1.866   1.887   1.903   1.963   1.994
  2.040   2.074   2.141   2.184   2.187   2.250   2.295   2.344
  2.400   2.469   2.534   2.546   2.568   2.611   2.648   2.679
  2.753   2.796   2.870   2.989   3.246   4.028   4.094   4.160
  4.234   4.288   4.403   4.589
 
 Beta MOs
 -- Occupied --
-14.357 -10.230 -10.220 -10.206 -10.199 -10.195 -10.190  -0.980
 -0.806  -0.767  -0.650  -0.634  -0.554  -0.514  -0.486  -0.471
 -0.447  -0.418  -0.382  -0.362  -0.350  -0.295  -0.272  -0.209
 -- Virtual --
 -0.050  -0.026   0.071   0.096   0.126   0.129   0.158   0.163
  0.178   0.187   0.196   0.252   0.278   0.326   0.341   0.436
  0.478   0.489   0.528   0.540   0.553   0.572   0.577   0.592
  0.601   0.625   0.631   0.647   0.670   0.695   0.721   0.766
  0.803   0.838   0.846   0.849   0.865   0.873   0.903   0.918
  0.949   0.976   1.020   1.073   1.095   1.130   1.171   1.219
  1.292   1.397   1.432   1.487   1.510   1.550   1.585   1.624
  1.716   1.753   1.797   1.853   1.885   1.894   1.915   1.968
  1.999   2.048   2.080   2.142   2.189   2.205   2.258   2.310
  2.353   2.410   2.475   2.538   2.552   2.572   2.618   2.651
  2.681   2.760   2.809   2.880   2.992   3.248   4.034   4.096
  4.162   4.252   4.300   4.405   4.590
 --------------------------------------------------------------
 
          Ground-State Mulliken Net Atomic Charges

     Atom                 Charge (a.u.)    Spin (a.u.)
  --------------------------------------------------------
      1 C                    -0.075792      -0.034493
      2 C                    -0.097803       0.015420
      3 C                    -0.136424       0.005458
      4 C                    -0.116426       0.003942
      5 C                     0.016926       0.022678
      6 N                    -0.391608       0.117487
      7 H                     0.150393       0.002944
      8 H                     0.139016      -0.000750
      9 H                     0.134620      -0.000131
     10 H                     0.134597       0.003931
     11 H                     0.149598      -0.001463
     12 C                    -0.056746       0.856721
     13 H                     0.149649       0.008255
  --------------------------------------------------------
  Sum of atomic charges =     0.000000
  Sum of spin   charges =     1.000000

 -----------------------------------------------------------------
                    Cartesian Multipole Moments
 -----------------------------------------------------------------
    Charge (ESU x 10^10)
                 0.0000
    Dipole Moment (Debye)
         X      -0.2270      Y      -0.7853      Z       0.3587
       Tot       0.8927
    Quadrupole Moments (Debye-Ang)
        XX     -36.2803     XY      -1.5224     YY     -38.9274
        XZ      -1.7142     YZ      -0.9234     ZZ     -42.6485
    Octopole Moments (Debye-Ang^2)
       XXX      -5.8810    XXY      -4.6459    XYY      -6.7714
       YYY     -14.8024    XXZ       2.1437    XYZ      -2.0517
       YYZ       3.0285    XZZ       2.1670    YZZ      -1.8293
       ZZZ       3.4968
    Hexadecapole Moments (Debye-Ang^3)
      XXXX    -330.6349   XXXY      -3.9543   XXYY    -107.7799
      XYYY     -17.8213   YYYY    -289.1724   XXXZ      37.3784
      XXYZ       3.0853   XYYZ      12.5553   YYYZ      20.0102
      XXZZ     -74.1421   XYZZ       1.4641   YYZZ     -73.7102
      XZZZ      43.3934   YZZZ      19.7517   ZZZZ    -122.2647
 -----------------------------------------------------------------
 Calculating analytic gradient of the SCF energy
 Gradient of SCF Energy
            1           2           3           4           5           6
    1  -0.0252252   0.0124678  -0.0062936   0.0013262  -0.0145321   0.0216054
    2   0.0075605   0.0145050  -0.0036826   0.0088823  -0.0091882  -0.0042430
    3  -0.0090790  -0.0136693   0.0002360  -0.0016313   0.0061458  -0.0073294
            7           8           9          10          11          12
    1   0.0177029  -0.0009839  -0.0027249   0.0007640  -0.0024784  -0.0097530
    2   0.0067718  -0.0124645  -0.0002668  -0.0005924   0.0018634  -0.0078645
    3   0.0048141   0.0014164   0.0027822  -0.0005128   0.0005578   0.0210681
           13
    1   0.0081249
    2  -0.0012810
    3  -0.0047988
 Max gradient component =       2.523E-02
 RMS gradient           =       9.602E-03
 Gradient time:  CPU 7.42 s  wall 5.54 s
 FSM gradient convergence criteria satisfied
 After opt distance between the previous and current R_nodes (Angstroms): 0.1479
 After opt distance between the previous and current P_nodes (Angstroms): 0.1806
-Printing perpgrad.txt, Vfile.txt, and stringfile.txt

STARTING FREEZING STRING ITERATION # 2
 The distance between the innermost nodes (Angstroms): 3.470
-Adding two new nodes
 The distance between the previous and current R_nodes (Angstroms): 0.1829
 The distance between the previous and current P_nodes (Angstroms): 0.1868
-Optimizing new reactant side node
 Using BFGS, step: 3 E_tol 0.0838
 max_steps 6, node_spacing 0.1763, sigma 0.7000
 ----------------------------------------------------------------
             Standard Nuclear Orientation (Angstroms)
    I     Atom           X                Y                Z
 ----------------------------------------------------------------
    1      C       1.4571677726     0.8192218673    -0.2492524311
    2      C       0.2922804364    -1.4150952688    -0.1483520576
    3      C      -0.9968266372    -1.0593228661     0.1998020940
    4      C      -1.4871593860     0.2681537548     0.4236732652
    5      C      -0.7794336247     1.4588884479     0.3261393782
    6      N       0.4895067992     1.7409466847    -0.0093272318
    7      H       2.4273936788     1.2835162678    -0.4078325709
    8      H       0.4587900034    -2.4913261072    -0.2539074206
    9      H      -1.7251790019    -1.8596805360     0.3381146786
   10      H      -2.5258255962     0.3647419624     0.7165108077
   11      H      -1.3517454951     2.3576452825     0.5627234956
   12      C       1.3753864271    -0.5258408435    -0.5877079572
   13      H       2.3427436403    -0.9517847439    -0.9143765934
 ----------------------------------------------------------------
 Nuclear Repulsion Energy =   260.0075796869 hartrees
 There are       25 alpha and       24 beta electrons

                       Distance Matrix (Angstroms)
             C (  1)   C (  2)   C (  3)   C (  4)   C (  5)   N (  6)
   C (  2)  2.521769
   C (  3)  3.122926  1.381876
   C (  4)  3.070109  2.515342  1.432738
   C (  5)  2.396380  3.103787  2.530733  1.388610
   N (  6)  1.357759  3.165253  3.177174  2.502762  1.342499
   H (  7)  1.087224  3.450876  4.193256  4.128691  3.294421  2.030629
   H (  8)  3.457818  1.094139  2.091723  3.443917  4.180173  4.239445
   H (  9)  4.201053  2.122369  1.090963  2.142814  3.450721  4.241470
   H ( 10)  4.123528  3.443476  2.152391  1.083472  2.097482  3.393083
   H ( 11)  3.303944  4.176365  3.454468  2.098487  1.091456  2.024295
   C ( 12)  1.389401  1.468648  2.555811  3.138071  3.068797  2.501526
   H ( 13)  2.088803  2.237376  3.522171  4.236365  4.134999  3.391814
             H (  7)   H (  8)   H (  9)   H ( 10)   H ( 11)   C ( 12)
   H (  8)  4.260109
   H (  9)  5.261177  2.349295
   H ( 10)  5.161654  4.243438  2.394217
   H ( 11)  4.046928  5.239986  4.239781  2.318141
   C ( 12)  2.100678  2.194243  3.499969  4.208750  4.132219
   H ( 13)  2.293539  2.521049  4.352126  5.300566  5.175268  1.106309

 
 Applying Cartesian multipole field
    Component          Value
    ---------          -----
     (2,0,0)        1.00000E-11
     (0,2,0)        2.00000E-11
     (0,0,2)       -3.00000E-10
 Nucleus-field energy     =     0.0000000010 hartrees
 Requested basis set is 6-31G(d)
 There are 40 shells and 117 basis functions
 A cutoff of  1.0D-14 yielded    790 shell pairs
 There are      7062 function pairs
 Smallest overlap matrix eigenvalue = 1.66E-03
 Guess MOs from core Hamiltonian diagonalization
 Mixing HOMO and LUMO in initial guess
 Adding  50% of the LUMO to the HOMO
 An unrestricted hybrid HF-DFT SCF calculation will be
 performed using Pulay DIIS extrapolation
 Exchange:     0.2000 Hartree-Fock + 0.0800 Slater + 0.7200 B88
 Correlation:  0.1900 VWN1RPA + 0.8100 LYP
 Using SG-1 standard quadrature grid
 SCF converges when DIIS error is below 1.0E-08
 using 4 threads for integral computing
 -------------------------------------------------------
 OpenMP Integral computing Module                
 Release: version 1.0, May 2013, Q-Chem Inc. Pittsburgh 
 -------------------------------------------------------
 -------------------------------------------------------
 OpenMP BLAS3 based DFT computing Module                
 Release: version 1.0, May 2013, Q-Chem Inc. Pittsburgh 
 -------------------------------------------------------
 ---------------------------------------
  Cycle       Energy         DIIS Error
 ---------------------------------------
    1    -239.2800210044      1.26E-01
    2    -229.1100393417      1.01E-01
    3    -248.3204742659      1.07E-01
    4    -283.2992901368      4.17E-02
    5    -281.9594214452      4.22E-02
    6    -286.5569717221      1.22E-02
    7    -286.5691156815      1.27E-02
    8    -286.9013058041      2.75E-03
    9    -286.9112028661      1.42E-03
   10    -286.9147385979      2.80E-04
   11    -286.9149230312      1.50E-04
   12    -286.9149953578      6.81E-05
   13    -286.9150313371      3.74E-05
   14    -286.9150529174      1.24E-05
   15    -286.9150583605      4.10E-06
   16    -286.9150597805      2.03E-06
   17    -286.9150602635      7.91E-07
   18    -286.9150602846      4.66E-07
   19    -286.9150602982      4.82E-07
   20    -286.9150603080      2.85E-07
   21    -286.9150603122      1.05E-07
   22    -286.9150603128      2.26E-08
   23    -286.9150603128      1.33E-08
   24    -286.9150603128      5.04E-09 Convergence criterion met
 ---------------------------------------
 <S^2> = 0.7708
 SCF time:  CPU 62.30 s  wall 59.22 s
 SCF   energy in the final basis set = -286.91506031
 Total energy in the final basis set = -286.91506031
 
 --------------------------------------------------------------
 
                    Orbital Energies (a.u.)
 --------------------------------------------------------------
 
 Alpha MOs
 -- Occupied --
-14.322 -10.233 -10.232 -10.216 -10.213 -10.206 -10.199  -0.923
 -0.813  -0.784  -0.690  -0.666  -0.551  -0.535  -0.512  -0.449
 -0.437  -0.415  -0.395  -0.385  -0.352  -0.317  -0.296  -0.247
 -0.162
 -- Virtual --
 -0.074   0.072   0.084   0.097   0.117   0.143   0.176   0.185
  0.193   0.220   0.264   0.312   0.357   0.381   0.407   0.484
  0.494   0.505   0.551   0.568   0.574   0.586   0.591   0.607
  0.612   0.623   0.649   0.655   0.699   0.718   0.791   0.838
  0.840   0.847   0.862   0.873   0.885   0.924   0.965   0.975
  1.000   1.023   1.035   1.101   1.127   1.169   1.193   1.299
  1.354   1.399   1.417   1.459   1.480   1.543   1.577   1.606
  1.689   1.734   1.779   1.830   1.842   1.900   1.916   2.006
  2.018   2.057   2.121   2.140   2.163   2.192   2.252   2.360
[...]
  --------------------------------------------------------
      1 C                     0.011479       0.149690
      2 C                    -0.206547      -0.078171
      3 C                    -0.085198       0.452887
      4 C                    -0.126856      -0.200396
      5 C                     0.020729       0.464851
      6 N                    -0.399670      -0.115457
      7 H                     0.157938      -0.006557
      8 H                     0.148431       0.014709
      9 H                     0.134881      -0.022195
     10 H                     0.129786       0.009081
     11 H                     0.145755      -0.027267
     12 C                    -0.090830       0.375500
     13 H                     0.160103      -0.016675
  --------------------------------------------------------
  Sum of atomic charges =    -0.000000
  Sum of spin   charges =     1.000000

 -----------------------------------------------------------------
                    Cartesian Multipole Moments
 -----------------------------------------------------------------
    Charge (ESU x 10^10)
                -0.0000
    Dipole Moment (Debye)
         X       0.2659      Y      -1.5771      Z       0.2162
       Tot       1.6139
    Quadrupole Moments (Debye-Ang)
        XX     -35.6549     XY      -2.2282     YY     -39.9248
        XZ      -1.6489     YZ       1.7067     ZZ     -42.5427
    Octopole Moments (Debye-Ang^2)
       XXX      -0.3936    XXY      -5.0319    XYY      -7.2052
       YYY     -22.9731    XXZ       2.6992    XYZ       1.9642
       YYZ       4.1269    XZZ       2.2852    YZZ      -5.7255
       ZZZ       0.6741
    Hexadecapole Moments (Debye-Ang^3)
      XXXX    -325.6611   XXXY       4.0753   XXYY    -105.3873
      XYYY     -10.4700   YYYY    -287.6304   XXXZ      30.9361
      XXYZ       2.6628   XYYZ      12.0078   YYYZ      -1.7482
      XXZZ     -72.5464   XYZZ      -0.0687   YYZZ     -71.2087
      XZZZ      34.0575   YZZZ      -3.2889   ZZZZ    -106.3422
 -----------------------------------------------------------------
 Calculating analytic gradient of the SCF energy
 Gradient of SCF Energy
            1           2           3           4           5           6
    1  -0.0026829  -0.0032444   0.0050352   0.0067660  -0.0125920   0.0107345
    2   0.0136593  -0.0077162   0.0064542   0.0038685  -0.0043600   0.0042281
    3  -0.0104377  -0.0096622  -0.0006215  -0.0050268   0.0019393   0.0000786
            7           8           9          10          11          12
    1   0.0099045  -0.0050974  -0.0075798   0.0004772  -0.0030774  -0.0086758
    2   0.0103056  -0.0147398  -0.0078276   0.0008230   0.0010766   0.0030826
    3  -0.0055200   0.0012417  -0.0026919   0.0015031   0.0083321   0.0136184
           13
    1   0.0100323
    2  -0.0088543
    3   0.0072470
 Max gradient component =       1.474E-02
 RMS gradient           =       7.381E-03
 Gradient time:  CPU 7.66 s  wall 3.07 s
 ----------------------------------------------------------------
             Standard Nuclear Orientation (Angstroms)
    I     Atom           X                Y                Z
 ----------------------------------------------------------------
    1      C       1.4076822300     0.3217009148     0.2567201507
    2      C       0.4458991207    -1.1139725861    -0.1184911227
    3      C      -0.9607332347    -0.9890795315     0.2604726587
    4      C      -1.5281809301     0.2577703527     0.3840152245
    5      C      -0.7726504602     1.4036302322     0.1673575070
    6      N       0.5758420409     1.3801293044    -0.1570847173
    7      H       2.4053135047     0.5419922928     0.6672539491
    8      H       0.8398560096    -2.1486427946    -0.0480329673
    9      H      -1.5592325074    -1.9022120715     0.4092529190
   10      H      -2.5666982644     0.3708143113     0.6851149025
   11      H      -1.2154202105     2.3940643411     0.2789110460
   12      C       1.0895525461    -0.1683767389    -1.0305366431
   13      H       1.8037402257    -0.3700312640    -1.8238206681
 ----------------------------------------------------------------
 Nuclear Repulsion Energy =   272.0927952557 hartrees
 There are       25 alpha and       24 beta electrons

                       Distance Matrix (Angstroms)
             C (  1)   C (  2)   C (  3)   C (  4)   C (  5)   N (  6)
   C (  2)  1.768324
   C (  3)  2.706945  1.462131
   C (  4)  2.939317  2.455847  1.375461
   C (  5)  2.435653  2.811565  2.401896  1.389519
   N (  6)  1.408355  2.497783  2.854570  2.445279  1.387172
   H (  7)  1.101061  2.683080  3.720205  3.953908  3.330431  2.174620
   H (  8)  2.553018  1.109373  2.163766  3.403688  3.907072  3.540315
   H (  9)  3.711016  2.218195  1.101884  2.160353  3.406731  3.956393
   H ( 10)  3.997704  3.453421  2.146801  1.087179  2.133867  3.406402
   H ( 11)  3.343030  3.901824  3.392767  2.161624  1.090619  2.103991
   C ( 12)  1.413652  1.462966  2.558111  3.005842  2.715503  1.850591
   H ( 13)  2.228005  2.303330  3.517074  4.046032  3.707891  2.710868
             H (  7)   H (  8)   H (  9)   H ( 10)   H ( 11)   C ( 12)
   H (  8)  3.194027
   H (  9)  4.664582  2.454682
   H ( 10)  4.974990  4.299975  2.501547
   H ( 11)  4.085425  4.996723  4.311982  2.466677
   C ( 12)  2.262376  2.224661  3.477821  4.074599  3.686958
   H ( 13)  2.720134  2.691831  4.317845  5.093559  4.601851  1.086291

 
 Applying Cartesian multipole field
    Component          Value
    ---------          -----
     (2,0,0)        1.00000E-11
     (0,2,0)        2.00000E-11
     (0,0,2)       -3.00000E-10
 Nucleus-field energy     =    -0.0000000077 hartrees
 Requested basis set is 6-31G(d)
 There are 40 shells and 117 basis functions
 A cutoff of  1.0D-14 yielded    805 shell pairs
 There are      7077 function pairs
 Smallest overlap matrix eigenvalue = 1.20E-03
 Guess MOs from core Hamiltonian diagonalization
 Mixing HOMO and LUMO in initial guess
 Adding  50% of the LUMO to the HOMO
 An unrestricted hybrid HF-DFT SCF calculation will be
 performed using Pulay DIIS extrapolation
 Exchange:     0.2000 Hartree-Fock + 0.0800 Slater + 0.7200 B88
 Correlation:  0.1900 VWN1RPA + 0.8100 LYP
 Using SG-1 standard quadrature grid
 SCF converges when DIIS error is below 1.0E-08
 using 4 threads for integral computing
 -------------------------------------------------------
 OpenMP Integral computing Module                
 Release: version 1.0, May 2013, Q-Chem Inc. Pittsburgh 
 -------------------------------------------------------
 -------------------------------------------------------
 OpenMP BLAS3 based DFT computing Module                
 Release: version 1.0, May 2013, Q-Chem Inc. Pittsburgh 
 -------------------------------------------------------
 ---------------------------------------
  Cycle       Energy         DIIS Error
 ---------------------------------------
    1    -234.5119919917      1.33E-01
    2    -210.0083512087      1.16E-01
    3    -242.1818680166      1.08E-01
    4    -278.3386565698      6.32E-02
    5    -284.1100222780      3.44E-02
    6    -286.2810358670      1.51E-02
    7    -286.1395179451      1.76E-02
    8    -286.7717639796      2.74E-03
    9    -286.7798361773      1.96E-03
   10    -286.7865070803      4.57E-04
   11    -286.7870048962      1.47E-04
   12    -286.7871711101      7.52E-05
   13    -286.7872800612      3.53E-05
   14    -286.7873341148      1.87E-05
   15    -286.7873515060      6.94E-06
   16    -286.7873543968      4.52E-06
   17    -286.7873567615      2.28E-06
   18    -286.7873574485      6.20E-07
   19    -286.7873574985      4.07E-07
   20    -286.7873575096      1.74E-07
   21    -286.7873575110      3.86E-08
   22    -286.7873575111      1.70E-08
   23    -286.7873575111      6.60E-09 Convergence criterion met
 ---------------------------------------
 <S^2> = 0.7975
 SCF time:  CPU 60.19 s  wall 69.53 s
 SCF   energy in the final basis set = -286.78735751
 Total energy in the final basis set = -286.78735751
 
 --------------------------------------------------------------
 
                    Orbital Energies (a.u.)
 --------------------------------------------------------------
 
 Alpha MOs
 -- Occupied --
-14.361 -10.234 -10.227 -10.220 -10.213 -10.196 -10.183  -0.963
 -0.810  -0.794  -0.652  -0.644  -0.561  -0.534  -0.485  -0.471
 -0.466  -0.403  -0.384  -0.377  -0.362  -0.284  -0.259  -0.249
 -0.155
 -- Virtual --
 -0.035   0.035   0.089   0.106   0.124   0.155   0.158   0.172
  0.185   0.201   0.245   0.280   0.289   0.308   0.396   0.429
  0.504   0.521   0.528   0.547   0.552   0.587   0.599   0.606
  0.614   0.632   0.647   0.653   0.689   0.704   0.762   0.796
  0.827   0.840   0.856   0.863   0.873   0.891   0.910   0.938
  0.986   1.043   1.062   1.094   1.173   1.208   1.233   1.360
  1.372   1.407   1.442   1.495   1.514   1.551   1.657   1.677
  1.709   1.751   1.819   1.853   1.883   1.951   1.976   2.029
  2.063   2.103   2.168   2.206   2.249   2.269   2.340   2.419
  2.433   2.464   2.500   2.558   2.567   2.626   2.629   2.672
  2.704   2.765   2.802   2.960   3.197   3.993   4.081   4.153
  4.322   4.334   4.446   4.547
 
 Beta MOs
 -- Occupied --
-14.363 -10.231 -10.227 -10.214 -10.206 -10.190 -10.185  -0.960
 -0.802  -0.788  -0.645  -0.637  -0.550  -0.529  -0.483  -0.466
 -0.460  -0.400  -0.377  -0.373  -0.353  -0.274  -0.246  -0.238
 -- Virtual --
 -0.065  -0.021   0.046   0.094   0.119   0.126   0.160   0.163
  0.177   0.188   0.204   0.251   0.286   0.295   0.314   0.401
  0.433   0.511   0.527   0.542   0.555   0.561   0.593   0.605
  0.609   0.631   0.635   0.654   0.662   0.699   0.708   0.769
  0.799   0.830   0.843   0.856   0.866   0.876   0.894   0.912
  0.940   0.994   1.045   1.064   1.099   1.178   1.214   1.238
  1.369   1.381   1.413   1.447   1.506   1.520   1.560   1.664
  1.683   1.716   1.760   1.832   1.857   1.892   1.962   1.979
  2.034   2.075   2.111   2.180   2.215   2.259   2.279   2.352
  2.425   2.443   2.471   2.510   2.564   2.574   2.634   2.637
  2.676   2.709   2.771   2.809   2.963   3.201   3.992   4.088
  4.160   4.332   4.342   4.455   4.551
 --------------------------------------------------------------
 
          Ground-State Mulliken Net Atomic Charges

     Atom                 Charge (a.u.)    Spin (a.u.)
  --------------------------------------------------------
      1 C                     0.011945       0.140646
      2 C                    -0.206040      -0.072898
      3 C                    -0.084561       0.428170
      4 C                    -0.127083      -0.194227
      5 C                     0.021624       0.450109
      6 N                    -0.395412      -0.128081
      7 H                     0.157954      -0.006637
      8 H                     0.148328       0.016120
      9 H                     0.135405      -0.020664
     10 H                     0.130014       0.009016
     11 H                     0.145603      -0.026685
     12 C                    -0.096724       0.423519
     13 H                     0.158946      -0.018387
  --------------------------------------------------------
  Sum of atomic charges =     0.000000
  Sum of spin   charges =     1.000000

 -----------------------------------------------------------------
                    Cartesian Multipole Moments
 -----------------------------------------------------------------
    Charge (ESU x 10^10)
                 0.0000
    Dipole Moment (Debye)
         X       0.2347      Y      -1.5794      Z       0.2468
       Tot       1.6157
    Quadrupole Moments (Debye-Ang)
        XX     -35.6458     XY      -2.2104     YY     -39.9517
        XZ      -1.6137     YZ       1.6614     ZZ     -42.5527
    Octopole Moments (Debye-Ang^2)
       XXX      -0.4653    XXY      -4.9978    XYY      -7.2798
       YYY     -23.1166    XXZ       2.7481    XYZ       1.8991
       YYZ       4.0761    XZZ       2.2330    YZZ      -5.6827
       ZZZ       0.7521
    Hexadecapole Moments (Debye-Ang^3)
      XXXX    -325.5711   XXXY       4.1722   XXYY    -105.4461
      XYYY     -10.3488   YYYY    -288.6157   XXXZ      31.1431
      XXYZ       2.4935   XYYZ      11.9930   YYYZ      -2.1917
      XXZZ     -72.5549   XYZZ      -0.0150   YYZZ     -71.2616
      XZZZ      34.2468   YZZZ      -3.6396   ZZZZ    -106.4569
 -----------------------------------------------------------------
 Calculating analytic gradient of the SCF energy
 Gradient of SCF Energy
            1           2           3           4           5           6
    1  -0.0020991  -0.0033085   0.0050303   0.0067571  -0.0138340   0.0122089
    2   0.0125442  -0.0072759   0.0059537   0.0047049  -0.0051889   0.0008671
    3  -0.0081631  -0.0091212  -0.0005980  -0.0051655   0.0019328  -0.0052968
            7           8           9          10          11          12
    1   0.0106444  -0.0050340  -0.0076392   0.0004248  -0.0025326  -0.0096560
    2   0.0103330  -0.0143112  -0.0079781   0.0008870   0.0009350   0.0059665
    3  -0.0050986   0.0008776  -0.0027375   0.0015368   0.0089281   0.0150312
           13
    1   0.0090378
    2  -0.0074374
    3   0.0078742
 Max gradient component =       1.503E-02
 RMS gradient           =       7.479E-03
 Gradient time:  CPU 7.92 s  wall 12.72 s
 E1 = -286.7872231, E2 = -286.7873575, Emax = -286.7872622
 Iteration 5, Curvature = -1.0770556
 Curvature, final (in Hartree/Bohr^2) = -0.3016063
 ----------------------------------------------------------------
             Standard Nuclear Orientation (Angstroms)
    I     Atom           X                Y                Z
 ----------------------------------------------------------------
    1      C       1.4085565576     0.3208086070     0.2587666257
    2      C       0.4456930501    -1.1137015400    -0.1180487984
    3      C      -0.9606458843    -0.9894891018     0.2605473580
    4      C      -1.5282819592     0.2582656808     0.3837481687
    5      C      -0.7735459983     1.4031840246     0.1673392341
    6      N       0.5771101085     1.3773701848    -0.1618202133
    7      H       2.4059688459     0.5420720345     0.6674114072
    8      H       0.8398730680    -2.1485655529    -0.0483095006
    9      H      -1.5592172953    -1.9023167579     0.4095102306
   10      H      -2.5667538983     0.3708681693     0.6850760748
   11      H      -1.2152845340     2.3940986724     0.2794340789
   12      C       1.0885173323    -0.1655837456    -1.0292626809
   13      H       1.8029499233    -0.3692287286    -1.8232452448
 ----------------------------------------------------------------
 Nuclear Repulsion Energy =   272.1199984810 hartrees
 There are       25 alpha and       24 beta electrons
 Requested basis set is 6-31G(d)
 There are 40 shells and 117 basis functions
 Geometry Optimization Parameters
   NAtoms,    NIC,     NZ,  NCons,   NDum,   NFix, NCnnct, MaxDiis
       13     122       0       0       0       0       0       0


** GEOMETRY OPTIMIZATION IN DELOCALIZED INTERNAL COORDINATES **
   Searching for a Minimum

   Optimization Cycle:   1

                       Coordinates (Angstroms)
     ATOM                X               Y               Z
      1  C         1.4085565576    0.3208086070    0.2587666257
      2  C         0.4456930501   -1.1137015400   -0.1180487984
      3  C        -0.9606458843   -0.9894891018    0.2605473580
      4  C        -1.5282819592    0.2582656808    0.3837481687
      5  C        -0.7735459983    1.4031840246    0.1673392341
      6  N         0.5771101085    1.3773701848   -0.1618202133
      7  H         2.4059688459    0.5420720345    0.6674114072
      8  H         0.8398730680   -2.1485655529   -0.0483095006
      9  H        -1.5592172953   -1.9023167579    0.4095102306
     10  H        -2.5667538983    0.3708681693    0.6850760748
     11  H        -1.2152845340    2.3940986724    0.2794340789
     12  C         1.0885173323   -0.1655837456   -1.0292626809
     13  H         1.8029499233   -0.3692287286   -1.8232452448
   Point Group: c1    Number of degrees of freedom:    33


   Energy is   -286.787357511


 Attempting to Generate Delocalized Internal Coordinates

 33 Hessian modes will be used to form the next step
  Hessian Eigenvalues:
     0.015821    0.018186    0.019049    0.020070    0.020756    0.021545
     0.022659    0.024798    0.030113    0.057763    0.072979    0.080123
     0.091854    0.121047    0.132659    0.154775    0.159841    0.159924
     0.159947    0.203581    0.242400    0.289953    0.321000    0.326437
     0.334954    0.336430    0.347327    0.350379    0.351226    0.351437
     0.435715    0.452301    0.484991

 Minimum Search - Taking Simple RFO Step
 Searching for Lamda that Minimizes Along All modes
 Value Taken    Lamda =  -0.01480793
 Calculated Step too Large.  Step scaled by  0.594827
 Step Taken.  Stepsize is  0.300000

                             Maximum     Tolerance    Cnvgd?
         Gradient           0.023193      0.000300      NO
         Displacement       0.184794      0.001200      NO
         Energy change     *********      0.000001      NO


 New Cartesian Coordinates Obtained by Inverse Iteration

 Displacement from previous Coordinates is:  0.319598
 ----------------------------------------------------------------
             Standard Nuclear Orientation (Angstroms)
    I     Atom           X                Y                Z
 ----------------------------------------------------------------
    1      C       1.3975604365     0.2893366516     0.2738343338
    2      C       0.4497343520    -1.1037127110    -0.1254540174
    3      C      -0.9499061730    -0.9863810748     0.2817100735
    4      C      -1.5288917035     0.2579987109     0.3916347753
    5      C      -0.7672743896     1.4013831032     0.1600493258
    6      N       0.5816962639     1.3662840041    -0.1384866300
    7      H       2.3767518953     0.4704674416     0.7208730377
    8      H       0.8651829410    -2.1192075306    -0.0646654809
    9      H      -1.5277251015    -1.8969516754     0.4555089363
   10      H      -2.5726182870     0.3678633672     0.6749331096
   11      H      -1.2027457204     2.3975895783     0.2075505739
   12      C       1.0794856685    -0.1482905700    -1.0401948189
   13      H       1.7636891343    -0.3185973487    -1.8661464787
 ----------------------------------------------------------------
 Nuclear Repulsion Energy =   272.8761598232 hartrees
 There are       25 alpha and       24 beta electrons

































 Eigenvalues after right structure
 -0.3328183 -0.0000000 0.0000000 0.0000000 0.0000000 0.0000000 0.0009454 0.0154269 0.0197153 0.0311299 0.0426764 0.0515481 0.0685593 0.0694695 0.0768579 0.0800244 0.0836965 0.1024829 0.1171264 0.1411377 0.1613652 0.2261445 0.2502075 0.2678091 0.2756878 0.3291128 0.4120013 0.5081453 0.5446937 0.6066359 0.8905230 0.9251870 1.0127647 1.0857842 1.1727944 1.3286823 1.4091134 1.5649300 1.5713269
Archival summary:
1\1\c8-68\JobtypUnspecified\ProcedureUnspecified\6-31G*\166(2)\hpark21\TueMar113:31:242022TueMar113:31:242022\0\\#,JobtypUnspecified,ProcedureUnspecified,6-31G*,\\0,2\N\C,1,1.38206\H,2,1.08826,1,115.04\C,2,1.39321,1,123.274,3,-179.745,0\H,4,1.08706,2,119.029,1,176.661,0\C,4,1.37688,2,119.905,1,-2.26569,0\H,6,1.09235,4,121.214,2,-179.807,0\C,1,1.41261,2,121.335,3,154.104,0\H,8,1.09154,1,120.74,2,-134.779,0\C,8,1.42104,1,80.5378,2,95.0787,0\H,10,1.08597,8,127.63,1,117.591,0\C,6,1.46238,4,119.815,2,-2.22943,0\H,12,1.09887,6,114.872,4,172.62,0\\\@

 Total job time:  3724.78s(wall), 4762.09s(cpu) 
 Tue Mar  1 13:31:24 2022

        *************************************************************
        *                                                           *
        *  Thank you very much for using Q-Chem.  Have a nice day.  *
        *                                                           *
        *************************************************************


