
Running Job 1 of 1 qcts2.in
qchem qcts2.in_49151.0 ./qcts2.d/ 1
/home/leeping/opt/qchem/5.0.2-openmp/exe/qcprog.exe_s qcts2.in_49151.0 ./qcts2.d/
Check license passed

                  Welcome to Q-Chem
     A Quantum Leap Into The Future Of Chemistry


 Q-Chem 5.0, Q-Chem, Inc., Pleasanton, CA (2017)

 Yihan Shao,  Zhengting Gan,  E. Epifanovsky,  A. T. B. Gilbert,  M. Wormit,  
 J. Kussmann,  A. W. Lange,  A. Behn,  Jia Deng,  Xintian Feng,  D. Ghosh,  
 M. Goldey,  P. R. Horn,  L. D. Jacobson,  I. Kaliman,  T. Kus,  A. Landau,  
 Jie Liu,  E. I. Proynov,  R. M. Richard,  R. P. Steele,  E. J. Sundstrom,  
 H. L. Woodcock III,  P. M. Zimmerman,  D. Zuev,  B. Albrecht,  E. Alguire,  
 S. A. Baeppler,  D. Barton,  Z. Benda,  Y. A. Bernard,  E. J. Berquist,  
 K. B. Bravaya,  H. Burton,  D. Casanova,  Chun-Min Chang,  Yunqing Chen,  
 A. Chien,  K. D. Closser,  M. P. Coons,  S. Dasgupta,  A. L. Dempwolff,  
 M. Diedenhofen,  Hainam Do,  R. G. Edgar,  Po-Tung Fang,  S. Fatehi,  
 Qingguo Feng,  J. Fosso-Tande,  Qinghui Ge,  A. Ghysels,  G. Gidofalvi,  
 J. Gomes,  J. Gonthier,  A. Gunina,  M. W. D. Hanson-Heine,  
 P. H. P. Harbach,  A. W. Hauser,  J. E. Herr,  E. G. Hohenstein,  
 Z. C. Holden,  Kerwin Hui,  T.-C. Jagau,  Hyunjun Ji,  B. Kaduk,  
 K. Khistyaev,  Jaehoon Kim,  P. Klunzinger,  K. Koh,  D. Kosenkov,  
 L. Koulias,  T. Kowalczyk,  C. M. Krauter,  A. Kunitsa,  Ka Un Lao,  
 A. Laurent,  K. V. Lawler,  Joonho Lee,  D. Lefrancois,  S. Lehtola,  
 D. S. Levine,  Yi-Pei Li,  You-Sheng Lin,  Fenglai Liu,  E. Livshits,  
 A. Luenser,  P. Manohar,  E. Mansoor,  S. F. Manzer,  Shan-Ping Mao,  
 Yuezhi Mao,  N. Mardirossian,  A. V. Marenich,  T. Markovich,  
 L. A. Martinez-Martinez,  S. A. Maurer,  N. J. Mayhall,  S. C. McKenzie,  
 J.-M. Mewes,  A. F. Morrison,  J. W. Mullinax,  K. Nanda,  
 T. S. Nguyen-Beck,  R. Olivares-Amaya,  J. A. Parkhill,  T. M. Perrine,  
 F. Plasser,  S. Prager,  A. Prociuk,  E. Ramos,  D. R. Rehn,  F. Rob,  
 M. Schneider,  N. Sergueev,  S. M. Sharada,  S. Sharma,  D. W. Small,  
 T. Stauch,  T. Stein,  Yu-Chuan Su,  A. J. W. Thom,  A. Tkatchenko,  
 T. Tsuchimochi,  L. Vogt,  O. Vydrov,  M. A. Watson,  J. Wenzel,  
 M. de Wergifosse,  T. A. Wesolowski,  A. White,  J. Witte,  A. Yamada,  
 Jun Yang,  K. Yao,  S. Yeganeh,  S. R. Yost,  Zhi-Qiang You,  A. Zech,  
 Igor Ying Zhang,  Xing Zhang,  Yan Zhao,  Ying Zhu,  B. R. Brooks,  
 G. K. L. Chan,  C. J. Cramer,  M. S. Gordon,  W. J. Hehre,  A. Klamt,  
 M. W. Schmidt,  C. D. Sherrill,  D. G. Truhlar,  A. Aspuru-Guzik,  R. Baer,  
 A. T. Bell,  N. A. Besley,  Jeng-Da Chai,  R. A. DiStasio Jr.,  A. Dreuw,  
 B. D. Dunietz,  T. R. Furlani,  Chao-Ping Hsu,  Yousung Jung,  Jing Kong,  
 D. S. Lambrecht,  WanZhen Liang,  C. Ochsenfeld,  V. A. Rassolov,  
 L. V. Slipchenko,  J. E. Subotnik,  T. Van Voorhis,  J. M. Herbert,  
 A. I. Krylov,  P. M. W. Gill,  M. Head-Gordon

 Contributors to earlier versions of Q-Chem not listed above: 
 R. D. Adamson,  B. Austin,  J. Baker,  G. J. O. Beran,  K. Brandhorst,  
 S. T. Brown,  E. F. C. Byrd,  A. K. Chakraborty,  C.-L. Cheng,  
 Siu Hung Chien,  D. M. Chipman,  D. L. Crittenden,  H. Dachsel,  
 R. J. Doerksen,  A. D. Dutoi,  L. Fusti-Molnar,  W. A. Goddard III,  
 A. Golubeva-Zadorozhnaya,  S. R. Gwaltney,  G. Hawkins,  A. Heyden,  
 S. Hirata,  G. Kedziora,  F. J. Keil,  C. Kelley,  Jihan Kim,  R. A. King,  
 R. Z. Khaliullin,  P. P. Korambath,  W. Kurlancheek,  A. M. Lee,  M. S. Lee,  
 S. V. Levchenko,  Ching Yeh Lin,  D. Liotard,  R. C. Lochan,  I. Lotan,  
 P. E. Maslen,  N. Nair,  D. P. O'Neill,  D. Neuhauser,  E. Neuscamman,  
 C. M. Oana,  R. Olson,  B. Peters,  R. Peverati,  P. A. Pieniazek,  
 Y. M. Rhee,  J. Ritchie,  M. A. Rohrdanz,  E. Rosta,  N. J. Russ,  
 H. F. Schaefer III,  N. E. Schultz,  N. Shenvi,  A. C. Simmonett,  A. Sodt,  
 D. Stuck,  K. S. Thanthiriwatte,  V. Vanovschi,  Tao Wang,  A. Warshel,  
 C. F. Williams,  Q. Wu,  X. Xu,  W. Zhang

 Please cite Q-Chem as follows:
 Y. Shao et al., Mol. Phys. 113, 184-215 (2015)
 DOI: 10.1080/00268976.2014.952696

 Q-Chem 5.0.2 for Intel X86 EM64T Linux

 Parts of Q-Chem use Armadillo 5.200.1 (Boston Tea Smuggler).
 http://arma.sourceforge.net/

 Q-Chem begins on Tue Mar  1 13:58:39 2022  

Host: 
0

     Scratch files written to ./qcts2.d//
 Dec517 15110_ 26548  26544 5633   
Processing $rem in /home/leeping/opt/qchem/5.0.2-openmp/config/preferences.
 MEM_STATIC 2000
 MEM_TOTAL  8000
 SYMMETRY   OFF
 SYM_IGNORE TRUE 

Checking the input file for inconsistencies... 	...done.

--------------------------------------------------------------
User input:
--------------------------------------------------------------
$molecule
0 2
C        1.3708855104    0.1672357669    0.2914382142
C        0.4829170509   -1.0452792743   -0.0822900633
C       -0.9425659260   -0.9814847690    0.3259963964
C       -1.5238068320    0.2517198249    0.4074243920
C       -0.7233128106    1.3860238223    0.1317056845
N        0.6274273589    1.3458005860   -0.0503917930
H        2.2761531782    0.2036094511    0.8919151803
H        0.9687188771   -2.0217973697   -0.0178124059
H       -1.4739546140   -1.8982283550    0.5624409442
H       -2.5764542026    0.3790108977    0.6447482600
H       -1.1699089283    2.3620002214   -0.0433570054
C        1.1013199689   -0.1307593955   -1.0770318979
H        1.5475206856   -0.0400694605   -2.0536391661
$end

$rem
method                b3lyp
basis                 6-31+g(d,p)
unrestricted          true
symmetry              off
sym_ignore            true
incdft                false
incfock               0
scf_convergence       8
thresh                14
jobtype               sp
scf_guess             core
scf_guess_mix         5
scf_algorithm         diis
max_scf_cycles        100
$end

--------------------------------------------------------------
 ----------------------------------------------------------------
             Standard Nuclear Orientation (Angstroms)
    I     Atom           X                Y                Z
 ----------------------------------------------------------------
    1      C       1.3708855104     0.1672357669     0.2914382142
    2      C       0.4829170509    -1.0452792743    -0.0822900633
    3      C      -0.9425659260    -0.9814847690     0.3259963964
    4      C      -1.5238068320     0.2517198249     0.4074243920
    5      C      -0.7233128106     1.3860238223     0.1317056845
    6      N       0.6274273589     1.3458005860    -0.0503917930
    7      H       2.2761531782     0.2036094511     0.8919151803
    8      H       0.9687188771    -2.0217973697    -0.0178124059
    9      H      -1.4739546140    -1.8982283550     0.5624409442
   10      H      -2.5764542026     0.3790108977     0.6447482600
   11      H      -1.1699089283     2.3620002214    -0.0433570054
   12      C       1.1013199689    -0.1307593955    -1.0770318979
   13      H       1.5475206856    -0.0400694605    -2.0536391661
 ----------------------------------------------------------------
 Nuclear Repulsion Energy =   274.5788367215 hartrees
 There are       25 alpha and       24 beta electrons
 Requested basis set is 6-31+G(d,p)
 There are 53 shells and 163 basis functions

 Total QAlloc Memory Limit   8000 MB
 Mega-Array Size      1956 MB
 MEM_STATIC part      2000 MB

                       Distance Matrix (Angstroms)
             C (  1)   C (  2)   C (  3)   C (  4)   C (  5)   N (  6)
   C (  2)  1.548662
   C (  3)  2.583178  1.484173
   C (  4)  2.898247  2.439051  1.365747
   C (  5)  2.428297  2.722502  2.385564  1.415435
   N (  6)  1.434780  2.395655  2.832455  2.456505  1.363553
   H (  7)  1.086925  2.392592  3.476329  3.831024  3.312524  2.216041
   H (  8)  2.247051  1.092588  2.203058  3.400352  3.807699  3.385005
   H (  9)  3.526003  2.229921  1.085679  2.156106  3.396367  3.913450
   H ( 10)  3.968774  3.452092  2.149917  1.086551  2.170581  3.418005
   H ( 11)  3.374124  3.787203  3.371498  2.186717  1.087486  2.064735
   C ( 12)  1.426246  1.486028  2.621010  3.039933  2.662886  1.859783
   H ( 13)  2.360840  2.455615  3.570639  3.946521  3.459214  2.603883
             H (  7)   H (  8)   H (  9)   H ( 10)   H ( 11)   C ( 12)
   H (  8)  2.736681
   H (  9)  4.311564  2.513686
   H ( 10)  4.862063  4.332565  2.531422
   H ( 11)  4.172377  4.877711  4.313813  2.526679
   C ( 12)  2.317065  2.171533  3.527585  4.092727  3.527154
   H ( 13)  3.044105  2.899456  4.407487  4.946119  4.146757  1.077535

 
 A cutoff of  1.0D-14 yielded   1383 shell pairs
 There are     13443 function pairs
 
 -------------------------------------------------------
 OpenMP Integral Computing Module                       
 Release: version 1.0, May 2013, Q-Chem Inc. Pittsburgh 
 -------------------------------------------------------
 Integral Job Info:
 Integral job number is                      11
 Integral operator is                         1
 short-range coefficients                     0
 long-range coefficients              100000000
 Omega coefficients                           0
 if combine SR and LR in K                    0
 Integral screening is                        0
 Integral computing path is                   2
 max size of driver memory is            800000
 size of driver memory is                593474
 size of scratch memory is              2361544
 max col of scratch BK array               1296
 max len of scratch array in speh3          155
 max len of scratch index in speh4           18
 max int batch size is                      520
 min int batch size is                       52
 fixed nKL is                                52
 max L of basis functions is                  2
 order of int derivative is                   0
 number of shells is                         53
 number of basis is                         163
 number of cartesian basis is               163
 number of contracted shell pairs          1383
 number of primitive shell pairs           4710
 maxK2 (contraction) of shell pair           36
 max number of K2 of shell pair               1
 max number of CS2 of shell pair            127
 max number of PS2 of shell pair            666
 mem total for path MDJ                  535308
 -------------------------------------------------------
 Smallest overlap matrix eigenvalue = 2.56E-05

 Scale SEOQF with 1.000000e-01/1.000000e-01/1.000000e-01

 Standard Electronic Orientation quadrupole field applied
 Nucleus-field energy     =     0.0000000043 hartrees
 Guess MOs from core Hamiltonian diagonalization
 Mixing HOMO and LUMO in initial guess
 Adding  50% of the LUMO to the HOMO
 An unrestricted hybrid HF-DFT SCF calculation will be
 performed using Pulay DIIS extrapolation
 Exchange:     0.2000 Hartree-Fock + 0.0800 Slater + 0.7200 B88
 Correlation:  0.1900 VWN1RPA + 0.8100 LYP
 Using SG-1 standard quadrature grid
 SCF converges when DIIS error is below 1.0E-08
 using 4 threads for integral computing
 -------------------------------------------------------
 OpenMP Integral computing Module                
 Release: version 1.0, May 2013, Q-Chem Inc. Pittsburgh 
 -------------------------------------------------------
 -------------------------------------------------------
 OpenMP BLAS3 based DFT computing Module                
 Release: version 1.0, May 2013, Q-Chem Inc. Pittsburgh 
 -------------------------------------------------------
 ---------------------------------------
  Cycle       Energy         DIIS Error
 ---------------------------------------
    1    -232.9034519934      9.96E-02
    2    -200.6388254448      8.12E-02
    3    -244.2068955735      7.80E-02
    4    -279.4402278930      4.34E-02
    5    -278.4900998566      4.04E-02
    6    -286.0585166282      1.27E-02
    7    -286.0209014159      1.40E-02
    8    -286.8074577523      2.29E-03
    9    -286.8199244723      1.93E-03
   10    -286.8327000329      4.30E-04
   11    -286.8337814781      1.21E-04
   12    -286.8340566823      7.36E-05
   13    -286.8342051467      3.36E-05
   14    -286.8342779630      8.40E-06
   15    -286.8342848352      4.52E-06
   16    -286.8342899392      2.52E-06
   17    -286.8342925950      7.70E-07
   18    -286.8342928303      2.55E-07
   19    -286.8342928403      1.56E-07
   20    -286.8342928425      7.89E-08
   21    -286.8342928429      1.38E-08
   22    -286.8342928429      2.68E-09 Convergence criterion met
 ---------------------------------------
 <S^2> = 0.7924
 SCF time:  CPU 111.54 s  wall 49.81 s
 SCF   energy in the final basis set = -286.83429284
 Total energy in the final basis set = -286.83429284
 
 --------------------------------------------------------------
 
                    Orbital Energies (a.u.)
 --------------------------------------------------------------
 
 Alpha MOs
 -- Occupied --
-14.360 -10.243 -10.237 -10.228 -10.223 -10.205 -10.192  -0.982
 -0.831  -0.799  -0.656  -0.643  -0.594  -0.544  -0.494  -0.484
 -0.476  -0.409  -0.395  -0.376  -0.365  -0.314  -0.264  -0.255
 -0.176
 -- Virtual --
 -0.036   0.005   0.018   0.023   0.026   0.038   0.044   0.061
  0.065   0.076   0.076   0.092   0.096   0.106   0.114   0.122
  0.132   0.137   0.145   0.154   0.163   0.178   0.180   0.181
  0.194   0.198   0.199   0.207   0.221   0.228   0.254   0.256
  0.262   0.277   0.279   0.290   0.309   0.316   0.321   0.340
  0.358   0.377   0.477   0.494   0.632   0.643   0.647   0.673
  0.708   0.719   0.720   0.741   0.744   0.755   0.768   0.779
  0.835   0.860   0.883   0.897   0.916   0.931   0.972   0.990
  1.006   1.046   1.058   1.068   1.081   1.105   1.156   1.160
  1.207   1.214   1.250   1.327   1.355   1.388   1.428   1.445
  1.511   1.564   1.638   1.667   1.710   1.753   1.777   1.817
  1.870   1.900   1.947   1.978   2.000   2.027   2.040   2.061
  2.149   2.184   2.207   2.282   2.309   2.344   2.353   2.375
  2.395   2.422   2.460   2.487   2.498   2.506   2.525   2.526
  2.554   2.593   2.642   2.659   2.696   2.710   2.770   2.820
  2.903   2.968   2.983   3.069   3.233   3.278   3.315   3.377
  3.456   3.603   3.769   4.189   4.297   4.380   4.501   4.626
  4.693   4.742
 
 Beta MOs
 -- Occupied --
-14.363 -10.243 -10.229 -10.229 -10.216 -10.200 -10.195  -0.979
 -0.824  -0.793  -0.645  -0.640  -0.583  -0.539  -0.492  -0.481
 -0.470  -0.405  -0.392  -0.368  -0.356  -0.303  -0.258  -0.250
 -- Virtual --
 -0.081  -0.022   0.005   0.019   0.025   0.026   0.041   0.046
  0.063   0.069   0.077   0.078   0.094   0.097   0.112   0.115
  0.126   0.135   0.137   0.146   0.157   0.165   0.179   0.182
  0.183   0.197   0.199   0.202   0.209   0.225   0.230   0.255
  0.259   0.263   0.281   0.284   0.294   0.312   0.318   0.323
  0.342   0.362   0.381   0.482   0.498   0.636   0.646   0.661
  0.681   0.716   0.725   0.741   0.746   0.749   0.761   0.769
  0.786   0.844   0.864   0.885   0.899   0.918   0.935   0.974
  0.991   1.007   1.048   1.060   1.067   1.085   1.111   1.161
  1.163   1.210   1.217   1.255   1.337   1.362   1.394   1.433
  1.454   1.519   1.572   1.644   1.675   1.716   1.758   1.785
  1.825   1.879   1.905   1.954   1.981   2.006   2.032   2.045
  2.072   2.153   2.191   2.216   2.286   2.315   2.348   2.358
  2.377   2.399   2.425   2.466   2.496   2.502   2.514   2.528
  2.532   2.559   2.600   2.647   2.664   2.700   2.717   2.774
  2.826   2.906   2.970   2.987   3.073   3.234   3.279   3.317
  3.379   3.459   3.608   3.771   4.186   4.305   4.386   4.507
  4.632   4.706   4.747
 --------------------------------------------------------------
 
          Ground-State Mulliken Net Atomic Charges

     Atom                 Charge (a.u.)    Spin (a.u.)
  --------------------------------------------------------
      1 C                    -0.094543       0.005028
      2 C                    -0.050556      -0.068960
      3 C                    -0.194761       0.450882
      4 C                     0.178736      -0.230586
      5 C                    -0.284575       0.516641
      6 N                    -0.214260      -0.151143
      7 H                     0.138838       0.001085
      8 H                     0.140697       0.016549
      9 H                     0.127145      -0.021354
     10 H                     0.127247       0.010676
     11 H                     0.129050      -0.026622
     12 C                    -0.151383       0.519822
     13 H                     0.148364      -0.022018
  --------------------------------------------------------
  Sum of atomic charges =     0.000000
  Sum of spin   charges =     1.000000

 -----------------------------------------------------------------
                    Cartesian Multipole Moments
 -----------------------------------------------------------------
    Charge (ESU x 10^10)
                 0.0000
    Dipole Moment (Debye)
         X       0.0896      Y      -1.8586      Z      -0.0326
       Tot       1.8611
    Quadrupole Moments (Debye-Ang)
        XX     -38.0308     XY      -3.1140     YY     -42.4184
        XZ      -0.9584     YZ      -0.0019     ZZ     -42.1010
    Octopole Moments (Debye-Ang^2)
       XXX      -5.6660    XXY      -5.9306    XYY      -9.4354
       YYY     -24.4259    XXZ       3.4425    XYZ       1.5600
       YYZ       1.9949    XZZ       4.5177    YZZ      -5.0879
       ZZZ      -5.4231
    Hexadecapole Moments (Debye-Ang^3)
      XXXX    -342.2341   XXXY       1.4283   XXYY    -109.6133
      XYYY     -11.5802   YYYY    -293.5816   XXXZ      35.3889
      XXYZ      -0.2579   XYYZ      13.1385   YYYZ      -3.7013
      XXZZ     -76.2196   XYZZ       2.7721   YYZZ     -75.7572
      XZZZ      31.9563   YZZZ      -0.7302   ZZZZ    -117.6889
 -----------------------------------------------------------------
Archival summary:
1\1\c8-68\SP\ProcedureUnspecified\6-31+G**\166(2)\hpark21\TueMar113:59:332022TueMar113:59:332022\0\\#,ProcedureUnspecified,6-31+G**,\\0,2\N\C,1,1.36355\H,2,1.08749,1,114.317\C,2,1.41544,1,124.236,3,174.562,0\H,4,1.08655,2,119.773,1,173.475,0\C,4,1.36575,2,118.119,1,-8.38869,0\H,6,1.08568,4,122.763,2,177.335,0\C,1,1.43478,2,120.379,3,172.88,0\H,8,1.08692,1,122.391,2,-131.151,0\C,8,1.42625,1,81.0888,2,91.7084,0\H,10,1.07753,8,140.694,1,94.5243,0\C,6,1.48417,4,117.643,2,-1.58357,0\H,12,1.09259,6,116.695,4,172.307,0\\\@

 Total job time:  53.51s(wall), 113.51s(cpu) 
 Tue Mar  1 13:59:33 2022

        *************************************************************
        *                                                           *
        *  Thank you very much for using Q-Chem.  Have a nice day.  *
        *                                                           *
        *************************************************************


