
Running Job 1 of 1 qcts2.in
qchem qcts2.in_51689.0 ./qcts2.d/ 1
/home/leeping/opt/qchem/5.0.2-openmp/exe/qcprog.exe_s qcts2.in_51689.0 ./qcts2.d/
Check license passed

                  Welcome to Q-Chem
     A Quantum Leap Into The Future Of Chemistry


 Q-Chem 5.0, Q-Chem, Inc., Pleasanton, CA (2017)

 Yihan Shao,  Zhengting Gan,  E. Epifanovsky,  A. T. B. Gilbert,  M. Wormit,  
 J. Kussmann,  A. W. Lange,  A. Behn,  Jia Deng,  Xintian Feng,  D. Ghosh,  
 M. Goldey,  P. R. Horn,  L. D. Jacobson,  I. Kaliman,  T. Kus,  A. Landau,  
 Jie Liu,  E. I. Proynov,  R. M. Richard,  R. P. Steele,  E. J. Sundstrom,  
 H. L. Woodcock III,  P. M. Zimmerman,  D. Zuev,  B. Albrecht,  E. Alguire,  
 S. A. Baeppler,  D. Barton,  Z. Benda,  Y. A. Bernard,  E. J. Berquist,  
 K. B. Bravaya,  H. Burton,  D. Casanova,  Chun-Min Chang,  Yunqing Chen,  
 A. Chien,  K. D. Closser,  M. P. Coons,  S. Dasgupta,  A. L. Dempwolff,  
 M. Diedenhofen,  Hainam Do,  R. G. Edgar,  Po-Tung Fang,  S. Fatehi,  
 Qingguo Feng,  J. Fosso-Tande,  Qinghui Ge,  A. Ghysels,  G. Gidofalvi,  
 J. Gomes,  J. Gonthier,  A. Gunina,  M. W. D. Hanson-Heine,  
 P. H. P. Harbach,  A. W. Hauser,  J. E. Herr,  E. G. Hohenstein,  
 Z. C. Holden,  Kerwin Hui,  T.-C. Jagau,  Hyunjun Ji,  B. Kaduk,  
 K. Khistyaev,  Jaehoon Kim,  P. Klunzinger,  K. Koh,  D. Kosenkov,  
 L. Koulias,  T. Kowalczyk,  C. M. Krauter,  A. Kunitsa,  Ka Un Lao,  
 A. Laurent,  K. V. Lawler,  Joonho Lee,  D. Lefrancois,  S. Lehtola,  
 D. S. Levine,  Yi-Pei Li,  You-Sheng Lin,  Fenglai Liu,  E. Livshits,  
 A. Luenser,  P. Manohar,  E. Mansoor,  S. F. Manzer,  Shan-Ping Mao,  
 Yuezhi Mao,  N. Mardirossian,  A. V. Marenich,  T. Markovich,  
 L. A. Martinez-Martinez,  S. A. Maurer,  N. J. Mayhall,  S. C. McKenzie,  
 J.-M. Mewes,  A. F. Morrison,  J. W. Mullinax,  K. Nanda,  
 T. S. Nguyen-Beck,  R. Olivares-Amaya,  J. A. Parkhill,  T. M. Perrine,  
 F. Plasser,  S. Prager,  A. Prociuk,  E. Ramos,  D. R. Rehn,  F. Rob,  
 M. Schneider,  N. Sergueev,  S. M. Sharada,  S. Sharma,  D. W. Small,  
 T. Stauch,  T. Stein,  Yu-Chuan Su,  A. J. W. Thom,  A. Tkatchenko,  
 T. Tsuchimochi,  L. Vogt,  O. Vydrov,  M. A. Watson,  J. Wenzel,  
 M. de Wergifosse,  T. A. Wesolowski,  A. White,  J. Witte,  A. Yamada,  
 Jun Yang,  K. Yao,  S. Yeganeh,  S. R. Yost,  Zhi-Qiang You,  A. Zech,  
 Igor Ying Zhang,  Xing Zhang,  Yan Zhao,  Ying Zhu,  B. R. Brooks,  
 G. K. L. Chan,  C. J. Cramer,  M. S. Gordon,  W. J. Hehre,  A. Klamt,  
 M. W. Schmidt,  C. D. Sherrill,  D. G. Truhlar,  A. Aspuru-Guzik,  R. Baer,  
 A. T. Bell,  N. A. Besley,  Jeng-Da Chai,  R. A. DiStasio Jr.,  A. Dreuw,  
 B. D. Dunietz,  T. R. Furlani,  Chao-Ping Hsu,  Yousung Jung,  Jing Kong,  
 D. S. Lambrecht,  WanZhen Liang,  C. Ochsenfeld,  V. A. Rassolov,  
 L. V. Slipchenko,  J. E. Subotnik,  T. Van Voorhis,  J. M. Herbert,  
 A. I. Krylov,  P. M. W. Gill,  M. Head-Gordon

 Contributors to earlier versions of Q-Chem not listed above: 
 R. D. Adamson,  B. Austin,  J. Baker,  G. J. O. Beran,  K. Brandhorst,  
 S. T. Brown,  E. F. C. Byrd,  A. K. Chakraborty,  C.-L. Cheng,  
 Siu Hung Chien,  D. M. Chipman,  D. L. Crittenden,  H. Dachsel,  
 R. J. Doerksen,  A. D. Dutoi,  L. Fusti-Molnar,  W. A. Goddard III,  
 A. Golubeva-Zadorozhnaya,  S. R. Gwaltney,  G. Hawkins,  A. Heyden,  
 S. Hirata,  G. Kedziora,  F. J. Keil,  C. Kelley,  Jihan Kim,  R. A. King,  
 R. Z. Khaliullin,  P. P. Korambath,  W. Kurlancheek,  A. M. Lee,  M. S. Lee,  
 S. V. Levchenko,  Ching Yeh Lin,  D. Liotard,  R. C. Lochan,  I. Lotan,  
 P. E. Maslen,  N. Nair,  D. P. O'Neill,  D. Neuhauser,  E. Neuscamman,  
 C. M. Oana,  R. Olson,  B. Peters,  R. Peverati,  P. A. Pieniazek,  
 Y. M. Rhee,  J. Ritchie,  M. A. Rohrdanz,  E. Rosta,  N. J. Russ,  
 H. F. Schaefer III,  N. E. Schultz,  N. Shenvi,  A. C. Simmonett,  A. Sodt,  
 D. Stuck,  K. S. Thanthiriwatte,  V. Vanovschi,  Tao Wang,  A. Warshel,  
 C. F. Williams,  Q. Wu,  X. Xu,  W. Zhang

 Please cite Q-Chem as follows:
 Y. Shao et al., Mol. Phys. 113, 184-215 (2015)
 DOI: 10.1080/00268976.2014.952696

 Q-Chem 5.0.2 for Intel X86 EM64T Linux

 Parts of Q-Chem use Armadillo 5.200.1 (Boston Tea Smuggler).
 http://arma.sourceforge.net/

 Q-Chem begins on Tue Mar  1 14:25:27 2022  

Host: 
0

     Scratch files written to ./qcts2.d//
 Dec517 15110_ 26548  26544 5633   
Processing $rem in /home/leeping/opt/qchem/5.0.2-openmp/config/preferences.
 MEM_STATIC 2000
 MEM_TOTAL  8000
 SYMMETRY   OFF
 SYM_IGNORE TRUE 

Checking the input file for inconsistencies... 	...done.

--------------------------------------------------------------
User input:
--------------------------------------------------------------
$molecule
0 2
C        1.3719436764    0.1673485149    0.2934192663
C        0.4830535171   -1.0466054607   -0.0817588098
C       -0.9421356918   -0.9828063532    0.3265233209
C       -1.5253823204    0.2520937070    0.4050403958
C       -0.7248474755    1.3875192505    0.1294994651
N        0.6276356574    1.3438634864   -0.0501085152
H        2.2783272381    0.2035167217    0.8900294873
H        0.9694321922   -2.0223439636   -0.0183033866
H       -1.4732624941   -1.8987010564    0.5650071969
H       -2.5774516516    0.3786488797    0.6422634366
H       -1.1683339442    2.3646047960   -0.0414740147
C        1.1001281186   -0.1321214816   -1.0765998445
H        1.5458324944   -0.0372350944   -2.0523912582
$end

$rem
method                b3lyp
basis                 6-31+g(d,p)
unrestricted          true
symmetry              off
sym_ignore            true
incdft                false
incfock               0
scf_convergence       8
thresh                14
jobtype               freq
scf_guess             read
scf_algorithm         diis
max_scf_cycles        100
$end

--------------------------------------------------------------
 ----------------------------------------------------------------
             Standard Nuclear Orientation (Angstroms)
    I     Atom           X                Y                Z
 ----------------------------------------------------------------
    1      C       1.3719436764     0.1673485149     0.2934192663
    2      C       0.4830535171    -1.0466054607    -0.0817588098
    3      C      -0.9421356918    -0.9828063532     0.3265233209
    4      C      -1.5253823204     0.2520937070     0.4050403958
    5      C      -0.7248474755     1.3875192505     0.1294994651
    6      N       0.6276356574     1.3438634864    -0.0501085152
    7      H       2.2783272381     0.2035167217     0.8900294873
    8      H       0.9694321922    -2.0223439636    -0.0183033866
    9      H      -1.4732624941    -1.8987010564     0.5650071969
   10      H      -2.5774516516     0.3786488797     0.6422634366
   11      H      -1.1683339442     2.3646047960    -0.0414740147
   12      C       1.1001281186    -0.1321214816    -1.0765998445
   13      H       1.5458324944    -0.0372350944    -2.0523912582
 ----------------------------------------------------------------
 Nuclear Repulsion Energy =   274.4840493969 hartrees
 There are       25 alpha and       24 beta electrons
 Requested basis set is 6-31+G(d,p)
 There are 53 shells and 163 basis functions

 Total QAlloc Memory Limit   8000 MB
 Mega-Array Size      1956 MB
 MEM_STATIC part      2000 MB

                       Distance Matrix (Angstroms)
             C (  1)   C (  2)   C (  3)   C (  4)   C (  5)   N (  6)
   C (  2)  1.550667
   C (  3)  2.584360  1.483890
   C (  4)  2.900714  2.440780  1.367962
   C (  5)  2.431506  2.725549  2.388404  1.416323
   N (  6)  1.433943  2.395046  2.831859  2.456544  1.365055
   H (  7)  1.085718  2.393781  3.477971  3.834812  3.316523  2.215634
   H (  8)  2.248097  1.092088  2.203097  3.402409  3.810459  3.383665
   H (  9)  3.526687  2.229696  1.085280  2.157365  3.398387  3.912335
   H ( 10)  3.970398  3.452861  2.151165  1.085883  2.170919  3.418129
   H ( 11)  3.375367  3.790126  3.375167  2.188507  1.086558  2.065791
   C ( 12)  1.428467  1.485520  2.619783  3.039109  2.663554  1.858888
   H ( 13)  2.361127  2.455956  3.569779  3.943988  3.456380  2.599934
             H (  7)   H (  8)   H (  9)   H ( 10)   H ( 11)   C ( 12)
   H (  8)  2.737285
   H (  9)  4.312700  2.514418
   H ( 10)  4.865249  4.333763  2.532099
   H ( 11)  4.173425  4.880154  4.317010  2.529255
   C ( 12)  2.316989  2.170257  3.526757  4.091451  3.528604
   H ( 13)  3.041768  2.900070  4.408034  4.943237  4.144795  1.076952

 
 A cutoff of  1.0D-14 yielded   1383 shell pairs
 There are     13443 function pairs
 Smallest overlap matrix eigenvalue = 2.58E-05
 Guess MOs from SCF MO coefficient file
 Reading MOs from coefficient file
 Reading MOs from coefficient file
 An unrestricted hybrid HF-DFT SCF calculation will be
 performed using Pulay DIIS extrapolation
 Exchange:     0.2000 Hartree-Fock + 0.0800 Slater + 0.7200 B88
 Correlation:  0.1900 VWN1RPA + 0.8100 LYP
 Using SG-1 standard quadrature grid
 SCF converges when DIIS error is below 1.0E-08
Using Q-Chem read-in guess as SCF_GUESS READ specified.

 -------------------------------------------------------
 OpenMP BLAS3 based DFT computing Module                
 -------------------------------------------------------
 ---------------------------------------
  Cycle       Energy         DIIS Error
 ---------------------------------------
    1    -286.8343100478      5.08E-10
    2    -286.8343100478      7.40E-10 Convergence criterion met
 ---------------------------------------
 <S^2> = 0.7925
 SCF time:  CPU 6.79 s  wall 16.64 s
 SCF   energy in the final basis set = -286.83431005
 Total energy in the final basis set = -286.83431005
 
 --------------------------------------------------------------
 
                    Orbital Energies (a.u.)
 --------------------------------------------------------------
 
 Alpha MOs
 -- Occupied --
-14.360 -10.243 -10.237 -10.228 -10.223 -10.205 -10.193  -0.982
 -0.831  -0.799  -0.656  -0.643  -0.594  -0.544  -0.494  -0.484
 -0.476  -0.409  -0.395  -0.377  -0.365  -0.314  -0.264  -0.255
 -0.175
 -- Virtual --
 -0.036   0.005   0.018   0.023   0.026   0.038   0.043   0.061
  0.065   0.076   0.076   0.092   0.096   0.106   0.114   0.122
  0.132   0.137   0.145   0.154   0.163   0.178   0.180   0.181
  0.194   0.198   0.200   0.207   0.221   0.227   0.254   0.256
  0.262   0.277   0.279   0.290   0.309   0.316   0.321   0.340
  0.358   0.376   0.477   0.493   0.632   0.643   0.647   0.673
  0.708   0.719   0.720   0.741   0.743   0.755   0.768   0.779
  0.834   0.860   0.883   0.897   0.916   0.931   0.973   0.990
  1.005   1.047   1.058   1.067   1.081   1.104   1.156   1.160
  1.207   1.213   1.250   1.327   1.355   1.388   1.428   1.444
  1.511   1.563   1.637   1.666   1.711   1.753   1.777   1.817
  1.868   1.900   1.948   1.977   2.000   2.025   2.039   2.060
  2.148   2.184   2.207   2.281   2.309   2.345   2.353   2.375
  2.396   2.422   2.460   2.487   2.498   2.505   2.523   2.526
  2.553   2.593   2.642   2.659   2.695   2.710   2.770   2.820
  2.903   2.967   2.983   3.069   3.232   3.279   3.317   3.378
  3.458   3.603   3.769   4.188   4.297   4.380   4.501   4.625
  4.693   4.742
 
 Beta MOs
 -- Occupied --
-14.363 -10.243 -10.230 -10.229 -10.216 -10.200 -10.195  -0.978
 -0.824  -0.793  -0.644  -0.640  -0.583  -0.539  -0.491  -0.481
 -0.470  -0.405  -0.392  -0.368  -0.356  -0.303  -0.257  -0.250
 -- Virtual --
 -0.081  -0.022   0.005   0.019   0.025   0.026   0.041   0.046
  0.063   0.069   0.077   0.078   0.094   0.097   0.112   0.115
  0.126   0.135   0.137   0.145   0.157   0.165   0.179   0.182
  0.183   0.197   0.199   0.202   0.209   0.225   0.230   0.255
  0.259   0.263   0.280   0.284   0.294   0.312   0.318   0.323
  0.342   0.361   0.380   0.482   0.497   0.636   0.646   0.661
  0.681   0.715   0.725   0.741   0.745   0.749   0.761   0.769
  0.787   0.844   0.864   0.885   0.899   0.918   0.936   0.974
  0.991   1.006   1.049   1.060   1.067   1.085   1.110   1.161
  1.163   1.211   1.217   1.255   1.337   1.363   1.393   1.434
  1.453   1.520   1.571   1.643   1.674   1.716   1.758   1.785
  1.825   1.878   1.906   1.954   1.981   2.006   2.030   2.043
  2.071   2.152   2.191   2.215   2.285   2.314   2.349   2.358
  2.378   2.400   2.425   2.467   2.497   2.502   2.513   2.528
  2.530   2.558   2.600   2.647   2.663   2.699   2.717   2.773
  2.826   2.906   2.970   2.987   3.073   3.234   3.281   3.319
  3.380   3.460   3.608   3.771   4.185   4.304   4.386   4.506
  4.631   4.706   4.747
 --------------------------------------------------------------
 
          Ground-State Mulliken Net Atomic Charges

     Atom                 Charge (a.u.)    Spin (a.u.)
  --------------------------------------------------------
      1 C                    -0.094233       0.005996
      2 C                    -0.049846      -0.069074
      3 C                    -0.194468       0.454407
      4 C                     0.176115      -0.232142
      5 C                    -0.283830       0.518361
      6 N                    -0.214991      -0.150580
      7 H                     0.138962       0.000970
      8 H                     0.140702       0.016319
      9 H                     0.127146      -0.021501
     10 H                     0.127151       0.010730
     11 H                     0.129313      -0.026750
     12 C                    -0.150497       0.515122
     13 H                     0.148476      -0.021855
  --------------------------------------------------------
  Sum of atomic charges =     0.000000
  Sum of spin   charges =     1.000000

 -----------------------------------------------------------------
                    Cartesian Multipole Moments
 -----------------------------------------------------------------
    Charge (ESU x 10^10)
                -0.0000
    Dipole Moment (Debye)
         X       0.0991      Y      -1.8513      Z      -0.0339
       Tot       1.8543
    Quadrupole Moments (Debye-Ang)
        XX     -38.0283     XY      -3.1175     YY     -42.3947
        XZ      -0.9630     YZ      -0.0026     ZZ     -42.1117
    Octopole Moments (Debye-Ang^2)
       XXX      -5.5682    XXY      -5.9049    XYY      -9.4248
       YYY     -24.2884    XXZ       3.4682    XYZ       1.5561
       YYZ       2.0101    XZZ       4.5402    YZZ      -5.0618
       ZZZ      -5.4223
    Hexadecapole Moments (Debye-Ang^3)
      XXXX    -342.3469   XXXY       1.5159   XXYY    -109.6806
      XYYY     -11.5790   YYYY    -293.5213   XXXZ      35.2770
      XXYZ      -0.2518   XYYZ      13.0504   YYYZ      -3.6205
      XXZZ     -76.2862   XYZZ       2.8360   YYZZ     -75.7680
      XZZZ      31.8018   YZZZ      -0.6919   ZZZZ    -117.6239
 -----------------------------------------------------------------
 Calculating MO derivatives via CPSCF
   1         3          39      0.295012    0.061771
   2         3          39      0.040024    0.007867
   3         3          39      0.005044    0.000876
   4         3          39      0.000622    0.000100
   5        24          18      0.000056    0.000011
   6        42           0      0.000000    0.000000    Roots Converged
 Time for AOints: 19.3 s (CPU) 24.5 s (wall)
 ------------------------------------------------------------------------------
                     AOints        : Timing summary (seconds)
 ------------------------------------------------------------------------------
     job step          cpu (% of tot)      sys (% of tot)     wall (% of tot)
 ------------------------------------------------------------------------------
  cpscf_lag         0.1164E+03 (28.5)   0.4200E-04 (35.3)   0.1333E+03 (28.5)
  iterzp            0.2722E+03 (66.7)   0.7200E-04 (60.5)   0.3089E+03 (66.1)
  make_fx           0.0000E+00 ( 0.0)   0.0000E+00 ( 0.0)   0.0000E+00 ( 0.0)
  AOints            0.1934E+02 ( 4.7)   0.2000E-05 ( 1.7)   0.2446E+02 ( 5.2)
 ------------------------------------------------------------------------------
   Grand Totals     0.4083E+03          0.1190E-03          0.4671E+03
 ------------------------------------------------------------------------------
 Calculating analytic Hessian of the SCF energy
 Polarizability Matrix (a.u.)
            1           2           3
    1 -82.8846323   2.8616381  10.5926640
    2   2.8616381 -80.2198268  -1.3554043
    3  10.5926640  -1.3554043 -59.1730249
 
 Direct stationary perturbation theory relativistic correction:
 
 rels  =       0.069356647128
 relv  =      -0.339360656266
 rel2e =       0.157100042476
 E_rel =      -0.112903966662
 
 Hessian of the SCF Energy
            1           2           3           4           5           6
    1   0.5498873  -0.0111562   0.2549688  -0.0971251  -0.0285150  -0.0200029
    2  -0.0111562   0.3237196   0.0630539  -0.0314595  -0.0932279   0.0122853
    3   0.2549688   0.0630539   0.5017067  -0.0500940  -0.0477547  -0.0298692
    4  -0.0971251  -0.0314595  -0.0500940   0.5001562  -0.0664302  -0.0899403
    5  -0.0285150  -0.0932279  -0.0477547  -0.0664302   0.5989310  -0.0767071
    6  -0.0200029   0.0122853  -0.0298692  -0.0899403  -0.0767071   0.2222545
    7  -0.0252789  -0.0250256   0.0110533  -0.2043714   0.0287287   0.0442591
    8  -0.0150031  -0.0013059   0.0119857   0.0015421  -0.0914593   0.0057888
    9  -0.0100323   0.0074052  -0.0014098   0.0456591  -0.0031857  -0.0651338
   10   0.0009100  -0.0027841  -0.0043115  -0.0204047   0.0284329   0.0071992
   11  -0.0091206  -0.0048760  -0.0112495   0.0345282   0.0062691  -0.0056737
   12   0.0046543   0.0059274   0.0016137   0.0026587  -0.0101772  -0.0013384
   13  -0.0042447   0.0027293   0.0355873  -0.0172265  -0.0038646   0.0050400
   14   0.0410016  -0.0162530   0.0047865  -0.0094426   0.0008968   0.0016174
   15  -0.0215503   0.0048002  -0.0017747  -0.0018650   0.0003771  -0.0092006
   16  -0.1473535   0.0964474  -0.0852941   0.0298095  -0.0207254  -0.0039055
   17   0.0706964  -0.1731875   0.0846572   0.0081318  -0.0490601   0.0043394
   18   0.0124944   0.0049006  -0.0143758  -0.0009590   0.0125298   0.0232707
   19  -0.2505419  -0.0109665  -0.1399680  -0.0057696   0.0017951  -0.0032241
   20  -0.0135149  -0.0458518  -0.0125366  -0.0129390   0.0024754  -0.0112461
   21  -0.1362780  -0.0065285  -0.1200948   0.0086584   0.0003716  -0.0030448
   22   0.0098785  -0.0110208   0.0044664  -0.1067165   0.1082158  -0.0038464
   23   0.0092228  -0.0096855   0.0052943   0.1103502  -0.2615822   0.0115615
   24   0.0111200  -0.0130185   0.0021064  -0.0085622   0.0177856  -0.0370590
   25  -0.0040081  -0.0013897   0.0011864  -0.0062966  -0.0215460   0.0066248
   26   0.0006098   0.0007559   0.0003451   0.0034836   0.0048242  -0.0017423
   27   0.0000080  -0.0047764  -0.0003166   0.0037112   0.0080781   0.0037350
   28   0.0010940  -0.0007865   0.0001618   0.0022967   0.0027144   0.0008444
   29   0.0002232  -0.0012687   0.0002607   0.0012061  -0.0047501   0.0009691
   30   0.0011359  -0.0014517  -0.0001673   0.0027684   0.0005865   0.0077872
   31  -0.0040400   0.0010537   0.0012747  -0.0004095   0.0004015   0.0000560
   32  -0.0020632   0.0021938  -0.0002317   0.0000279   0.0004753   0.0000716
   33  -0.0014985   0.0004195   0.0030500   0.0014867  -0.0001359  -0.0005382
   34  -0.0389475  -0.0075541  -0.0147181  -0.0688961  -0.0335720   0.0573573
   35  -0.0474345   0.0244275  -0.0938213  -0.0371160  -0.1170695   0.0513565
   36  -0.1062039  -0.0750094  -0.3298530   0.0910207   0.1005076  -0.1094648
   37   0.0097699   0.0019126  -0.0143130  -0.0050464   0.0043649  -0.0004616
   38   0.0050538  -0.0054405  -0.0047895  -0.0018824   0.0032772   0.0073796
   39   0.0111844   0.0019924  -0.0106155  -0.0045428  -0.0022757  -0.0013985
            7           8           9          10          11          12
    1  -0.0252789  -0.0150031  -0.0100323   0.0009100  -0.0091206   0.0046543
    2  -0.0250256  -0.0013059   0.0074052  -0.0027841  -0.0048760   0.0059274
    3   0.0110533   0.0119857  -0.0014098  -0.0043115  -0.0112495   0.0016137
    4  -0.2043714   0.0015421   0.0456591  -0.0204047   0.0345282   0.0026587
    5   0.0287287  -0.0914593  -0.0031857   0.0284329   0.0062691  -0.0101772
    6   0.0442591   0.0057888  -0.0651338   0.0071992  -0.0056737  -0.0013384
    7   0.5281579  -0.0067972  -0.1221718  -0.1730382   0.0892339   0.0256321
    8  -0.0067972   0.7507143  -0.0484343   0.1422593  -0.3183173  -0.0171281
    9  -0.1221718  -0.0484343   0.1542352   0.0227831  -0.0130255  -0.0574705
   10  -0.1730382   0.1422593   0.0227831   0.7079531  -0.0752951  -0.1376364
   11   0.0892339  -0.3183173  -0.0130255  -0.0752951   0.6019310  -0.0232618
   12   0.0256321  -0.0171281  -0.0574705  -0.1376364  -0.0232618   0.1489768
   13   0.0467812  -0.0510534  -0.0044164  -0.1641143  -0.0046754   0.0205247
   14   0.0081084  -0.0834257   0.0065601  -0.0935164  -0.1924788   0.0414877
   15  -0.0048255   0.0137717   0.0103200   0.0338495   0.0253117  -0.0672796
   16  -0.0150184   0.0401591   0.0023507  -0.0484319  -0.0682823   0.0195865
   17   0.0137800  -0.0186277  -0.0015262  -0.0193128   0.0422222  -0.0070017
   18   0.0048587  -0.0278311  -0.0040738   0.0172972   0.0518652   0.0055373
   19   0.0007112  -0.0000504  -0.0012005  -0.0010290   0.0008253   0.0004585
   20   0.0026453  -0.0008247  -0.0015252  -0.0004891   0.0021137   0.0001680
   21  -0.0017533   0.0018850   0.0026786   0.0002893  -0.0018163   0.0001592
   22  -0.0093997   0.0288050  -0.0013565  -0.0055808  -0.0018363   0.0018403
   23  -0.0008555   0.0022517  -0.0005026   0.0001354   0.0015274   0.0008783
   24   0.0041954  -0.0099128   0.0005055   0.0026647   0.0030284   0.0003841
   25  -0.1245693  -0.1182389   0.0392152   0.0112670   0.0116835  -0.0019568
   26  -0.1164895  -0.2603219   0.0557143  -0.0170051  -0.0174856   0.0065761
   27   0.0384728   0.0569483  -0.0438398  -0.0013525  -0.0033521   0.0064173
   28  -0.0084902  -0.0014267   0.0031393  -0.3216034   0.0330314   0.0654570
   29   0.0290257   0.0025392  -0.0073448   0.0310160  -0.0624380  -0.0041429
   30   0.0024236  -0.0045810   0.0031068   0.0656078   0.0040047  -0.0491427
   31  -0.0026327  -0.0026696   0.0014307   0.0111221  -0.0172279   0.0017647
   32  -0.0044020  -0.0011203   0.0024893   0.0118271  -0.0174360   0.0033581
   33  -0.0005122   0.0052197   0.0034170  -0.0044556  -0.0035658   0.0055358
   34  -0.0139704  -0.0176372   0.0221078   0.0048929   0.0066724  -0.0031738
   35  -0.0182953   0.0175128   0.0031114  -0.0049403  -0.0374957   0.0028510
   36  -0.0013385   0.0134704  -0.0038536  -0.0016387  -0.0221607   0.0066296
   37   0.0011189   0.0001110   0.0024916  -0.0019428   0.0004629   0.0001903
   38   0.0003430   0.0023849   0.0002640  -0.0003277  -0.0035359   0.0004651
   39  -0.0002936  -0.0011823   0.0015182  -0.0002961  -0.0001045  -0.0000227
           13          14          15          16          17          18
    1  -0.0042447   0.0410016  -0.0215503  -0.1473535   0.0706964   0.0124944
    2   0.0027293  -0.0162530   0.0048002   0.0964474  -0.1731875   0.0049006
    3   0.0355873   0.0047865  -0.0017747  -0.0852941   0.0846572  -0.0143758
    4  -0.0172265  -0.0094426  -0.0018650   0.0298095   0.0081318  -0.0009590
    5  -0.0038646   0.0008968   0.0003771  -0.0207254  -0.0490601   0.0125298
    6   0.0050400   0.0016174  -0.0092006  -0.0039055   0.0043394   0.0232707
    7   0.0467812   0.0081084  -0.0048255  -0.0150184   0.0137800   0.0048587
    8  -0.0510534  -0.0834257   0.0137717   0.0401591  -0.0186277  -0.0278311
    9  -0.0044164   0.0065601   0.0103200   0.0023507  -0.0015262  -0.0040738
   10  -0.1641143  -0.0935164   0.0338495  -0.0484319  -0.0193128   0.0172972
   11  -0.0046754  -0.1924788   0.0253117  -0.0682823   0.0422222   0.0518652
   12   0.0205247   0.0414877  -0.0672796   0.0195865  -0.0070017   0.0055373
   13   0.5279127  -0.0695458  -0.0366579  -0.2461346  -0.0497957  -0.0700329
   14  -0.0695458   0.6688847  -0.0961079   0.0096853  -0.1075500  -0.0120776
   15  -0.0366579  -0.0961079   0.1437394   0.0183600   0.0223749  -0.0276355
   16  -0.2461346   0.0096853   0.0183600   0.4543877  -0.0084978   0.0766364
   17  -0.0497957  -0.1075500   0.0223749  -0.0084978   0.2613841  -0.1276098
   18  -0.0700329  -0.0120776  -0.0276355   0.0766364  -0.1276098  -0.0164654
   19  -0.0006454  -0.0006787  -0.0021531  -0.0093837   0.0033401  -0.0048449
   20  -0.0043140  -0.0024571   0.0043210   0.0270892  -0.0021458   0.0082818
   21   0.0033045  -0.0005973  -0.0002503   0.0003421   0.0031884   0.0016931
   22   0.0004517  -0.0000966   0.0008443  -0.0047922  -0.0034413   0.0011758
   23  -0.0004496   0.0009137   0.0006098  -0.0048881  -0.0029324   0.0013058
   24  -0.0020143  -0.0005615   0.0006923   0.0005069  -0.0042922   0.0001247
   25   0.0007004   0.0037665   0.0021986  -0.0005061   0.0013424  -0.0003757
   26   0.0048881  -0.0030873   0.0001340   0.0001530   0.0002784  -0.0001737
   27   0.0037284  -0.0001749   0.0079484  -0.0020251   0.0019212  -0.0039026
   28  -0.0133268   0.0047727   0.0021026  -0.0004326  -0.0031281   0.0015659
   29  -0.0242166   0.0093547   0.0044357  -0.0044073  -0.0035022   0.0015973
   30   0.0006593  -0.0068445   0.0007887   0.0022608   0.0013136   0.0012996
   31  -0.0896342   0.0976440  -0.0103959  -0.0257310   0.0301313  -0.0046749
   32   0.0994410  -0.2876718   0.0469445   0.0036849   0.0042045  -0.0002488
   33  -0.0058813   0.0543016  -0.0399075  -0.0036090   0.0012990   0.0052550
   34  -0.0411556   0.0099236   0.0190090   0.0179183  -0.0466868  -0.0362074
   35   0.0966889   0.0101644  -0.0272598  -0.0654164   0.0432171   0.0909772
   36   0.0493867   0.0070838  -0.0189791  -0.0217750   0.0180926   0.0308560
   37   0.0006362  -0.0016219   0.0010837  -0.0043315   0.0034406   0.0030666
   38   0.0041677   0.0027095   0.0002872  -0.0050018   0.0056994  -0.0035166
   39   0.0007718   0.0005265   0.0015384  -0.0034346   0.0032435  -0.0015835
           19          20          21          22          23          24
    1  -0.2505419  -0.0135149  -0.1362780   0.0098785   0.0092228   0.0111200
    2  -0.0109665  -0.0458518  -0.0065285  -0.0110208  -0.0096855  -0.0130185
    3  -0.1399680  -0.0125366  -0.1200948   0.0044664   0.0052943   0.0021064
    4  -0.0057696  -0.0129390   0.0086584  -0.1067165   0.1103502  -0.0085622
    5   0.0017951   0.0024754   0.0003716   0.1082158  -0.2615822   0.0177856
    6  -0.0032241  -0.0112461  -0.0030448  -0.0038464   0.0115615  -0.0370590
    7   0.0007112   0.0026453  -0.0017533  -0.0093997  -0.0008555   0.0041954
    8  -0.0000504  -0.0008247   0.0018850   0.0288050   0.0022517  -0.0099128
    9  -0.0012005  -0.0015252   0.0026786  -0.0013565  -0.0005026   0.0005055
   10  -0.0010290  -0.0004891   0.0002893  -0.0055808   0.0001354   0.0026647
   11   0.0008253   0.0021137  -0.0018163  -0.0018363   0.0015274   0.0030284
   12   0.0004585   0.0001680   0.0001592   0.0018403   0.0008783   0.0003841
   13  -0.0006454  -0.0043140   0.0033045   0.0004517  -0.0004496  -0.0020143
   14  -0.0006787  -0.0024571  -0.0005973  -0.0000966   0.0009137  -0.0005615
   15  -0.0021531   0.0043210  -0.0002503   0.0008443   0.0006098   0.0006923
   16  -0.0093837   0.0270892   0.0003421  -0.0047922  -0.0048881   0.0005069
   17   0.0033401  -0.0021458   0.0031884  -0.0034413  -0.0029324  -0.0042922
   18  -0.0048449   0.0082818   0.0016931   0.0011758   0.0013058   0.0001247
   19   0.2579076   0.0059725   0.1492123   0.0003240  -0.0001572  -0.0000422
   20   0.0059725   0.0462491   0.0087266   0.0006704   0.0004412   0.0009097
   21   0.1492123   0.0087266   0.1282674  -0.0006037  -0.0003239  -0.0004333
   22   0.0003240   0.0006704  -0.0006037   0.1106612  -0.1147056   0.0003492
   23  -0.0001572   0.0004412  -0.0003239  -0.1147056   0.2838914  -0.0197733
   24  -0.0000422   0.0009097  -0.0004333   0.0003492  -0.0197733   0.0363689
   25  -0.0001983  -0.0003238   0.0003446   0.0010184   0.0002304  -0.0000778
   26  -0.0000200   0.0000359  -0.0000465  -0.0004749   0.0006530   0.0001030
   27  -0.0001220  -0.0000518  -0.0001648  -0.0001894  -0.0005109  -0.0000507
   28   0.0000346   0.0000198  -0.0000036  -0.0004816  -0.0001610   0.0000535
   29   0.0000211   0.0001892  -0.0000966   0.0015427   0.0000152  -0.0004113
   30   0.0002402  -0.0001589  -0.0000862   0.0000159   0.0002453   0.0000484
   31  -0.0002431   0.0007154   0.0002155   0.0002651   0.0001662  -0.0000638
   32   0.0000433   0.0000061  -0.0001017   0.0000010  -0.0000243  -0.0001159
   33   0.0001038  -0.0003166  -0.0003098  -0.0003874  -0.0001685  -0.0002171
   34   0.0078689  -0.0063123  -0.0249088   0.0039944   0.0011781  -0.0076545
   35   0.0002614  -0.0015048  -0.0048899  -0.0075955  -0.0154311   0.0267057
   36   0.0021868   0.0033996  -0.0105334  -0.0026481   0.0013159  -0.0023039
   37   0.0009648   0.0007805   0.0011806   0.0003778  -0.0000662  -0.0004749
   38  -0.0003861   0.0012738   0.0002291  -0.0000640  -0.0000380  -0.0004469
   39  -0.0006468   0.0000284   0.0021190   0.0003398   0.0000684  -0.0001663
           25          26          27          28          29          30
    1  -0.0040081   0.0006098   0.0000080   0.0010940   0.0002232   0.0011359
    2  -0.0013897   0.0007559  -0.0047764  -0.0007865  -0.0012687  -0.0014517
    3   0.0011864   0.0003451  -0.0003166   0.0001618   0.0002607  -0.0001673
    4  -0.0062966   0.0034836   0.0037112   0.0022967   0.0012061   0.0027684
    5  -0.0215460   0.0048242   0.0080781   0.0027144  -0.0047501   0.0005865
    6   0.0066248  -0.0017423   0.0037350   0.0008444   0.0009691   0.0077872
    7  -0.1245693  -0.1164895   0.0384728  -0.0084902   0.0290257   0.0024236
    8  -0.1182389  -0.2603219   0.0569483  -0.0014267   0.0025392  -0.0045810
    9   0.0392152   0.0557143  -0.0438398   0.0031393  -0.0073448   0.0031068
   10   0.0112670  -0.0170051  -0.0013525  -0.3216034   0.0310160   0.0656078
   11   0.0116835  -0.0174856  -0.0033521   0.0330314  -0.0624380   0.0040047
   12  -0.0019568   0.0065761   0.0064173   0.0654570  -0.0041429  -0.0491427
   13   0.0007004   0.0048881   0.0037284  -0.0133268  -0.0242166   0.0006593
   14   0.0037665  -0.0030873  -0.0001749   0.0047727   0.0093547  -0.0068445
   15   0.0021986   0.0001340   0.0079484   0.0021026   0.0044357   0.0007887
   16  -0.0005061   0.0001530  -0.0020251  -0.0004326  -0.0044073   0.0022608
   17   0.0013424   0.0002784   0.0019212  -0.0031281  -0.0035022   0.0013136
   18  -0.0003757  -0.0001737  -0.0039026   0.0015659   0.0015973   0.0012996
   19  -0.0001983  -0.0000200  -0.0001220   0.0000346   0.0000211   0.0002402
   20  -0.0003238   0.0000359  -0.0000518   0.0000198   0.0001892  -0.0001589
   21   0.0003446  -0.0000465  -0.0001648  -0.0000036  -0.0000966  -0.0000862
   22   0.0010184  -0.0004749  -0.0001894  -0.0004816   0.0015427   0.0000159
   23   0.0002304   0.0006530  -0.0005109  -0.0001610   0.0000152   0.0002453
   24  -0.0000778   0.0001030  -0.0000507   0.0000535  -0.0004113   0.0000484
   25   0.1242519   0.1252681  -0.0438064   0.0005897  -0.0007613  -0.0015269
   26   0.1252681   0.2738002  -0.0597894   0.0000575   0.0010400  -0.0007080
   27  -0.0438064  -0.0597894   0.0355785  -0.0012336  -0.0004389  -0.0049384
   28   0.0005897   0.0000575  -0.0012336   0.3397966  -0.0345888  -0.0713842
   29  -0.0007613   0.0010400  -0.0004389  -0.0345888   0.0591979   0.0061524
   30  -0.0015269  -0.0007080  -0.0049384  -0.0713842   0.0061524   0.0404647
   31   0.0003695  -0.0010429  -0.0002797   0.0004108   0.0006947  -0.0004590
   32   0.0005782  -0.0009686  -0.0004828  -0.0005458   0.0003660  -0.0006303
   33  -0.0003526   0.0001738   0.0002147  -0.0007198  -0.0005489  -0.0015118
   34  -0.0023432   0.0005521   0.0031653   0.0002093   0.0002002  -0.0013542
   35  -0.0003286   0.0003648   0.0022292   0.0000445  -0.0008135   0.0019421
   36  -0.0012921  -0.0006157  -0.0005855   0.0000934  -0.0004205   0.0025277
   37  -0.0002754   0.0000201  -0.0000770  -0.0000972   0.0000442  -0.0003875
   38  -0.0002809   0.0001109   0.0004003  -0.0000035   0.0000702   0.0001298
   39  -0.0001814   0.0000295  -0.0000955  -0.0000768  -0.0000111  -0.0001768
           31          32          33          34          35          36
    1  -0.0040400  -0.0020632  -0.0014985  -0.0389475  -0.0474345  -0.1062039
    2   0.0010537   0.0021938   0.0004195  -0.0075541   0.0244275  -0.0750094
    3   0.0012747  -0.0002317   0.0030500  -0.0147181  -0.0938213  -0.3298530
    4  -0.0004095   0.0000279   0.0014867  -0.0688961  -0.0371160   0.0910207
    5   0.0004015   0.0004753  -0.0001359  -0.0335720  -0.1170695   0.1005076
    6   0.0000560   0.0000716  -0.0005382   0.0573573   0.0513565  -0.1094648
    7  -0.0026327  -0.0044020  -0.0005122  -0.0139704  -0.0182953  -0.0013385
    8  -0.0026696  -0.0011203   0.0052197  -0.0176372   0.0175128   0.0134704
    9   0.0014307   0.0024893   0.0034170   0.0221078   0.0031114  -0.0038536
   10   0.0111221   0.0118271  -0.0044556   0.0048929  -0.0049403  -0.0016387
   11  -0.0172279  -0.0174360  -0.0035658   0.0066724  -0.0374957  -0.0221607
   12   0.0017647   0.0033581   0.0055358  -0.0031738   0.0028510   0.0066296
   13  -0.0896342   0.0994410  -0.0058813  -0.0411556   0.0966889   0.0493867
   14   0.0976440  -0.2876718   0.0543016   0.0099236   0.0101644   0.0070838
   15  -0.0103959   0.0469445  -0.0399075   0.0190090  -0.0272598  -0.0189791
   16  -0.0257310   0.0036849  -0.0036090   0.0179183  -0.0654164  -0.0217750
   17   0.0301313   0.0042045   0.0012990  -0.0466868   0.0432171   0.0180926
   18  -0.0046749  -0.0002488   0.0052550  -0.0362074   0.0909772   0.0308560
   19  -0.0002431   0.0000433   0.0001038   0.0078689   0.0002614   0.0021868
   20   0.0007154   0.0000061  -0.0003166  -0.0063123  -0.0015048   0.0033996
   21   0.0002155  -0.0001017  -0.0003098  -0.0249088  -0.0048899  -0.0105334
   22   0.0002651   0.0000010  -0.0003874   0.0039944  -0.0075955  -0.0026481
   23   0.0001662  -0.0000243  -0.0001685   0.0011781  -0.0154311   0.0013159
   24  -0.0000638  -0.0001159  -0.0002171  -0.0076545   0.0267057  -0.0023039
   25   0.0003695   0.0005782  -0.0003526  -0.0023432  -0.0003286  -0.0012921
   26  -0.0010429  -0.0009686   0.0001738   0.0005521   0.0003648  -0.0006157
   27  -0.0002797  -0.0004828   0.0002147   0.0031653   0.0022292  -0.0005855
   28   0.0004108  -0.0005458  -0.0007198   0.0002093   0.0000445   0.0000934
   29   0.0006947   0.0003660  -0.0005489   0.0002002  -0.0008135  -0.0004205
   30  -0.0004590  -0.0006303  -0.0015118  -0.0013542   0.0019421   0.0025277
   31   0.1104542  -0.1089488   0.0127570  -0.0000618  -0.0009861  -0.0016921
   32  -0.1089488   0.3004966  -0.0509121   0.0002054  -0.0004068  -0.0001421
   33   0.0127570  -0.0509121   0.0274847   0.0028939  -0.0053074  -0.0025389
   34  -0.0000618   0.0002054   0.0028939   0.2088737   0.1171858  -0.1485577
   35  -0.0009861  -0.0004068  -0.0053074   0.1171858   0.1059681  -0.0718269
   36  -0.0016921  -0.0001421  -0.0025389  -0.1485577  -0.0718269   0.7468758
   37   0.0001306   0.0001510   0.0001750  -0.0783829  -0.0320680   0.1424584
   38   0.0000684  -0.0001144  -0.0004583  -0.0241550  -0.0289333   0.0263056
   39   0.0000668   0.0000020   0.0000661   0.1320413   0.0239322  -0.3087770
           37          38          39
    1   0.0097699   0.0050538   0.0111844
    2   0.0019126  -0.0054405   0.0019924
    3  -0.0143130  -0.0047895  -0.0106155
    4  -0.0050464  -0.0018824  -0.0045428
    5   0.0043649   0.0032772  -0.0022757
    6  -0.0004616   0.0073796  -0.0013985
    7   0.0011189   0.0003430  -0.0002936
    8   0.0001110   0.0023849  -0.0011823
    9   0.0024916   0.0002640   0.0015182
   10  -0.0019428  -0.0003277  -0.0002961
   11   0.0004629  -0.0035359  -0.0001045
   12   0.0001903   0.0004651  -0.0000227
   13   0.0006362   0.0041677   0.0007718
   14  -0.0016219   0.0027095   0.0005265
   15   0.0010837   0.0002872   0.0015384
   16  -0.0043315  -0.0050018  -0.0034346
   17   0.0034406   0.0056994   0.0032435
   18   0.0030666  -0.0035166  -0.0015835
   19   0.0009648  -0.0003861  -0.0006468
   20   0.0007805   0.0012738   0.0000284
   21   0.0011806   0.0002291   0.0021190
   22   0.0003778  -0.0000640   0.0003398
   23  -0.0000662  -0.0000380   0.0000684
   24  -0.0004749  -0.0004469  -0.0001663
   25  -0.0002754  -0.0002809  -0.0001814
   26   0.0000201   0.0001109   0.0000295
   27  -0.0000770   0.0004003  -0.0000955
   28  -0.0000972  -0.0000035  -0.0000768
   29   0.0000442   0.0000702  -0.0000111
   30  -0.0003875   0.0001298  -0.0001768
   31   0.0001306   0.0000684   0.0000668
   32   0.0001510  -0.0001144   0.0000020
   33   0.0001750  -0.0004583   0.0000661
   34  -0.0783829  -0.0241550   0.1320413
   35  -0.0320680  -0.0289333   0.0239322
   36   0.1424584   0.0263056  -0.3087770
   37   0.0770781   0.0224683  -0.1349322
   38   0.0224683   0.0225360  -0.0262493
   39  -0.1349322  -0.0262493   0.3175942
 Gradient time:  CPU 536.05 s  wall 605.52 s
 **********************************************************************
 **                                                                  **
 **                       VIBRATIONAL ANALYSIS                       **
 **                       --------------------                       **
 **                                                                  **
 **        VIBRATIONAL FREQUENCIES (CM**-1) AND NORMAL MODES         **
 **     FORCE CONSTANTS (mDYN/ANGSTROM) AND REDUCED MASSES (AMU)     **
 **                  INFRARED INTENSITIES (KM/MOL)                   **
 **                                                                  **
 **********************************************************************
 

 Mode:                 1                      2                      3
 Frequency:      -719.09                 316.93                 335.11
 Force Cnst:      2.6526                 0.1704                 0.1573
 Red. Mass:       8.7068                 2.8798                 2.3768
 IR Active:          YES                    YES                    YES
 IR Intens:       36.538                  3.094                  4.755
 Raman Active:       YES                    YES                    YES
               X      Y      Z        X      Y      Z        X      Y      Z
 C         -0.095  0.137 -0.213   -0.011  0.071 -0.026   -0.114 -0.037  0.064
 C         -0.002 -0.043 -0.046    0.036  0.006  0.106   -0.040 -0.004 -0.149
 C         -0.009  0.038 -0.011   -0.054 -0.005 -0.190   -0.001  0.018 -0.007
 C          0.007 -0.059  0.001    0.002  0.004  0.092    0.036  0.016  0.200
 C          0.105  0.060 -0.035    0.001  0.032  0.200   -0.031  0.004 -0.086
 N         -0.141  0.288  0.426   -0.044  0.020 -0.182   -0.038 -0.003 -0.048
 H         -0.113  0.105 -0.152   -0.060  0.153  0.047   -0.237 -0.062  0.247
 H         -0.022 -0.038  0.291    0.046  0.021  0.294   -0.071 -0.020 -0.147
 H          0.007  0.034  0.043   -0.181 -0.040 -0.604    0.054  0.023  0.139
 H          0.027 -0.022  0.063   -0.009 -0.019  0.053    0.094  0.014  0.458
 H         -0.087 -0.050 -0.251   -0.026  0.060  0.416   -0.072 -0.047 -0.272
 C          0.183 -0.452 -0.170    0.082 -0.119  0.011    0.163  0.027 -0.015
 H         -0.114 -0.232 -0.265    0.176 -0.325  0.032    0.595 -0.161  0.160
 TransDip  -0.179  0.002  0.074   -0.034 -0.026  0.037   -0.001 -0.015  0.068

 Mode:                 4                      5                      6
 Frequency:       466.83                 526.63                 583.73
 Force Cnst:      0.1743                 0.5334                 0.7500
 Red. Mass:       1.3572                 3.2643                 3.7359
 IR Active:          YES                    YES                    YES
 IR Intens:       15.032                  5.308                  5.918
 Raman Active:       YES                    YES                    YES
               X      Y      Z        X      Y      Z        X      Y      Z
 C         -0.034 -0.028 -0.020    0.056 -0.039 -0.044   -0.198  0.039  0.092
 C          0.028  0.012  0.032    0.050 -0.031 -0.078    0.008 -0.202 -0.086
 C          0.026 -0.006  0.021    0.098  0.146  0.098    0.118 -0.065 -0.043
 C          0.013 -0.015 -0.059   -0.148  0.071 -0.133    0.219  0.016 -0.115
 C          0.008  0.026  0.029   -0.115  0.052  0.126    0.010  0.165  0.029
 N          0.003  0.017  0.045   -0.112 -0.140 -0.015   -0.024  0.072 -0.066
 H          0.059 -0.020 -0.171   -0.029  0.025  0.085   -0.244  0.005  0.163
 H          0.054  0.024 -0.019   -0.098 -0.103 -0.068    0.168 -0.117  0.014
 H          0.025  0.001  0.044    0.245  0.164  0.493    0.070  0.086  0.425
 H          0.001 -0.033 -0.102   -0.144 -0.068 -0.041    0.270 -0.071  0.152
 H         -0.001  0.024  0.046    0.079  0.219  0.576   -0.018  0.224  0.444
 C         -0.113  0.046 -0.057    0.173 -0.051 -0.036   -0.129 -0.063  0.093
 H          0.667 -0.647  0.226    0.142 -0.037 -0.051   -0.224  0.167  0.076
 TransDip   0.050 -0.067  0.092    0.021  0.019  0.068    0.030  0.023  0.068

 Mode:                 7                      8                      9
 Frequency:       614.31                 676.29                 730.42
 Force Cnst:      0.7351                 0.5577                 0.6298
 Red. Mass:       3.3060                 2.0697                 2.0034
 IR Active:          YES                    YES                    YES
 IR Intens:       10.351                 24.095                 46.423
 Raman Active:       YES                    YES                    YES
               X      Y      Z        X      Y      Z        X      Y      Z
 C          0.006  0.093 -0.015   -0.150 -0.091 -0.019   -0.111 -0.078 -0.021
 C         -0.166  0.098 -0.063    0.001  0.027  0.014    0.060  0.106  0.137
 C         -0.148 -0.146  0.094    0.046 -0.019  0.189   -0.012  0.010 -0.088
 C         -0.041 -0.094 -0.110    0.038 -0.006 -0.024   -0.007 -0.005  0.002
 C          0.099 -0.114  0.064    0.032  0.021  0.066    0.023 -0.034 -0.086
 N          0.121  0.136 -0.084    0.004  0.032 -0.045    0.017 -0.059  0.040
 H         -0.091 -0.019  0.143   -0.294 -0.203  0.205   -0.164 -0.157  0.063
 H         -0.080  0.141 -0.018    0.086  0.074  0.082    0.197  0.198  0.455
 H          0.077 -0.146  0.590   -0.179 -0.068 -0.496    0.147  0.012  0.265
 H          0.028  0.154  0.069   -0.085 -0.020 -0.566    0.087  0.044  0.389
 H          0.041 -0.057  0.548   -0.046 -0.036 -0.062    0.139  0.102  0.414
 C          0.098  0.008  0.014    0.067  0.028 -0.098   -0.011  0.024 -0.118
 H          0.147 -0.101  0.021    0.047  0.296 -0.084    0.040  0.333 -0.064
 TransDip   0.022 -0.009  0.100   -0.104 -0.034 -0.112    0.011  0.071  0.206

 Mode:                10                     11                     12
 Frequency:       795.71                 823.27                 890.65
 Force Cnst:      0.5757                 0.5460                 1.9456
 Red. Mass:       1.5434                 1.3673                 4.1629
 IR Active:          YES                    YES                    YES
 IR Intens:        7.832                 10.847                  6.952
 Raman Active:       YES                    YES                    YES
               X      Y      Z        X      Y      Z        X      Y      Z
 C          0.036  0.023 -0.016   -0.003  0.028 -0.041    0.141 -0.244 -0.084
 C         -0.010 -0.058 -0.011    0.029 -0.110  0.023    0.046 -0.116  0.151
 C         -0.015 -0.019  0.076   -0.094 -0.043  0.009   -0.067 -0.084 -0.009
 C          0.026  0.026  0.041   -0.007  0.023 -0.008   -0.047 -0.039 -0.023
 C         -0.037 -0.027 -0.169    0.013  0.028  0.047   -0.161  0.178 -0.023
 N         -0.018  0.014  0.038   -0.014 -0.011 -0.009    0.031  0.237 -0.029
 H          0.108  0.118 -0.133    0.220  0.153 -0.387   -0.013 -0.484  0.175
 H         -0.028 -0.074 -0.103    0.074 -0.078  0.156   -0.002 -0.162 -0.161
 H         -0.236 -0.025 -0.436   -0.157  0.036  0.191   -0.142 -0.011  0.126
 H          0.019  0.070 -0.016   -0.002  0.103 -0.016    0.022 -0.209  0.403
 H          0.085  0.185  0.754   -0.014 -0.026 -0.204   -0.274  0.136 -0.032
 C          0.013  0.011  0.022    0.031  0.023 -0.017    0.097  0.101 -0.006
 H          0.141  0.050  0.084    0.432  0.599  0.221   -0.155 -0.144 -0.156
 TransDip   0.026  0.086  0.005    0.074  0.072  0.022   -0.027 -0.072  0.035

 Mode:                13                     14                     15
 Frequency:       923.25                 927.29                 975.43
 Force Cnst:      0.7383                 1.0535                 1.1069
 Red. Mass:       1.4701                 2.0795                 1.9745
 IR Active:          YES                    YES                    YES
 IR Intens:        0.976                  5.772                  8.379
 Raman Active:       YES                    YES                    YES
               X      Y      Z        X      Y      Z        X      Y      Z
 C         -0.019 -0.000  0.034   -0.016 -0.045  0.025   -0.024 -0.069  0.027
 C         -0.023  0.024 -0.030   -0.017 -0.016 -0.051   -0.106  0.151  0.106
 C          0.064  0.049  0.071    0.097  0.090 -0.061    0.033 -0.015 -0.034
 C         -0.075 -0.050 -0.110   -0.097 -0.011  0.101    0.132 -0.042 -0.015
 C          0.017  0.005  0.025   -0.046 -0.060 -0.024   -0.024  0.055 -0.000
 N          0.035  0.019 -0.023    0.093  0.130 -0.042   -0.056 -0.018 -0.013
 H          0.121 -0.068 -0.180    0.170 -0.387 -0.246    0.264  0.090 -0.425
 H         -0.068  0.008  0.066   -0.057 -0.015  0.259   -0.470 -0.064 -0.512
 H         -0.013 -0.048 -0.478    0.338 -0.002  0.106    0.173 -0.058  0.076
 H          0.115 -0.110  0.761   -0.241 -0.203 -0.433    0.099 -0.167 -0.115
 H          0.022 -0.016 -0.118   -0.060 -0.034  0.176   -0.118  0.025  0.063
 C         -0.027 -0.044  0.024   -0.056 -0.077  0.053    0.053 -0.064  0.003
 H          0.091  0.168  0.104    0.182  0.273  0.205    0.076  0.226  0.048
 TransDip  -0.004 -0.023  0.022    0.030 -0.070  0.009    0.004 -0.018 -0.091

 Mode:                16                     17                     18
 Frequency:      1008.81                1010.38                1050.75
 Force Cnst:      1.0671                 1.3230                 1.2710
 Red. Mass:       1.7796                 2.1995                 1.9538
 IR Active:          YES                    YES                    YES
 IR Intens:        5.704                  8.448                  1.298
 Raman Active:       YES                    YES                    YES
               X      Y      Z        X      Y      Z        X      Y      Z
 C          0.032  0.033 -0.085    0.138  0.060 -0.115    0.034  0.078 -0.004
 C         -0.020 -0.074  0.113   -0.174  0.035 -0.030    0.043  0.034  0.016
 C          0.055  0.095 -0.032    0.037 -0.026  0.000   -0.024 -0.090  0.007
 C          0.016  0.012 -0.026    0.120 -0.018 -0.015   -0.106 -0.037  0.052
 C          0.044 -0.138  0.017   -0.084  0.063 -0.002    0.008  0.158 -0.030
 N         -0.023  0.046 -0.004   -0.019 -0.082  0.036    0.075 -0.047  0.004
 H         -0.351  0.026  0.493   -0.114 -0.384  0.306   -0.223  0.060  0.392
 H         -0.351 -0.266 -0.368   -0.055  0.144  0.661    0.034 -0.007 -0.450
 H         -0.004  0.144  0.002   -0.025 -0.005 -0.075    0.181 -0.231 -0.041
 H          0.061  0.098  0.088    0.095 -0.224 -0.036   -0.170 -0.265 -0.057
 H         -0.078 -0.199  0.013   -0.087  0.046 -0.086    0.304  0.296 -0.050
 C         -0.058  0.014 -0.013   -0.019  0.006  0.041   -0.072 -0.097 -0.040
 H          0.241  0.261  0.143    0.230  0.121  0.162    0.219  0.261  0.126
 TransDip  -0.007 -0.012  0.075    0.036  0.040  0.076    0.009  0.033 -0.013

 Mode:                19                     20                     21
 Frequency:      1113.48                1160.17                1193.16
 Force Cnst:      1.2356                 0.9574                 1.4035
 Red. Mass:       1.6915                 1.2073                 1.6733
 IR Active:          YES                    YES                    YES
 IR Intens:        2.534                  4.243                  8.222
 Raman Active:       YES                    YES                    YES
               X      Y      Z        X      Y      Z        X      Y      Z
 C          0.061 -0.008  0.033   -0.014 -0.016 -0.040    0.098 -0.117  0.103
 C          0.097  0.092 -0.044   -0.033 -0.042  0.019    0.018  0.033 -0.071
 C         -0.039 -0.038  0.015    0.041 -0.061 -0.005   -0.027  0.007  0.012
 C          0.040  0.075 -0.027   -0.033  0.041  0.002    0.023 -0.016 -0.006
 C         -0.068 -0.033  0.018    0.017  0.030 -0.002   -0.023  0.021  0.002
 N         -0.050  0.011 -0.007   -0.028  0.002  0.007    0.008  0.044 -0.004
 H          0.042 -0.485  0.093   -0.022  0.050 -0.036   -0.036  0.741  0.276
 H          0.295  0.168 -0.269   -0.163 -0.098  0.139   -0.214 -0.056  0.367
 H         -0.031 -0.053 -0.019    0.619 -0.444 -0.174    0.048 -0.042 -0.010
 H          0.113  0.572  0.037    0.024  0.548  0.004    0.028  0.077 -0.031
 H         -0.298 -0.134  0.026    0.057  0.045 -0.048   -0.285 -0.081  0.065
 C         -0.053 -0.119  0.013    0.014  0.040  0.027   -0.068 -0.045 -0.091
 H          0.122  0.145  0.126   -0.029 -0.047 -0.000    0.093  0.129 -0.009
 TransDip   0.041 -0.030 -0.007    0.058  0.026 -0.016   -0.042  0.013  0.080

 Mode:                22                     23                     24
 Frequency:      1253.31                1282.59                1384.43
 Force Cnst:      4.0163                 1.4734                 1.6353
 Red. Mass:       4.3397                 1.5202                 1.4481
 IR Active:          YES                    YES                    YES
 IR Intens:        8.277                  5.361                  1.620
 Raman Active:       YES                    YES                    YES
               X      Y      Z        X      Y      Z        X      Y      Z
 C         -0.104  0.155  0.022   -0.013 -0.099 -0.112    0.004 -0.029  0.006
 C         -0.057 -0.069  0.071   -0.085  0.007  0.011   -0.033  0.032  0.002
 C          0.065 -0.044 -0.016    0.030  0.019 -0.013    0.108 -0.067 -0.025
 C          0.011  0.108 -0.013   -0.008  0.045 -0.003   -0.006 -0.012  0.006
 C         -0.276 -0.017  0.035   -0.014 -0.020  0.008   -0.113 -0.049  0.033
 N          0.319 -0.084  0.068    0.029  0.006  0.014    0.011  0.049 -0.001
 H         -0.009  0.163 -0.118   -0.121  0.503  0.000    0.003  0.142 -0.001
 H         -0.089 -0.099 -0.123    0.666  0.371 -0.233   -0.068  0.021  0.036
 H         -0.023 -0.005 -0.062    0.093 -0.015 -0.030   -0.353  0.229  0.079
 H          0.035  0.170  0.083   -0.014 -0.084  0.033    0.038  0.391 -0.016
 H         -0.697 -0.222  0.020   -0.084 -0.058 -0.018    0.695  0.274 -0.191
 C          0.059 -0.025 -0.144    0.010 -0.024  0.103   -0.001 -0.022 -0.013
 H         -0.047 -0.118 -0.226    0.029  0.045  0.136    0.025  0.023  0.002
 TransDip  -0.060  0.002 -0.070    0.053 -0.020 -0.048    0.010  0.039 -0.006

 Mode:                25                     26                     27
 Frequency:      1419.51                1457.21                1565.20
 Force Cnst:      2.9920                 3.3498                 5.4729
 Red. Mass:       2.5202                 2.6775                 3.7916
 IR Active:          YES                    YES                    YES
 IR Intens:        8.525                  3.641                  3.971
 Raman Active:       YES                    YES                    YES
               X      Y      Z        X      Y      Z        X      Y      Z
 C         -0.077 -0.030 -0.162   -0.066 -0.034 -0.113   -0.012  0.022 -0.004
 C          0.116  0.090 -0.050    0.165  0.077 -0.060    0.025 -0.062  0.002
 C          0.029  0.005 -0.004   -0.123 -0.041  0.039   -0.205  0.278  0.039
 C         -0.053 -0.158  0.029    0.092  0.170 -0.040    0.149 -0.273 -0.011
 C          0.023  0.102 -0.025   -0.106 -0.110  0.033   -0.156 -0.000  0.024
 N          0.073 -0.059  0.012    0.045  0.028  0.016    0.069 -0.005 -0.005
 H         -0.192  0.127 -0.048   -0.159  0.108 -0.026   -0.025  0.002  0.014
 H         -0.393 -0.147  0.098   -0.423 -0.210  0.138    0.255  0.043 -0.113
 H         -0.357  0.254  0.095    0.190 -0.253 -0.049    0.469 -0.119 -0.133
 H         -0.009  0.463 -0.064    0.041 -0.551  0.087    0.230  0.343 -0.129
 H         -0.394 -0.055  0.087    0.347  0.047 -0.111    0.412  0.228 -0.077
 C         -0.005  0.008  0.170   -0.011 -0.019  0.108    0.007 -0.000 -0.007
 H         -0.069 -0.020  0.180   -0.049 -0.038  0.120   -0.012 -0.001 -0.019
 TransDip  -0.052  0.072 -0.029   -0.013 -0.054 -0.026   -0.062  0.016 -0.001

 Mode:                28                     29                     30
 Frequency:      3110.43                3180.43                3183.09
 Force Cnst:      6.1911                 6.4877                 6.5131
 Red. Mass:       1.0861                 1.0886                 1.0910
 IR Active:          YES                    YES                    YES
 IR Intens:       18.406                 19.509                 10.771
 Raman Active:       YES                    YES                    YES
               X      Y      Z        X      Y      Z        X      Y      Z
 C         -0.003  0.001 -0.001   -0.051 -0.003 -0.035   -0.052 -0.002 -0.035
 C          0.039 -0.075  0.004    0.001  0.002 -0.000    0.000  0.004 -0.001
 C          0.001  0.005 -0.001   -0.005 -0.008  0.002    0.006  0.009 -0.002
 C         -0.001  0.001  0.000    0.027 -0.004 -0.006   -0.031  0.005  0.007
 C         -0.000 -0.000  0.000   -0.020  0.047 -0.008    0.019 -0.045  0.007
 N          0.000  0.001 -0.000    0.000 -0.000 -0.000    0.002 -0.001 -0.000
 H          0.032 -0.001  0.023    0.583  0.024  0.382    0.588  0.024  0.384
 H         -0.441  0.887 -0.059    0.003 -0.013 -0.001    0.016 -0.040 -0.000
 H         -0.034 -0.064  0.015    0.058  0.100 -0.027   -0.063 -0.109  0.028
 H          0.008 -0.002 -0.001   -0.325  0.041  0.073    0.374 -0.047 -0.084
 H         -0.002  0.005 -0.000    0.248 -0.554  0.095   -0.231  0.516 -0.089
 C         -0.000 -0.001  0.000    0.001  0.001 -0.000    0.001  0.002 -0.001
 H          0.001 -0.000 -0.006   -0.015 -0.004  0.039   -0.021 -0.006  0.054
 TransDip   0.063 -0.122  0.007   -0.111  0.060 -0.065   -0.092 -0.031 -0.040

 Mode:                31                     32                     33
 Frequency:      3194.73                3211.40                3300.93
 Force Cnst:      6.5473                 6.6707                 7.0638
 Red. Mass:       1.0888                 1.0978                 1.1003
 IR Active:          YES                    YES                    YES
 IR Intens:       18.325                 13.315                  5.458
 Raman Active:       YES                    YES                    YES
               X      Y      Z        X      Y      Z        X      Y      Z
 C          0.004 -0.001  0.002    0.002  0.000  0.001    0.007  0.002  0.008
 C         -0.002  0.004 -0.000    0.004 -0.004 -0.001   -0.003 -0.004  0.002
 C          0.026  0.042 -0.011   -0.031 -0.060  0.014   -0.001 -0.002  0.000
 C         -0.052  0.004  0.012   -0.053  0.009  0.012    0.000  0.000 -0.000
 C         -0.016  0.040 -0.007   -0.005  0.018 -0.003   -0.001  0.001  0.000
 N         -0.000 -0.000 -0.000   -0.000  0.000  0.000   -0.000 -0.000 -0.001
 H         -0.036 -0.001 -0.024   -0.016 -0.001 -0.010   -0.053 -0.005 -0.030
 H          0.021 -0.039  0.001   -0.027  0.046 -0.001   -0.002  0.007  0.000
 H         -0.295 -0.507  0.134    0.375  0.654 -0.170    0.006  0.010 -0.003
 H          0.597 -0.067 -0.135    0.574 -0.070 -0.129    0.000  0.000 -0.001
 H          0.199 -0.451  0.078    0.076 -0.181  0.030    0.004 -0.009  0.002
 C          0.000 -0.000 -0.000   -0.000 -0.000  0.001    0.035  0.010 -0.083
 H          0.000  0.001 -0.000    0.006  0.001 -0.013   -0.410 -0.092  0.901
 TransDip  -0.073  0.116  0.005   -0.108 -0.037  0.026   -0.053 -0.002  0.052

 STANDARD THERMODYNAMIC QUANTITIES AT   298.15 K  AND     1.00 ATM

   This Molecule has  1 Imaginary Frequencies
   Zero point vibrational energy:       62.423 kcal/mol

   Atom    1 Element C  Has Mass   12.00000
   Atom    2 Element C  Has Mass   12.00000
   Atom    3 Element C  Has Mass   12.00000
   Atom    4 Element C  Has Mass   12.00000
   Atom    5 Element C  Has Mass   12.00000
   Atom    6 Element N  Has Mass   14.00307
   Atom    7 Element H  Has Mass    1.00783
   Atom    8 Element H  Has Mass    1.00783
   Atom    9 Element H  Has Mass    1.00783
   Atom   10 Element H  Has Mass    1.00783
   Atom   11 Element H  Has Mass    1.00783
   Atom   12 Element C  Has Mass   12.00000
   Atom   13 Element H  Has Mass    1.00783
   Molecular Mass:    92.050050 amu
   Principal axes and moments of inertia in amu*Bohr^2:
                             1           2           3
    Eigenvalues --      366.72117   475.98949   722.29627
          X               0.95871     0.07991     0.27291
          Y              -0.08000     0.99674    -0.01080
          Z              -0.27289    -0.01148     0.96198
   Rotational Symmetry Number is   1
   The Molecule is an Asymmetric Top
   Translational Enthalpy:        0.889 kcal/mol
   Rotational Enthalpy:           0.889 kcal/mol
   Vibrational Enthalpy:         63.889 kcal/mol
   gas constant (RT):             0.592 kcal/mol
   Translational Entropy:        39.471  cal/mol.K
   Rotational Entropy:           26.336  cal/mol.K
   Vibrational Entropy:           6.842  cal/mol.K

   Total Enthalpy:               66.259 kcal/mol
   Total Entropy:                72.649  cal/mol.K
Archival summary:
1\1\c8-68\FREQ\ProcedureUnspecified\6-31+G**\166(2)\hpark21\TueMar114:35:542022TueMar114:35:542022\0\\#,FREQ,ProcedureUnspecified,6-31+G**,\\0,2\N\C,1,1.36506\H,2,1.08656,1,114.359\C,2,1.41632,1,124.054,3,174.91,0\H,4,1.08588,2,119.781,1,173.368,0\C,4,1.36796,2,118.134,1,-8.33193,0\H,6,1.08528,4,122.722,2,177.208,0\C,1,1.43394,2,120.597,3,172.499,0\H,8,1.08572,1,122.523,2,-131.415,0\C,8,1.42847,1,80.9946,2,91.6202,0\H,10,1.07695,8,140.513,1,94.2247,0\C,6,1.48389,4,117.652,2,-1.74134,0\H,12,1.09209,6,116.755,4,172.497,0\\\@

 Total job time:  627.33s(wall), 543.10s(cpu) 
 Tue Mar  1 14:35:54 2022

        *************************************************************
        *                                                           *
        *  Thank you very much for using Q-Chem.  Have a nice day.  *
        *                                                           *
        *************************************************************


