
Running Job 1 of 1 qcts1.in
qchem qcts1.in_46724.0 ./qcts1.d/ 1
/home/leeping/opt/qchem/5.0.2-openmp/exe/qcprog.exe_s qcts1.in_46724.0 ./qcts1.d/
Check license passed

                  Welcome to Q-Chem
     A Quantum Leap Into The Future Of Chemistry


 Q-Chem 5.0, Q-Chem, Inc., Pleasanton, CA (2017)

 Yihan Shao,  Zhengting Gan,  E. Epifanovsky,  A. T. B. Gilbert,  M. Wormit,  
 J. Kussmann,  A. W. Lange,  A. Behn,  Jia Deng,  Xintian Feng,  D. Ghosh,  
 M. Goldey,  P. R. Horn,  L. D. Jacobson,  I. Kaliman,  T. Kus,  A. Landau,  
 Jie Liu,  E. I. Proynov,  R. M. Richard,  R. P. Steele,  E. J. Sundstrom,  
 H. L. Woodcock III,  P. M. Zimmerman,  D. Zuev,  B. Albrecht,  E. Alguire,  
 S. A. Baeppler,  D. Barton,  Z. Benda,  Y. A. Bernard,  E. J. Berquist,  
 K. B. Bravaya,  H. Burton,  D. Casanova,  Chun-Min Chang,  Yunqing Chen,  
 A. Chien,  K. D. Closser,  M. P. Coons,  S. Dasgupta,  A. L. Dempwolff,  
 M. Diedenhofen,  Hainam Do,  R. G. Edgar,  Po-Tung Fang,  S. Fatehi,  
 Qingguo Feng,  J. Fosso-Tande,  Qinghui Ge,  A. Ghysels,  G. Gidofalvi,  
 J. Gomes,  J. Gonthier,  A. Gunina,  M. W. D. Hanson-Heine,  
 P. H. P. Harbach,  A. W. Hauser,  J. E. Herr,  E. G. Hohenstein,  
 Z. C. Holden,  Kerwin Hui,  T.-C. Jagau,  Hyunjun Ji,  B. Kaduk,  
 K. Khistyaev,  Jaehoon Kim,  P. Klunzinger,  K. Koh,  D. Kosenkov,  
 L. Koulias,  T. Kowalczyk,  C. M. Krauter,  A. Kunitsa,  Ka Un Lao,  
 A. Laurent,  K. V. Lawler,  Joonho Lee,  D. Lefrancois,  S. Lehtola,  
 D. S. Levine,  Yi-Pei Li,  You-Sheng Lin,  Fenglai Liu,  E. Livshits,  
 A. Luenser,  P. Manohar,  E. Mansoor,  S. F. Manzer,  Shan-Ping Mao,  
 Yuezhi Mao,  N. Mardirossian,  A. V. Marenich,  T. Markovich,  
 L. A. Martinez-Martinez,  S. A. Maurer,  N. J. Mayhall,  S. C. McKenzie,  
 J.-M. Mewes,  A. F. Morrison,  J. W. Mullinax,  K. Nanda,  
 T. S. Nguyen-Beck,  R. Olivares-Amaya,  J. A. Parkhill,  T. M. Perrine,  
 F. Plasser,  S. Prager,  A. Prociuk,  E. Ramos,  D. R. Rehn,  F. Rob,  
 M. Schneider,  N. Sergueev,  S. M. Sharada,  S. Sharma,  D. W. Small,  
 T. Stauch,  T. Stein,  Yu-Chuan Su,  A. J. W. Thom,  A. Tkatchenko,  
 T. Tsuchimochi,  L. Vogt,  O. Vydrov,  M. A. Watson,  J. Wenzel,  
 M. de Wergifosse,  T. A. Wesolowski,  A. White,  J. Witte,  A. Yamada,  
 Jun Yang,  K. Yao,  S. Yeganeh,  S. R. Yost,  Zhi-Qiang You,  A. Zech,  
 Igor Ying Zhang,  Xing Zhang,  Yan Zhao,  Ying Zhu,  B. R. Brooks,  
 G. K. L. Chan,  C. J. Cramer,  M. S. Gordon,  W. J. Hehre,  A. Klamt,  
 M. W. Schmidt,  C. D. Sherrill,  D. G. Truhlar,  A. Aspuru-Guzik,  R. Baer,  
 A. T. Bell,  N. A. Besley,  Jeng-Da Chai,  R. A. DiStasio Jr.,  A. Dreuw,  
 B. D. Dunietz,  T. R. Furlani,  Chao-Ping Hsu,  Yousung Jung,  Jing Kong,  
 D. S. Lambrecht,  WanZhen Liang,  C. Ochsenfeld,  V. A. Rassolov,  
 L. V. Slipchenko,  J. E. Subotnik,  T. Van Voorhis,  J. M. Herbert,  
 A. I. Krylov,  P. M. W. Gill,  M. Head-Gordon

 Contributors to earlier versions of Q-Chem not listed above: 
 R. D. Adamson,  B. Austin,  J. Baker,  G. J. O. Beran,  K. Brandhorst,  
 S. T. Brown,  E. F. C. Byrd,  A. K. Chakraborty,  C.-L. Cheng,  
 Siu Hung Chien,  D. M. Chipman,  D. L. Crittenden,  H. Dachsel,  
 R. J. Doerksen,  A. D. Dutoi,  L. Fusti-Molnar,  W. A. Goddard III,  
 A. Golubeva-Zadorozhnaya,  S. R. Gwaltney,  G. Hawkins,  A. Heyden,  
 S. Hirata,  G. Kedziora,  F. J. Keil,  C. Kelley,  Jihan Kim,  R. A. King,  
 R. Z. Khaliullin,  P. P. Korambath,  W. Kurlancheek,  A. M. Lee,  M. S. Lee,  
 S. V. Levchenko,  Ching Yeh Lin,  D. Liotard,  R. C. Lochan,  I. Lotan,  
 P. E. Maslen,  N. Nair,  D. P. O'Neill,  D. Neuhauser,  E. Neuscamman,  
 C. M. Oana,  R. Olson,  B. Peters,  R. Peverati,  P. A. Pieniazek,  
 Y. M. Rhee,  J. Ritchie,  M. A. Rohrdanz,  E. Rosta,  N. J. Russ,  
 H. F. Schaefer III,  N. E. Schultz,  N. Shenvi,  A. C. Simmonett,  A. Sodt,  
 D. Stuck,  K. S. Thanthiriwatte,  V. Vanovschi,  Tao Wang,  A. Warshel,  
 C. F. Williams,  Q. Wu,  X. Xu,  W. Zhang

 Please cite Q-Chem as follows:
 Y. Shao et al., Mol. Phys. 113, 184-215 (2015)
 DOI: 10.1080/00268976.2014.952696

 Q-Chem 5.0.2 for Intel X86 EM64T Linux

 Parts of Q-Chem use Armadillo 5.200.1 (Boston Tea Smuggler).
 http://arma.sourceforge.net/

 Q-Chem begins on Tue Mar  1 13:33:36 2022  

Host: 
0

     Scratch files written to ./qcts1.d//
 Dec517 15110_ 26548  26544 5633   
Processing $rem in /home/leeping/opt/qchem/5.0.2-openmp/config/preferences.
 MEM_STATIC 2000
 MEM_TOTAL  8000
 SYMMETRY   OFF
 SYM_IGNORE TRUE 

Checking the input file for inconsistencies... 	...done.

--------------------------------------------------------------
User input:
--------------------------------------------------------------
$molecule
0 2
C        1.3975604365    0.2893366516    0.2738343338
C        0.4497343520   -1.1037127110   -0.1254540174
C       -0.9499061730   -0.9863810748    0.2817100735
C       -1.5288917035    0.2579987109    0.3916347753
C       -0.7672743896    1.4013831032    0.1600493258
N        0.5816962639    1.3662840041   -0.1384866300
H        2.3767518953    0.4704674416    0.7208730377
H        0.8651829410   -2.1192075306   -0.0646654809
H       -1.5277251015   -1.8969516754    0.4555089363
H       -2.5726182870    0.3678633672    0.6749331096
H       -1.2027457204    2.3975895783    0.2075505739
C        1.0794856685   -0.1482905700   -1.0401948189
H        1.7636891343   -0.3185973487   -1.8661464787
$end

$rem
method                b3lyp
basis                 6-31g(d)
unrestricted          true
symmetry              off
sym_ignore            true
incdft                false
incfock               0
scf_convergence       6
thresh                14
jobtype               sp
scf_guess             read
scf_algorithm         diis
max_scf_cycles        100
stability_analysis    true
max_cis_cycles        100
cis_n_roots           4
$end

--------------------------------------------------------------
 ----------------------------------------------------------------
             Standard Nuclear Orientation (Angstroms)
    I     Atom           X                Y                Z
 ----------------------------------------------------------------
    1      C       1.3975604365     0.2893366516     0.2738343338
    2      C       0.4497343520    -1.1037127110    -0.1254540174
    3      C      -0.9499061730    -0.9863810748     0.2817100735
    4      C      -1.5288917035     0.2579987109     0.3916347753
    5      C      -0.7672743896     1.4013831032     0.1600493258
    6      N       0.5816962639     1.3662840041    -0.1384866300
    7      H       2.3767518953     0.4704674416     0.7208730377
    8      H       0.8651829410    -2.1192075306    -0.0646654809
    9      H      -1.5277251015    -1.8969516754     0.4555089363
   10      H      -2.5726182870     0.3678633672     0.6749331096
   11      H      -1.2027457204     2.3975895783     0.2075505739
   12      C       1.0794856685    -0.1482905700    -1.0401948189
   13      H       1.7636891343    -0.3185973487    -1.8661464787
 ----------------------------------------------------------------
 Nuclear Repulsion Energy =   272.8761598239 hartrees
 There are       25 alpha and       24 beta electrons
 Requested basis set is 6-31G(d)
 There are 40 shells and 117 basis functions

 Total QAlloc Memory Limit   8000 MB
 Mega-Array Size      1956 MB
 MEM_STATIC part      2000 MB

                       Distance Matrix (Angstroms)
             C (  1)   C (  2)   C (  3)   C (  4)   C (  5)   N (  6)
   C (  2)  1.731587
   C (  3)  2.671726  1.462376
   C (  4)  2.928990  2.456949  1.376876
   C (  5)  2.436412  2.799666  2.397827  1.393205
   N (  6)  1.412607  2.473554  2.838557  2.442111  1.382056
   H (  7)  1.091544  2.628252  3.658131  3.925251  3.326564  2.182478
   H (  8)  2.489798  1.098873  2.167446  3.404543  3.887155  3.497780
   H (  9)  3.656523  2.208414  1.092346  2.155897  3.397734  3.930801
   H ( 10)  3.991161  3.455542  2.149836  1.087057  2.143020  3.407080
   H ( 11)  3.348241  3.885962  3.394213  2.172120  1.088264  2.089872
   C ( 12)  1.421042  1.464981  2.562862  3.003138  2.693065  1.831614
   H ( 13)  2.254585  2.317950  3.524602  4.033749  3.670092  2.687144
             H (  7)   H (  8)   H (  9)   H ( 10)   H ( 11)   C ( 12)
   H (  8)  3.099730
   H (  9)  4.573842  2.458859
   H ( 10)  4.950647  4.307088  2.503864
   H ( 11)  4.097573  4.975127  4.313952  2.492947
   C ( 12)  2.273130  2.209547  3.477426  4.067670  3.639637
   H ( 13)  2.773290  2.700897  4.326048  5.072660  4.525221  1.085972

 
 A cutoff of  1.0D-14 yielded    806 shell pairs
 There are      7078 function pairs
 Smallest overlap matrix eigenvalue = 1.19E-03

 Scale SEOQF with 1.000000e-01/1.000000e-01/1.000000e-01

 Standard Electronic Orientation quadrupole field applied
 Nucleus-field energy     =     0.0000000047 hartrees
 Guess MOs from SCF MO coefficient file
 Reading MOs from coefficient file
 Reading MOs from coefficient file
 An unrestricted hybrid HF-DFT SCF calculation will be
 performed using Pulay DIIS extrapolation
 Exchange:     0.2000 Hartree-Fock + 0.0800 Slater + 0.7200 B88
 Correlation:  0.1900 VWN1RPA + 0.8100 LYP
 Using SG-1 standard quadrature grid
 SCF converges when DIIS error is below 1.0E-06
Using Q-Chem read-in guess as SCF_GUESS READ specified.

 -------------------------------------------------------
 OpenMP BLAS3 based DFT computing Module                
 -------------------------------------------------------
 ---------------------------------------
  Cycle       Energy         DIIS Error
 ---------------------------------------
    1    -286.7952934936      1.27E-09
    2    -286.7952934936      1.38E-09 Convergence criterion met
 ---------------------------------------
 <S^2> = 0.7930
 SCF time:  CPU 3.34 s  wall 8.74 s
 SCF   energy in the final basis set = -286.79529349
 Total energy in the final basis set = -286.79529349
 
 Direct TDDFT/TDA calculation will be performed
 Exchange:     0.2000 Hartree-Fock + 0.0800 Slater + 0.7200 B88
 Correlation:  0.1900 VWN1RPA + 0.8100 LYP
 Using SG-1 standard quadrature grid
 CIS energy converged when residual is below 10e- 6
 ---------------------------------------------------
 Iter    Rts Conv    Rts Left    Ttl Dev     Max Dev
 ---------------------------------------------------
   1         0           4      0.005925    0.001977
   2         0           4      0.001709    0.000630
   3         0           4      0.001020    0.000499
   4         0           4      0.000569    0.000322
   5         0           4      0.000394    0.000283
   6         0           4      0.000226    0.000186
   7         2           2      0.000079    0.000067
   8         2           2      0.000036    0.000032
   9         2           2      0.000016    0.000014
  10         3           1      0.000005    0.000004
  11         3           1      0.000002    0.000001
  12         4           0      0.000001    0.000001    Roots Converged
 ---------------------------------------------------
 
 ---------------------------------------------------
         TDDFT/TDA Excitation Energies              
 ---------------------------------------------------

 Excited state   1: excitation energy (eV) =    2.0909
 Total energy for state  1:                  -286.71845301 au
    <S**2>     :  0.8076
    Trans. Mom.:  0.2133 X   0.0655 Y  -0.2411 Z
    Strength   :     0.0055278331
    S(  1) --> V(  1) amplitude =  0.9619 alpha
    D( 23) --> S(  1) amplitude = -0.2268 beta

 Excited state   2: excitation energy (eV) =    3.3192
 Total energy for state  2:                  -286.67331628 au
    <S**2>     :  0.8145
    Trans. Mom.:  0.2520 X  -0.0269 Y  -0.0312 Z
    Strength   :     0.0053031098
    S(  1) --> V(  2) amplitude =  0.2805 alpha
    D( 24) --> S(  1) amplitude =  0.9390 beta

 Excited state   3: excitation energy (eV) =    3.6090
 Total energy for state  3:                  -286.66266418 au
    <S**2>     :  0.9796
    Trans. Mom.:  0.2147 X   0.1579 Y  -0.2074 Z
    Strength   :     0.0100865448
    D( 24) --> V(  1) amplitude =  0.2905 alpha
    S(  1) --> V(  1) amplitude =  0.1947 alpha
    D( 23) --> S(  1) amplitude =  0.8671 beta
    D( 24) --> S(  1) amplitude = -0.1571 beta

 Excited state   4: excitation energy (eV) =    3.9615
 Total energy for state  4:                  -286.64971056 au
    <S**2>     :  1.5583
    Trans. Mom.: -0.2238 X  -0.0926 Y   0.1066 Z
    Strength   :     0.0067979220
    D( 23) --> V(  1) amplitude =  0.4640 alpha
    S(  1) --> V(  2) amplitude =  0.4963 alpha
    D( 22) --> S(  1) amplitude = -0.4898 beta
    D( 23) --> S(  1) amplitude = -0.2388 beta
    D( 23) --> V(  1) amplitude =  0.4209 beta
 
 ---------------------------------------------------

 Stability analysis will be performed
 ---------------------------------------------------
 Iter    Rts Conv    Rts Left    Ttl Dev     Max Dev
 ---------------------------------------------------
   1         0           8      0.005974    0.000857
   2         0           8      0.003191    0.000814
   3         0           8      0.001656    0.000457
   4         1           7      0.000851    0.000284
   5         3           5      0.000331    0.000130
   6         3           5      0.000111    0.000042
   7         4           4      0.000035    0.000014
   8         5           3      0.000012    0.000005
   9         7           1      0.000005    0.000001
  10         8           0      0.000004    0.000001    Roots Converged
 UKS-> UKS   stable,    smallest eigenvalue:      0.0630549
 UKS->CUKS   stable,    smallest eigenvalue:      0.0763338
 ---------------------------------------------------
  SETman timing summary (seconds)
  CPU time                85.12s
  System time              0.00s
  Wall time              127.73s
 
 --------------------------------------------------------------
 
                    Orbital Energies (a.u.)
 --------------------------------------------------------------
 
 Alpha MOs
 -- Occupied --
-14.358 -10.233 -10.224 -10.222 -10.211 -10.194 -10.182  -0.966
 -0.811  -0.792  -0.650  -0.643  -0.565  -0.535  -0.485  -0.472
 -0.467  -0.403  -0.384  -0.377  -0.361  -0.285  -0.261  -0.248
 -0.156
 -- Virtual --
 -0.029   0.047   0.093   0.111   0.126   0.155   0.158   0.168
  0.185   0.202   0.244   0.280   0.292   0.307   0.396   0.429
  0.504   0.526   0.529   0.548   0.551   0.585   0.598   0.604
  0.613   0.631   0.645   0.649   0.687   0.703   0.765   0.801
  0.831   0.843   0.858   0.863   0.874   0.891   0.915   0.942
  0.986   1.043   1.062   1.091   1.175   1.204   1.238   1.363
  1.369   1.409   1.465   1.511   1.520   1.547   1.663   1.680
  1.705   1.750   1.820   1.843   1.889   1.958   1.981   2.033
  2.058   2.099   2.168   2.210   2.252   2.266   2.322   2.422
  2.437   2.476   2.503   2.564   2.574   2.630   2.636   2.678
  2.705   2.770   2.800   2.962   3.202   3.997   4.085   4.155
  4.327   4.337   4.455   4.548
 
 Beta MOs
 -- Occupied --
-14.361 -10.231 -10.225 -10.216 -10.204 -10.188 -10.185  -0.962
 -0.803  -0.786  -0.643  -0.635  -0.555  -0.530  -0.483  -0.467
 -0.460  -0.399  -0.377  -0.372  -0.351  -0.275  -0.247  -0.239
 -- Virtual --
 -0.064  -0.014   0.058   0.097   0.123   0.129   0.160   0.162
  0.174   0.188   0.205   0.249   0.287   0.297   0.313   0.401
  0.433   0.511   0.532   0.543   0.555   0.560   0.591   0.604
  0.607   0.630   0.634   0.652   0.660   0.698   0.707   0.771
  0.803   0.835   0.844   0.860   0.867   0.877   0.893   0.918
  0.944   0.995   1.045   1.064   1.095   1.180   1.210   1.242
  1.372   1.378   1.415   1.469   1.519   1.528   1.558   1.669
  1.686   1.713   1.758   1.832   1.849   1.898   1.969   1.985
  2.039   2.066   2.107   2.180   2.219   2.261   2.278   2.333
  2.427   2.448   2.483   2.513   2.570   2.581   2.638   2.642
  2.682   2.709   2.776   2.807   2.965   3.205   3.996   4.093
  4.162   4.337   4.343   4.464   4.552
 --------------------------------------------------------------
 
          Ground-State Mulliken Net Atomic Charges

     Atom                 Charge (a.u.)    Spin (a.u.)
  --------------------------------------------------------
      1 C                     0.015857       0.120080
      2 C                    -0.207159      -0.066772
      3 C                    -0.082327       0.447418
      4 C                    -0.131953      -0.202147
      5 C                     0.023132       0.471352
      6 N                    -0.399536      -0.125755
      7 H                     0.157970      -0.005986
      8 H                     0.148933       0.014065
      9 H                     0.134171      -0.021697
     10 H                     0.129931       0.009740
     11 H                     0.144411      -0.026833
     12 C                    -0.093824       0.403787
     13 H                     0.160395      -0.017251
  --------------------------------------------------------
  Sum of atomic charges =    -0.000000
  Sum of spin   charges =     1.000000

 -----------------------------------------------------------------
                    Cartesian Multipole Moments
 -----------------------------------------------------------------
    Charge (ESU x 10^10)
                -0.0000
    Dipole Moment (Debye)
         X       0.2660      Y      -1.6159      Z       0.1790
       Tot       1.6474
    Quadrupole Moments (Debye-Ang)
        XX     -35.8131     XY      -2.3538     YY     -40.0743
        XZ      -1.4919     YZ       1.4363     ZZ     -42.2045
    Octopole Moments (Debye-Ang^2)
       XXX      -0.9085    XXY      -5.2095    XYY      -7.3390
       YYY     -22.8152    XXZ       2.7129    XYZ       2.0412
       YYZ       3.5470    XZZ       2.7681    YZZ      -5.6909
       ZZZ      -0.3026
    Hexadecapole Moments (Debye-Ang^3)
      XXXX    -323.3668   XXXY       3.9759   XXYY    -104.8281
      XYYY      -9.8803   YYYY    -284.4689   XXXZ      31.8126
      XXYZ       2.1938   XYYZ      12.1133   YYYZ      -2.3696
      XXZZ     -71.6409   XYZZ       0.6141   YYZZ     -70.8620
      XZZZ      33.4588   YZZZ      -2.7610   ZZZZ    -106.9609
 -----------------------------------------------------------------
Archival summary:
1\1\c8-68\SP\ProcedureUnspecified\6-31G*\166(2)\hpark21\TueMar113:35:582022TueMar113:35:582022\0\\#,ProcedureUnspecified,6-31G*,\\0,2\N\C,1,1.38206\H,2,1.08826,1,115.04\C,2,1.39321,1,123.274,3,-179.745,0\H,4,1.08706,2,119.029,1,176.661,0\C,4,1.37688,2,119.905,1,-2.26569,0\H,6,1.09235,4,121.214,2,-179.807,0\C,1,1.41261,2,121.335,3,154.104,0\H,8,1.09154,1,120.74,2,-134.779,0\C,8,1.42104,1,80.5378,2,95.0787,0\H,10,1.08597,8,127.63,1,117.591,0\C,6,1.46238,4,119.815,2,-2.22943,0\H,12,1.09887,6,114.872,4,172.62,0\\\@

 Total job time:  141.63s(wall), 88.65s(cpu) 
 Tue Mar  1 13:35:58 2022

        *************************************************************
        *                                                           *
        *  Thank you very much for using Q-Chem.  Have a nice day.  *
        *                                                           *
        *************************************************************


