
Running Job 1 of 1 qcts1.in
qchem qcts1.in_48726.0 ./qcts1.d/ 1
/home/leeping/opt/qchem/5.0.2-openmp/exe/qcprog.exe_s qcts1.in_48726.0 ./qcts1.d/
Check license passed

                  Welcome to Q-Chem
     A Quantum Leap Into The Future Of Chemistry


 Q-Chem 5.0, Q-Chem, Inc., Pleasanton, CA (2017)

 Yihan Shao,  Zhengting Gan,  E. Epifanovsky,  A. T. B. Gilbert,  M. Wormit,  
 J. Kussmann,  A. W. Lange,  A. Behn,  Jia Deng,  Xintian Feng,  D. Ghosh,  
 M. Goldey,  P. R. Horn,  L. D. Jacobson,  I. Kaliman,  T. Kus,  A. Landau,  
 Jie Liu,  E. I. Proynov,  R. M. Richard,  R. P. Steele,  E. J. Sundstrom,  
 H. L. Woodcock III,  P. M. Zimmerman,  D. Zuev,  B. Albrecht,  E. Alguire,  
 S. A. Baeppler,  D. Barton,  Z. Benda,  Y. A. Bernard,  E. J. Berquist,  
 K. B. Bravaya,  H. Burton,  D. Casanova,  Chun-Min Chang,  Yunqing Chen,  
 A. Chien,  K. D. Closser,  M. P. Coons,  S. Dasgupta,  A. L. Dempwolff,  
 M. Diedenhofen,  Hainam Do,  R. G. Edgar,  Po-Tung Fang,  S. Fatehi,  
 Qingguo Feng,  J. Fosso-Tande,  Qinghui Ge,  A. Ghysels,  G. Gidofalvi,  
 J. Gomes,  J. Gonthier,  A. Gunina,  M. W. D. Hanson-Heine,  
 P. H. P. Harbach,  A. W. Hauser,  J. E. Herr,  E. G. Hohenstein,  
 Z. C. Holden,  Kerwin Hui,  T.-C. Jagau,  Hyunjun Ji,  B. Kaduk,  
 K. Khistyaev,  Jaehoon Kim,  P. Klunzinger,  K. Koh,  D. Kosenkov,  
 L. Koulias,  T. Kowalczyk,  C. M. Krauter,  A. Kunitsa,  Ka Un Lao,  
 A. Laurent,  K. V. Lawler,  Joonho Lee,  D. Lefrancois,  S. Lehtola,  
 D. S. Levine,  Yi-Pei Li,  You-Sheng Lin,  Fenglai Liu,  E. Livshits,  
 A. Luenser,  P. Manohar,  E. Mansoor,  S. F. Manzer,  Shan-Ping Mao,  
 Yuezhi Mao,  N. Mardirossian,  A. V. Marenich,  T. Markovich,  
 L. A. Martinez-Martinez,  S. A. Maurer,  N. J. Mayhall,  S. C. McKenzie,  
 J.-M. Mewes,  A. F. Morrison,  J. W. Mullinax,  K. Nanda,  
 T. S. Nguyen-Beck,  R. Olivares-Amaya,  J. A. Parkhill,  T. M. Perrine,  
 F. Plasser,  S. Prager,  A. Prociuk,  E. Ramos,  D. R. Rehn,  F. Rob,  
 M. Schneider,  N. Sergueev,  S. M. Sharada,  S. Sharma,  D. W. Small,  
 T. Stauch,  T. Stein,  Yu-Chuan Su,  A. J. W. Thom,  A. Tkatchenko,  
 T. Tsuchimochi,  L. Vogt,  O. Vydrov,  M. A. Watson,  J. Wenzel,  
 M. de Wergifosse,  T. A. Wesolowski,  A. White,  J. Witte,  A. Yamada,  
 Jun Yang,  K. Yao,  S. Yeganeh,  S. R. Yost,  Zhi-Qiang You,  A. Zech,  
 Igor Ying Zhang,  Xing Zhang,  Yan Zhao,  Ying Zhu,  B. R. Brooks,  
 G. K. L. Chan,  C. J. Cramer,  M. S. Gordon,  W. J. Hehre,  A. Klamt,  
 M. W. Schmidt,  C. D. Sherrill,  D. G. Truhlar,  A. Aspuru-Guzik,  R. Baer,  
 A. T. Bell,  N. A. Besley,  Jeng-Da Chai,  R. A. DiStasio Jr.,  A. Dreuw,  
 B. D. Dunietz,  T. R. Furlani,  Chao-Ping Hsu,  Yousung Jung,  Jing Kong,  
 D. S. Lambrecht,  WanZhen Liang,  C. Ochsenfeld,  V. A. Rassolov,  
 L. V. Slipchenko,  J. E. Subotnik,  T. Van Voorhis,  J. M. Herbert,  
 A. I. Krylov,  P. M. W. Gill,  M. Head-Gordon

 Contributors to earlier versions of Q-Chem not listed above: 
 R. D. Adamson,  B. Austin,  J. Baker,  G. J. O. Beran,  K. Brandhorst,  
 S. T. Brown,  E. F. C. Byrd,  A. K. Chakraborty,  C.-L. Cheng,  
 Siu Hung Chien,  D. M. Chipman,  D. L. Crittenden,  H. Dachsel,  
 R. J. Doerksen,  A. D. Dutoi,  L. Fusti-Molnar,  W. A. Goddard III,  
 A. Golubeva-Zadorozhnaya,  S. R. Gwaltney,  G. Hawkins,  A. Heyden,  
 S. Hirata,  G. Kedziora,  F. J. Keil,  C. Kelley,  Jihan Kim,  R. A. King,  
 R. Z. Khaliullin,  P. P. Korambath,  W. Kurlancheek,  A. M. Lee,  M. S. Lee,  
 S. V. Levchenko,  Ching Yeh Lin,  D. Liotard,  R. C. Lochan,  I. Lotan,  
 P. E. Maslen,  N. Nair,  D. P. O'Neill,  D. Neuhauser,  E. Neuscamman,  
 C. M. Oana,  R. Olson,  B. Peters,  R. Peverati,  P. A. Pieniazek,  
 Y. M. Rhee,  J. Ritchie,  M. A. Rohrdanz,  E. Rosta,  N. J. Russ,  
 H. F. Schaefer III,  N. E. Schultz,  N. Shenvi,  A. C. Simmonett,  A. Sodt,  
 D. Stuck,  K. S. Thanthiriwatte,  V. Vanovschi,  Tao Wang,  A. Warshel,  
 C. F. Williams,  Q. Wu,  X. Xu,  W. Zhang

 Please cite Q-Chem as follows:
 Y. Shao et al., Mol. Phys. 113, 184-215 (2015)
 DOI: 10.1080/00268976.2014.952696

 Q-Chem 5.0.2 for Intel X86 EM64T Linux

 Parts of Q-Chem use Armadillo 5.200.1 (Boston Tea Smuggler).
 http://arma.sourceforge.net/

 Q-Chem begins on Tue Mar  1 13:55:24 2022  

Host: 
0

     Scratch files written to ./qcts1.d//
 Dec517 15110_ 26548  26544 5633   
Processing $rem in /home/leeping/opt/qchem/5.0.2-openmp/config/preferences.
 MEM_STATIC 2000
 MEM_TOTAL  8000
 SYMMETRY   OFF
 SYM_IGNORE TRUE 

Checking the input file for inconsistencies... 	...done.

--------------------------------------------------------------
User input:
--------------------------------------------------------------
$molecule
0 2
C        1.3708855104    0.1672357669    0.2914382142
C        0.4829170509   -1.0452792743   -0.0822900633
C       -0.9425659260   -0.9814847690    0.3259963964
C       -1.5238068320    0.2517198249    0.4074243920
C       -0.7233128106    1.3860238223    0.1317056845
N        0.6274273589    1.3458005860   -0.0503917930
H        2.2761531782    0.2036094511    0.8919151803
H        0.9687188771   -2.0217973697   -0.0178124059
H       -1.4739546140   -1.8982283550    0.5624409442
H       -2.5764542026    0.3790108977    0.6447482600
H       -1.1699089283    2.3620002214   -0.0433570054
C        1.1013199689   -0.1307593955   -1.0770318979
H        1.5475206856   -0.0400694605   -2.0536391661
$end

$rem
method                b3lyp
basis                 6-31g(d)
unrestricted          true
symmetry              off
sym_ignore            true
incdft                false
incfock               0
scf_convergence       8
thresh                14
jobtype               sp
scf_guess             read
scf_algorithm         diis
max_scf_cycles        100
$end

--------------------------------------------------------------
 ----------------------------------------------------------------
             Standard Nuclear Orientation (Angstroms)
    I     Atom           X                Y                Z
 ----------------------------------------------------------------
    1      C       1.3708855104     0.1672357669     0.2914382142
    2      C       0.4829170509    -1.0452792743    -0.0822900633
    3      C      -0.9425659260    -0.9814847690     0.3259963964
    4      C      -1.5238068320     0.2517198249     0.4074243920
    5      C      -0.7233128106     1.3860238223     0.1317056845
    6      N       0.6274273589     1.3458005860    -0.0503917930
    7      H       2.2761531782     0.2036094511     0.8919151803
    8      H       0.9687188771    -2.0217973697    -0.0178124059
    9      H      -1.4739546140    -1.8982283550     0.5624409442
   10      H      -2.5764542026     0.3790108977     0.6447482600
   11      H      -1.1699089283     2.3620002214    -0.0433570054
   12      C       1.1013199689    -0.1307593955    -1.0770318979
   13      H       1.5475206856    -0.0400694605    -2.0536391661
 ----------------------------------------------------------------
 Nuclear Repulsion Energy =   274.5788367215 hartrees
 There are       25 alpha and       24 beta electrons
 Requested basis set is 6-31G(d)
 There are 40 shells and 117 basis functions

 Total QAlloc Memory Limit   8000 MB
 Mega-Array Size      1956 MB
 MEM_STATIC part      2000 MB

                       Distance Matrix (Angstroms)
             C (  1)   C (  2)   C (  3)   C (  4)   C (  5)   N (  6)
   C (  2)  1.548662
   C (  3)  2.583178  1.484173
   C (  4)  2.898247  2.439051  1.365747
   C (  5)  2.428297  2.722502  2.385564  1.415435
   N (  6)  1.434780  2.395655  2.832455  2.456505  1.363553
   H (  7)  1.086925  2.392592  3.476329  3.831024  3.312524  2.216041
   H (  8)  2.247051  1.092588  2.203058  3.400352  3.807699  3.385005
   H (  9)  3.526003  2.229921  1.085679  2.156106  3.396367  3.913450
   H ( 10)  3.968774  3.452092  2.149917  1.086551  2.170581  3.418005
   H ( 11)  3.374124  3.787203  3.371498  2.186717  1.087486  2.064735
   C ( 12)  1.426246  1.486028  2.621010  3.039933  2.662886  1.859783
   H ( 13)  2.360840  2.455615  3.570639  3.946521  3.459214  2.603883
             H (  7)   H (  8)   H (  9)   H ( 10)   H ( 11)   C ( 12)
   H (  8)  2.736681
   H (  9)  4.311564  2.513686
   H ( 10)  4.862063  4.332565  2.531422
   H ( 11)  4.172377  4.877711  4.313813  2.526679
   C ( 12)  2.317065  2.171533  3.527585  4.092727  3.527154
   H ( 13)  3.044105  2.899456  4.407487  4.946119  4.146757  1.077535

 
 A cutoff of  1.0D-14 yielded    807 shell pairs
 There are      7079 function pairs
 
 -------------------------------------------------------
 OpenMP Integral Computing Module                       
 Release: version 1.0, May 2013, Q-Chem Inc. Pittsburgh 
 -------------------------------------------------------
 Integral Job Info:
 Integral job number is                      11
 Integral operator is                         1
 short-range coefficients                     0
 long-range coefficients              100000000
 Omega coefficients                           0
 if combine SR and LR in K                    0
 Integral screening is                        0
 Integral computing path is                   2
 max size of driver memory is            800000
 size of driver memory is                593474
 size of scratch memory is              2361544
 max col of scratch BK array               1296
 max len of scratch array in speh3          155
 max len of scratch index in speh4           18
 max int batch size is                      520
 min int batch size is                       52
 fixed nKL is                                52
 max L of basis functions is                  2
 order of int derivative is                   0
 number of shells is                         40
 number of basis is                         117
 number of cartesian basis is               117
 number of contracted shell pairs           807
 number of primitive shell pairs           3514
 maxK2 (contraction) of shell pair           36
 max number of K2 of shell pair               1
 max number of CS2 of shell pair             85
 max number of PS2 of shell pair            372
 mem total for path MDJ                  535308
 -------------------------------------------------------
 Smallest overlap matrix eigenvalue = 1.16E-03

 Scale SEOQF with 1.000000e-01/1.000000e-01/1.000000e-01

 Standard Electronic Orientation quadrupole field applied
 Nucleus-field energy     =     0.0000000043 hartrees
 Guess MOs from SCF MO coefficient file
 Reading MOs from coefficient file
 Reading MOs from coefficient file
 An unrestricted hybrid HF-DFT SCF calculation will be
 performed using Pulay DIIS extrapolation
 Exchange:     0.2000 Hartree-Fock + 0.0800 Slater + 0.7200 B88
 Correlation:  0.1900 VWN1RPA + 0.8100 LYP
 Using SG-1 standard quadrature grid
 SCF converges when DIIS error is below 1.0E-08
Using Q-Chem read-in guess as SCF_GUESS READ specified.

 using 4 threads for integral computing
 -------------------------------------------------------
 OpenMP Integral computing Module                
 Release: version 1.0, May 2013, Q-Chem Inc. Pittsburgh 
 -------------------------------------------------------
 -------------------------------------------------------
 OpenMP BLAS3 based DFT computing Module                
 Release: version 1.0, May 2013, Q-Chem Inc. Pittsburgh 
 -------------------------------------------------------
 ---------------------------------------
  Cycle       Energy         DIIS Error
 ---------------------------------------
    1    -286.8122600067      3.57E-09
    2    -286.8122600067      5.77E-09 Convergence criterion met
 ---------------------------------------
 <S^2> = 0.7956
 SCF time:  CPU 5.25 s  wall 3.60 s
 SCF   energy in the final basis set = -286.81226001
 Total energy in the final basis set = -286.81226001
 
 --------------------------------------------------------------
 
                    Orbital Energies (a.u.)
 --------------------------------------------------------------
 
 Alpha MOs
 -- Occupied --
-14.346 -10.233 -10.226 -10.218 -10.211 -10.194 -10.181  -0.970
 -0.820  -0.787  -0.645  -0.633  -0.585  -0.535  -0.485  -0.475
 -0.466  -0.399  -0.385  -0.367  -0.354  -0.303  -0.252  -0.244
 -0.164
 -- Virtual --
 -0.017   0.071   0.101   0.124   0.133   0.146   0.154   0.164
  0.184   0.215   0.242   0.276   0.298   0.306   0.397   0.428
  0.500   0.524   0.531   0.561   0.564   0.573   0.602   0.605
  0.616   0.631   0.633   0.661   0.687   0.705   0.768   0.796
  0.834   0.843   0.853   0.860   0.869   0.887   0.921   0.979
  0.997   1.039   1.070   1.100   1.125   1.187   1.231   1.350
  1.386   1.428   1.485   1.494   1.536   1.605   1.664   1.687
  1.725   1.755   1.828   1.844   1.889   1.948   1.972   2.016
  2.084   2.105   2.154   2.232   2.238   2.271   2.284   2.404
  2.435   2.504   2.512   2.553   2.617   2.630   2.638   2.709
  2.727   2.777   2.821   2.968   3.201   4.012   4.096   4.150
  4.318   4.377   4.466   4.563
 
 Beta MOs
 -- Occupied --
-14.349 -10.232 -10.218 -10.218 -10.204 -10.188 -10.184  -0.966
 -0.812  -0.782  -0.634  -0.629  -0.574  -0.531  -0.483  -0.472
 -0.460  -0.395  -0.383  -0.358  -0.344  -0.292  -0.245  -0.239
 -- Virtual --
 -0.064   0.001   0.088   0.103   0.129   0.137   0.150   0.158
  0.171   0.186   0.219   0.244   0.282   0.303   0.312   0.402
  0.432   0.510   0.528   0.548   0.566   0.572   0.578   0.607
  0.619   0.624   0.634   0.640   0.673   0.697   0.712   0.773
  0.799   0.838   0.844   0.856   0.861   0.872   0.887   0.924
  0.988   1.000   1.042   1.073   1.104   1.131   1.191   1.234
  1.360   1.394   1.434   1.490   1.504   1.543   1.616   1.670
  1.692   1.733   1.765   1.831   1.856   1.904   1.959   1.980
  2.022   2.088   2.109   2.170   2.241   2.249   2.282   2.293
  2.413   2.445   2.513   2.518   2.559   2.622   2.638   2.645
  2.712   2.734   2.780   2.827   2.970   3.204   4.010   4.103
  4.159   4.327   4.383   4.476   4.566
 --------------------------------------------------------------
 
          Ground-State Mulliken Net Atomic Charges

     Atom                 Charge (a.u.)    Spin (a.u.)
  --------------------------------------------------------
      1 C                     0.041895       0.017483
      2 C                    -0.203583      -0.056186
      3 C                    -0.078592       0.431899
      4 C                    -0.143445      -0.205739
      5 C                     0.027485       0.507097
      6 N                    -0.406752      -0.161356
      7 H                     0.151809       0.001322
      8 H                     0.147504       0.015388
      9 H                     0.132773      -0.021195
     10 H                     0.129830       0.011050
     11 H                     0.140327      -0.026624
     12 C                    -0.103268       0.510626
     13 H                     0.164019      -0.023766
  --------------------------------------------------------
  Sum of atomic charges =    -0.000000
  Sum of spin   charges =     1.000000

 -----------------------------------------------------------------
                    Cartesian Multipole Moments
 -----------------------------------------------------------------
    Charge (ESU x 10^10)
                 0.0000
    Dipole Moment (Debye)
         X       0.0876      Y      -1.6908      Z      -0.0240
       Tot       1.6932
    Quadrupole Moments (Debye-Ang)
        XX     -36.9280     XY      -2.7762     YY     -40.9729
        XZ      -1.0131     YZ       0.0483     ZZ     -40.5787
    Octopole Moments (Debye-Ang^2)
       XXX      -5.6356    XXY      -5.6682    XYY      -8.6621
       YYY     -22.1061    XXZ       2.7955    XYZ       1.3660
       YYZ       1.9307    XZZ       3.8423    YZZ      -4.6921
       ZZZ      -4.7065
    Hexadecapole Moments (Debye-Ang^3)
      XXXX    -326.9166   XXXY       2.3329   XXYY    -103.7192
      XYYY      -8.6596   YYYY    -276.9195   XXXZ      34.4398
      XXYZ       0.1341   XYYZ      12.5063   YYYZ      -2.9097
      XXZZ     -70.6729   XYZZ       2.7282   YYZZ     -69.6922
      XZZZ      30.1570   YZZZ      -0.7100   ZZZZ    -104.6772
 -----------------------------------------------------------------
Archival summary:
1\1\c8-68\SP\ProcedureUnspecified\6-31G*\166(2)\hpark21\TueMar113:55:342022TueMar113:55:342022\0\\#,ProcedureUnspecified,6-31G*,\\0,2\N\C,1,1.36355\H,2,1.08749,1,114.317\C,2,1.41544,1,124.236,3,174.562,0\H,4,1.08655,2,119.773,1,173.475,0\C,4,1.36575,2,118.119,1,-8.38869,0\H,6,1.08568,4,122.763,2,177.335,0\C,1,1.43478,2,120.379,3,172.88,0\H,8,1.08692,1,122.391,2,-131.151,0\C,8,1.42625,1,81.0888,2,91.7084,0\H,10,1.07753,8,140.694,1,94.5243,0\C,6,1.48417,4,117.643,2,-1.58357,0\H,12,1.09259,6,116.695,4,172.307,0\\\@

 Total job time:  10.46s(wall), 6.92s(cpu) 
 Tue Mar  1 13:55:35 2022

        *************************************************************
        *                                                           *
        *  Thank you very much for using Q-Chem.  Have a nice day.  *
        *                                                           *
        *************************************************************


