13
image # 1 Energy = -286.92432
C 1.42904   0.84255   -0.32466  
C 0.27643   -1.41664  -0.20100  
C -0.98250  -1.06102  0.18142   
C -1.46624  0.27295   0.43243   
C -0.77125  1.46439   0.34409   
N 0.50575   1.77168   0.01549   
H 2.39631   1.29411   -0.55612  
H 0.47169   -2.47706  -0.34781  
H -1.70793  -1.86105  0.31480   
H -2.50889  0.35789   0.72916   
H -1.35611  2.35480   0.58541   
C 1.39112   -0.53490  -0.43561  
H 2.32259   -1.00770  -0.73760  
13
image # 2 Energy = -286.92172
C 1.44355   0.83840   -0.30256  
C 0.29323   -1.41294  -0.18621  
C -0.99097  -1.05876  0.19350   
C -1.48006  0.26773   0.42814   
C -0.77282  1.46467   0.33329   
N 0.49564   1.75633   0.01338   
H 2.41229   1.29359   -0.48106  
H 0.46173   -2.48684  -0.29728  
H -1.71833  -1.86008  0.32954   
H -2.51826  0.36184   0.72244   
H -1.35484  2.35634   0.57283   
C 1.37674   -0.54393  -0.49621  
H 2.33684   -0.98107  -0.82795  
13
image # 3 Energy = -286.91791
C 1.44726   0.81402   -0.26129  
C 0.29126   -1.41023  -0.16689  
C -0.97829  -1.05951  0.20109   
C -1.48745  0.27073   0.42272   
C -0.78210  1.45520   0.32069   
N 0.49811   1.74033   -0.00013  
H 2.43506   1.28143   -0.38810  
H 0.46437   -2.48558  -0.24116  
H -1.72118  -1.85953  0.34337   
H -2.53055  0.36507   0.71615   
H -1.35295  2.35866   0.55640   
C 1.36978   -0.53171  -0.57495  
H 2.32378   -0.94883  -0.93169  
13
image # 4 Energy = -286.91256
C 1.45056   0.80211   -0.22938  
C 0.29290   -1.41140  -0.17656  
C -0.97969  -1.05915  0.21713   
C -1.48715  0.27334   0.41404   
C -0.79673  1.45086   0.30150   
N 0.51125   1.71576   -0.00035  
H 2.45101   1.24475   -0.26384  
H 0.48344   -2.47172  -0.17712  
H -1.70061  -1.85155  0.36269   
H -2.54235  0.36615   0.70853   
H -1.34900  2.35936   0.52852   
C 1.36299   -0.52113  -0.63749  
H 2.27502   -0.91094  -1.05849  
13
image # 5 Energy = -286.90681
C 1.45439   0.79211   -0.19689  
C 0.27843   -1.39138  -0.17848  
C -0.96405  -1.05244  0.22234   
C -1.49991  0.27618   0.40871   
C -0.79690  1.44778   0.27755   
N 0.51363   1.69800   0.01403   
H 2.46418   1.19662   -0.14486  
H 0.51147   -2.46988  -0.12921  
H -1.68379  -1.85470  0.38699   
H -2.53979  0.36514   0.69847   
H -1.34696  2.36361   0.49854   
C 1.33709   -0.50747  -0.69129  
H 2.23921   -0.87952  -1.18138  
13
image # 6 Energy = -286.89863
C 1.44721   0.75626   -0.15735  
C 0.29451   -1.38681  -0.17844  
C -0.96887  -1.03900  0.23189   
C -1.49757  0.28093   0.39772   
C -0.80400  1.44167   0.25590   
N 0.52119   1.68468   0.03089   
H 2.48359   1.14106   -0.02445  
H 0.53859   -2.45043  -0.09140  
H -1.66800  -1.86156  0.41253   
H -2.54436  0.36533   0.69120   
H -1.34339  2.36902   0.46590   
C 1.30794   -0.48145  -0.75475  
H 2.19665   -0.83904  -1.30145  
13
image # 7 Energy = -286.89168
C 1.44716   0.73768   -0.11306  
C 0.30032   -1.37514  -0.17556  
C -0.95957  -1.04092  0.23800   
C -1.50123  0.27995   0.38834   
C -0.80778  1.45094   0.23750   
N 0.53483   1.66599   0.05022   
H 2.48764   1.07894   0.08020   
H 0.56466   -2.42732  -0.06672  
H -1.65150  -1.86407  0.43484   
H -2.54817  0.36676   0.68548   
H -1.33946  2.37190   0.43435   
C 1.28844   -0.47241  -0.82239  
H 2.14638   -0.79401  -1.39732  
13
image # 8 Energy = -286.88883
C 1.45120   0.71047   -0.08086  
C 0.31349   -1.35450  -0.19137  
C -0.94883  -1.03570  0.25064   
C -1.49969  0.28498   0.36797   
C -0.80558  1.44655   0.20787   
N 0.55363   1.63826   0.11102   
H 2.47536   0.97707   0.22357   
H 0.60863   -2.39790  -0.04654  
H -1.61499  -1.86550  0.47886   
H -2.54641  0.36755   0.67461   
H -1.34115  2.38927   0.37809   
C 1.24298   -0.43963  -0.87069  
H 2.07183   -0.74467  -1.53297  
13
image # 9 Energy = -286.88447
C 1.44241   0.67840   -0.03735  
C 0.33100   -1.33065  -0.19579  
C -0.93567  -1.02025  0.26737   
C -1.49750  0.28464   0.35257   
C -0.79673  1.45367   0.18332   
N 0.55734   1.60842   0.15878   
H 2.46263   0.86960   0.35443   
H 0.65428   -2.36281  -0.04747  
H -1.58159  -1.86806  0.51420   
H -2.54134  0.36888   0.66477   
H -1.33130  2.39519   0.32150   
C 1.20573   -0.41244  -0.93352  
H 1.98929   -0.69113  -1.63787  
13
image # 10 Energy = -286.87235
C 1.44259   0.62672   0.01290   
C 0.34654   -1.30685  -0.17920  
C -0.92854  -1.01326  0.27776   
C -1.49969  0.28028   0.35174   
C -0.78882  1.45192   0.16993   
N 0.55882   1.58498   0.14577   
H 2.44390   0.79022   0.43689   
H 0.68735   -2.33073  -0.05440  
H -1.56574  -1.86880  0.51230   
H -2.54120  0.37060   0.66492   
H -1.31954  2.40028   0.29732   
C 1.17585   -0.37095  -0.97499  
H 1.94542   -0.64300  -1.69887  
13
image # 11 Energy = -286.85817
C 1.43294   0.57868   0.06293   
C 0.36851   -1.26524  -0.17464  
C -0.92432  -1.00480  0.28699   
C -1.50005  0.28186   0.35344   
C -0.79098  1.44297   0.15763   
N 0.57092   1.55361   0.11479   
H 2.42578   0.71530   0.52295   
H 0.73370   -2.28870  -0.06180  
H -1.54726  -1.87333  0.49908   
H -2.54210  0.37107   0.67066   
H -1.30084  2.40351   0.27294   
C 1.14245   -0.34094  -0.99872  
H 1.88606   -0.60268  -1.75037  
13
image # 12 Energy = -286.84337
C 1.43148   0.51913   0.10637   
C 0.38583   -1.23182  -0.17089  
C -0.92188  -0.99598  0.29131   
C -1.50574  0.27618   0.35871   
C -0.78167  1.43958   0.14767   
N 0.56633   1.52624   0.07854   
H 2.40430   0.64271   0.60077   
H 0.77908   -2.24094  -0.06498  
H -1.53258  -1.87782  0.48334   
H -2.54386  0.37293   0.67685   
H -1.27387  2.40344   0.25161   
C 1.11641   -0.30736  -1.01688  
H 1.83106   -0.55385  -1.79308  
13
image # 13 Energy = -286.84507
C 1.41188   0.46936   0.13419   
C 0.40048   -1.19223  -0.17484  
C -0.92573  -0.98545  0.28942   
C -1.51155  0.26721   0.35693   
C -0.75770  1.43048   0.14451   
N 0.56964   1.49084   0.08863   
H 2.36443   0.53717   0.69037   
H 0.83730   -2.18697  -0.05838  
H -1.51034  -1.87857  0.49865   
H -2.54668  0.37691   0.67733   
H -1.24029  2.41162   0.20609   
C 1.10054   -0.27922  -1.04515  
H 1.76526   -0.48677  -1.86456  
13
image # 14 Energy = -286.80621
C 1.39875   0.37057   0.20164   
C 0.42605   -1.14193  -0.13231  
C -0.95740  -0.98757  0.26971   
C -1.52304  0.25784   0.37673   
C -0.75134  1.41512   0.15958   
N 0.56094   1.44820   -0.04470  
H 2.38535   0.53934   0.66006   
H 0.83545   -2.16474  -0.04249  
H -1.54683  -1.88875  0.44362   
H -2.56106  0.37519   0.68702   
H -1.22392  2.40155   0.25311   
C 1.11155   -0.23202  -1.05809  
H 1.80675   -0.41551  -1.83745  
13
image # 15 Energy = -286.78726
C 1.40856   0.32081   0.25877   
C 0.44569   -1.11370  -0.11805  
C -0.96065  -0.98949  0.26055   
C -1.52828  0.25827   0.38375   
C -0.77355  1.40318   0.16734   
N 0.57711   1.37737   -0.16182  
H 2.40597   0.54207   0.66741   
H 0.83987   -2.14857  -0.04831  
H -1.55922  -1.90232  0.40951   
H -2.56675  0.37087   0.68508   
H -1.21528  2.39410   0.27943   
C 1.08852   -0.16558  -1.02926  
H 1.80295   -0.36923  -1.82325  
13
image # 16 Energy = -286.79844
C 1.39356   0.26831   0.29536   
C 0.46803   -1.07605  -0.08007  
C -0.96172  -0.99694  0.27402   
C -1.53494  0.26579   0.40287   
C -0.77434  1.38442   0.15284   
N 0.59317   1.31328   -0.25539  
H 2.37212   0.51947   0.69874   
H 0.86176   -2.11606  -0.04593  
H -1.56500  -1.90390  0.31495   
H -2.56261  0.37564   0.71064   
H -1.17556  2.38687   0.31366   
C 1.05928   -0.11528  -1.03705  
H 1.79509   -0.32767  -1.81445  
13
image # 17 Energy = -286.81187
C 1.36939   0.20838   0.32210   
C 0.48870   -1.03650  -0.03048  
C -0.96076  -0.99245  0.29272   
C -1.52636  0.25775   0.42175   
C -0.76144  1.37092   0.13035   
N 0.59416   1.25452   -0.33685  
H 2.32630   0.48751   0.75241   
H 0.89337   -2.06524  -0.05508  
H -1.55486  -1.89773  0.21648   
H -2.56496  0.38133   0.74164   
H -1.13190  2.38047   0.33656   
C 1.03438   -0.07636  -1.04241  
H 1.76707   -0.29347  -1.81728  
13
image # 18 Energy = -286.81196
C 1.35289   0.14862   0.31267   
C 0.48449   -1.06654  0.07820   
C -0.94908  -0.99576  0.30158   
C -1.52027  0.26740   0.43116   
C -0.76040  1.37416   0.12596   
N 0.60249   1.23927   -0.36012  
H 2.28211   0.45947   0.75361   
H 0.86083   -2.07555  -0.07169  
H -1.56490  -1.89063  0.16781   
H -2.55444  0.38490   0.74662   
H -1.12330  2.37337   0.37088   
C 1.05261   0.00129   -1.08419  
H 1.81508   -0.23864  -1.83565  
13
image # 19 Energy = -286.78886
C 1.33812   0.09194   0.27660   
C 0.44425   -1.12857  0.17721   
C -0.94600  -1.01284  0.29380   
C -1.50928  0.28007   0.42452   
C -0.75885  1.37317   0.14049   
N 0.61580   1.24757   -0.33613  
H 2.27372   0.41694   0.71996   
H 0.80056   -2.14324  -0.06705  
H -1.59450  -1.88336  0.18147   
H -2.55132  0.39044   0.72720   
H -1.13142  2.37184   0.40170   
C 1.10104   0.10811   -1.13948  
H 1.90079   -0.12680  -1.85705  
13
image # 20 Energy = -286.78870
C 1.32527   0.04360   0.23171   
C 0.40795   -1.19856  0.23070   
C -0.94839  -1.02894  0.28528   
C -1.50607  0.29103   0.41204   
C -0.75083  1.37959   0.15678   
N 0.63223   1.26105   -0.28865  
H 2.27947   0.35370   0.68504   
H 0.74112   -2.21645  -0.04269  
H -1.62555  -1.87765  0.22588   
H -2.54973  0.39801   0.69569   
H -1.13716  2.36646   0.41681   
C 1.14553   0.20035   -1.18418  
H 1.97272   0.01679   -1.87557  
13
image # 21 Energy = -286.79447
C 1.32856   0.00072   0.19581   
C 0.37972   -1.24881  0.21852   
C -0.96325  -1.03859  0.27217   
C -1.50813  0.28915   0.39134   
C -0.74219  1.37495   0.17335   
N 0.65110   1.27898   -0.21753  
H 2.29972   0.26656   0.64927   
H 0.69902   -2.28638  0.01510   
H -1.65806  -1.87936  0.30155   
H -2.55244  0.40808   0.65712   
H -1.13709  2.36589   0.40567   
C 1.16614   0.27250   -1.21121  
H 2.02666   0.18836   -1.89586  
13
image # 22 Energy = -286.80650
C 1.32014   -0.05289  0.16756   
C 0.37079   -1.25632  0.22542   
C -0.97575  -1.04432  0.26908   
C -1.50943  0.29100   0.38238   
C -0.73959  1.36901   0.17760   
N 0.65986   1.26776   -0.19671  
H 2.29849   0.18399   0.64580   
H 0.69493   -2.30820  0.05484   
H -1.66798  -1.88106  0.33062   
H -2.54766  0.41392   0.63792   
H -1.12115  2.36182   0.39215   
C 1.18275   0.33273   -1.22377  
H 2.02640   0.31733   -1.90414  
13
image # 23 Energy = -286.81537
C 1.32557   -0.08285  0.12489   
C 0.34669   -1.28226  0.20857   
C -0.97706  -1.05891  0.26584   
C -1.50936  0.28652   0.36817   
C -0.72022  1.36682   0.17847   
N 0.66024   1.25700   -0.16849  
H 2.29844   0.09544   0.62896   
H 0.68672   -2.32413  0.11351   
H -1.68185  -1.88492  0.37363   
H -2.55390  0.42188   0.61815   
H -1.10830  2.36320   0.37278   
C 1.19041   0.38352   -1.20769  
H 2.03633   0.45504   -1.91102  
13
image # 24 Energy = -286.82497
C 1.32518   -0.12510  0.11313   
C 0.35008   -1.30503  0.19333   
C -0.99188  -1.06955  0.27173   
C -1.50274  0.28721   0.35148   
C -0.71052  1.35370   0.17772   
N 0.67053   1.24291   -0.15524  
H 2.28572   0.00137   0.61207   
H 0.68540   -2.32886  0.17611   
H -1.69159  -1.88960  0.40865   
H -2.56376  0.42992   0.60250   
H -1.09180  2.36858   0.35203   
C 1.20224   0.43954   -1.22147  
H 2.02955   0.59255   -1.90861  
13
image # 25 Energy = -286.83206
C 1.31006   -0.16210  0.09147   
C 0.33850   -1.30247  0.19001   
C -0.98259  -1.07533  0.28007   
C -1.51649  0.27787   0.34136   
C -0.70376  1.35745   0.17239   
N 0.68678   1.22517   -0.14918  
H 2.27398   -0.08091  0.60383   
H 0.69579   -2.33996  0.23387   
H -1.69881  -1.89567  0.43309   
H -2.56150  0.43649   0.58840   
H -1.07113  2.36644   0.33213   
C 1.20959   0.47954   -1.23253  
H 2.01778   0.71223   -1.90585  
13
image # 26 Energy = -286.83641
C 1.28708   -0.18725  0.04095   
C 0.34051   -1.30721  0.19763   
C -0.99420  -1.08048  0.29483   
C -1.51427  0.28545   0.32788   
C -0.70972  1.34080   0.16319   
N 0.70122   1.20523   -0.14101  
H 2.25998   -0.16771  0.59999   
H 0.70989   -2.34428  0.29829   
H -1.69726  -1.89760  0.45316   
H -2.55940  0.44207   0.57497   
H -1.04604  2.36647   0.31122   
C 1.20996   0.50371   -1.22887  
H 2.01111   0.84052   -1.90471  
13
image # 27 Energy = -286.84048
C 1.29692   -0.22678  0.00368   
C 0.32924   -1.32401  0.22782   
C -0.99501  -1.07988  0.30920   
C -1.51352  0.28108   0.31735   
C -0.69566  1.33597   0.14516   
N 0.68538   1.18625   -0.13525  
H 2.21944   -0.25474  0.58895   
H 0.72558   -2.32819  0.36122   
H -1.69122  -1.89903  0.46875   
H -2.55867  0.44791   0.56240   
H -1.01796  2.36351   0.29004   
C 1.22384   0.53776   -1.24752  
H 1.99164   0.96016   -1.89180  
