13   
From optimize.out: Frame 1 / 1, Energy=    -286.8365048672
C        1.5440404333    0.5861293134   -0.1642656935
C        0.8932240621   -0.7432938957    0.0274589318
C       -0.4118021088   -0.6570999196   -0.6948209223
C       -1.0183475571    0.6294805270    0.8815113260
C       -0.6032954815    0.9022185475   -0.5702328577
N        0.7481623825    1.5150230143   -0.5423615294
H        2.5983866781    0.7809973401    0.0292120357
H        1.4557634281   -1.6712684557    0.0633870647
H       -0.8129686200   -1.3478195967   -1.4308827970
H       -1.9834849206    0.8770013627    1.3088557403
H       -1.2899603538    1.4326196268   -1.2296229830
C       -0.4463686444   -0.7299036655    0.8394551851
H       -0.6733492982   -1.5740841980    1.4823064987
13   
From optimize.out: Frame 16 / 17, Energy=    -286.8365048754
C        1.5398563528    0.5777609611   -0.1630366714
C        0.8996162560   -0.7457662770    0.0045130001
C       -0.4214857080   -0.6571254210   -0.6752945557
C       -1.0097972705    0.6417093533    0.8957399525
C       -0.5961065454    0.9081726412   -0.5634904550
N        0.7462822176    1.5128921597   -0.5512576346
H        2.5927139126    0.7722440888    0.0310216704
H        1.4501924321   -1.6769577140    0.0576714152
H       -0.7813480292   -1.3484927523   -1.4393208597
H       -1.9960614228    0.8760683783    1.2841207939
H       -1.3009853234    1.4298304772   -1.2086053318
C       -0.4627467926   -0.7222181875    0.8396630591
H       -0.6601300794   -1.5681177077    1.4882756170
13   
From optimize.out: Frame 14 / 17, Energy=    -286.8364997532
C        1.5522598918    0.5660202249   -0.2111144743
C        0.9112881555   -0.7389464715   -0.0433127292
C       -0.4367558259   -0.6455787879   -0.6524579898
C       -0.9947402266    0.6469089642    0.9168181558
C       -0.5830578909    0.9273727192   -0.5447051904
N        0.7608717133    1.5141009141   -0.5987940213
H        2.5889823351    0.7969901252    0.0278079207
H        1.4201672471   -1.6761234358    0.1431087135
H       -0.7366887062   -1.3707582140   -1.4098364412
H       -1.9949612224    0.8625733268    1.2823584670
H       -1.3116422439    1.4449751152   -1.1690878139
C       -0.4911650738   -0.7186100821    0.8363417231
H       -0.6845581532   -1.6089243984    1.4228736799
13   
From optimize.out: Frame 12 / 17, Energy=    -286.8364750842
C        1.5828286659    0.5612402625   -0.2563157613
C        0.9442083930   -0.7385892179   -0.0864796071
C       -0.4443656714   -0.6384645796   -0.6186859044
C       -1.0102542459    0.6445013837    0.9395824900
C       -0.5674361588    0.9386686180   -0.5170930976
N        0.7942937055    1.5152185291   -0.6378592438
H        2.6068349570    0.8396099824    0.0045619100
H        1.4345121474   -1.6739953918    0.1595167072
H       -0.7141196777   -1.3908688587   -1.3482210667
H       -2.0248412154    0.8493778016    1.2726147618
H       -1.3027236914    1.4575091663   -1.1405186000
C       -0.5409940679   -0.7184018964    0.8537783548
H       -0.7579431402   -1.6458057991    1.3751190572
13   
From optimize.out: Frame 9 / 17, Energy=    -286.8356440959
C        1.6213623955    0.5614389932   -0.2936002766
C        0.9804554976   -0.7402183557   -0.1114640171
C       -0.4511026271   -0.6360090416   -0.5873579590
C       -1.0420397891    0.6400757344    0.9613093781
C       -0.5576822259    0.9440334887   -0.4877805310
N        0.8340973323    1.5189578167   -0.6586970626
H        2.6411163902    0.8771555361   -0.0383008100
H        1.4714865114   -1.6745740648    0.1478270113
H       -0.6989735313   -1.4053541716   -1.2926426673
H       -2.0699839637    0.8397801916    1.2576617205
H       -1.2933276364    1.4661675682   -1.1167821384
C       -0.5956993439   -0.7200588281    0.8744847585
H       -0.8397090098   -1.6713948671    1.3453425935
13   
From optimize.out: Frame 8 / 17, Energy=    -286.8355571031
C        1.6669107224    0.5648270155   -0.3271384655
C        1.0132576907   -0.7433547729   -0.1248986801
C       -0.4633952838   -0.6347191924   -0.5590116991
C       -1.0811564294    0.6340625753    0.9820492445
C       -0.5524015924    0.9490932433   -0.4585348271
N        0.8833732828    1.5240233482   -0.6760559878
H        2.6851702021    0.9151789993   -0.0869590796
H        1.5090823387   -1.6780352657    0.1378343153
H       -0.6932375927   -1.4166726264   -1.2403073465
H       -2.1220190302    0.8274123239    1.2391607540
H       -1.2877312045    1.4754676375   -1.0951522190
C       -0.6467120492   -0.7225316341    0.8928532849
H       -0.9111410545   -1.6947516515    1.3161607061
13   
From optimize.out: Frame 4 / 17, Energy=    -286.8103184649
C        1.7189471740    0.5723310552   -0.3566520780
C        1.0403636014   -0.7480505005   -0.1298844610
C       -0.4840554844   -0.6355432675   -0.5331830870
C       -1.1222248096    0.6270462556    1.0010051094
C       -0.5477475526    0.9550583311   -0.4302973507
N        0.9401746748    1.5289756907   -0.6928667012
H        2.7359565941    0.9603809268   -0.1357779967
H        1.5409964355   -1.6845783025    0.1354698528
H       -0.7012095154   -1.4265852615   -1.1876576811
H       -2.1754633349    0.8120674013    1.2160544060
H       -1.2848730247    1.4864564371   -1.0759180074
C       -0.6919558534   -0.7270885414    0.9077388783
H       -0.9689089049   -1.7204702246    1.2819691165
13   
From optimize.out: Frame 3 / 17, Energy=    -286.7889980948
C        1.7724830463    0.5792922102   -0.3857864211
C        1.0618133022   -0.7497047382   -0.1330865401
C       -0.5092854093   -0.6421456206   -0.5085405936
C       -1.1615049599    0.6187475197    1.0202102175
C       -0.5417665854    0.9611484109   -0.3995844825
N        0.9987528553    1.5326623673   -0.7108042151
H        2.7846028735    1.0086459221   -0.1773231567
H        1.5693911974   -1.6877624265    0.1378611991
H       -0.7208286675   -1.4400630890   -1.1293127121
H       -2.2260060689    0.7916746087    1.1924608952
H       -1.2787078672    1.5011683160   -1.0604737783
C       -0.7305078790   -0.7327683154    0.9167207863
H       -1.0184358374   -1.7408951653    1.2376588014
13   
From optimize.out: Frame 1 / 17, Energy=    -286.7157761222
C        1.8006812245    0.5704344845   -0.4112652821
C        1.0815425244   -0.7488591497   -0.1480040753
C       -0.5143154553   -0.6742518045   -0.4987905390
C       -1.1855481547    0.6158692572    1.0530380167
C       -0.5499929514    0.9667597072   -0.3597059435
N        1.0298801630    1.5419976664   -0.7338645124
H        2.7929419465    1.0331050151   -0.1772020298
H        1.6093091834   -1.6809997801    0.1371384950
H       -0.7384879114   -1.4944823205   -1.0905019717
H       -2.2522999766    0.7793732937    1.2075891704
H       -1.2589604239    1.5339354629   -1.0583381471
C       -0.7498701764   -0.7329150455    0.9017085804
H       -1.0648799921   -1.7099667866    1.1781982384
13   
C6H6N->C6H6N atoms 1-13 frame 268 charge +0.000 sz -1.000 sz^2 1.064
C        1.8034908211    0.5522644138   -0.4298326137
C        1.1024913151   -0.7451021809   -0.1718392626
C       -0.4946730192   -0.7201398493   -0.5040027153
C       -1.1959642034    0.6181268741    1.0919176427
C       -0.5715277593    0.9721197210   -0.3205554172
N        1.0309978528    1.5587937659   -0.7583537684
H        2.7680667620    1.0268927499   -0.1468998455
H        1.6558645999   -1.6616640661    0.1310993304
H       -0.7504481790   -1.5796379702   -1.0872562891
H       -2.2569839010    0.7814486099    1.2563351798
H       -1.2264674430    1.5722236596   -1.0610968322
C       -0.7548872837   -0.7269446491    0.8702839344
H       -1.1099595625   -1.6483810786    1.1302006567
13   
C6H6N->C6H6N atoms 1-13 frame 270 charge -0.000 sz -1.000 sz^2 1.112
C        1.8051024564    0.5387498549   -0.4480806842
C        1.1275883337   -0.7359453205   -0.1972274065
C       -0.4651843399   -0.7646821843   -0.5137851692
C       -1.2076251867    0.6199410871    1.1264856531
C       -0.5957445815    0.9792783798   -0.2874212396
N        1.0270943790    1.5806680184   -0.7851610731
H        2.7449203343    1.0086890169   -0.1189314403
H        1.7019042419   -1.6283225720    0.1240750062
H       -0.7657164512   -1.6666798114   -1.0994374626
H       -2.2621288734    0.7909112135    1.3103027614
H       -1.1846853891    1.6017978060   -1.0553241306
C       -0.7614280524   -0.7178874414    0.8365455313
H       -1.1640968711   -1.6065180471    1.1079596542
13   
C6H6N->C6H6N atoms 1-13 frame 272 charge +0.000 sz -1.000 sz^2 1.167
C        1.8048059372    0.5304543812   -0.4666767226
C        1.1564435186   -0.7217898009   -0.2245896955
C       -0.4258170472   -0.8072923577   -0.5299520233
C       -1.2205196790    0.6207645521    1.1528846926
C       -0.6223392475    0.9880607731   -0.2636117422
N        1.0184592138    1.6059395986   -0.8152214865
H        2.7276856864    0.9785538509   -0.0953051307
H        1.7457726578   -1.5822985410    0.1167083225
H       -0.7779782916   -1.7419091740   -1.1188868900
H       -2.2680844865    0.8084707131    1.3687008118
H       -1.1383320018    1.6196943776   -1.0412170536
C       -0.7710062151   -0.7055691731    0.8012853086
H       -1.2290900452   -1.5930791999    1.1158816088
13   
C6H6N->C6H6N atoms 1-13 frame 273 charge +0.000 sz -1.000 sz^2 1.199
C        1.8016133805    0.5263882053   -0.4848148140
C        1.1874452070   -0.7046183328   -0.2536855800
C       -0.3779228097   -0.8480893334   -0.5529223663
C       -1.2351794080    0.6184567653    1.1684634090
C       -0.6510184215    0.9970312625   -0.2501684309
N        1.0053760633    1.6317542298   -0.8473982460
H        2.7196801229    0.9367268267   -0.0758369518
H        1.7863983734   -1.5298521318    0.1105513239
H       -0.7809956530   -1.7933387310   -1.1383636799
H       -2.2738346053    0.8322388291    1.4312589978
H       -1.0961602631    1.6260996786   -1.0218506142
C       -0.7866290525   -0.6931096313    0.7663593998
H       -1.2987729340   -1.5996876370    1.1484075526
13   
C6H6N->C6H6N atoms 1-13 frame 275 charge +0.000 sz -1.000 sz^2 1.248
C        1.7948629915    0.5246872596   -0.5010657082
C        1.2191270628   -0.6868907260   -0.2840923168
C       -0.3226680059   -0.8884884358   -0.5813720797
C       -1.2525585865    0.6106614754    1.1732003356
C       -0.6819492591    1.0044034989   -0.2448509051
N        0.9881571643    1.6557454803   -0.8798544280
H        2.7213382680    0.8830413891   -0.0586013917
H        1.8251883333   -1.4785985775    0.1082028642
H       -0.7708021743   -1.8162054136   -1.1538166265
H       -2.2762220318    0.8593023209    1.4996645387
H       -1.0681707582    1.6262149437   -1.0041622686
C       -0.8117475087   -0.6843920880    0.7333874893
H       -1.3645554955   -1.6094811269    1.1933604967
13   
C6H6N->C6H6N atoms 1-13 frame 276 charge +0.000 sz -1.000 sz^2 1.255
C        1.7848963945    0.5241878338   -0.5134444932
C        1.2497939316   -0.6713685958   -0.3142103529
C       -0.2620521229   -0.9286870845   -0.6117313067
C       -1.2728112130    0.5962515197    1.1684468344
C       -0.7143084349    1.0087062003   -0.2440672671
N        0.9678193990    1.6758821640   -0.9099148740
H        2.7302821085    0.8189601142   -0.0427933691
H        1.8637290103   -1.4355757032    0.1127099104
H       -0.7459330104   -1.8109272840   -1.1639966908
H       -2.2698700025    0.8864591179    1.5742204301
H       -1.0642320833    1.6279476214   -0.9978884001
C       -0.8480706631   -0.6822395077    0.7045022431
H       -1.4192433138   -1.6095963960    1.2381673360
13   
C6H6N->C6H6N atoms 1-13 frame 278 charge +0.000 sz -1.000 sz^2 1.241
C        1.7734405570    0.5250106745   -0.5195408529
C        1.2772053018   -0.6611877784   -0.3408117377
C       -0.2000527712   -0.9661574464   -0.6384587396
C       -1.2948071979    0.5764076627    1.1561411867
C       -0.7456153165    1.0097314527   -0.2446725983
N        0.9467631850    1.6903563492   -0.9340110637
H        2.7418027636    0.7497759540   -0.0295980137
H        1.9009797329   -1.4052662565    0.1258597798
H       -0.7087918164   -1.7839156616   -1.1714390706
H       -2.2488851397    0.9106689666    1.6508707428
H       -1.0896187657    1.6362417081   -1.0088195506
C       -0.8943423048   -0.6877220951    0.6823454829
H       -1.4580782282   -1.5939435297    1.2721344350
13   
C6H6N->C6H6N atoms 1-13 frame 279 charge -0.000 sz -1.000 sz^2 1.225
C        1.7627288958    0.5280359322   -0.5182806383
C        1.3005914252   -0.6579443623   -0.3614563115
C       -0.1396682674   -0.9981608881   -0.6572771294
C       -1.3172979842    0.5544796365    1.1385958791
C       -0.7738982305    1.0094957049   -0.2451764560
N        0.9276105435    1.6992683011   -0.9504668667
H        2.7511386690    0.6821698897   -0.0201109432
H        1.9345391919   -1.3858830621    0.1465277246
H       -0.6662270120   -1.7489180313   -1.1834131262
H       -2.2105428944    0.9313331146    1.7245138498
H       -1.1390493130    1.6483749600   -1.0313966644
C       -0.9475897613   -0.6992318178    0.6674924954
H       -1.4823352627   -1.5630193775    1.2904481869
13   
C6H6N->C6H6N atoms 1-13 frame 283 charge -0.000 sz -1.000 sz^2 1.187
C        1.7542692219    0.5342540900   -0.5097976168
C        1.3207935591   -0.6616862381   -0.3752496253
C       -0.0814870860   -1.0233127231   -0.6661366549
C       -1.3397413885    0.5340466186    1.1171135777
C       -0.7985859813    1.0109684355   -0.2458813632
N        0.9119792019    1.7038548798   -0.9597665774
H        2.7558955760    0.6214269027   -0.0146925098
H        1.9624532213   -1.3725099921    0.1723836436
H       -0.6252069963   -1.7192167102   -1.2087843981
H       -2.1541539951    0.9501046491    1.7920209220
H       -1.2031483218    1.6574651874   -1.0544543181
C       -1.0058701536   -0.7140768424    0.6589092647
H       -1.4971968575   -1.5213182571    1.2943356555
13   
C6H6N->C6H6N atoms 1-13 frame 284 charge -0.000 sz -1.000 sz^2 1.197
C        1.7486639820    0.5441142704   -0.4950525615
C        1.3386547444   -0.6721046130   -0.3819750677
C       -0.0265131805   -1.0412265974   -0.6639918985
C       -1.3616656875    0.5183912013    1.0919296962
C       -0.8194292519    1.0167123653   -0.2481305349
N        0.9006725535    1.7047491380   -0.9633575261
H        2.7559284411    0.5729692603   -0.0141846155
H        1.9831350868   -1.3616758783    0.2008523944
H       -0.5886110716   -1.7007805968   -1.2528983194
H       -2.0794014986    0.9689143900    1.8503971283
H       -1.2742440958    1.6574727116   -1.0687411269
C       -1.0679225239   -0.7296023728    0.6554818193
H       -1.5092674980   -1.4779332786    1.2896706125
13   
C6H6N->C6H6N atoms 1-13 frame 286 charge -0.000 sz -1.000 sz^2 1.224
C        1.7455134555    0.5569640614   -0.4767668297
C        1.3545566128   -0.6882257225   -0.3827003760
C        0.0222405776   -1.0528783816   -0.6517962291
C       -1.3822966077    0.5103388788    1.0629265319
C       -0.8363426282    1.0284154407   -0.2538274235
N        0.8935982887    1.7019988286   -0.9638839161
H        2.7531745618    0.5425013073   -0.0202990358
H        1.9959365435   -1.3521723551    0.2284059092
H       -0.5528244822   -1.6896876619   -1.3126856978
H       -1.9878030086    0.9891432145    1.8959604852
H       -1.3460790783    1.6454846300   -1.0691852349
C       -1.1319694301   -0.7429365072    0.6553841734
H       -1.5277048048   -1.4489457330    1.2884676432
13   
C6H6N->C6H6N atoms 1-13 frame 287 charge +0.000 sz -1.000 sz^2 1.254
C        1.7435920091    0.5708630994   -0.4589096237
C        1.3683059325   -0.7078877474   -0.3797605383
C        0.0603063918   -1.0602578603   -0.6332439200
C       -1.4005668587    0.5109595440    1.0309027778
C       -0.8494002602    1.0460189290   -0.2641095966
N        0.8897982579    1.6956968234   -0.9640578787
H        2.7512351937    0.5335801308   -0.0340502221
H        2.0019903411   -1.3452227589    0.2512586789
H       -0.5117069432   -1.6767140535   -1.3765808640
H       -1.8854961292    1.0103991884    1.9255062568
H       -1.4132457029    1.6235295619   -1.0560760756
C       -1.1950006746   -0.7519220492    0.6562637909
H       -1.5598115573   -1.4490428075    1.3028572146
13   
C6H6N->C6H6N atoms 1-13 frame 289 charge +0.000 sz -1.000 sz^2 1.304
C        1.7414987274    0.5832372426   -0.4442099478
C        1.3794968672   -0.7287608343   -0.3752279713
C        0.0845110223   -1.0656747877   -0.6126513702
C       -1.4157375256    0.5186403458    0.9980952419
C       -0.8589447914    1.0675164500   -0.2780521958
N        0.8878515199    1.6860684954   -0.9647662346
H        2.7534237224    0.5452178019   -0.0542902868
H        2.0040151200   -1.3435500190    0.2677483788
H       -0.4629780103   -1.6557991772   -1.4321811758
H       -1.7815004195    1.0303214295    1.9387315036
H       -1.4726221007    1.5972405423   -1.0338672194
C       -1.2543002730   -0.7568861222    0.6569983693
H       -1.6047138587   -1.4775713672    1.3336729081
13   
C6H6N->C6H6N atoms 1-13 frame 291 charge +0.000 sz -1.000 sz^2 1.403
C        1.7382793443    0.5922452499   -0.4327116132
C        1.3882784369   -0.7499915985   -0.3698532229
C        0.0950820977   -1.0712765827   -0.5922232849
C       -1.4279947432    0.5303951800    0.9663734149
C       -0.8656509224    1.0907136749   -0.2936054901
N        0.8864258972    1.6730179701   -0.9650544802
H        2.7611470029    0.5733672114   -0.0792090685
H        2.0051898366   -1.3496975450    0.2792447857
H       -0.4075599103   -1.6257944922   -1.4736852189
H       -1.6807179239    1.0465596959    1.9386723973
H       -1.5257763631    1.5719210067   -1.0079116104
C       -1.3102050829   -0.7603351365    0.6582321510
H       -1.6564976698   -1.5211246340    1.3717312401
13   
C6H6N->C6H6N atoms 1-13 frame 292 charge +0.000 sz -1.000 sz^2 1.456
C        1.7336741198    0.5969897576   -0.4231235035
C        1.3952358605   -0.7718099009   -0.3634115543
C        0.0937616951   -1.0785321897   -0.5722264197
C       -1.4376684073    0.5437371152    0.9366581498
C       -0.8698415868    1.1143781119   -0.3089650278
N        0.8847481747    1.6561490734   -0.9633444791
H        2.7740300111    0.6146262713   -0.1080136246
H        2.0081365053   -1.3654523054    0.2879629423
H       -0.3470336241   -1.5875939471   -1.5004340101
H       -1.5838359356    1.0576744032    1.9287240513
H       -1.5763925624    1.5511240510   -0.9825736546
C       -1.3645664310   -0.7647879243    0.6612069805
H       -1.7102478192   -1.5665025162    1.4075401497
13   
C6H6N->C6H6N atoms 1-13 frame 294 charge +0.000 sz -1.000 sz^2 1.608
C        1.7280306457    0.5970536465   -0.4141110509
C        1.4010346679   -0.7944335848   -0.3552466615
C        0.0822337925   -1.0881663389   -0.5522258308
C       -1.4445859036    0.5569217889    0.9096377340
C       -0.8712110890    1.1379069454   -0.3228121638
N        0.8825487239    1.6351329217   -0.9581079606
H        2.7901676720    0.6669256701   -0.1407499137
H        2.0146799016   -1.3917148462    0.2953150310
H       -0.2836537267   -1.5429056484   -1.5136219092
H       -1.4911503191    1.0628602172    1.9112662967
H       -1.6267589639    1.5371769167   -0.9611547654
C       -1.4184726880   -0.7717999619    0.6669897623
H       -1.7628627131   -1.6049577263    1.4348214319
13   
C6H6N->C6H6N atoms 1-13 frame 295 charge -0.000 sz -1.000 sz^2 1.684
C        1.7220765795    0.5924076611   -0.4045308559
C        1.4063999818   -0.8177560054   -0.3443561691
C        0.0621897603   -1.1003996523   -0.5313457670
C       -1.4482090428    0.5685834087    0.8859368900
C       -0.8691996743    1.1610036083   -0.3343387131
N        0.8796919143    1.6098097171   -0.9480651521
H        2.8060619460    0.7287514221   -0.1778396776
H        2.0258347638   -1.4281308466    0.3016718206
H       -0.2206378225   -1.4943328601   -1.5161066266
H       -1.4036269962    1.0619897835    1.8881303744
H       -1.6763593478    1.5310403807   -0.9455490380
C       -1.4721118703   -0.7821082682    0.6764603230
H       -1.8121101917   -1.6308583491    1.4499325912
13   
C6H6N->C6H6N atoms 1-13 frame 297 charge -0.000 sz -1.000 sz^2 1.846
C        1.7166626696    0.5834225804   -0.3934388206
C        1.4121678386   -0.8414096698   -0.3292845108
C        0.0353887761   -1.1152473131   -0.5080573983
C       -1.4478786262    0.5774871776    0.8659672202
C       -0.8633689719    1.1835837541   -0.3433422734
N        0.8757726425    1.5800263909   -0.9322370683
H        2.8167441733    0.7988343036   -0.2200083066
H        2.0418837168   -1.4729360315    0.3064378734
H       -0.1618207733   -1.4451029059   -1.5129563682
H       -1.3224972170    1.0557844728    1.8610473258
H       -1.7215204583    1.5320951918   -0.9359978807
C       -1.5252812869   -0.7959527294    0.6905202671
H       -1.8562524832   -1.6405852214    1.4513499404
13   
C6H6N->C6H6N atoms 1-13 frame 299 charge -0.000 sz -1.000 sz^2 1.967
C        1.7126245947    0.5708956046   -0.3802552632
C        1.4192918247   -0.8646448111   -0.3082483996
C        0.0036589878   -1.1327189258   -0.4803986936
C       -1.4429161270    0.5822398787    0.8498415300
C       -0.8535345003    1.2055706902   -0.3502598661
N        0.8698305782    1.5456845776   -0.9100154260
H        2.8160552642    0.8755542128   -0.2681188695
H        2.0625833163   -1.5228146909    0.3080474437
H       -0.1112676904   -1.3982235661   -1.5105857831
H       -1.2494026700    1.0458642157    1.8320097899
H       -1.7555616449    1.5385672634   -0.9318802605
C       -1.5773472433   -0.8132009155    0.7099631745
H       -1.8940146900   -1.6327735335    1.4399006236
13   
C6H6N->C6H6N atoms 1-13 frame 300 charge +0.000 sz -1.000 sz^2 2.027
C        1.6932841028    0.5630275440   -0.3580769172
C        1.4062669815   -0.8692746356   -0.2803903064
C       -0.0400314713   -1.1469945613   -0.4559229462
C       -1.4124729752    0.5694070667    0.8334157517
C       -0.8241209869    1.2140297277   -0.3618743634
N        0.8509482062    1.5158328421   -0.8744920954
H        2.7804665676    0.9426026286   -0.2986201672
H        2.0625372240   -1.5496425389    0.3072856491
H       -0.1133026259   -1.3585340701   -1.5151338005
H       -1.1844850090    1.0294584926    1.8023027703
H       -1.7368067719    1.5378115553   -0.9532193476
C       -1.5913567087   -0.8329232733    0.7284819653
H       -1.8909265332   -1.6148007776    1.4262438076
13   
C6H6N->C6H6N atoms 1-13 frame 303 charge -0.000 sz -1.000 sz^2 2.146
C        1.6594082692    0.5709527289   -0.3392535658
C        1.3668837678   -0.8426537494   -0.2708484801
C       -0.0679213998   -1.1420454678   -0.4616789369
C       -1.3686771788    0.5448296984    0.8236828952
C       -0.7886338065    1.1953216808   -0.3746886883
N        0.8263643041    1.5188600025   -0.8511691905
H        2.7344997382    0.9403194063   -0.2691699214
H        2.0229262714   -1.5190867294    0.3101099844
H       -0.1839904439   -1.3538602487   -1.5208821536
H       -1.1651974575    1.0170891448    1.7924043254
H       -1.6692294773    1.5210777502   -0.9933092099
C       -1.5353865162   -0.8383115315    0.7245215960
H       -1.8310460706   -1.6124926851    1.4302813456
13   
C6H6N->C6H6N atoms 1-13 frame 305 charge -0.000 sz -1.000 sz^2 2.173
C        1.6223292007    0.5750479234   -0.3179844284
C        1.3294808025   -0.8194535438   -0.2621291744
C       -0.0953934526   -1.1350009904   -0.4683680429
C       -1.3248950466    0.5247746452    0.8141369828
C       -0.7521939245    1.1776372026   -0.3892128961
N        0.7884156440    1.5137612264   -0.8292585988
H        2.6857076274    0.9390749689   -0.2348003414
H        1.9835081370   -1.4943278191    0.3135470158
H       -0.2478532566   -1.3483924913   -1.5244992969
H       -1.1395574228    1.0088924005    1.7807386137
H       -1.6049375206    1.5057602289   -1.0278116653
C       -1.4767214974   -0.8404879515    0.7159338171
H       -1.7678892904   -1.6072857998    1.4297080146
13   
C6H6N->C6H6N atoms 1-13 frame 307 charge -0.000 sz -1.000 sz^2 2.169
C        1.5845558261    0.5774000699   -0.2959726470
C        1.2935378627   -0.7996028517   -0.2523603025
C       -0.1224084084   -1.1310037937   -0.4732158844
C       -1.2801396184    0.5079128855    0.8033627536
C       -0.7149541268    1.1652358610   -0.4051378888
N        0.7427851087    1.5063790975   -0.8064038499
H        2.6360202122    0.9393847215   -0.1995978162
H        1.9469955508   -1.4732842390    0.3168111415
H       -0.3105092123   -1.3465041824   -1.5251124909
H       -1.1136218009    1.0029928388    1.7678065541
H       -1.5419213680    1.4971651482   -1.0610578987
C       -1.4167135050   -0.8435487956    0.7042439304
H       -1.7036265208   -1.6025267600    1.4266343987
13   
C6H6N->C6H6N atoms 1-13 frame 308 charge +0.000 sz -1.000 sz^2 2.148
C        1.5471269314    0.5770279343   -0.2740476979
C        1.2594823674   -0.7841940929   -0.2413408644
C       -0.1481534501   -1.1347323399   -0.4755067450
C       -1.2357158428    0.4946335426    0.7896169701
C       -0.6789197759    1.1633305235   -0.4215026293
N        0.6909735296    1.4975726228   -0.7818512364
H        2.5864462864    0.9390538668   -0.1637973485
H        1.9151254544   -1.4556346842    0.3200335031
H       -0.3721964621   -1.3554051484   -1.5212083637
H       -1.0919656830    0.9981078864    1.7530348912
H       -1.4819114795    1.5036890975   -1.0912601146
C       -1.3535578500   -0.8472966216    0.6872424356
H       -1.6367340260   -1.5961525868    1.4205871998
13   
C6H6N->C6H6N atoms 1-13 frame 310 charge -0.000 sz -1.000 sz^2 2.078
C        1.5152406447    0.5720096730   -0.2550191569
C        1.2295987614   -0.7749773073   -0.2289800905
C       -0.1704022337   -1.1537308543   -0.4725902871
C       -1.1973118644    0.4856912250    0.7706198064
C       -0.6499248007    1.1808118889   -0.4353997550
N        0.6405322922    1.4904832171   -0.7564178429
H        2.5434153667    0.9329694111   -0.1298546238
H        1.8931148008   -1.4425102721    0.3208261040
H       -0.4309796124   -1.3875102109   -1.5084951382
H       -1.0913078000    0.9936327232    1.7354419938
H       -1.4308217306    1.5402012999   -1.1133187613
C       -1.2846131390   -0.8517984650    0.6621614003
H       -1.5665406850   -1.5852723285    1.4110263513
13   
C6H6N->C6H6N atoms 1-13 frame 311 charge +0.000 sz -1.000 sz^2 2.039
C        1.5000852386    0.5610461271   -0.2450892038
C        1.2115904637   -0.7739061747   -0.2191903952
C       -0.1825578908   -1.1887114202   -0.4627907140
C       -1.1782049581    0.4821499554    0.7491323244
C       -0.6376420325    1.2181201586   -0.4405434718
N        0.6094677103    1.4885159029   -0.7347638555
H        2.5210640980    0.9167155955   -0.1062699112
H        1.8916250684   -1.4394041999    0.3081125308
H       -0.4763380117   -1.4470549796   -1.4845482184
H       -1.1418307135    0.9931648654    1.7154609008
H       -1.3987127726    1.6122315406   -1.1180202897
C       -1.2150418470   -0.8553837767    0.6354431530
H       -1.5035043527   -1.5674835943    1.4030671504
13   
From optimize.out: Frame 1 / 37, Energy=    -286.5877433464
C        1.4997635061    0.5468617080   -0.2459197084
C        1.2095075389   -0.7804173503   -0.2179894790
C       -0.1798946265   -1.2277973089   -0.4526068416
C       -1.1798685975    0.4840383899    0.7332129705
C       -0.6385364974    1.2575004350   -0.4344997806
N        0.5993995677    1.4877265961   -0.7193679868
H        2.5173786414    0.8978723555   -0.0993320486
H        1.9117723611   -1.4480832079    0.2752891428
H       -0.4975456280   -1.5177627986   -1.4583847377
H       -1.2345594526    0.9986309629    1.6953231091
H       -1.3811229222    1.6984219505   -1.1022499568
C       -1.1609040054   -0.8538169391    0.6212829433
H       -1.4653898856   -1.5431747932    1.4052423739
13   
From optimize.out: Frame 3 / 37, Energy=    -286.6952452699
C        1.5024899091    0.5327745350   -0.2520311809
C        1.2143828543   -0.7908021758   -0.2202401594
C       -0.1698575668   -1.2648257121   -0.4428385933
C       -1.1885922851    0.4888660823    0.7201216155
C       -0.6418333195    1.2938978788   -0.4227344366
N        0.5961241703    1.4855710456   -0.7078637785
H        2.5186116513    0.8824163717   -0.1040106030
H        1.9395026443   -1.4610387712    0.2358124152
H       -0.5036572089   -1.5909544015   -1.4313501321
H       -1.3334140348    1.0024028092    1.6721269883
H       -1.3667521130    1.7870678857   -1.0728431099
C       -1.1217471423   -0.8479474281    0.6150080261
H       -1.4452575589   -1.5174281197    1.4108429485
13   
From optimize.out: Frame 4 / 37, Energy=    -286.7425620681
C        1.5050366848    0.5199421487   -0.2611221368
C        1.2212313788   -0.8023710402   -0.2226120668
C       -0.1572261631   -1.2997465493   -0.4299431113
C       -1.1989238065    0.4954073268    0.7068012943
C       -0.6439010590    1.3287986344   -0.4075689118
N        0.5954943060    1.4830938493   -0.6987154114
H        2.5210437801    0.8700038516   -0.1171164101
H        1.9691291523   -1.4737045497    0.1947934007
H       -0.5013230417   -1.6660216939   -1.3995423916
H       -1.4293214676    1.0026387562    1.6441534215
H       -1.3517549507    1.8753291239   -1.0334066295
C       -1.0925820479   -0.8398988766    0.6109251759
H       -1.4369027654   -1.4934709811    1.4133537768
13   
From optimize.out: Frame 6 / 37, Energy=    -286.8072292042
C        1.5068381637    0.5088111427   -0.2725123257
C        1.2292697875   -0.8137639536   -0.2260098328
C       -0.1432312235   -1.3306486671   -0.4139713063
C       -1.2098648295    0.5032415450    0.6936868065
C       -0.6431880517    1.3605029298   -0.3900218032
N        0.5963342790    1.4806822371   -0.6905236836
H        2.5235634600    0.8602703465   -0.1370906825
H        1.9995465058   -1.4847591226    0.1508946202
H       -0.4922636102   -1.7424209563   -1.3621423775