13   
From optimize.out: Frame 16 / 17, Energy=    -286.8365048754
C        1.5440404333    0.5861293134   -0.1642656935
C        0.8932240621   -0.7432938957    0.0274589318
C       -0.4118021088   -0.6570999196   -0.6948209223
C       -1.0183475571    0.6294805270    0.8815113260
C       -0.6032954815    0.9022185475   -0.5702328577
N        0.7481623825    1.5150230143   -0.5423615294
H        2.5983866781    0.7809973401    0.0292120357
H        1.4557634281   -1.6712684557    0.0633870647
H       -0.8129686200   -1.3478195967   -1.4308827970
H       -1.9834849206    0.8770013627    1.3088557403
H       -1.2899603538    1.4326196268   -1.2296229830
C       -0.4463686444   -0.7299036655    0.8394551851
H       -0.6733492982   -1.5740841980    1.4823064987
13   
From optimize.out: Frame 15 / 17, Energy=    -286.8365024097
C        1.5438469177    0.5859448630   -0.1649457888
C        0.8933014116   -0.7435733548    0.0263465787
C       -0.4120779842   -0.6576811367   -0.6944418710
C       -1.0177794448    0.6298603441    0.8817468997
C       -0.6026782462    0.9018121747   -0.5702421063
N        0.7478007690    1.5153708614   -0.5415897849
H        2.5976475437    0.7811598371    0.0307228769
H        1.4555408814   -1.6716736018    0.0628918282
H       -0.8143070464   -1.3470420781   -1.4314559464
H       -1.9839455541    0.8767017579    1.3072825687
H       -1.2894409582    1.4321680399   -1.2294218059
C       -0.4462004822   -0.7297206354    0.8395143610
H       -0.6717078074   -1.5733270712    1.4835921902
13   
From optimize.out: Frame 14 / 17, Energy=    -286.8364997532
C        1.5446898481    0.5853761881   -0.1648619373
C        0.8938060705   -0.7428310972    0.0283422101
C       -0.4110786445   -0.6566868640   -0.6931909125
C       -1.0191552576    0.6295364524    0.8825672046
C       -0.6030112689    0.9028878728   -0.5694272526
N        0.7483990843    1.5144926105   -0.5422282355
H        2.5996451446    0.7791611519    0.0260277021
H        1.4558371095   -1.6710352760    0.0642408700
H       -0.8129784784   -1.3445125064   -1.4318424386
H       -1.9868445001    0.8746449824    1.3058349206
H       -1.2900474214    1.4325083234   -1.2290385655
C       -0.4475441970   -0.7296794551    0.8399008609
H       -0.6717174890   -1.5738623827    1.4836755737
13   
From optimize.out: Frame 12 / 17, Energy=    -286.8364750842
C        1.5443034409    0.5869305741   -0.1632544095
C        0.8944789355   -0.7432900495    0.0235336805
C       -0.4125443626   -0.6588733868   -0.6941622647
C       -1.0168780745    0.6297507907    0.8829127180
C       -0.6022286859    0.9012122899   -0.5702125922
N        0.7475362105    1.5158953852   -0.5404567551
H        2.5994090889    0.7798774833    0.0276698477
H        1.4548209370   -1.6722127256    0.0685752727
H       -0.8167015676   -1.3426834458   -1.4358797681
H       -1.9856270035    0.8752210745    1.3037513589
H       -1.2903106880    1.4314437683   -1.2280062740
C       -0.4480141578   -0.7308895884    0.8384793052
H       -0.6682440730   -1.5723821701    1.4870498805
13   
From optimize.out: Frame 10 / 17, Energy=    -286.8359926413
C        1.5485246921    0.5812475004   -0.1830959568
C        0.8974713111   -0.7385865428    0.0456549340
C       -0.4015477927   -0.6571580761   -0.6836333353
C       -1.0216413007    0.6286148852    0.8899425717
C       -0.5989001392    0.9014717120   -0.5623448658
N        0.7468110305    1.5149723464   -0.5378052150
H        2.6030583851    0.7778881710    0.0055915060
H        1.4646322243   -1.6639396066    0.0491971414
H       -0.7968971316   -1.3354493182   -1.4360974473
H       -1.9950096427    0.8768473228    1.2987307477
H       -1.2862541733    1.4276210016   -1.2238310338
C       -0.4659127139   -0.7363069273    0.8456140738
H       -0.6943347488   -1.5772224683    1.4920768795
13   
From optimize.out: Frame 9 / 17, Energy=    -286.8356440959
C        1.5440706587    0.5912213311   -0.1596930593
C        0.8874049488   -0.7417233189    0.0363023127
C       -0.4075250885   -0.6606957741   -0.7090665909
C       -1.0171291562    0.6206389690    0.8782637717
C       -0.6087674492    0.8936984576   -0.5776767707
N        0.7433509842    1.5157409002   -0.5279052824
H        2.6035482724    0.7701912235    0.0205132226
H        1.4458281411   -1.6719492819    0.0957663697
H       -0.8364567824   -1.3138756455   -1.4654261829
H       -1.9827911281    0.8706513066    1.3033800691
H       -1.2935915862    1.4279373059   -1.2346712853
C       -0.4326359953   -0.7402179986    0.8318016253
H       -0.6453058193   -1.5616174748    1.5084118004
13   
From optimize.out: Frame 8 / 17, Energy=    -286.8355571031
C        1.5382700183    0.5807353129   -0.1485416722
C        0.9020810120   -0.7504875978    0.0079480679
C       -0.4194516004   -0.6604686053   -0.6764102681
C       -1.0165728623    0.6421927868    0.8911300469
C       -0.5971756145    0.9036314671   -0.5662831125
N        0.7451418053    1.5122017643   -0.5407615720
H        2.5942049175    0.7706832388    0.0350968946
H        1.4635226426   -1.6786567932    0.0241421588
H       -0.7955220699   -1.3473281446   -1.4360378032
H       -2.0013262868    0.8796160061    1.2810191626
H       -1.2952513170    1.4260582643   -1.2183276526
C       -0.4587052440   -0.7200489187    0.8443153264
H       -0.6592154009   -1.5581287807    1.5027104234
13   
From optimize.out: Frame 7 / 17, Energy=    -286.8348247887
C        1.5416853072    0.5737331020   -0.1851353355
C        0.8933033536   -0.7373159849    0.0052761529
C       -0.4229324270   -0.6522088975   -0.6763332268
C       -0.9991780573    0.6395943538    0.9018924565
C       -0.5958988483    0.9142004993   -0.5604972797
N        0.7468746880    1.5140968664   -0.5650624497
H        2.5908632733    0.7720927382    0.0225753755
H        1.4288632130   -1.6735034184    0.1109213370
H       -0.7600575166   -1.3472109713   -1.4497770024
H       -1.9862988225    0.8709024643    1.2906012664
H       -1.3104281033    1.4351027604   -1.1953086976
C       -0.4671507996   -0.7274124879    0.8312713527
H       -0.6596452604   -1.5820710244    1.4695760507
13   
From optimize.out: Frame 6 / 17, Energy=    -286.8308169607
C        1.5467053407    0.5672568507   -0.2017692536
C        0.9051343371   -0.7391383316   -0.0338090636
C       -0.4351159598   -0.6472867930   -0.6591876727
C       -0.9926852380    0.6472743184    0.9123050779
C       -0.5864296596    0.9247564622   -0.5499962370
N        0.7545909624    1.5140377664   -0.5899404618
H        2.5864503172    0.7883244744    0.0311120296
H        1.4189143472   -1.6766889569    0.1379133921
H       -0.7414791408   -1.3665001934   -1.4222537887
H       -1.9900293431    0.8654708957    1.2839630728
H       -1.3132821817    1.4422445249   -1.1749848083
C       -0.4818140459   -0.7187753898    0.8331963070
H       -0.6709597358   -1.6009756279    1.4334514064
13   
From optimize.out: Frame 5 / 17, Energy=    -286.8234886508
C        1.5622143612    0.5617380002   -0.2340730485
C        0.9226808395   -0.7378728455   -0.0693129292
C       -0.4415207257   -0.6400556683   -0.6373803879
C       -0.9939574200    0.6466150744    0.9268663857
C       -0.5742589544    0.9353944883   -0.5339084138
N        0.7735981998    1.5134194653   -0.6248393140
H        2.5894568494    0.8175377874    0.0275616639
H        1.4137881638   -1.6741669180    0.1661456297
H       -0.7246554048   -1.3816100180   -1.3810958430
H       -2.0007670470    0.8542112919    1.2804485293
H       -1.3089842356    1.4525452241   -1.1546458303
C       -0.5087963996   -0.7175376335    0.8414236069
H       -0.7087982265   -1.6302182484    1.3928099512
13   
From optimize.out: Frame 4 / 17, Energy=    -286.8103184649
C        1.6017456879    0.5604471847   -0.2780058604
C        0.9651530326   -0.7391602162   -0.1043490676
C       -0.4465537250   -0.6368500135   -0.6004532518
C       -1.0248153974    0.6427030834    0.9518601215
C       -0.5602816311    0.9418981626   -0.5010308702
N        0.8129522057    1.5167573683   -0.6508496632
H        2.6222469756    0.8609709111   -0.0165828943
H        1.4540553520   -1.6735701249    0.1532246141
H       -0.7030967628   -1.4002059148   -1.3163035856
H       -2.0468910576    0.8451098235    1.2655182068
H       -1.2962915734    1.4622492374   -1.1267589131
C       -0.5721732596   -0.7191826720    0.8658271462
H       -0.8060498468   -1.6611668295    1.3579040175
13   
From optimize.out: Frame 3 / 17, Energy=    -286.7889980948
C        1.6603042150    0.5634078671   -0.3245573032
C        1.0108329615   -0.7423189058   -0.1255881546
C       -0.4601328135   -0.6343395986   -0.5613620306
C       -1.0762325376    0.6348600911    0.9800674312
C       -0.5525220548    0.9482724001   -0.4614768145
N        0.8760732702    1.5233260045   -0.6742752124
H        2.6785747320    0.9092842070   -0.0814138117
H        1.5060897218   -1.6765670213    0.1371120393
H       -0.6907883587   -1.4155741581   -1.2456725425
H       -2.1158265074    0.8292001510    1.2420655319
H       -1.2874438203    1.4739459851   -1.0969768904
C       -0.6424018049   -0.7217981165    0.8916712905
H       -0.9065270033   -1.6916989058    1.3204064669
13   
From optimize.out: Frame 2 / 17, Energy=    -286.7574040054
C        1.7296454076    0.5736352727   -0.3631373680
C        1.0480210882   -0.7502682629   -0.1316248234
C       -0.4869314017   -0.6354725815   -0.5278322802
C       -1.1316854207    0.6261138246    1.0060324608
C       -0.5480101130    0.9564503676   -0.4240575786
N        0.9519244374    1.5308333273   -0.6966743457
H        2.7467649506    0.9692447835   -0.1472254411
H        1.5498793380   -1.6871161156    0.1337664772
H       -0.6999862042   -1.4298366497   -1.1781614907
H       -2.1876393527    0.8104048357    1.2126908737
H       -1.2849300866    1.4890479897   -1.0712210203
C       -0.7031828813   -0.7276110027    0.9115351786
H       -0.9838697616   -1.7254257887    1.2759093579
13   
From optimize.out: Frame 1 / 17, Energy=    -286.7157761222
C        1.7980811450    0.5861882043   -0.3964249635
C        1.0674740995   -0.7492076142   -0.1303143312
C       -0.5246884062   -0.6387963065   -0.4963369139
C       -1.1782822978    0.6137355024    1.0224821697
C       -0.5349439841    0.9633508236   -0.3913189088
N        1.0263615820    1.5319591849   -0.7156201463
H        2.8114799538    1.0319002157   -0.2005540853
H        1.5739886737   -1.6893494099    0.1411308794
H       -0.7328040596   -1.4344711385   -1.1032692704
H       -2.2486636182    0.7807390865    1.1732015430
H       -1.2784521322    1.5016028905   -1.0522995613
C       -0.7465539149   -0.7367114817    0.9245665602
H       -1.0329970411   -1.7609399571    1.2247570286
13   
C6H6N->C6H6N atoms 1-13 frame 268 charge +0.000 sz -1.000 sz^2 1.064
C        1.7980811450    0.5861882043   -0.3964249635
C        1.0674740995   -0.7492076142   -0.1303143312
C       -0.5246884062   -0.6387963065   -0.4963369139
C       -1.1782822978    0.6137355024    1.0224821697
C       -0.5349439841    0.9633508236   -0.3913189088
N        1.0263615820    1.5319591849   -0.7156201463
H        2.8114799538    1.0319002157   -0.2005540853
H        1.5739886737   -1.6893494099    0.1411308794
H       -0.7328040596   -1.4344711385   -1.1032692704
H       -2.2486636182    0.7807390865    1.1732015430
H       -1.2784521322    1.5016028905   -1.0522995613
C       -0.7465539149   -0.7367114817    0.9245665602
H       -1.0329970411   -1.7609399571    1.2247570286
13   
C6H6N->C6H6N atoms 1-13 frame 269 charge +0.000 sz -1.000 sz^2 1.088
C        1.7999698621    0.5750309269   -0.4068186800
C        1.0764560708   -0.7497031440   -0.1422074083
C       -0.5190384846   -0.6628954544   -0.4976787647
C       -1.1829767586    0.6153905602    1.0432239722
C       -0.5446999743    0.9655207756   -0.3696090136
N        1.0296400637    1.5378675395   -0.7280128838
H        2.7993049137    1.0345792725   -0.1848610439
H        1.5977622372   -1.6854819175    0.1386416754
H       -0.7352779632   -1.4728927632   -1.0909059122
H       -2.2512276781    0.7790796440    1.1955754363
H       -1.2669437421    1.5242264746   -1.0575104704
C       -0.7486746669   -0.7341441357    0.9093930524
H       -1.0542938797   -1.7265777787    1.1907700406
13   
C6H6N->C6H6N atoms 1-13 frame 270 charge -0.000 sz -1.000 sz^2 1.112
C        1.8016253502    0.5648257714   -0.4163966726
C        1.0860310918   -0.7491061434   -0.1539278111
C       -0.5114672212   -0.6863303727   -0.4994105687
C       -1.1879086403    0.6166505450    1.0634998231
C       -0.5548891958    0.9678142587   -0.3487616528
N        1.0314556861    1.5449889894   -0.7399918607
H        2.7867438728    1.0343768958   -0.1692721449
H        1.6212433919   -1.6791075720    0.1358772970
H       -0.7398753842   -1.5140026510   -1.0846288043
H       -2.2535408086    0.7784879510    1.2188284115
H       -1.2531506615    1.5453292040   -1.0609655204
C       -0.7509198454   -0.7317357504    0.8941310123
H       -1.0753476358   -1.6921911256    1.1610184915
13   
C6H6N->C6H6N atoms 1-13 frame 271 charge +0.000 sz -1.000 sz^2 1.139
C        1.8030316049    0.5557624677   -0.4253598720
C        1.0962489386   -0.7473421373   -0.1655516732
C       -0.5019323848   -0.7089333043   -0.5017625539
C       -1.1930409436    0.6176714183    1.0829099545
C       -0.5654675511    0.9703608420   -0.3291986850
N        1.0319580386    1.5532602117   -0.7518002387
H        2.7742127131    1.0313579104   -0.1541303820
H        1.6442173344   -1.6698839226    0.1328849171
H       -0.7461463491   -1.5567494880   -1.0836422638
H       -2.2557488944    0.7792617533    1.2428096003
H       -1.2371348670    1.5644718343   -1.0624517754
C       -0.7533404993   -0.7290820876    0.8787407621
H       -1.0968571402   -1.6601554979    1.1365522101
13   
C6H6N->C6H6N atoms 1-13 frame 272 charge +0.000 sz -1.000 sz^2 1.167
C        1.8041674629    0.5479758559   -0.4339335956
C        1.1071500227   -0.7443714333   -0.1771711983
C       -0.4904133995   -0.7306278249   -0.5049672277
C       -1.1983302460    0.6185843548    1.1010592994
C       -0.5763915526    0.9732553697   -0.3113200941
N        1.0312807063    1.5625758013   -0.7637177254
H        2.7621369949    1.0256459379   -0.1397802205
H        1.6665327746   -1.6576247841    0.1297173460
H       -0.7534700101   -1.5997537740   -1.0868482891
H       -2.2579749777    0.7816471917    1.2673806226
H       -1.2191176685    1.5812920046   -1.0619116306
C       -0.7559732955   -0.7258294871    0.8631979107
H       -1.1195968115   -1.6327692125    1.1182948026
13   
C6H6N->C6H6N atoms 1-13 frame 273 charge +0.000 sz -1.000 sz^2 1.199
C        1.8050014070    0.5415322803   -0.4423243207
C        1.1187512545   -0.7402022815   -0.1888849549
C       -0.4769196004   -0.7514104113   -0.5092319610
C       -1.2037404058    0.6194616056    1.1175944619
C       -0.5876260705    0.9765467190   -0.2954561836
N        1.0295342772    1.5727920240   -0.7759987922
H        2.7509289105    1.0173950125   -0.1265035296
H        1.6880937070   -1.6423300896    0.1264245952
H       -0.7611395691   -1.6415554228   -1.0930620013
H       -2.2603085573    0.7857986184    1.2924426835
H       -1.1994640296    1.5955221436   -1.0593915313
C       -0.7588710596   -0.7217485991    0.8475019783
H       -1.1442402640   -1.6118015990    1.1068895558
13   
C6H6N->C6H6N atoms 1-13 frame 274 charge +0.000 sz -1.000 sz^2 1.227
C        1.8054857186    0.5364157427   -0.4506762833
C        1.1310297722   -0.7349096166   -0.2007856301
C       -0.4614984259   -0.7713371778   -0.5147222984
C       -1.2092619066    0.6202799380    1.1322317907
C       -0.5991516788    0.9802226552   -0.2818293590
N        1.0268043773    1.5837249771   -0.7888093718
H        2.7409666101    1.0067541150   -0.1144598297
H        1.7088419359   -1.6242061318    0.1230529264
H       -0.7684477418   -1.6808103306   -1.1011841653
H       -2.2628034458    0.7917413859    1.3179549537
H       -1.1786679548    1.6070036896   -1.0550028176
C       -0.7621459145   -0.7167993393    0.8316819203
H       -1.1711513460   -1.5980799073    1.1025481640
13   
C6H6N->C6H6N atoms 1-13 frame 275 charge +0.000 sz -1.000 sz^2 1.248
C        1.8055534660    0.5325225457   -0.4590440654
C        1.1439108665   -0.7286400752   -0.2129430956
C       -0.4442458494   -0.7905112956   -0.5215483685
C       -1.2149261470    0.6209108027    1.1447721112
C       -0.6109686044    0.9842051623   -0.2705325559
N        1.0231533755    1.5951535870   -0.8021929546
H        2.7325662319    0.9938381068   -0.1036532940
H        1.7287436781   -1.6036709000    0.1196582083
H       -0.7747554558   -1.7164036033   -1.1103027238
H       -2.2654720066    0.7993604004    1.3439292739
H       -1.1573354990    1.6157015973   -1.0489108857
C       -0.7659939869   -0.7111491397    0.8157994262
H       -1.2002300690   -1.5913171885    1.1049689238
13   
C6H6N->C6H6N atoms 1-13 frame 276 charge +0.000 sz -1.000 sz^2 1.255
C        1.8051246985    0.5296802313   -0.4673935259
C        1.1572708423   -0.7215993380   -0.2253892218
C       -0.4253036241   -0.8090646360   -0.5297510086
C       -1.2208018799    0.6211497482    1.1551013020
C       -0.6230900412    0.9883618973   -0.2615342436
N        1.0186296326    1.6068299042   -0.8160757774
H        2.7259648126    0.9787223609   -0.0939562599
H        1.7477882557   -1.5813195624    0.1163310733
H       -0.7795296890   -1.7474842862   -1.1197119875
H       -2.2682759879    0.8084254065    1.3704154199
H       -1.1361686460    1.6217180548   -1.0413567989
C       -0.7706855275   -0.7051255915    0.7999529996
H       -1.2309228459   -1.5902941892    1.1133680288
13   
C6H6N->C6H6N atoms 1-13 frame 277 charge +0.000 sz -1.000 sz^2 1.256
C        1.8041202384    0.5276793803   -0.4756249994
C        1.1709516762   -0.7140260061   -0.2381127008
C       -0.4048464911   -0.8271338996   -0.5392908189
C       -1.2269770437    0.6207627528    1.1631802743
C       -0.6355306069    0.9925281003   -0.2546994111
N        1.0132775902    1.6184992459   -0.8303021648
H        2.7213079507    0.9614609656   -0.0851613446
H        1.7660026653   -1.5578662879    0.1132156470
H       -0.7823526550   -1.7734522328   -1.1288867983
H       -2.2711050225    0.8186413054    1.3974885756
H       -1.1159469046    1.6253056517   -1.0327017422
C       -0.7765289574   -0.6991286958    0.7842756506
H       -1.2623724397   -1.5932702798    1.1266198328
13   
C6H6N->C6H6N atoms 1-13 frame 278 charge +0.000 sz -1.000 sz^2 1.241
C        1.8024772759    0.5263114456   -0.4836026006
C        1.1847800413   -0.7061656814   -0.2510600644
C       -0.3830672450   -0.8448401951   -0.5500428673
C       -1.2335357110    0.6195339383    1.1690355818
C       -0.6482913451    0.9965321032   -0.2498123921
N        1.0071463229    1.6299203652   -0.8446732412
H        2.7186460645    0.9421137483   -0.0770455840
H        1.7834657997   -1.5340765571    0.1105135757
H       -0.7829134835   -1.7939313846   -1.1374422655
H       -2.2737545977    0.8296921336    1.4252290767
H       -1.0975072612    1.6268755597   -1.0234622835
C       -0.7838182205   -0.6935517094    0.7689276865
H       -1.2936276403   -1.5984137663    1.1434353779
13   
C6H6N->C6H6N atoms 1-13 frame 279 charge -0.000 sz -1.000 sz^2 1.225
C        1.8001630759    0.5253919054   -0.4911770456
C        1.1985875375   -0.6982548054   -0.2641440307
C       -0.3601601478   -0.8622762884   -0.5618015651
C       -1.2405370474    0.6172909056    1.1727496003
C       -0.6613488072    1.0002100583   -0.2465974358
N        1.0002961765    1.6408794894   -0.8589766652
H        2.7179291477    0.9207644482   -0.0694174152
H        1.8003079118   -1.5106986726    0.1084668362
H       -0.7809933538   -1.8087372548   -1.1451006179
H       -2.2759272781    0.8412690039    1.4537121499
H       -1.0817133165    1.6269933854   -1.0143250383
C       -0.7927926528   -0.6887311105    0.7540831041
H       -1.3238112457   -1.6041010644    1.1625281231
13   
C6H6N->C6H6N atoms 1-13 frame 280 charge +0.000 sz -1.000 sz^2 1.194
C        1.7971826167    0.5247784096   -0.4981973425
C        1.2122222551   -0.6905144379   -0.2772508213
C       -0.3363130321   -0.8794995893   -0.5742938473
C       -1.2480073616    0.6139161381    1.1744522443
C       -0.6746512806    1.0034183001   -0.2447363015
N        0.9928022309    1.6511975237   -0.8729991043
H        2.7190047905    0.8975274434   -0.0621458553
H        1.8166964588   -1.4884116905    0.1073353816
H       -0.7764551203   -1.8178628998   -1.1516809994
H       -2.2772423265    0.8530820860    1.4829918195
H       -1.0694116870    1.6263484099   -1.0061120514
C       -0.8036140310   -0.6849304287    0.7399163064
H       -1.3522135128   -1.6090492645    1.1827205711
13   
C6H6N->C6H6N atoms 1-13 frame 281 charge -0.000 sz -1.000 sz^2 1.182
C        1.7935806946    0.5243755542   -0.5045156134
C        1.2255536805   -0.6831534504   -0.2902473444
C       -0.3117022472   -0.8965284987   -0.5872001312
C       -1.2559407809    0.6093443520    1.1743085288
C       -0.6881210187    1.0060397050   -0.2438891093
N        0.9847564489    1.6607320739   -0.8865305494
H        2.7216260992    0.8725522024   -0.0551659162
H        1.8328053199   -1.4677777179    0.1073676091
H       -0.7692403463   -1.8214699843   -1.1571003596
H       -2.2772551926    0.8648673583    1.5130939869
H       -1.0613743630    1.6256853328   -0.9997079129
C       -0.8163678844   -0.6823369853    0.7265912101
H       -1.3783204099   -1.6123299421    1.2029956014
13   
C6H6N->C6H6N atoms 1-13 frame 282 charge -0.000 sz -1.000 sz^2 1.174
C        1.7894392361    0.5241336984   -0.5099907212
C        1.2384735829   -0.6763723961   -0.3029854665
C       -0.2864946106   -0.9133440296   -0.6001723419
C       -1.2643053706    0.6035687114    1.1725078725
C       -0.7016606307    1.0079954735   -0.2437210553
N        0.9762686585    1.6693741078   -0.8993698633
H        2.7254694534    0.8460284700   -0.0484789658
H        1.8487759147   -1.4492067395    0.1087747050
H       -0.7593719907   -1.8198871804   -1.1613882984
H       -2.2755012385    0.8763939810    1.5439889974
H       -1.0582261710    1.6257091149   -0.9959243867
C       -0.8310645568   -0.6810776842    0.7142511691
H       -1.4018022767   -1.6133155272    1.2225083552
13   
C6H6N->C6H6N atoms 1-13 frame 283 charge -0.000 sz -1.000 sz^2 1.187
C        1.7848727669    0.5240481502   -0.5144889665
C        1.2508967250   -0.6703615987   -0.3153069343
C       -0.2608462007   -0.9298840019   -0.6128564386
C       -1.2730531944    0.5966417629    1.1692425045
C       -0.7151617335    1.0092607986   -0.2439328590
N        0.9674684256    1.6770501330   -0.9113301231
H        2.7301557176    0.8181911233   -0.0421357051
H        1.8646833853   -1.4329333563    0.1117073166
H       -0.7469690633   -1.8136244231   -1.1647102408
H       -2.2715230358    0.8874789125    1.5755845796
H       -1.0603741522    1.6269593974   -0.9953545410
C       -0.8476585952   -0.6812154043    0.7030110412
H       -1.4224910453   -1.6116114939    1.2405703665
13   
C6H6N->C6H6N atoms 1-13 frame 284 charge -0.000 sz -1.000 sz^2 1.197
C        1.7800202522    0.5241529858   -0.5178870593
C        1.2627612238   -0.6652961975   -0.3270471932
C       -0.2349028747   -0.9460435080   -0.6249070910
C       -1.2821302868    0.5886818224    1.1646883380
C       -0.7285142163    1.0098806750   -0.2442890710
N        0.9585040516    1.6837207243   -0.9222499289
H        2.7352799823    0.7893313857   -0.0362170111
H        1.8805112660   -1.4190104856    0.1162419296
H       -0.7322636343   -1.8033829815   -1.1673918522
H       -2.2649033626    0.8980016769    1.6077108837
H       -1.0679500021    1.6297098299   -0.9982332766
C       -0.8660619046   -0.6827536474    0.6929511054
H       -1.4403504944   -1.6069922800    1.2566302265
13   
C6H6N->C6H6N atoms 1-13 frame 285 charge +0.000 sz -1.000 sz^2 1.210
C        1.7750386341    0.5245202853   -0.5200740453
C        1.2740270073   -0.6613291247   -0.3380398975
C       -0.2087977690   -0.9616697780   -0.6360019092
C       -1.2914819296    0.5798727516    1.1589966163
C       -0.7416082934    1.0099743334   -0.2446354175
N        0.9495437841    1.6893844157   -0.9319931419
H        2.7404439888    0.7597996284   -0.0308149096
H        1.8961523973   -1.4073266109    0.1223761797
H       -0.7156172397   -1.7900578764   -1.1699310500
H       -2.2552826477    0.9079112529    1.6401241224
H       -1.0808001476    1.6339068416   -1.0043768290
C       -0.8861605635   -0.6856301710    0.6841162935
H       -1.4554572211   -1.5993559479    1.2702539881
13   
C6H6N->C6H6N atoms 1-13 frame 286 charge -0.000 sz -1.000 sz^2 1.224
C        1.7700935408    0.5252486074   -0.5209549042
C        1.2846778762   -0.6585827637   -0.3481214845
C       -0.1826500316   -0.9765715825   -0.6458438063
C       -1.3010538283    0.5704595721    1.1522885216
C       -0.7543373214    1.0097322163   -0.2449002927
N        0.9407692903    1.6940733007   -0.9404562223
H        2.7452850590    0.7300103739   -0.0260142542
H        1.9114226607   -1.3976381643    0.1300360231
H       -0.6975261923   -1.7747228651   -1.1729959087
H       -2.2423767287    0.9172260721    1.6725177849
H       -1.0985062580    1.6391947666   -1.0131977304
C       -0.9078207697   -0.6897235162    0.6765192936
H       -1.4679772969   -1.5887060172    1.2811229803
13   
C6H6N->C6H6N atoms 1-13 frame 287 charge +0.000 sz -1.000 sz^2 1.254
C        1.7653491380    0.5264527416   -0.5204539591
C        1.2947210050   -0.6571435329   -0.3571351135
C       -0.1565642444   -0.9905339379   -0.6541617379
C       -1.3107903006    0.5607350045    1.1446620047
C       -0.7665987093    1.0093964133   -0.2450804126
N        0.9323674243    1.6978468915   -0.9475681260
H        2.7495036712    0.7004393411   -0.0218830276
H        1.9260888378   -1.3896141083    0.1390883289
H       -0.6786076376   -1.7585817033   -1.1773926969
H       -2.2259813813    0.9260222714    1.7045447556
H       -1.1204448319    1.6450002283   -1.0238124270
C       -0.9308925854   -0.6948616388    0.6701487525
H       -1.4781503858   -1.5751579705    1.2890436588
13   
C6H6N->C6H6N atoms 1-13 frame 288 charge +0.000 sz -1.000 sz^2 1.272
C        1.7609559861    0.5282466495   -0.5185226122
C        1.3041871056   -0.6570578111   -0.3649380431
C       -0.1306365906   -1.0033452803   -0.6607117737
C       -1.3206317874    0.5510223722    1.1361957421
C       -0.7782973728    1.0092370774   -0.2452211057
N        0.9245153510    1.7007785959   -0.9532988425
H        2.7528763767    0.6716128327   -0.0184711469
H        1.9399003185   -1.3828856109    0.1493578810
H       -0.6595465398   -1.7428680323   -1.1839965625
H       -2.2059725402    0.9344172161    1.7358405351
H       -1.1458603110    1.6506499464   -1.0351853178
C       -0.9552105582   -0.7008364231    0.6649767815
H       -1.4862794376   -1.5589715325    1.2939744648
13   
C6H6N->C6H6N atoms 1-13 frame 289 charge +0.000 sz -1.000 sz^2 1.304
C        1.7570389606    0.5307237054   -0.5151523988
C        1.3131212607   -0.6583368109   -0.3714134523
C       -0.1049688189   -1.0148270108   -0.6652878513
C       -1.3305124275    0.5416531441    1.1269593181
C       -0.7893470349    1.0095163375   -0.2454028728
N        0.9173671973    1.7029426930   -0.9576622337
H        2.7552694797    0.6440881147   -0.0158230418
H        1.9526209498   -1.3770913808    0.1606358676
H       -0.6409939345   -1.7286816527   -1.1936307153
H       -2.1823018063    0.9425500106    1.7660434743
H       -1.1739544610    1.6554701152   -1.0462861436
C       -0.9805977451   -0.7074160924    0.6609628311
H       -1.4927416199   -1.5405911728    1.2960572185
13   
C6H6N->C6H6N atoms 1-13 frame 290 charge +0.000 sz -1.000 sz^2 1.347
C        1.7536832084    0.5339398769   -0.5103932778
C        1.3215744188   -0.6609592955   -0.3764870728
C       -0.0796909537   -1.0248649934   -0.6677390607
C       -1.3403619025    0.5329504119    1.1170074245
C       -0.7996793958    1.0104698241   -0.2457330376
N        0.9110375964    1.7043979847   -0.9607331663
H        2.7566388543    0.6184304089   -0.0139945084
H        1.9640508287   -1.3719195261    0.1726878738
H       -0.6234379384   -1.7168134267   -1.2069290413
H       -2.1549902175    0.9505665661    1.7948028919
H       -1.2039488355    1.6588598788   -1.0561956083
C       -1.0068705558   -0.7143567714    0.6580488755
H       -1.4980051075   -1.5207009384    1.2956577075
13   
C6H6N->C6H6N atoms 1-13 frame 291 charge +0.000 sz -1.000 sz^2 1.403
C        1.7509241917    0.5378994413   -0.5043704637
C        1.3295938221   -0.6648778867   -0.3801434111
C       -0.0549827745   -1.0334372104   -0.6679916190
C       -1.3501069765    0.5252126715    1.1063750158
C       -0.8092500472    1.0122950305   -0.2463439827
N        0.9055881074    1.7051742740   -0.9626590016
H        2.7570262128    0.5951877721   -0.0130718003
H        1.9740339640   -1.3671312645    0.1852491297
H       -0.6070717507   -1.7075988570   -1.2241996003
H       -2.1241281526    0.9586108543    1.8217812410
H       -1.2351339112    1.6603456163   -1.0641764509
C       -1.0338438116   -0.7214122650    0.6561497920
H       -1.5026488737   -1.5002681763    1.2934011510
13   
C6H6N->C6H6N atoms 1-13 frame 292 charge +0.000 sz -1.000 sz^2 1.456
C        1.7487456255    0.5425559761   -0.4972926031
C        1.3372135843   -0.6700192135   -0.3824395406
C       -0.0310863169   -1.0406070847   -0.6660729443
C       -1.3596746318    0.5187040033    1.0950747621
C       -0.8180414824    1.0151413866   -0.2473909559
N        0.9010284609    1.7052781756   -0.9636565325
H        2.7565568972    0.5748714027   -0.0131818251
H        1.9824737395   -1.3625767664    0.1980227345
H       -0.5917302388   -1.7008593846   -1.2453424859