13   
From optimize.out: Frame 1 / 1, Energy=    -286.8365048672
C        1.5440404333    0.5861293134   -0.1642656935
C        0.8932240621   -0.7432938957    0.0274589318
C       -0.4118021088   -0.6570999196   -0.6948209223
C       -1.0183475571    0.6294805270    0.8815113260
C       -0.6032954815    0.9022185475   -0.5702328577
N        0.7481623825    1.5150230143   -0.5423615294
H        2.5983866781    0.7809973401    0.0292120357
H        1.4557634281   -1.6712684557    0.0633870647
H       -0.8129686200   -1.3478195967   -1.4308827970
H       -1.9834849206    0.8770013627    1.3088557403
H       -1.2899603538    1.4326196268   -1.2296229830
C       -0.4463686444   -0.7299036655    0.8394551851
H       -0.6733492982   -1.5740841980    1.4823064987
13   
From optimize.out: Frame 16 / 17, Energy=    -286.8365048754
C        1.5440404333    0.5861293134   -0.1642656935
C        0.8932240621   -0.7432938957    0.0274589318
C       -0.4118021088   -0.6570999196   -0.6948209223
C       -1.0183475571    0.6294805270    0.8815113260
C       -0.6032954815    0.9022185475   -0.5702328577
N        0.7481623825    1.5150230143   -0.5423615294
H        2.5983866781    0.7809973401    0.0292120357
H        1.4557634281   -1.6712684557    0.0633870647
H       -0.8129686200   -1.3478195967   -1.4308827970
H       -1.9834849206    0.8770013627    1.3088557403
H       -1.2899603538    1.4326196268   -1.2296229830
C       -0.4463686444   -0.7299036655    0.8394551851
H       -0.6733492982   -1.5740841980    1.4823064987
13   
From optimize.out: Frame 14 / 17, Energy=    -286.8364997532
C        1.5447459049    0.5897092654   -0.1632410160
C        0.8889310426   -0.7412477733    0.0377202011
C       -0.4066189107   -0.6601594474   -0.7052108252
C       -1.0178132122    0.6218481443    0.8800343164
C       -0.6072715324    0.8948769087   -0.5753524032
N        0.7438755387    1.5156243849   -0.5294061449
H        2.6034740039    0.7713581062    0.0182510410
H        1.4486789023   -1.6707349886    0.0887063206
H       -0.8304594085   -1.3171462857   -1.4609798495
H       -1.9846434953    0.8715906431    1.3026752166
H       -1.2924792101    1.4278893531   -1.2330278673
C       -0.4376808559   -0.7396250672    0.8338956382
H       -0.6527387672   -1.5639832435    1.5059353723
13   
From optimize.out: Frame 12 / 17, Energy=    -286.8364750842
C        1.5393814258    0.5784566447   -0.1604500275
C        0.8992245755   -0.7462012752    0.0070785700
C       -0.4205843353   -0.6577807210   -0.6763851972
C       -1.0109122233    0.6413472015    0.8946323636
C       -0.5967601276    0.9070708547   -0.5644002796
N        0.7457057222    1.5128184708   -0.5486695938
H        2.5931174755    0.7711419198    0.0310221263
H        1.4522437281   -1.6769797756    0.0523819466
H       -0.7839811510   -1.3472900139   -1.4405088304
H       -1.9964360308    0.8767804346    1.2841373827
H       -1.3001901656    1.4290015354   -1.2108367957
C       -0.4614536072   -0.7224451805    0.8400705403
H       -0.6593552863   -1.5659200953    1.4919277947
13   
From optimize.out: Frame 9 / 17, Energy=    -286.8356440959
C        1.5471305632    0.5671055362   -0.2026549511
C        0.9056154228   -0.7391036349   -0.0347824999
C       -0.4352915641   -0.6470885318   -0.6585897659
C       -0.9927201184    0.6472562434    0.9127043163
C       -0.5860959661    0.9250481330   -0.5495551450
N        0.7551120982    1.5140208140   -0.5908973100
H        2.5865327496    0.7891254379    0.0310146865
H        1.4187737988   -1.6766198083    0.1386874567
H       -0.7410178717   -1.3669144709   -1.4211253302
H       -1.9903237468    0.8651621826    1.2838667120
H       -1.3131643417    1.4425269469   -1.1744271592
C       -0.4825538415   -0.7187414533    0.8334218811
H       -0.6719971823   -1.6017773949    1.4323371089
13   
From optimize.out: Frame 8 / 17, Energy=    -286.8355571031
C        1.5743749108    0.5613409221   -0.2475875745
C        0.9357460527   -0.7382688640   -0.0800906778
C       -0.4430689672   -0.6390695510   -0.6260209342
C       -1.0034498909    0.6454116754    0.9345549100
C       -0.5699592775    0.9373951359   -0.5237946879
N        0.7857042024    1.5144462645   -0.6328405669
H        2.5995436841    0.8308986003    0.0139820009
H        1.4261750777   -1.6739833337    0.1621708921
H       -0.7180235774   -1.3873304515   -1.3611645751
H       -2.0149556252    0.8514115159    1.2758556926
H       -1.3050797436    1.4555303538   -1.1460673112
C       -0.5282922657   -0.7180436770    0.8489305761
H       -0.7387145804   -1.6397385906    1.3820722559
13   
From optimize.out: Frame 6 / 17, Energy=    -286.8308169607
C        1.6108358651    0.5609067784   -0.2852321498
C        0.9722440349   -0.7396505470   -0.1076460608
C       -0.4486616387   -0.6364603159   -0.5943850300
C       -1.0327970004    0.6414855974    0.9562388082
C       -0.5590770939    0.9428876504   -0.4948908016
N        0.8227506363    1.5177770331   -0.6544860660
H        2.6309908650    0.8684706971   -0.0266467494
H        1.4621327690   -1.6740353401    0.1507234214
H       -0.7011861004   -1.4025915632   -1.3053393634
H       -2.0575920688    0.8426401278    1.2618775932
H       -1.2949181160    1.4640649509   -1.1221357800
C       -0.5830750011   -0.7195886735    0.8698389932
H       -0.8216471510   -1.6659063952    1.3520831850
13   
From optimize.out: Frame 4 / 17, Energy=    -286.8103184649
C        1.6541716559    0.5630978088   -0.3196821896
C        1.0060491175   -0.7419881111   -0.1233638849
C       -0.4587107394   -0.6346025026   -0.5654558702
C       -1.0708478624    0.6356814508    0.9771134123
C       -0.5533346787    0.9476048562   -0.4656191247
N        0.8694628981    1.5226381022   -0.6718219648
H        2.6726757910    0.9042245829   -0.0746243747
H        1.5006404070   -1.6762531704    0.1387994335
H       -0.6920773599   -1.4139647142   -1.2530693993
H       -2.1086072221    0.8308662962    1.2445216202
H       -1.2883704038    1.4727210397   -1.1000958216
C       -0.6350470997   -0.7215242133    0.8889647549
H       -0.8960045035   -1.6885014251    1.3243334090
13   
From optimize.out: Frame 3 / 17, Energy=    -286.7889980948
C        1.7047487562    0.5699631676   -0.3492853648
C        1.0346688542   -0.7474140811   -0.1294573839
C       -0.4773094860   -0.6350657890   -0.5398709902
C       -1.1117753060    0.6292541332    0.9967098307
C       -0.5496301060    0.9535141042   -0.4374927913
N        0.9246904082    1.5281378560   -0.6886320350
H        2.7222815514    0.9477162012   -0.1235960639
H        1.5341568681   -1.6833285095    0.1349676866
H       -0.6966837580   -1.4247157646   -1.2024010381
H       -2.1618552653    0.8171532113    1.2232377160
H       -1.2858326317    1.4836256811   -1.0804685527
C       -0.6813597021   -0.7255239114    0.9044031366
H       -0.9561001831   -1.7133162992    1.2918858499
13   
From optimize.out: Frame 1 / 17, Energy=    -286.7157761222
C        1.7584614349    0.5789208974   -0.3771536744
C        1.0562121084   -0.7498216588   -0.1310730185
C       -0.5028296285   -0.6368720923   -0.5145706223
C       -1.1513058257    0.6209017222    1.0129588896
C       -0.5425083980    0.9593559216   -0.4102724067
N        0.9832674590    1.5313073887   -0.7046517962
H        2.7740142997    0.9956269153   -0.1696803707
H        1.5600309825   -1.6880564820    0.1368673836
H       -0.7138047185   -1.4317880798   -1.1466268519
H       -2.2133346542    0.7979135691    1.1960632216
H       -1.2822024341    1.4943344435   -1.0632538193
C       -0.7214449902   -0.7314429137    0.9170222627
H       -1.0045556354   -1.7403796313    1.2543708025
13   
C6H6N->C6H6N atoms 1-13 frame 268 charge +0.000 sz -1.000 sz^2 1.064
C        1.7991290579    0.5799978355   -0.4021916874
C        1.0724575478   -0.7494825479   -0.1369129422
C       -0.5215536721   -0.6521671861   -0.4970814101
C       -1.1808869156    0.6146537746    1.0339903004
C       -0.5403568796    0.9645547735   -0.3792736533
N        1.0281805751    1.5352373048   -0.7224959828
H        2.8047249019    1.0333866312   -0.1918471481
H        1.5871789100   -1.6872036172    0.1397497996
H       -0.7341766503   -1.4557885278   -1.0964097344
H       -2.2500862302    0.7798183815    1.1856152032
H       -1.2720669563    1.5141550862   -1.0551907191
C       -0.7477305673   -0.7352870465    0.9161478747
H       -1.0448131213   -1.7418748618    1.2059000994
13   
C6H6N->C6H6N atoms 1-13 frame 270 charge -0.000 sz -1.000 sz^2 1.112
C        1.8023596449    0.5600932460   -0.4210769272
C        1.0913664773   -0.7481850440   -0.1599973662
C       -0.5064884787   -0.6981327959   -0.5006386893
C       -1.1905885411    0.6171836077    1.0736350830
C       -0.5604128256    0.9691439912   -0.3385465873
N        1.0317179962    1.5493079188   -0.7461577633
H        2.7802005601    1.0328004922   -0.1613656708
H        1.6332395434   -1.6742913200    0.1343147858
H       -0.7431498525   -1.5363234840   -1.0841136690
H       -2.2546937901    0.7788920022    1.2313505102
H       -1.2447878001    1.5553247846   -1.0617415883
C       -0.7521838222   -0.7303501049    0.8860947872
H       -1.0865791114   -1.6754632939    1.1482430952
13   
C6H6N->C6H6N atoms 1-13 frame 272 charge +0.000 sz -1.000 sz^2 1.167
C        1.8046570699    0.5441928451   -0.4388597742
C        1.1139610835   -0.7419237323   -0.1840483222
C       -0.4824912160   -0.7428292414   -0.5074710444
C       -1.2015065404    0.6190993870    1.1107670615
C       -0.5829873164    0.9751877145   -0.3020064228
N        1.0302553811    1.5685737259   -0.7709279160
H        2.7555567501    1.0208018355   -0.1319855009
H        1.6791911565   -1.6486452984    0.1277841783
H       -0.7579727934   -1.6242954415   -1.0904963476
H       -2.2593450177    0.7840844863    1.2820945103
H       -1.2075790549    1.5896464918   -1.0604320852
C       -0.7576745672   -0.7234336056    0.8539828590
H       -1.1340649350   -1.6204591670    1.1115988042
13   
C6H6N->C6H6N atoms 1-13 frame 273 charge +0.000 sz -1.000 sz^2 1.199
C        1.8055376501    0.5334314291   -0.4570905711
C        1.1409037203   -0.7301037263   -0.2101048836
C       -0.4482735367   -0.7860350164   -0.5199547934
C       -1.2136038060    0.6207635247    1.1418445201
C       -0.6082098929    0.9832754291   -0.2731698425
N        1.0240057174    1.5924855295   -0.7990685003
H        2.7345273359    0.9968534038   -0.1061761257
H        1.7240975318   -1.6084649371    0.1204507197
H       -0.7732828931   -1.7080942026   -1.1081739576
H       -2.2648490197    0.7975817091    1.3378654585
H       -1.1623156514    1.6136710338   -1.0503330731
C       -0.7650956380   -0.7124682028    0.8195072619
H       -1.1934415176   -1.5928959739    1.1044037872
13   
C6H6N->C6H6N atoms 1-13 frame 275 charge +0.000 sz -1.000 sz^2 1.248
C        1.8041273818    0.5276936097   -0.4755664599
C        1.1708543827   -0.7140798651   -0.2380222156
C       -0.4049919755   -0.8270053970   -0.5392229749
C       -1.2269331280    0.6207655050    1.1631228193
C       -0.6354421337    0.9924984716   -0.2547480182
N        1.0133156522    1.6184162574   -0.8302009915
H        2.7213410687    0.9615837229   -0.0852238911
H        1.7658731305   -1.5580330798    0.1132378029
H       -0.7823325790   -1.7732675573   -1.1288215500
H       -2.2710849033    0.8185686533    1.3972960402
H       -1.1160907150    1.6252801379   -1.0327632941
C       -0.7764874008   -0.6991713438    0.7843871427
H       -1.2621487806   -1.5932491148    1.1265255903
13   
C6H6N->C6H6N atoms 1-13 frame 276 charge +0.000 sz -1.000 sz^2 1.255
C        1.7993870298    0.5252321646   -0.4930049768
C        1.2021377186   -0.6962393837   -0.2675567512
C       -0.3539508824   -0.8667608578   -0.5650542811
C       -1.2424821533    0.6164121903    1.1731929314
C       -0.6648124793    1.0010454140   -0.2461128373
N        0.9983449176    1.6435660790   -0.8626278005
H        2.7182092215    0.9147140423   -0.0675240606
H        1.8045751297   -1.5048956318    0.1081722303
H       -0.7798116974   -1.8111133724   -1.1468140048
H       -2.2762696879    0.8443448711    1.4613359331
H       -1.0785102422    1.6268254479   -1.0121865568
C       -0.7956103021   -0.6877414964    0.7503943810
H       -1.3312065726   -1.6053894671    1.1677857933
13   
C6H6N->C6H6N atoms 1-13 frame 278 charge +0.000 sz -1.000 sz^2 1.241
C        1.7910462487    0.5242275459   -0.5078662118
C        1.2334602654   -0.6790036527   -0.2980426853
C       -0.2962759451   -0.9068190890   -0.5951387272
C       -1.2610596538    0.6058098367    1.1732065822
C       -0.6964068469    1.0072365754   -0.2437862654
N        0.9795621809    1.6660207342   -0.8943878166
H        2.7239781144    0.8563204899   -0.0510737072
H        1.8425788352   -1.4564128474    0.1082287088
H       -0.7632012147   -1.8205013567   -1.1597244469
H       -2.2761818264    0.8719212987    1.5320007878
H       -1.0594477658    1.6256998867   -0.9973925106
C       -0.8253617982   -0.6815663316    0.7190394826
H       -1.3926905938   -1.6129330900    1.2149368096
13   
C6H6N->C6H6N atoms 1-13 frame 279 charge -0.000 sz -1.000 sz^2 1.225
C        1.7799783404    0.5241560760   -0.5179054590
C        1.2628560061   -0.6652628214   -0.3271396780
C       -0.2346832449   -0.9461749764   -0.6250004349
C       -1.2822089648    0.5886077092    1.1646404519
C       -0.7286243805    1.0098814630   -0.2442919849
N        0.9584286663    1.6837683746   -0.9223319014
H        2.7353234286    0.7890829264   -0.0361715616
H        1.8806428594   -1.4189121858    0.1162935388
H       -0.7321235834   -1.8032708735   -1.1674132152
H       -2.2648224208    0.8980850490    1.6079835857
H       -1.0680581141    1.6297451405   -0.9982849641
C       -0.8662310004   -0.6827778484    0.6928767756
H       -1.4404775917   -1.6069280334    1.2567448472
13   
C6H6N->C6H6N atoms 1-13 frame 281 charge -0.000 sz -1.000 sz^2 1.182
C        1.7684720601    0.5256601408   -0.5207836977
C        1.2881102871   -0.6580908820   -0.3512020463
C       -0.1737347681   -0.9813434560   -0.6486866016
C       -1.3043814341    0.5671360350    1.1496820291
C       -0.7585278602    1.0096174499   -0.2449618518
N        0.9378978090    1.6953629898   -0.9428868369
H        2.7467268418    0.7199039681   -0.0246023369
H        1.9164350773   -1.3948958061    0.1331298033
H       -0.6910604530   -1.7692063473   -1.1744985862
H       -2.2367733386    0.9202323235    1.6834635494
H       -1.1060041405    1.6411788823   -1.0168254843
C       -0.9157059569   -0.6914795574    0.6743420523
H       -1.4714541239   -1.5840757408    1.2838300075
13   
C6H6N->C6H6N atoms 1-13 frame 283 charge -0.000 sz -1.000 sz^2 1.187
C        1.7585661095    0.5297579641   -0.5164663595
C        1.3096380602   -0.6578381613   -0.3688888544
C       -0.1149760323   -1.0103505752   -0.6635037547
C       -1.3266602164    0.5453059685    1.1305603656
C       -0.7850390518    1.0094074611   -0.2453320064
N        0.9201540812    1.7020989664   -0.9559610581
H        2.7543364695    0.6548193044   -0.0168554709
H        1.9476614982   -1.3793504042    0.1562388666
H       -0.6482271249   -1.7342125624   -1.1898746034
H       -2.1915304253    0.9393792402    1.7542681142
H       -1.1630012643    1.6535908536   -1.0419582131
C       -0.9706999246   -0.7048508461    0.6625277686
H       -1.4902221789   -1.5477572090    1.2952452056
13   
C6H6N->C6H6N atoms 1-13 frame 284 charge -0.000 sz -1.000 sz^2 1.197
C        1.7512977276    0.5373633666   -0.5051858763
C        1.3285080967   -0.6643473592   -0.3796483893
C       -0.0583279481   -1.0322766411   -0.6679574258
C       -1.3487876172    0.5262602633    1.1078145089
C       -0.8079543025    1.0120479207   -0.2462612685
N        0.9063258990    1.7050691743   -0.9623982680
H        2.7569737694    0.5983345299   -0.0131967232
H        1.9726823743   -1.3677795343    0.1835484952
H       -0.6092875246   -1.7088463927   -1.2218613859
H       -2.1283064843    0.9575217598    1.8181287152
H       -1.2309118480    1.6601444663   -1.0630959462
C       -1.0301919753   -0.7204570408    0.6564069038
H       -1.5020201667   -1.5030345128    1.2937066601
13   
C6H6N->C6H6N atoms 1-13 frame 286 charge -0.000 sz -1.000 sz^2 1.224
C        1.7469269120    0.5485667861   -0.4883691983
C        1.3453469012   -0.6772208603   -0.3835096137
C       -0.0055299532   -1.0471294841   -0.6613764603
C       -1.3701593368    0.5132012115    1.0814529692
C       -0.8269974816    1.0197887700   -0.2493633977
N        0.8969439255    1.7045380602   -0.9639901987
H        2.7552390015    0.5562397583   -0.0148361736
H        1.9900291068   -1.3576502508    0.2122650710
H       -0.5749740486   -1.6954608526   -1.2733685312
H       -2.0471465267    0.9764283266    1.8716795546
H       -1.3028236038    1.6557105727   -1.0724643699
C       -1.0928074669   -0.7356341182    0.6548716858
H       -1.5140474292   -1.4613779195    1.2870086630
13   
C6H6N->C6H6N atoms 1-13 frame 287 charge +0.000 sz -1.000 sz^2 1.254
C        1.7446289460    0.5622188887   -0.4695063266
C        1.3603198446   -0.6951123194   -0.3821939731
C        0.0396187555   -1.0564759132   -0.6458011344
C       -1.3898918408    0.5085476949    1.0513331013
C       -0.8421906122    1.0338138185   -0.2566209110
N        0.8915046640    1.7004098342   -0.9638174068
H        2.7518826815    0.5339040915   -0.0237175730
H        1.9996332855   -1.3487444104    0.2385064852
H       -0.5389637783   -1.6860749282   -1.3372895023
H       -1.9506671605    0.9970999073    1.9111549491
H       -1.3731473880    1.6390854635   -1.0671332255
C       -1.1564761118   -0.7475061791    0.6557048767
H       -1.5362512854   -1.4411659485    1.2893806405
13   
C6H6N->C6H6N atoms 1-13 frame 289 charge +0.000 sz -1.000 sz^2 1.304
C        1.7429797053    0.5759674438   -0.4526523466
C        1.3730216601   -0.7154315459   -0.3783236125
C        0.0725222924   -1.0624910729   -0.6258289751
C       -1.4068703801    0.5123837236    1.0188388185
C       -0.8536575056    1.0532259591   -0.2685316117
N        0.8887906374    1.6929138243   -0.9641998757
H        2.7508528568    0.5333888344   -0.0401515773
H        2.0033821655   -1.3431432490    0.2587887577
H       -0.4956119777   -1.6711865243   -1.3997821309
H       -1.8470131033    1.0182523183    1.9339806010
H       -1.4369234698    1.6143439137   -1.0495469079
C       -1.2177491523   -0.7545295888    0.6565938258
H       -1.5737237287   -1.4536940362    1.3108150348
13   
C6H6N->C6H6N atoms 1-13 frame 291 charge +0.000 sz -1.000 sz^2 1.403
C        1.7406692751    0.5873088441   -0.4394816072
C        1.3831234413   -0.7362261786   -0.3734941933
C        0.0912255591   -1.0674578932   -0.6052709794
C       -1.4207037543    0.5221444969    0.9864773717
C       -0.8619060454    1.0755201358   -0.2833843963
N        0.8873255476    1.6822346271   -0.9650834357
H        2.7548635889    0.5518428605   -0.0622089642
H        2.0043696193   -1.3437778390    0.2727664004
H       -0.4447006802   -1.6471811744   -1.4503269327
H       -1.7448086826    1.0370809855    1.9413923451
H       -1.4926158592    1.5876614446   -1.0250854847
C       -1.2747714861   -0.7582059477    0.6572249423
H       -1.6220705236   -1.4909443615    1.3464749340
13   
C6H6N->C6H6N atoms 1-13 frame 292 charge +0.000 sz -1.000 sz^2 1.456
C        1.7370012497    0.5948851564   -0.4290911347
C        1.3910352416   -0.7573531125   -0.3679060934
C        0.0971445094   -1.0733187533   -0.5852455983
C       -1.4318938409    0.5348075060    0.9556221584
C       -0.8676536194    1.0988389229   -0.2990715584
N        0.8859447794    1.6680890576   -0.9650389953
H        2.7645072665    0.5848780707   -0.0883004371
H        2.0056284749   -1.3528633038    0.2827093168
H       -0.3876976539   -1.6143572558   -1.4861768358
H       -1.6464432686    1.0516287501    1.9372178151
H       -1.5435100405    1.5635032864   -0.9987273125
C       -1.3291543721   -0.7614737907    0.6587707892
H       -1.6749087261   -1.5372645340    1.3852378860
13   
C6H6N->C6H6N atoms 1-13 frame 294 charge +0.000 sz -1.000 sz^2 1.608
C        1.7319732518    0.5980656544   -0.4200727803
C        1.3973832663   -0.7792003811   -0.3611138931
C        0.0920323606   -1.0811973596   -0.5655708625
C       -1.4406204336    0.5483020364    0.9269635257
C       -0.8709601015    1.1223219279   -0.3140226857
N        0.8841364564    1.6500452131   -0.9624782225
H        2.7788981502    0.6298339012   -0.1180912378
H        2.0094186399   -1.3718879510    0.2906486574
H       -0.3262456941   -1.5739122291   -1.5077224452
H       -1.5518303311    1.0607650121    1.9243819393
H       -1.5932024941    1.5447956404   -0.9743157147
C       -1.3826694918   -0.7664821483    0.6624523902
H       -1.7283135790   -1.5814493164    1.4189413291
13   
C6H6N->C6H6N atoms 1-13 frame 295 charge -0.000 sz -1.000 sz^2 1.684
C        1.7261062097    0.5965596727   -0.4112010553
C        1.4028169632   -0.8018691044   -0.3523827914
C        0.0774509873   -1.0915679859   -0.5457119518
C       -1.4465214998    0.5611291992    0.9011807957
C       -0.8713335992    1.1455141898   -0.3271024194
N        0.8817737316    1.6278540435   -0.9559747805
H        2.7956684683    0.6850306320   -0.1518099002
H        2.0172479900   -1.4013926047    0.2975927471
H       -0.2628640483   -1.5277709438   -1.5165015123
H       -1.4615316371    1.0638829133    1.9048643855
H       -1.6431383016    1.5334581212   -0.9547307394
C       -1.4359486812   -0.7743956540    0.6692045110
H       -1.7797265828   -1.6164324787    1.4425727110
13   
C6H6N->C6H6N atoms 1-13 frame 297 charge -0.000 sz -1.000 sz^2 1.846
C        1.7202005397    0.5904746453   -0.4014254693
C        1.4080680965   -0.8251523314   -0.3406192845
C        0.0550847239   -1.1045113342   -0.5246574275
C       -1.4489946975    0.5720538001    0.8788399177
C       -0.8682062015    1.1682148819   -0.3377076512
N        0.8787227008    1.6014089774   -0.9443827354
H        2.8109007468    0.7491061293   -0.1899581342
H        2.0298324332   -1.4405791369    0.3035708794
H       -0.2009789266   -1.4787653829   -1.5159227830
H       -1.3766688372    1.0611084156    1.8803396667
H       -1.6918257807    1.5299147743   -0.9412743933
C       -1.4889480511   -0.7856989627    0.6798383481
H       -1.8271867462   -1.6375744758    1.4533590665
13   
C6H6N->C6H6N atoms 1-13 frame 299 charge -0.000 sz -1.000 sz^2 1.967
C        1.7150943948    0.5802965256   -0.3898984815
C        1.4139851813   -0.8486162583   -0.3242600076
C        0.0266579133   -1.1200063813   -0.5006989010
C       -1.4473838918    0.5798956971    0.8602609827
C       -0.8612247141    1.1903965013   -0.3458400011
N        0.8744649342    1.5705478713   -0.9268531105
H        2.8193344602    0.8208779173   -0.2333290126
H        2.0472258362   -1.4872792664    0.3077087608
H       -0.1444626616   -1.4301809295   -1.5116414094
H       -1.2984839029    1.0534244638    1.8524953747
H       -1.7346835798    1.5330617320   -0.9336588966
C       -1.5413871631   -0.8004980415    0.6952553715
H       -1.8691368066   -1.6419198313    1.4504593306
13   
C6H6N->C6H6N atoms 1-13 frame 300 charge +0.000 sz -1.000 sz^2 2.027
C        1.7115854589    0.5669402911   -0.3761980064
C        1.4215245249   -0.8713886132   -0.3015117268
C       -0.0060175065   -1.1380675611   -0.4718576492
C       -1.4410363740    0.5832261622    0.8454576827
C       -0.8502989443    1.2119550299   -0.3521194659
N        0.8678807341    1.5352236749   -0.9029311925
H        2.8146755858    0.8985585425   -0.2827562426
H        2.0690447734   -1.5377657517    0.3081899400
H       -0.0973013444   -1.3847779273   -1.5101416423
H       -1.2287523890    1.0426833411    1.8233907504
H       -1.7643458152    1.5408836430   -0.9311319229
C       -1.5924769725   -0.8185454821    0.7161512885
H       -1.9044817311   -1.6289253494    1.4354581869
13   
C6H6N->C6H6N atoms 1-13 frame 302 charge -0.000 sz -1.000 sz^2 2.109
C        1.6962356370    0.5622955812   -0.3597110510
C        1.4097499595   -0.8716463691   -0.2812387611
C       -0.0375736142   -1.1474077486   -0.4554269984
C       -1.4163281429    0.5716094585    0.8342750300
C       -0.8272357861    1.2156809944   -0.3607614040
N        0.8529929910    1.5154920140   -0.8765586569
H        2.7844858469    0.9428116286   -0.3011661160
H        2.0660220598   -1.5523824680    0.3070431005
H       -0.1070189416   -1.3589350481   -1.5146106496
H       -1.1861229516    1.0305839907    1.8031583201
H       -1.7427834185    1.5392916949   -0.9496397867
C       -1.5962577136   -0.8324178771    0.7287895976
H       -1.8961659257   -1.6149758515    1.4258473754
13   
C6H6N->C6H6N atoms 1-13 frame 303 charge -0.000 sz -1.000 sz^2 2.146
C        1.6629946791    0.5705391392   -0.3413070038
C        1.3705237417   -0.8449352799   -0.2716832407
C       -0.0652546503   -1.1427543250   -0.4610124939
C       -1.3729102261    0.5468055400    0.8245976110
C       -0.7921560957    1.1970839929   -0.3732958466
N        0.8299640857    1.5193305093   -0.8532844961
H        2.7392196627    0.9404578145   -0.2724929689
H        2.0267749195   -1.5215246640    0.3097747467
H       -0.1777874522   -1.3544191279   -1.5205025132
H       -1.1676760104    1.0179083332    1.7935228922
H       -1.6754728470    1.5226219726   -0.9899537467
C       -1.5410613029   -0.8381097817    0.7253249609
H       -1.8371585041   -1.6130041232    1.4303120990
13   
C6H6N->C6H6N atoms 1-13 frame 305 charge -0.000 sz -1.000 sz^2 2.173
C        1.6262987647    0.5747709617   -0.3202963589
C        1.3332797631   -0.8215908069   -0.2631420245
C       -0.0925406588   -1.1355013433   -0.4678314956
C       -1.3295979601    0.5265888563    0.8152382979
C       -0.7561162594    1.1790521289   -0.3875473123
N        0.7931313524    1.5145163143   -0.8316408266
H        2.6909257003    0.9390416309   -0.2384917622
H        1.9873958007   -1.4965798744    0.3132048765
H       -0.2412560625   -1.3487007125   -1.5243869692
H       -1.1423156179    1.0095264496    1.7820777891
H       -1.6115910913    1.5068215894   -1.0242866295
C       -1.4829972518   -0.8401740725    0.7171049832
H       -1.7746164794   -1.6077711216    1.4299974322
13   
C6H6N->C6H6N atoms 1-13 frame 307 charge -0.000 sz -1.000 sz^2 2.169
C        1.5888900108    0.5773810198   -0.2985089680
C        1.2974787568   -0.8014494637   -0.2535970317
C       -0.1194250877   -1.1307860700   -0.4728878613
C       -1.2852781975    0.5094919215    0.8048596198
C       -0.7191525872    1.1657180122   -0.4032435986
N        0.7486910111    1.5074004445   -0.8091909621
H        2.6417511293    0.9393558042   -0.2037041998
H        1.9507588661   -1.4753567420    0.3164291614
H       -0.3034273268   -1.3457960684   -1.5254455335
H       -1.1163226769    1.0035512375    1.7694575409
H       -1.5488885395    1.4968194401   -1.0575061962
C       -1.4238552010   -0.8431320353    0.7060680372
H       -1.7112201574   -1.6031975002    1.4272699919
13   
C6H6N->C6H6N atoms 1-13 frame 308 charge +0.000 sz -1.000 sz^2 2.148
C        1.5515312479    0.5775452234   -0.2766469984
C        1.2635099847   -0.7855324810   -0.2429369705
C       -0.1451399980   -1.1326627518   -0.4757152761
C       -1.2409859084    0.4958813264    0.7919572922
C       -0.6829637078    1.1615620815   -0.4195715455
N        0.6977847335    1.4985968831   -0.7851672821
H        2.5923531481    0.9396050587   -0.1683089817
H        1.9183207454   -1.4574926781    0.3197216618
H       -0.3644700612   -1.3518996994   -1.5225748527
H       -1.0930423145    0.9987380864    1.7552267617
H       -1.4888345896    1.4997992911   -1.0881203072
C       -1.3622969264   -0.8467243252    0.6903450404
H       -1.6457663536   -1.5974160150    1.4217914583
13   
C6H6N->C6H6N atoms 1-13 frame 310 charge -0.000 sz -1.000 sz^2 2.078
C        1.5183301014    0.5736457324   -0.2570526393
C        1.2331485171   -0.7754432833   -0.2309050118
C       -0.1678563640   -1.1482639686   -0.4741433017
C       -1.2012584676    0.4864751334    0.7743151949
C       -0.6524792548    1.1748931625   -0.4341286731
N        0.6464396993    1.4908756811   -0.7601698687
H        2.5478253349    0.9354499973   -0.1342988465
H        1.8942336201   -1.4434865252    0.3220724218
H       -0.4227141439   -1.3783248956   -1.5122738212
H       -1.0849263215    0.9939874367    1.7387037402
H       -1.4366459703    1.5291218966   -1.1117891797
C       -1.2964189725   -0.8510384787    0.6669566128
H       -1.5776777781   -1.5878918886    1.4127133723
13   
C6H6N->C6H6N atoms 1-13 frame 311 charge +0.000 sz -1.000 sz^2 2.039
C        1.5003679456    0.5641336539   -0.2452299366
C        1.2125101746   -0.7727340906   -0.2197134853
C       -0.1826580951   -1.1800485388   -0.4651140473
C       -1.1783128470    0.4819174765    0.7528301410
C       -0.6376276133    1.2093047423   -0.4415187662
N        0.6120939300    1.4885938886   -0.7383555242
H        2.5221857021    0.9210278253   -0.1084600574
H        1.8877287848   -1.4378105724    0.3148263084
H       -0.4707697241   -1.4317284816   -1.4903044913
H       -1.1220283502    0.9919251260    1.7197398888
H       -1.4027837378    1.5935377433   -1.1206821942
C       -1.2277796477   -0.8554570526    0.6390771623
H       -1.5129265217   -1.5726617199    1.4029050021
13   
From optimize.out: Frame 1 / 37, Energy=    -286.5877433464
C        1.4991135145    0.5504336406   -0.2446054752
C        1.2084292217   -0.7779348769   -0.2173924233
C       -0.1822134673   -1.2184875865   -0.4548049230
C       -1.1778341212    0.4829490345    0.7364221422
C       -0.6376915943    1.2484206197   -0.4371911774
N        0.6004408347    1.4882478494   -0.7224185258
H        2.5172089063    0.9018935442   -0.0987419127
H        1.9050174238   -1.4448818363    0.2850358490
H       -0.4954774007   -1.4997354140   -1.4647626838