13   
Frame   0 IRC: Energy =  -286.8854570000 ; +0.0000 kcal/mol
C        1.3829522869    0.7512314606   -0.6641941997
C        0.1074352754   -0.8430692904   -0.5105267812
C       -0.7963937107   -1.0287090628    0.6681743706
C       -1.3849853066    0.1971709708    0.9706061492
C       -0.9270060280    1.1866936444    0.1017052671
N       -0.0484191819    0.6327082552   -0.8618734887
H        1.9619808844    1.6582154776   -0.7976379123
H       -0.1175570398   -1.5030198012   -1.3605321526
H       -1.0076520197   -1.9809611214    1.1370095821
H       -2.1097548465    0.3663705164    1.7601105581
H       -1.1459931618    2.2460310750    0.0992274279
C        1.6047052893   -0.5347131272   -0.3542310014
H        2.4806875595   -1.1479489973   -0.1878378191
13   
Frame   1 IRC: Energy =  -286.8854520000 ; +0.0031 kcal/mol
C        1.3827075752    0.7513679985   -0.6646972008
C        0.1075672586   -0.8433024223   -0.5101984895
C       -0.7965664826   -1.0288509650    0.6681054333
C       -1.3851843368    0.1972238225    0.9707002558
C       -0.9269296729    1.1866356669    0.1021998497
N       -0.0482669841    0.6326764855   -0.8617744274
H        1.9619617360    1.6583056729   -0.7992750794
H       -0.1169307202   -1.5030249271   -1.3600181091
H       -1.0088236364   -1.9813443483    1.1363819380
H       -2.1101661643    0.3662321674    1.7599796676
H       -1.1451590019    2.2460482869    0.1000467279
C        1.6047102306   -0.5345185121   -0.3539406362
H        2.4810801988   -1.1474489256   -0.1875099298
13   
Frame   2 IRC: Energy =  -286.8854410000 ; +0.0100 kcal/mol
C        1.3829092002    0.7515779264   -0.6656108780
C        0.1078750446   -0.8431216327   -0.5092786092
C       -0.7972925925   -1.0292612734    0.6683115589
C       -1.3854630192    0.1968360186    0.9708967640
C       -0.9263935201    1.1865419261    0.1027746432
N       -0.0486803165    0.6324091124   -0.8613206889
H        1.9617304266    1.6582031471   -0.8026567415
H       -0.1157480604   -1.5033808143   -1.3593535523
H       -1.0112640539   -1.9819874821    1.1350099549
H       -2.1110323170    0.3659541822    1.7597227611
H       -1.1434680251    2.2462609952    0.1017793333
C        1.6051893241   -0.5337312303   -0.3534223682
H        2.4816379091   -1.1463008754   -0.1868521774
13   
Frame   3 IRC: Energy =  -286.8854350000 ; +0.0138 kcal/mol
C        1.3827527980    0.7517683057   -0.6661814437
C        0.1079548750   -0.8433438985   -0.5089214475
C       -0.7975115270   -1.0294841249    0.6682884998
C       -1.3856789979    0.1968573973    0.9710349270
C       -0.9263809262    1.1865002331    0.1033169743
N       -0.0484290227    0.6323665344   -0.8612637035
H        1.9617489895    1.6583757322   -0.8044110738
H       -0.1151103204   -1.5034684669   -1.3588896833
H       -1.0125588318   -1.9825159599    1.1344250192
H       -2.1114650190    0.3658092681    1.7595766895
H       -1.1425877509    2.2463974374    0.1026340729
C        1.6052295864   -0.5334809859   -0.3531142914
H        2.4820361468   -1.1457814721   -0.1864945397
13   
Frame   4 IRC: Energy =  -286.8854280000 ; +0.0182 kcal/mol
C        1.3822457269    0.7517261724   -0.6663919758
C        0.1077826654   -0.8436325734   -0.5088290121
C       -0.7973489265   -1.0294418082    0.6680421795
C       -1.3859071608    0.1971899625    0.9711727541
C       -0.9268005874    1.1863940044    0.1039768509
N       -0.0474312931    0.6322214994   -0.8615811534
H        1.9618786096    1.6585844642   -0.8049105017
H       -0.1148884277   -1.5033773416   -1.3586338625
H       -1.0129587896   -1.9828511681    1.1343731957
H       -2.1114717728    0.3657421683    1.7594100800
H       -1.1423276164    2.2464434407    0.1028416785
C        1.6049270678   -0.5332500780   -0.3531066329
H        2.4823005045   -1.1457487425   -0.1863636003
13   
Frame   5 IRC: Energy =  -286.8852200000 ; +0.1487 kcal/mol
C        1.3820559942    0.7542739505   -0.6779746398
C        0.1118011808   -0.8437429096   -0.4975418808
C       -0.8051128666   -1.0336313611    0.6698806942
C       -1.3900530388    0.1942514093    0.9736630156
C       -0.9210373540    1.1851421119    0.1125023349
N       -0.0507037456    0.6291139295   -0.8564168374
H        1.9579989572    1.6575109685   -0.8465606542
H       -0.0994067425   -1.5074559732   -1.3476286594
H       -1.0437098365   -1.9906261921    1.1157261767
H       -2.1231656493    0.3628002640    1.7556609535
H       -1.1199315951    2.2482923258    0.1248344483
C        1.6098802133   -0.5250401521   -0.3460814860
H        2.4913844828   -1.1308883713   -0.1800634655
13   
Frame   6 IRC: Energy =  -286.8852090000 ; +0.1556 kcal/mol
C        1.3816159476    0.7543568543   -0.6783890544
C        0.1117653500   -0.8439593908   -0.4973933510
C       -0.8052959561   -1.0335972051    0.6698961955
C       -1.3903737411    0.1943447571    0.9739098557
C       -0.9212481658    1.1849658711    0.1132594586
N       -0.0498631234    0.6288135494   -0.8565891393
H        1.9579573812    1.6575512888   -0.8478519671
H       -0.0988727540   -1.5074366885   -1.3471197475
H       -1.0446774856   -1.9909827569    1.1152075770
H       -2.1233513613    0.3626715123    1.7553503876
H       -1.1192420202    2.2484309881    0.1254870841
C        1.6098385198   -0.5246600510   -0.3459183811
H        2.4917474090   -1.1304987289   -0.1798489183
13   
Frame   7 IRC: Energy =  -286.8851520000 ; +0.1914 kcal/mol
C        1.3819489432    0.7547765050   -0.6806421796
C        0.1127130602   -0.8438200754   -0.4948874671
C       -0.8068182362   -1.0346221568    0.6702340286
C       -1.3910169511    0.1936538485    0.9742223768
C       -0.9197771918    1.1848606248    0.1145251116
N       -0.0513426637    0.6284443034   -0.8552428019
H        1.9570510196    1.6572557939   -0.8561022075
H       -0.0958323452   -1.5083995735   -1.3450352250
H       -1.0508066208   -1.9923804516    1.1114137155
H       -2.1258820153    0.3621431079    1.7547893332
H       -1.1147239556    2.2486432408    0.1298859368
C        1.6109413868   -0.5230822184   -0.3444897434
H        2.4935455698   -1.1274729486   -0.1786708778
13   
Frame   8 IRC: Energy =  -286.8851340000 ; +0.2027 kcal/mol
C        1.3815148454    0.7550073140   -0.6813163574
C        0.1127358081   -0.8439709819   -0.4945649697
C       -0.8071522091   -1.0346636336    0.6702930322
C       -1.3914422113    0.1936586191    0.9745532521
C       -0.9198864430    1.1846294418    0.1154775659
N       -0.0504838181    0.6279863522   -0.8553251258
H        1.9568816893    1.6572101363   -0.8582149848
H       -0.0949801064   -1.5084668113   -1.3442735126
H       -1.0524104344   -1.9928854329    1.1105162884
H       -2.1263011690    0.3619638003    1.7543864804
H       -1.1135819172    2.2488674510    0.1309869110
C        1.6110555727   -0.5225985543   -0.3441623865
H        2.4940503929   -1.1267377008   -0.1783561931
13   
Frame   9 IRC: Energy =  -286.8850950000 ; +0.2272 kcal/mol
C        1.3818145814    0.7551829783   -0.6826685255
C        0.1134157590   -0.8439546842   -0.4928201224
C       -0.8081395689   -1.0353574768    0.6705289021
C       -1.3917663621    0.1932401484    0.9746435314
C       -0.9188161160    1.1846465379    0.1160914232
N       -0.0518284364    0.6279456547   -0.8543624391
H        1.9563191151    1.6570682763   -0.8633800143
H       -0.0930945052   -1.5091239351   -1.3430382353
H       -1.0562344904   -1.9937002856    1.1080846819
H       -2.1279524812    0.3616347011    1.7540957738
H       -1.1107159724    2.2488744157    0.1337519169
C        1.6117592575   -0.5215813965   -0.3432884620
H        2.4952392195   -1.1248749341   -0.1776384306
13   
Frame  10 IRC: Energy =  -286.8850700000 ; +0.2428 kcal/mol
C        1.3813398764    0.7555711662   -0.6834427514
C        0.1137988623   -0.8442703846   -0.4922229727
C       -0.8086616396   -1.0354805765    0.6705620092
C       -1.3923050405    0.1932778314    0.9750575370
C       -0.9186864054    1.1844094688    0.1171309971
N       -0.0508470348    0.6270423590   -0.8544505929
H        1.9560313776    1.6568813265   -0.8662918603
H       -0.0919893988   -1.5092075210   -1.3420669753
H       -1.0584320495   -1.9943843200    1.1068108279
H       -2.1287387380    0.3613999120    1.7537645652
H       -1.1092199602    2.2493262255    0.1353598726
C        1.6120470725   -0.5208508876   -0.3429484731
H        2.4956630779   -1.1237145997   -0.1772621834
13   
Frame  11 IRC: Energy =  -286.8850300000 ; +0.2679 kcal/mol
C        1.3818083902    0.7553871247   -0.6851263453
C        0.1135570770   -0.8434739718   -0.4909883568
C       -0.8093039310   -1.0361180034    0.6708558834
C       -1.3925630153    0.1924735294    0.9751345160
C       -0.9181776511    1.1842313417    0.1180066220
N       -0.0522766853    0.6279860948   -0.8532261978
H        1.9554029425    1.6569177611   -0.8709540479
H       -0.0900849037   -1.5100169858   -1.3407127074
H       -1.0620350437   -1.9949085684    1.1046155401
H       -2.1298961062    0.3611841899    1.7530684138
H       -1.1062826286    2.2487849674    0.1376365452
C        1.6124495433   -0.5202379656   -0.3417406072
H        2.4974020120   -1.1222095140   -0.1765692579
13   
Frame  12 IRC: Energy =  -286.8849620000 ; +0.3106 kcal/mol
C        1.3810138539    0.7565224604   -0.6868186968
C        0.1152419758   -0.8448243860   -0.4884104058
C       -0.8110268147   -1.0368115429    0.6711667402
C       -1.3935412810    0.1927819386    0.9757047196
C       -0.9169413391    1.1842379945    0.1196313361
N       -0.0517454944    0.6258723419   -0.8530764525
H        1.9547700415    1.6565007352   -0.8785161702
H       -0.0873864292   -1.5104284004   -1.3387386637
H       -1.0676788556   -1.9968088752    1.1011425439
H       -2.1323175250    0.3604914718    1.7526088203
H       -1.1024550838    2.2499978963    0.1420087037
C        1.6136002509   -0.5182455991   -0.3410535559
H        2.4984667007   -1.1192860351   -0.1756489189
13   
Frame  13 IRC: Energy =  -286.8849400000 ; +0.3244 kcal/mol
C        1.3804868045    0.7562829353   -0.6869244070
C        0.1154656854   -0.8451379246   -0.4879268396
C       -0.8111358779   -1.0368240331    0.6710292584
C       -1.3938745709    0.1931410492    0.9759381365
C       -0.9172032126    1.1841976893    0.1204009843
N       -0.0505056783    0.6251075274   -0.8535238483
H        1.9547849051    1.6565428150   -0.8795719912
H       -0.0870251315   -1.5104130840   -1.3384665948
H       -1.0684746450   -1.9972341932    1.1007430152
H       -2.1325366858    0.3603549773    1.7524264413
H       -1.1019654508    2.2502883014    0.1426142169
C        1.6131636330   -0.5172340743   -0.3412659724
H        2.4988202248   -1.1190719856   -0.1754723994
13   
Frame  14 IRC: Energy =  -286.8845400000 ; +0.5754 kcal/mol
C        1.3802156810    0.7583001585   -0.6976500777
C        0.1185713167   -0.8449809581   -0.4776962432
C       -0.8177715993   -1.0405149019    0.6731384075
C       -1.3977315828    0.1902160005    0.9780970258
C       -0.9120526583    1.1825629434    0.1281055558
N       -0.0541110449    0.6232035056   -0.8478164351
H        1.9488532651    1.6557732437   -0.9153932625
H       -0.0724643825   -1.5157707424   -1.3263343462
H       -1.0977838585   -2.0027195573    1.0826127165
H       -2.1436286485    0.3586772677    1.7481492187
H       -1.0793956568    2.2505074310    0.1621961336
C        1.6183971509   -0.5105078798   -0.3345833785
H        2.5089020179   -1.1047465108   -0.1728253149
13   
Frame  15 IRC: Energy =  -286.8845000000 ; +0.6005 kcal/mol
C        1.3804094903    0.7569926895   -0.6977612270
C        0.1189482549   -0.8451214466   -0.4779301851
C       -0.8184698645   -1.0406773682    0.6736916495
C       -1.3976469411    0.1894977661    0.9780560068
C       -0.9111244900    1.1827545604    0.1275186014
N       -0.0557771431    0.6237090961   -0.8468441175
H        1.9488112222    1.6561917564   -0.9170758464
H       -0.0717977261   -1.5158901541   -1.3255761678
H       -1.0989937291   -2.0027413396    1.0816906470
H       -2.1443008612    0.3586589553    1.7481620415
H       -1.0784087982    2.2503721357    0.1630716442
C        1.6193645005   -0.5098249937   -0.3342213716
H        2.5089860855   -1.1039216572   -0.1727816750
13   
Frame  16 IRC: Energy =  -286.8839760000 ; +0.9293 kcal/mol
C        1.3783242627    0.7607517283   -0.7080132724
C        0.1228976664   -0.8465704896   -0.4656170259
C       -0.8248121159   -1.0441326326    0.6754451932
C       -1.4022373181    0.1887197198    0.9805963314
C       -0.9070295428    1.1808843408    0.1367169662
N       -0.0553648666    0.6185235949   -0.8431206237
H        1.9412051472    1.6552358883   -0.9506876560
H       -0.0571986475   -1.5223594064   -1.3125341400
H       -1.1295046533   -2.0084351144    1.0628709639
H       -2.1553879170    0.3574226796    1.7433720744
H       -1.0548254163    2.2514241389    0.1825950331
C        1.6235947459   -0.5020448871   -0.3289255840
H        2.5203386553   -1.0894195605   -0.1726982603
13   
Frame  17 IRC: Energy =  -286.8839110000 ; +0.9701 kcal/mol
C        1.3783581649    0.7600933393   -0.7086101245
C        0.1234544535   -0.8468906843   -0.4651039810
C       -0.8257987052   -1.0445039693    0.6760297434
C       -1.4023299926    0.1880111898    0.9806284107
C       -0.9057771645    1.1809941378    0.1364660108
N       -0.0569797405    0.6185202718   -0.8420073365
H        1.9406940280    1.6555120181   -0.9538679460
H       -0.0558418376   -1.5228304643   -1.3111168339
H       -1.1322260525   -2.0087302506    1.0610097543
H       -2.1567159034    0.3573844370    1.7432579301
H       -1.0527028016    2.2514780655    0.1844401862
C        1.6250400611   -0.5012544203   -0.3283218217
H        2.5208254904   -1.0877836704   -0.1728039918
13   
Frame  18 IRC: Energy =  -286.8831900000 ; +1.4226 kcal/mol
C        1.3758888299    0.7630272830   -0.7185848870
C        0.1276760507   -0.8489187699   -0.4524040344
C       -0.8328822039   -1.0479950628    0.6784180069
C       -1.4071795807    0.1871149683    0.9832841611
C       -0.9012450753    1.1786844797    0.1455376568
N       -0.0572840746    0.6129470006   -0.8374045723
H        1.9308466064    1.6551700756   -0.9860062845
H       -0.0404114528   -1.5311372832   -1.2961602500
H       -1.1656729291   -2.0130595300    1.0407242996
H       -2.1682084960    0.3572997152    1.7379925662
H       -1.0264500444    2.2514238988    0.2039310747
C        1.6302444278   -0.4932583506   -0.3229717099
H        2.5346779422   -1.0712984248   -0.1763560271
13   
Frame  19 IRC: Energy =  -286.8830930000 ; +1.4834 kcal/mol
C        1.3771380268    0.7624826267   -0.7191574437
C        0.1276862064   -0.8495453188   -0.4513614702
C       -0.8334526081   -1.0487128652    0.6785814891
C       -1.4071484002    0.1870668065    0.9829466749
C       -0.9002635322    1.1789994090    0.1455937565
N       -0.0599382835    0.6130248629   -0.8362275254
H        1.9297853889    1.6551486253   -0.9889960860
H       -0.0389682014   -1.5318158057   -1.2946033160
H       -1.1687682891   -2.0133004500    1.0387510050
H       -2.1696988790    0.3573785016    1.7379144674
H       -1.0239260845    2.2509221378    0.2057533338
C        1.6325218661   -0.4924398753   -0.3223153262
H        2.5350327897   -1.0692086548   -0.1768795592
13   
Frame  20 IRC: Energy =  -286.8822330000 ; +2.0231 kcal/mol
C        1.3726191662    0.7645890438   -0.7277730841
C        0.1324038894   -0.8525126918   -0.4392762117
C       -0.8421124503   -1.0521649110    0.6813150402
C       -1.4124640437    0.1857515126    0.9858085675
C       -0.8955224342    1.1758487913    0.1537631350
N       -0.0586102040    0.6059706104   -0.8314927534
H        1.9194916613    1.6549259799   -1.0166868171
H       -0.0245949026   -1.5399780941   -1.2805818047
H       -1.2029163507   -2.0161411532    1.0201757784
H       -2.1801567305    0.3590625332    1.7330118545
H       -0.9977734299    2.2504327678    0.2234156494
C        1.6373674710   -0.4849952807   -0.3176663739
H        2.5522683578   -1.0507891079   -0.1840129802
13   
Frame  21 IRC: Energy =  -286.8820890000 ; +2.1135 kcal/mol
C        1.3744442886    0.7630191959   -0.7280178439
C        0.1317034425   -0.8535835089   -0.4373310671
C       -0.8431048674   -1.0531821145    0.6815635849
C       -1.4126636368    0.1853291495    0.9856652917
C       -0.8947376496    1.1758835132    0.1543386216
N       -0.0607192512    0.6054270630   -0.8307459959
H        1.9178625457    1.6546717433   -1.0199603039
H       -0.0228412954   -1.5408858282   -1.2788766471
H       -1.2069573866   -2.0159689684    1.0177299890
H       -2.1817839541    0.3594175477    1.7327299296
H       -0.9945079183    2.2501701478    0.2255328497
C        1.6400611928   -0.4823534019   -0.3175183121
H        2.5532444898   -1.0479445385   -0.1851100965
13   
Frame  22 IRC: Energy =  -286.8811160000 ; +2.7240 kcal/mol
C        1.3689154330    0.7647746386   -0.7348432982
C        0.1365263133   -0.8573625239   -0.4272912564
C       -0.8530168652   -1.0568208769    0.6832730586
C       -1.4180839383    0.1847132992    0.9878379638
C       -0.8899840903    1.1723055169    0.1614779799
N       -0.0593921378    0.5979499505   -0.8249560594
H        1.9080807156    1.6536598470   -1.0421554364
H       -0.0110042482   -1.5473285265   -1.2681027651
H       -1.2399378930   -2.0178852356    1.0034709886
H       -2.1905654206    0.3633298677    1.7290381877
H       -0.9704601059    2.2479017879    0.2400211575
C        1.6448394499   -0.4782010904   -0.3127610599
H        2.5740827876   -1.0270366544   -0.1950094607
13   
Frame  23 IRC: Energy =  -286.8807910000 ; +2.9280 kcal/mol
C        1.3698609630    0.7634747237   -0.7358010335
C        0.1359390040   -0.8593704915   -0.4242393662
C       -0.8559291104   -1.0583619391    0.6837546634
C       -1.4192265647    0.1838036100    0.9880489028
C       -0.8880850822    1.1714527853    0.1626225329
N       -0.0618691541    0.5963915448   -0.8230061658
H        1.9049879216    1.6529999404   -1.0479683583
H       -0.0077813598   -1.5488478574   -1.2651984943
H       -1.2489266629   -2.0177052584    0.9994999104
H       -2.1932542995    0.3647344394    1.7283532732
H       -0.9638010354    2.2472311463    0.2438877696
C        1.6499218456   -0.4757037497   -0.3117817201
H        2.5781635349   -1.0200988938   -0.1981719140
13   
Frame  24 IRC: Energy =  -286.8796740000 ; +3.6289 kcal/mol
C        1.3655199792    0.7634267394   -0.7402352284
C        0.1394552181   -0.8643116318   -0.4155783961
C       -0.8678770198   -1.0629570625    0.6835390319
C       -1.4247190277    0.1836308841    0.9890946872
C       -0.8839203975    1.1684299809    0.1699090648
N       -0.0591658320    0.5879160114   -0.8172610348
H        1.8956537985    1.6505067404   -1.0644179613
H        0.0005881610   -1.5527958085   -1.2591527552
H       -1.2786957986   -2.0188807209    0.9906325827
H       -2.1998773643    0.3709266032    1.7263510368
H       -0.9435626456    2.2440478797    0.2545819481
C        1.6544101249   -0.4729450289   -0.3078385872
H        2.6021908038   -0.9969945866   -0.2096243886
13   
Frame  25 IRC: Energy =  -286.8779570000 ; +4.7063 kcal/mol
C        1.3640641046    0.7575641553   -0.7425012688
C        0.1387532575   -0.8725565574   -0.4074079445
C       -0.8882312785   -1.0683794448    0.6780876722
C       -1.4344188253    0.1831388517    0.9891376318
C       -0.8759402868    1.1644027624    0.1777734471
N       -0.0585724335    0.5785344845   -0.8066310032
H        1.8826772479    1.6463435219   -1.0807069886
H        0.0074177958   -1.5561782110   -1.2557501327
H       -1.3113411794   -2.0196869395    0.9849407823
H       -2.2059120623    0.3810400691    1.7277118764
H       -0.9230121145    2.2412759587    0.2642412562
C        1.6691212774   -0.4714689598   -0.3046692708
H        2.6353944973   -0.9640296912   -0.2242260575
13   
Frame  26 IRC: Energy =  -286.8756770000 ; +6.1370 kcal/mol
C        1.3636179583    0.7504478429   -0.7440858545
C        0.1356071331   -0.8808673228   -0.4015931255
C       -0.9136937936   -1.0725998650    0.6676511458
C       -1.4461452662    0.1843493837    0.9882832165
C       -0.8683706284    1.1619529138    0.1873398272
N       -0.0545524013    0.5683102893   -0.7945991683
H        1.8683294858    1.6415926725   -1.0939536900
H        0.0116235244   -1.5598898406   -1.2553782430
H       -1.3387353310   -2.0204874965    0.9826211409
H       -2.2107978419    0.3920452766    1.7330582634
H       -0.9067171179    2.2394682477    0.2712073760
C        1.6856383797   -0.4731620770   -0.3031401491
H        2.6741958990   -0.9311600246   -0.2374107395
13   
Frame  27 IRC: Energy =  -286.8727240000 ; +7.9901 kcal/mol
C        1.3650598175    0.7412287978   -0.7459525949
C        0.1259414337   -0.8879805931   -0.4003682142
C       -0.9431298008   -1.0744931638    0.6531231503
C       -1.4583004887    0.1879886197    0.9893822039
C       -0.8630125729    1.1611394838    0.1965250069
N       -0.0504961225    0.5594166550   -0.7819390432
H        1.8539560979    1.6378912261   -1.1039915515
H        0.0138993614   -1.5653886177   -1.2573925271
H       -1.3586836531   -2.0219666835    0.9825593652
H       -2.2152601959    0.4023432158    1.7417330845
H       -0.8951635417    2.2394825980    0.2757245734
C        1.7077065631   -0.4762222510   -0.3019463273
H        2.7174831020   -0.9034392871   -0.2474571260
13   
Frame  28 IRC: Energy =  -286.8689760000 ; +10.3420 kcal/mol
C        1.3665702132    0.7322933158   -0.7488000841
C        0.0979852995   -0.8910132052   -0.4023245878
C       -0.9715713884   -1.0745757394    0.6402637655
C       -1.4676853291    0.1923328810    0.9919436963
C       -0.8596275063    1.1609456397    0.2033809288
N       -0.0476964835    0.5517585889   -0.7687578534
H        1.8422286742    1.6354393245   -1.1107597606
H        0.0172707199   -1.5731212267   -1.2608326131
H       -1.3715397029   -2.0231052498    0.9823524131
H       -2.2181309335    0.4101659878    1.7494006660
H       -0.8868989633    2.2393828535    0.2784044915
C        1.7367802414   -0.4751432380   -0.3004876323
H        2.7623151587   -0.8853599323   -0.2537834299
13   
Frame  29 IRC: Energy =  -286.8643950000 ; +13.2166 kcal/mol
C        1.3689478585    0.7242671476   -0.7515082363
C        0.0557944701   -0.8939227038   -0.4085046615
C       -0.9942061917   -1.0742517316    0.6294503636
C       -1.4745352917    0.1973843444    0.9946221799
C       -0.8575399117    1.1605103515    0.2084784151
N       -0.0463101092    0.5436666383   -0.7557040249
H        1.8331873695    1.6335768873   -1.1151589896
H        0.0227755375   -1.5792301695   -1.2613369987
H       -1.3800180017   -2.0237716989    0.9816271265
H       -2.2198897348    0.4158792857    1.7551872948
H       -0.8807256495    2.2390248484    0.2800820783
C        1.7718115102   -0.4697540655   -0.2997701958
H        2.8007081446   -0.8733791341   -0.2574643515
13   
Frame  30 IRC: Energy =  -286.8595830000 ; +16.2362 kcal/mol
C        1.3712520022    0.7171655662   -0.7540492384
C        0.0066384101   -0.8951651592   -0.4157484319
C       -1.0129881265   -1.0738929033    0.6199628855
C       -1.4797782900    0.2025460644    0.9973438403
C       -0.8558081523    1.1598612064    0.2124062104
N       -0.0457165385    0.5350269031   -0.7431273324
H        1.8257520542    1.6319621791   -1.1181555398
H        0.0298778785   -1.5849679842   -1.2607440696
H       -1.3863116807   -2.0241983755    0.9805573410
H       -2.2210587425    0.4204163498    1.7598721131
H       -0.8755917019    2.2384251043    0.2812587320
C        1.8090285720   -0.4620719389   -0.3000606450
H        2.8347043154   -0.8651070122   -0.2595158651
13   
Frame  31 IRC: Energy =  -286.8558730000 ; +18.5643 kcal/mol
C        1.3741945108    0.7102087560   -0.7560911870
C       -0.0478291071   -0.8969364688   -0.4238395747
C       -1.0267318050   -1.0740564596    0.6108861503
C       -1.4834275807    0.2082364557    0.9996252427
C       -0.8544282262    1.1588286474    0.2154367466
N       -0.0463407420    0.5259472974   -0.7306372955
H        1.8198859809    1.6312282232   -1.1201135796
H        0.0388442851   -1.5894127241   -1.2579873441
H       -1.3910888263   -2.0239719851    0.9789660074
H       -2.2218046891    0.4240565215    1.7635891326
H       -0.8712014893    2.2374883576    0.2821240399
C        1.8470111023   -0.4520881699   -0.3018479126
H        2.8629165865   -0.8595284513   -0.2601104259
13   
Frame  32 IRC: Energy =  -286.8545210000 ; +19.4126 kcal/mol (Transition State)
C        1.3764882036    0.7035135378   -0.7571139213
C       -0.1019155022   -0.8980599306   -0.4348346227
C       -1.0398682298   -1.0743501997    0.6028443644
C       -1.4867504731    0.2142007892    1.0023522803
C       -0.8527400934    1.1576676895    0.2192971440
N       -0.0476011640    0.5153928309   -0.7205151489
H        1.8139556031    1.6297071321   -1.1211886845
H        0.0492831380   -1.5928540966   -1.2527626217
H       -1.3963302473   -2.0243161612    0.9776146404
H       -2.2226711272    0.4276428383    1.7672855687
H       -0.8669628113    2.2368107954    0.2828872471
C        1.8862084775   -0.4397120162   -0.3061952379
H        2.8889042262   -0.8556432089   -0.2596710081
13   
Frame  33 IRC: Energy =  -286.8556610000 ; +18.6973 kcal/mol
C        1.3786797133    0.6963471891   -0.7578255674
C       -0.1551636003   -0.8992632263   -0.4472188044
C       -1.0536871489   -1.0747796859    0.5955482452
C       -1.4900350609    0.2201633516    1.0051190935
C       -0.8511239303    1.1567019708    0.2234746944
N       -0.0487529090    0.5045316295   -0.7107986358
H        1.8079685157    1.6281277683   -1.1222162397
H        0.0598051779   -1.5959557043   -1.2468837403
H       -1.4016279424   -2.0246612011    0.9762499823
H       -2.2235768021    0.4312482991    1.7710100444
H       -0.8627281010    2.2361174594    0.2836277896
C        1.9252440340   -0.4265991740   -0.3109735130
H        2.9149980540   -0.8519786762   -0.2591133488
13   
Frame  34 IRC: Energy =  -286.8582550000 ; +17.0695 kcal/mol
C        1.3786201146    0.6893351361   -0.7579286089
C       -0.2022684948   -0.8998440740   -0.4641288003
C       -1.0718315097   -1.0747863962    0.5900693435
C       -1.4935844257    0.2254392575    1.0090177345
C       -0.8486047569    1.1562360658    0.2296834299
N       -0.0498508207    0.4931600163   -0.7048800981
H        1.8005224458    1.6253140477   -1.1225751655
H        0.0713822524   -1.5987705472   -1.2385727527
H       -1.4088983777   -2.0261979808    0.9755184818
H       -2.2248939097    0.4355929747    1.7755650059
H       -0.8580034790    2.2358005804    0.2844060589
C        1.9642600671   -0.4119205034   -0.3181316699
H        2.9431508943   -0.8493585769   -0.2580429592
13   
Frame  35 IRC: Energy =  -286.8609220000 ; +15.3960 kcal/mol
C        1.3788283260    0.6820933452   -0.7587532259
C       -0.2431120451   -0.9017974263   -0.4739695771
C       -1.0887037012   -1.0767087515    0.5811881283
C       -1.4965174055    0.2307251979    1.0122568201
C       -0.8446997450    1.1551770150    0.2351613607
N       -0.0532358187    0.4861295410   -0.6992648376
H        1.7919840753    1.6240005788   -1.1228661761
H        0.0828538077   -1.6033182664   -1.2316306319
H       -1.4176855390   -2.0263815307    0.9743639827
H       -2.2263523892    0.4406470641    1.7809912153
H       -0.8526034381    2.2351785185    0.2854875784
C        1.9988664877   -0.4001262596   -0.3254735826
H        2.9703773851   -0.8456190259   -0.2574910544
13   
Frame  36 IRC: Energy =  -286.8632720000 ; +13.9213 kcal/mol
C        1.3768636250    0.6765163272   -0.7596839504
C       -0.2705510585   -0.9027780042   -0.4910213227
C       -1.1104557650   -1.0738440079    0.5770140860
C       -1.5009291904    0.2324974211    1.0164717832
C       -0.8414895542    1.1548465474    0.2431222691
N       -0.0516975785    0.4741664280   -0.6972229976
H        1.7817632412    1.6216159885   -1.1225699610
H        0.0926695169   -1.6060264710   -1.2211001179
H       -1.4294426404   -2.0288336081    0.9737601613
H       -2.2266845329    0.4460389074    1.7856668640
H       -0.8465338303    2.2351997521    0.2871292903
C        2.0288908771   -0.3888855671   -0.3339668888
H        2.9975968899   -0.8405137134   -0.2575992156
13   
Frame  37 IRC: Energy =  -286.8644810000 ; +13.1626 kcal/mol
C        1.3773394401    0.6718948219   -0.7603919376
C       -0.2865093100   -0.9055498253   -0.4919844513
C       -1.1201813131   -1.0777870833    0.5705176732
C       -1.5024695054    0.2356244819    1.0169540113
C       -0.8374025395    1.1535431253    0.2452443873
N       -0.0547911324    0.4732811373   -0.6937269147
H        1.7752734148    1.6214720053   -1.1227139939
H        0.0980969729   -1.6092995322   -1.2162631103
H       -1.4368939157   -2.0272011882    0.9720511864
H       -2.2276178204    0.4495880794    1.7895128473
H       -0.8423001018    2.2339384934    0.2882912779
C        2.0452468911   -0.3838194719   -0.3390634912
H        3.0122089194   -0.8356850436   -0.2584274844
13   
Frame  38 IRC: Energy =  -286.8665740000 ; +11.8493 kcal/mol
C        1.3757150764    0.6657690706   -0.7621956072
C       -0.3089535577   -0.9077038339   -0.5029129495
C       -1.1441234132   -1.0741475870    0.5635050105
C       -1.5084369815    0.2366956354    1.0201820378
C       -0.8326388731    1.1513040698    0.2540844122
N       -0.0523503510    0.4601795708   -0.6908544827
H        1.7612934858    1.6202250354   -1.1225533219
H        0.1072735838   -1.6142635180   -1.2037331111
H       -1.4558394796   -2.0292005048    0.9697166857
H       -2.2270486775    0.4566448585    1.7944789758
H       -0.8326800954    2.2329631394    0.2914516691
C        2.0743685999   -0.3736887702   -0.3501999370
H        3.0434206830   -0.8247771659   -0.2609693817
13   