13   
Frame   0 IRC: Energy =  -286.8854570000 ; +0.0000 kcal/mol
C       -0.0805360000    0.0054600000   -0.0000000000
C       -0.1305240000   -0.0745610000   -0.0000000000
C       -0.1566410000    0.6456880000    0.0000000000
C       -0.0460040000   -0.2678600000    0.0000000000
C       -0.1126840000    0.6102230000    0.0000000000
N       -0.2140830000    0.0672840000   -0.0000000000
H        0.1364150000    0.0009570000   -0.0000000000
H        0.1560960000    0.0322650000   -0.0000000000
H        0.1298450000   -0.0294350000    0.0000000000
H        0.1285570000    0.0076500000    0.0000000000
H        0.1358130000   -0.0275350000    0.0000000000
C       -0.0773860000    0.0219190000   -0.0000000000
H        0.1311320000    0.0079450000   -0.0000000000
13   
Frame   1 IRC: Energy =  -286.8854520000 ; +0.0031 kcal/mol
C       -0.0804730000    0.0053600000   -0.0000000000
C       -0.1307730000   -0.0746540000   -0.0000000000
C       -0.1564470000    0.6463300000    0.0000000000
C       -0.0460370000   -0.2679070000    0.0000000000
C       -0.1125770000    0.6097320000    0.0000000000
N       -0.2140490000    0.0673340000   -0.0000000000
H        0.1364250000    0.0009470000   -0.0000000000
H        0.1561560000    0.0321900000   -0.0000000000
H        0.1298530000   -0.0294620000    0.0000000000
H        0.1285730000    0.0076480000    0.0000000000
H        0.1358090000   -0.0275230000    0.0000000000
C       -0.0775880000    0.0220550000   -0.0000000000
H        0.1311270000    0.0079500000   -0.0000000000
13   
Frame   2 IRC: Energy =  -286.8854410000 ; +0.0100 kcal/mol
C       -0.0806670000    0.0052320000   -0.0000000000
C       -0.1316030000   -0.0746720000   -0.0000000000
C       -0.1561130000    0.6458720000    0.0000000000
C       -0.0463310000   -0.2677400000    0.0000000000
C       -0.1123330000    0.6097880000    0.0000000000
N       -0.2137030000    0.0675160000   -0.0000000000
H        0.1364410000    0.0009430000   -0.0000000000
H        0.1561380000    0.0321720000   -0.0000000000
H        0.1298130000   -0.0294350000    0.0000000000
H        0.1285510000    0.0076320000    0.0000000000
H        0.1357940000   -0.0275340000    0.0000000000
C       -0.0771150000    0.0222340000   -0.0000000000
H        0.1311290000    0.0079910000   -0.0000000000
13   
Frame   3 IRC: Energy =  -286.8854350000 ; +0.0138 kcal/mol
C       -0.0805500000    0.0051250000   -0.0000000000
C       -0.1319050000   -0.0747880000   -0.0000000000
C       -0.1558000000    0.6465430000    0.0000000000
C       -0.0464880000   -0.2678120000    0.0000000000
C       -0.1121930000    0.6093000000    0.0000000000
N       -0.2136320000    0.0675660000   -0.0000000000
H        0.1364590000    0.0009330000   -0.0000000000
H        0.1561910000    0.0321020000   -0.0000000000
H        0.1298400000   -0.0294640000    0.0000000000
H        0.1285690000    0.0076310000    0.0000000000
H        0.1358000000   -0.0275260000    0.0000000000
C       -0.0774070000    0.0223940000   -0.0000000000
H        0.1311160000    0.0079970000   -0.0000000000
13   
Frame   4 IRC: Energy =  -286.8854280000 ; +0.0182 kcal/mol
C       -0.0800680000    0.0049710000   -0.0000000000
C       -0.1317940000   -0.0750650000   -0.0000000000
C       -0.1554920000    0.6481340000    0.0000000000
C       -0.0464950000   -0.2680600000    0.0000000000
C       -0.1122230000    0.6083780000    0.0000000000
N       -0.2138750000    0.0674410000   -0.0000000000
H        0.1364460000    0.0009210000   -0.0000000000
H        0.1562470000    0.0320740000   -0.0000000000
H        0.1299090000   -0.0295390000    0.0000000000
H        0.1286160000    0.0076380000    0.0000000000
H        0.1358230000   -0.0275090000    0.0000000000
C       -0.0781760000    0.0226350000   -0.0000000000
H        0.1310820000    0.0079820000   -0.0000000000
13   
Frame   5 IRC: Energy =  -286.8852200000 ; +0.1487 kcal/mol
C       -0.0819200000    0.0031390000   -0.0000000000
C       -0.1415200000   -0.0759260000   -0.0000000000
C       -0.1514010000    0.6479560000    0.0000000000
C       -0.0488900000   -0.2668050000    0.0000000000
C       -0.1092770000    0.6058770000    0.0000000000
N       -0.2102280000    0.0693960000   -0.0000000000
H        0.1365820000    0.0008150000   -0.0000000000
H        0.1564330000    0.0313330000   -0.0000000000
H        0.1294810000   -0.0294240000    0.0000000000
H        0.1285500000    0.0074820000    0.0000000000
H        0.1356500000   -0.0275320000    0.0000000000
C       -0.0745090000    0.0252900000   -0.0000000000
H        0.1310480000    0.0083980000   -0.0000000000
13   
Frame   6 IRC: Energy =  -286.8852090000 ; +0.1556 kcal/mol
C       -0.0814990000    0.0029900000   -0.0000000000
C       -0.1416090000   -0.0760840000   -0.0000000000
C       -0.1510480000    0.6489010000    0.0000000000
C       -0.0488820000   -0.2669820000    0.0000000000
C       -0.1092840000    0.6054780000    0.0000000000
N       -0.2103020000    0.0693090000   -0.0000000000
H        0.1365590000    0.0007990000   -0.0000000000
H        0.1564820000    0.0312380000   -0.0000000000
H        0.1295040000   -0.0294660000    0.0000000000
H        0.1285780000    0.0074850000    0.0000000000
H        0.1356730000   -0.0275390000    0.0000000000
C       -0.0751630000    0.0254780000   -0.0000000000
H        0.1309920000    0.0083930000   -0.0000000000
13   
Frame   7 IRC: Energy =  -286.8851520000 ; +0.1914 kcal/mol
C       -0.0823020000    0.0027580000   -0.0000000000
C       -0.1437480000   -0.0761860000   -0.0000000000
C       -0.1504440000    0.6482250000    0.0000000000
C       -0.0494340000   -0.2665660000    0.0000000000
C       -0.1086340000    0.6050650000    0.0000000000
N       -0.2094060000    0.0698290000   -0.0000000000
H        0.1366210000    0.0007890000   -0.0000000000
H        0.1564800000    0.0311610000   -0.0000000000
H        0.1294030000   -0.0294080000    0.0000000000
H        0.1285460000    0.0074510000    0.0000000000
H        0.1356120000   -0.0275270000    0.0000000000
C       -0.0737420000    0.0259130000   -0.0000000000
H        0.1310470000    0.0084960000   -0.0000000000
13   
Frame   8 IRC: Energy =  -286.8851340000 ; +0.2027 kcal/mol
C       -0.0818800000    0.0025700000   -0.0000000000
C       -0.1440150000   -0.0763620000   -0.0000000000
C       -0.1499630000    0.6491530000    0.0000000000
C       -0.0495060000   -0.2667450000    0.0000000000
C       -0.1085630000    0.6046870000    0.0000000000
N       -0.2093590000    0.0697550000   -0.0000000000
H        0.1365950000    0.0007700000   -0.0000000000
H        0.1565280000    0.0310470000   -0.0000000000
H        0.1294170000   -0.0294460000    0.0000000000
H        0.1285760000    0.0074530000    0.0000000000
H        0.1356390000   -0.0275400000    0.0000000000
C       -0.0744350000    0.0261630000   -0.0000000000
H        0.1309660000    0.0084950000   -0.0000000000
13   
Frame   9 IRC: Energy =  -286.8850950000 ; +0.2272 kcal/mol
C       -0.0826060000    0.0024540000   -0.0000000000
C       -0.1454290000   -0.0764010000   -0.0000000000
C       -0.1497200000    0.6484970000    0.0000000000
C       -0.0498200000   -0.2663890000    0.0000000000
C       -0.1081490000    0.6043990000    0.0000000000
N       -0.2088040000    0.0701620000   -0.0000000000
H        0.1366540000    0.0007690000   -0.0000000000
H        0.1565210000    0.0310200000   -0.0000000000
H        0.1293450000   -0.0293970000    0.0000000000
H        0.1285430000    0.0074280000    0.0000000000
H        0.1355830000   -0.0275190000    0.0000000000
C       -0.0731700000    0.0264060000   -0.0000000000
H        0.1310500000    0.0085700000   -0.0000000000
13   
Frame  10 IRC: Energy =  -286.8850700000 ; +0.2428 kcal/mol
C       -0.0820960000    0.0022150000   -0.0000000000
C       -0.1456930000   -0.0766150000   -0.0000000000
C       -0.1492620000    0.6495700000    0.0000000000
C       -0.0498940000   -0.2666570000    0.0000000000
C       -0.1080830000    0.6040910000    0.0000000000
N       -0.2088080000    0.0700820000   -0.0000000000
H        0.1366300000    0.0007420000   -0.0000000000
H        0.1565770000    0.0308810000   -0.0000000000
H        0.1293480000   -0.0294420000    0.0000000000
H        0.1286020000    0.0074310000    0.0000000000
H        0.1356440000   -0.0275420000    0.0000000000
C       -0.0738730000    0.0266780000   -0.0000000000
H        0.1309090000    0.0085650000   -0.0000000000
13   
Frame  11 IRC: Energy =  -286.8850300000 ; +0.2679 kcal/mol
C       -0.0829290000    0.0021100000   -0.0000000000
C       -0.1475900000   -0.0766090000   -0.0000000000
C       -0.1486680000    0.6485660000    0.0000000000
C       -0.0503230000   -0.2660790000    0.0000000000
C       -0.1075550000    0.6035910000    0.0000000000
N       -0.2077790000    0.0705140000   -0.0000000000
H        0.1366610000    0.0007600000   -0.0000000000
H        0.1565380000    0.0308860000   -0.0000000000
H        0.1292870000   -0.0293680000    0.0000000000
H        0.1285040000    0.0074020000    0.0000000000
H        0.1354850000   -0.0275120000    0.0000000000
C       -0.0727260000    0.0270830000   -0.0000000000
H        0.1310970000    0.0086560000   -0.0000000000
13   
Frame  12 IRC: Energy =  -286.8849620000 ; +0.3106 kcal/mol
C       -0.0827120000    0.0017520000   -0.0000000000
C       -0.1484490000   -0.0770300000   -0.0000000000
C       -0.1479520000    0.6501850000    0.0000000000
C       -0.0507590000   -0.2664550000    0.0000000000
C       -0.1071430000    0.6029890000    0.0000000000
N       -0.2079160000    0.0706480000   -0.0000000000
H        0.1367030000    0.0007020000   -0.0000000000
H        0.1566530000    0.0306380000   -0.0000000000
H        0.1292760000   -0.0294290000    0.0000000000
H        0.1285970000    0.0073970000    0.0000000000
H        0.1356510000   -0.0275290000    0.0000000000
C       -0.0728440000    0.0274430000   -0.0000000000
H        0.1308940000    0.0086890000   -0.0000000000
13   
Frame  13 IRC: Energy =  -286.8849400000 ; +0.3244 kcal/mol
C       -0.0821070000    0.0015780000   -0.0000000000
C       -0.1482370000   -0.0773490000   -0.0000000000
C       -0.1477470000    0.6517620000    0.0000000000
C       -0.0507520000   -0.2667980000    0.0000000000
C       -0.1072880000    0.6022900000    0.0000000000
N       -0.2084480000    0.0704890000   -0.0000000000
H        0.1366790000    0.0006840000   -0.0000000000
H        0.1566660000    0.0306390000   -0.0000000000
H        0.1293280000   -0.0295010000    0.0000000000
H        0.1286560000    0.0074060000    0.0000000000
H        0.1357100000   -0.0275250000    0.0000000000
C       -0.0733230000    0.0276290000   -0.0000000000
H        0.1308620000    0.0086960000   -0.0000000000
13   
Frame  14 IRC: Energy =  -286.8845400000 ; +0.5754 kcal/mol
C       -0.0844740000    0.0002200000   -0.0000000000
C       -0.1582800000   -0.0782610000   -0.0000000000
C       -0.1438040000    0.6512130000    0.0000000000
C       -0.0527640000   -0.2654650000    0.0000000000
C       -0.1045300000    0.5996520000    0.0000000000
N       -0.2037260000    0.0723340000   -0.0000000000
H        0.1368330000    0.0006030000   -0.0000000000
H        0.1567200000    0.0298050000   -0.0000000000
H        0.1289140000   -0.0293030000    0.0000000000
H        0.1285850000    0.0072940000    0.0000000000
H        0.1354210000   -0.0275040000    0.0000000000
C       -0.0697580000    0.0303120000   -0.0000000000
H        0.1308630000    0.0090990000   -0.0000000000
13   
Frame  15 IRC: Energy =  -286.8845000000 ; +0.6005 kcal/mol
C       -0.0847850000    0.0003080000   -0.0000000000
C       -0.1593310000   -0.0776880000   -0.0000000000
C       -0.1440190000    0.6483970000    0.0000000000
C       -0.0526100000   -0.2650190000    0.0000000000
C       -0.1049210000    0.6012980000    0.0000000000
N       -0.2029540000    0.0727120000   -0.0000000000
H        0.1369040000    0.0006200000   -0.0000000000
H        0.1567270000    0.0295590000   -0.0000000000
H        0.1287770000   -0.0291670000    0.0000000000
H        0.1285190000    0.0072790000    0.0000000000
H        0.1353680000   -0.0275440000    0.0000000000
C       -0.0685920000    0.0301110000   -0.0000000000
H        0.1309170000    0.0091330000   -0.0000000000
13   
Frame  16 IRC: Energy =  -286.8839760000 ; +0.9293 kcal/mol
C       -0.0862350000   -0.0012350000   -0.0000000000
C       -0.1678820000   -0.0801000000   -0.0000000000
C       -0.1393450000    0.6544130000    0.0000000000
C       -0.0550720000   -0.2650980000    0.0000000000
C       -0.1016470000    0.5955900000    0.0000000000
N       -0.2000330000    0.0737830000   -0.0000000000
H        0.1369550000    0.0004640000   -0.0000000000
H        0.1567160000    0.0289060000   -0.0000000000
H        0.1286160000   -0.0292360000    0.0000000000
H        0.1286810000    0.0072310000    0.0000000000
H        0.1353660000   -0.0274600000    0.0000000000
C       -0.0667930000    0.0332290000   -0.0000000000
H        0.1306740000    0.0095120000   -0.0000000000
13   
Frame  17 IRC: Energy =  -286.8839110000 ; +0.9701 kcal/mol
C       -0.0866840000   -0.0012380000   -0.0000000000
C       -0.1692460000   -0.0797060000   -0.0000000000
C       -0.1392660000    0.6519440000    0.0000000000
C       -0.0551400000   -0.2647070000    0.0000000000
C       -0.1017750000    0.5969950000    0.0000000000
N       -0.1990520000    0.0741930000   -0.0000000000
H        0.1370380000    0.0004680000   -0.0000000000
H        0.1567210000    0.0286490000   -0.0000000000
H        0.1284850000   -0.0291060000    0.0000000000
H        0.1286450000    0.0072170000    0.0000000000
H        0.1353500000   -0.0275010000    0.0000000000
C       -0.0657340000    0.0332450000   -0.0000000000
H        0.1306570000    0.0095470000   -0.0000000000
13   
Frame  18 IRC: Energy =  -286.8831900000 ; +1.4226 kcal/mol
C       -0.0889360000   -0.0025300000   -0.0000000000
C       -0.1790640000   -0.0821330000   -0.0000000000
C       -0.1344230000    0.6572090000    0.0000000000
C       -0.0576290000   -0.2646290000    0.0000000000
C       -0.0982710000    0.5915840000    0.0000000000
N       -0.1952440000    0.0753020000   -0.0000000000
H        0.1370880000    0.0003160000   -0.0000000000
H        0.1565800000    0.0278060000   -0.0000000000
H        0.1282220000   -0.0290800000    0.0000000000
H        0.1287990000    0.0071930000    0.0000000000
H        0.1352630000   -0.0273990000    0.0000000000
C       -0.0628040000    0.0363800000   -0.0000000000
H        0.1304170000    0.0099820000   -0.0000000000
13   
Frame  19 IRC: Energy =  -286.8830930000 ; +1.4834 kcal/mol
C       -0.0896850000   -0.0024520000   -0.0000000000
C       -0.1807040000   -0.0822330000   -0.0000000000
C       -0.1342360000    0.6564320000    0.0000000000
C       -0.0579620000   -0.2639640000    0.0000000000
C       -0.0976900000    0.5904300000    0.0000000000
N       -0.1947240000    0.0758840000   -0.0000000000
H        0.1371590000    0.0003520000   -0.0000000000
H        0.1565740000    0.0277470000   -0.0000000000
H        0.1281070000   -0.0290110000    0.0000000000
H        0.1287430000    0.0071660000    0.0000000000
H        0.1351790000   -0.0273130000    0.0000000000
C       -0.0611070000    0.0369400000   -0.0000000000
H        0.1303450000    0.0100210000   -0.0000000000
13   
Frame  20 IRC: Energy =  -286.8822330000 ; +2.0231 kcal/mol
C       -0.0921810000   -0.0035050000   -0.0000000000
C       -0.1902630000   -0.0842910000   -0.0000000000
C       -0.1295720000    0.6604770000    0.0000000000
C       -0.0602970000   -0.2644070000    0.0000000000
C       -0.0947070000    0.5876900000    0.0000000000
N       -0.1902150000    0.0763770000   -0.0000000000
H        0.1371890000    0.0001620000   -0.0000000000
H        0.1564330000    0.0266600000   -0.0000000000
H        0.1279050000   -0.0289360000    0.0000000000
H        0.1289710000    0.0071990000    0.0000000000
H        0.1351920000   -0.0273190000    0.0000000000
C       -0.0585840000    0.0394190000   -0.0000000000
H        0.1301280000    0.0104740000   -0.0000000000
13   
Frame  21 IRC: Energy =  -286.8820890000 ; +2.1135 kcal/mol
C       -0.0923520000   -0.0034160000   -0.0000000000
C       -0.1923420000   -0.0846850000   -0.0000000000
C       -0.1291370000    0.6593890000    0.0000000000
C       -0.0605740000   -0.2636040000    0.0000000000
C       -0.0943410000    0.5863330000    0.0000000000
N       -0.1901840000    0.0770660000   -0.0000000000
H        0.1372080000    0.0002090000   -0.0000000000
H        0.1563440000    0.0266860000   -0.0000000000
H        0.1277700000   -0.0288380000    0.0000000000
H        0.1289390000    0.0071700000    0.0000000000
H        0.1351270000   -0.0272400000    0.0000000000
C       -0.0564740000    0.0403510000   -0.0000000000
H        0.1300170000    0.0105800000   -0.0000000000
13   
Frame  22 IRC: Energy =  -286.8811160000 ; +2.7240 kcal/mol
C       -0.0960170000   -0.0040970000   -0.0000000000
C       -0.2009270000   -0.0863810000   -0.0000000000
C       -0.1255180000    0.6644980000    0.0000000000
C       -0.0625730000   -0.2642140000    0.0000000000
C       -0.0911090000    0.5832990000    0.0000000000
N       -0.1850380000    0.0767740000   -0.0000000000
H        0.1372440000    0.0000230000   -0.0000000000
H        0.1564220000    0.0255570000   -0.0000000000
H        0.1277530000   -0.0288870000    0.0000000000
H        0.1291800000    0.0072370000    0.0000000000
H        0.1351070000   -0.0271790000    0.0000000000
C       -0.0544290000    0.0423680000   -0.0000000000
H        0.1299050000    0.0110010000   -0.0000000000
13   
Frame  23 IRC: Energy =  -286.8807910000 ; +2.9280 kcal/mol
C       -0.0970410000   -0.0041640000   -0.0000000000
C       -0.2044740000   -0.0868990000   -0.0000000000
C       -0.1244480000    0.6627220000    0.0000000000
C       -0.0631820000   -0.2632330000    0.0000000000
C       -0.0902340000    0.5823580000    0.0000000000
N       -0.1834750000    0.0773830000   -0.0000000000
H        0.1372620000    0.0000500000   -0.0000000000
H        0.1563820000    0.0253460000   -0.0000000000
H        0.1276070000   -0.0287450000    0.0000000000
H        0.1291680000    0.0072140000    0.0000000000
H        0.1350490000   -0.0271240000    0.0000000000
C       -0.0522550000    0.0439920000   -0.0000000000
H        0.1296400000    0.0111000000   -0.0000000000
13   
Frame  24 IRC: Energy =  -286.8796740000 ; +3.6289 kcal/mol
C       -0.1004720000   -0.0044230000   -0.0000000000
C       -0.2119360000   -0.0884870000   -0.0000000000
C       -0.1220480000    0.6686900000    0.0000000000
C       -0.0642110000   -0.2639530000    0.0000000000
C       -0.0873690000    0.5784910000    0.0000000000
N       -0.1792390000    0.0763140000   -0.0000000000
H        0.1371900000   -0.0000850000   -0.0000000000
H        0.1566240000    0.0244820000   -0.0000000000
H        0.1278660000   -0.0289650000    0.0000000000
H        0.1294330000    0.0073050000    0.0000000000
H        0.1350870000   -0.0269740000    0.0000000000
C       -0.0505720000    0.0459960000   -0.0000000000
H        0.1296470000    0.0116080000   -0.0000000000
13   
Frame  25 IRC: Energy =  -286.8779570000 ; +4.7063 kcal/mol
C       -0.1050400000   -0.0052600000   -0.0000000000
C       -0.2227740000   -0.0903040000   -0.0000000000
C       -0.1218820000    0.6695770000    0.0000000000
C       -0.0632550000   -0.2624380000    0.0000000000
C       -0.0856290000    0.5740760000    0.0000000000
N       -0.1706180000    0.0747350000   -0.0000000000
H        0.1370380000   -0.0000770000   -0.0000000000
H        0.1569300000    0.0237820000   -0.0000000000
H        0.1281550000   -0.0292110000    0.0000000000
H        0.1296800000    0.0073340000    0.0000000000
H        0.1352550000   -0.0267340000    0.0000000000
C       -0.0474900000    0.0522720000   -0.0000000000
H        0.1296300000    0.0122470000   -0.0000000000
13   
Frame  26 IRC: Energy =  -286.8756770000 ; +6.1370 kcal/mol
C       -0.1098850000   -0.0067810000   -0.0000000000
C       -0.2327830000   -0.0926860000   -0.0000000000
C       -0.1244200000    0.6703070000    0.0000000000
C       -0.0591360000   -0.2610730000    0.0000000000
C       -0.0851110000    0.5692060000    0.0000000000
N       -0.1604150000    0.0718200000   -0.0000000000
H        0.1367070000   -0.0000050000   -0.0000000000
H        0.1571970000    0.0234090000   -0.0000000000
H        0.1286400000   -0.0296010000    0.0000000000
H        0.1302090000    0.0073740000    0.0000000000
H        0.1356630000   -0.0264360000    0.0000000000
C       -0.0467410000    0.0613450000   -0.0000000000
H        0.1300760000    0.0131200000   -0.0000000000
13   
Frame  27 IRC: Energy =  -286.8727240000 ; +7.9901 kcal/mol
C       -0.1162260000   -0.0099450000   -0.0000000000
C       -0.2430270000   -0.0962990000   -0.0000000000
C       -0.1282910000    0.6678200000    0.0000000000
C       -0.0531160000   -0.2587660000    0.0000000000
C       -0.0853080000    0.5629500000    0.0000000000
N       -0.1465610000    0.0678590000   -0.0000000000
H        0.1362500000    0.0002310000   -0.0000000000
H        0.1572530000    0.0233240000   -0.0000000000
H        0.1291610000   -0.0298180000    0.0000000000
H        0.1309700000    0.0073130000    0.0000000000
H        0.1362070000   -0.0260560000    0.0000000000
C       -0.0484350000    0.0770120000   -0.0000000000
H        0.1311260000    0.0143730000   -0.0000000000
13   
Frame  28 IRC: Energy =  -286.8689760000 ; +10.3420 kcal/mol
C       -0.1243930000   -0.0167050000   -0.0000000000
C       -0.2594580000   -0.1033910000   -0.0000000000
C       -0.1223570000    0.6513770000    0.0000000000
C       -0.0532830000   -0.2508250000    0.0000000000
C       -0.0816700000    0.5509730000    0.0000000000
N       -0.1264690000    0.0636230000   -0.0000000000
H        0.1357260000    0.0008680000   -0.0000000000
H        0.1569260000    0.0242740000   -0.0000000000
H        0.1296950000   -0.0292150000    0.0000000000
H        0.1315760000    0.0069320000    0.0000000000
H        0.1367760000   -0.0253900000    0.0000000000
C       -0.0550900000    0.1108080000   -0.0000000000
H        0.1320230000    0.0166720000   -0.0000000000
13   
Frame  29 IRC: Energy =  -286.8643950000 ; +13.2166 kcal/mol
C       -0.1313470000   -0.0285080000   -0.0000000000
C       -0.2815020000   -0.1172040000   -0.0000000000
C       -0.1038150000    0.6201520000    0.0000000000
C       -0.0616400000   -0.2348300000    0.0000000000
C       -0.0725180000    0.5247430000    0.0000000000
N       -0.1034210000    0.0591880000   -0.0000000000
H        0.1352080000    0.0023040000   -0.0000000000
H        0.1574740000    0.0251940000   -0.0000000000
H        0.1301840000   -0.0278840000    0.0000000000
H        0.1320440000    0.0061920000    0.0000000000
H        0.1375080000   -0.0240660000    0.0000000000
C       -0.0695970000    0.1750750000   -0.0000000000
H        0.1314230000    0.0196450000   -0.0000000000
13   
Frame  30 IRC: Energy =  -286.8595830000 ; +16.2362 kcal/mol
C       -0.1366800000   -0.0462460000   -0.0000000000
C       -0.3064760000   -0.1396950000   -0.0000000000
C       -0.0764980000    0.5688330000    0.0000000000
C       -0.0759060000   -0.2097140000    0.0000000000
C       -0.0603120000    0.4810360000    0.0000000000
N       -0.0800470000    0.0540630000   -0.0000000000
H        0.1347910000    0.0049840000   -0.0000000000
H        0.1589780000    0.0258970000   -0.0000000000
H        0.1308570000   -0.0256410000    0.0000000000
H        0.1323680000    0.0051650000    0.0000000000
H        0.1383840000   -0.0219340000    0.0000000000
C       -0.0895270000    0.2805060000   -0.0000000000
H        0.1300700000    0.0227460000   -0.0000000000
13   
Frame  31 IRC: Energy =  -286.8558730000 ; +18.5643 kcal/mol
C       -0.1375290000   -0.0701670000   -0.0000000000
C       -0.3261890000   -0.1643830000   -0.0000000000
C       -0.0454840000    0.4879950000    0.0000000000
C       -0.0941320000   -0.1709960000    0.0000000000
C       -0.0479000000    0.4076840000    0.0000000000
N       -0.0623650000    0.0496030000   -0.0000000000
H        0.1349570000    0.0096760000   -0.0000000000
H        0.1614910000    0.0256810000   -0.0000000000
H        0.1313590000   -0.0220910000    0.0000000000
H        0.1323180000    0.0037930000    0.0000000000
H        0.1390750000   -0.0184640000    0.0000000000
C       -0.1143160000    0.4371600000   -0.0000000000
H        0.1287140000    0.0245090000   -0.0000000000
13   
Frame  32 IRC: Energy =  -286.8545210000 ; +19.4126 kcal/mol (Transition State)
C       -0.1339330000   -0.0946640000   -0.0000000000
C       -0.3323600000   -0.1665740000   -0.0000000000
C       -0.0229750000    0.3819670000    0.0000000000
C       -0.1093570000   -0.1245010000    0.0000000000
C       -0.0421320000    0.3145460000    0.0000000000
N       -0.0547930000    0.0452830000   -0.0000000000
H        0.1359760000    0.0160420000   -0.0000000000
H        0.1633820000    0.0233930000   -0.0000000000
H        0.1313930000   -0.0174520000    0.0000000000
H        0.1317800000    0.0024000000    0.0000000000
H        0.1391690000   -0.0141580000    0.0000000000
C       -0.1353540000    0.6110280000   -0.0000000000
H        0.1292030000    0.0226900000   -0.0000000000
13   
Frame  33 IRC: Energy =  -286.8556610000 ; +18.6973 kcal/mol
C       -0.1287660000   -0.1157240000   -0.0000000000
C       -0.3269040000   -0.1310490000   -0.0000000000
C       -0.0124430000    0.2662060000    0.0000000000
C       -0.1200400000   -0.0772330000    0.0000000000
C       -0.0432940000    0.2188290000    0.0000000000
N       -0.0545130000    0.0406020000   -0.0000000000
H        0.1379790000    0.0230360000   -0.0000000000
H        0.1634510000    0.0191760000   -0.0000000000
H        0.1307460000   -0.0124710000    0.0000000000
H        0.1307610000    0.0011580000    0.0000000000
H        0.1383960000   -0.0098130000    0.0000000000
C       -0.1473630000    0.7595120000   -0.0000000000
H        0.1319900000    0.0177710000   -0.0000000000
13   
Frame  34 IRC: Energy =  -286.8582550000 ; +17.0695 kcal/mol
C       -0.1258860000   -0.1323460000   -0.0000000000
C       -0.3172160000   -0.0828570000   -0.0000000000
C       -0.0127550000    0.1725870000    0.0000000000
C       -0.1233800000   -0.0428060000    0.0000000000
C       -0.0500950000    0.1464120000    0.0000000000
N       -0.0564070000    0.0354260000   -0.0000000000
H        0.1400580000    0.0293560000   -0.0000000000
H        0.1612570000    0.0141490000   -0.0000000000
H        0.1298890000   -0.0085050000    0.0000000000
H        0.1298540000    0.0003740000    0.0000000000
H        0.1373720000   -0.0065730000    0.0000000000
C       -0.1494930000    0.8635960000   -0.0000000000
H        0.1368020000    0.0111860000   -0.0000000000
13   
Frame  35 IRC: Energy =  -286.8609220000 ; +15.3960 kcal/mol
C       -0.1282390000   -0.1467810000   -0.0000000000
C       -0.3105770000   -0.0395300000   -0.0000000000
C       -0.0135260000    0.1047980000    0.0000000000
C       -0.1272840000   -0.0169080000    0.0000000000
C       -0.0541760000    0.0935820000    0.0000000000
N       -0.0587080000    0.0323180000   -0.0000000000
H        0.1419170000    0.0347560000   -0.0000000000
H        0.1585990000    0.0101340000   -0.0000000000
H        0.1292290000   -0.0056600000    0.0000000000
H        0.1290550000   -0.0002250000    0.0000000000
H        0.1362630000   -0.0042230000    0.0000000000
C       -0.1443530000    0.9325220000   -0.0000000000
H        0.1418000000    0.0052180000   -0.0000000000
13   
Frame  36 IRC: Energy =  -286.8632720000 ; +13.9213 kcal/mol
C       -0.1309490000   -0.1563100000   -0.0000000000
C       -0.3049370000   -0.0157320000   -0.0000000000
C       -0.0194350000    0.0676380000    0.0000000000
C       -0.1238880000   -0.0063740000    0.0000000000
C       -0.0617990000    0.0675340000    0.0000000000
N       -0.0564290000    0.0294420000   -0.0000000000
H        0.1429740000    0.0380770000   -0.0000000000
H        0.1553730000    0.0070740000   -0.0000000000
H        0.1290200000   -0.0040960000    0.0000000000
H        0.1288130000   -0.0003750000    0.0000000000
H        0.1359870000   -0.0031050000    0.0000000000
C       -0.1410500000    0.9757550000   -0.0000000000
H        0.1463210000    0.0004710000   -0.0000000000
13   
Frame  37 IRC: Energy =  -286.8644810000 ; +13.1626 kcal/mol
C       -0.1350460000   -0.1627260000   -0.0000000000
C       -0.3040740000   -0.0029680000   -0.0000000000
C       -0.0190560000    0.0492100000    0.0000000000
C       -0.1269370000    0.0019520000    0.0000000000
C       -0.0609470000    0.0518860000    0.0000000000
N       -0.0572810000    0.0295600000   -0.0000000000
H        0.1434400000    0.0404190000   -0.0000000000
H        0.1540630000    0.0057630000   -0.0000000000
H        0.1286420000   -0.0032940000    0.0000000000
H        0.1284970000   -0.0005750000    0.0000000000
H        0.1355210000   -0.0024180000    0.0000000000
C       -0.1354350000    0.9952240000   -0.0000000000
H        0.1486130000   -0.0020330000   -0.0000000000
13   
Frame  38 IRC: Energy =  -286.8665740000 ; +11.8493 kcal/mol
C       -0.1396350000   -0.1714400000   -0.0000000000
C       -0.3007540000    0.0107700000   -0.0000000000
C       -0.0237420000    0.0265240000    0.0000000000
C       -0.1246790000    0.0082630000    0.0000000000
C       -0.0666870000    0.0350980000    0.0000000000
N       -0.0544690000    0.0284040000   -0.0000000000
H        0.1441240000    0.0430930000   -0.0000000000
H        0.1512200000    0.0037230000   -0.0000000000
H        0.1288710000   -0.0022840000    0.0000000000
H        0.1283470000   -0.0006350000    0.0000000000
H        0.1354460000   -0.0017160000    0.0000000000
C       -0.1308910000    1.0259150000   -0.0000000000
H        0.1528500000   -0.0057150000   -0.0000000000
13   