
Running Job 1 of 1 irc_transition.in
qchem irc_transition.in_60976.0 ./irc_transition.d/ 1
/home/leeping/opt/qchem/5.0.2-openmp/exe/qcprog.exe_s irc_transition.in_60976.0 ./irc_transition.d/
Check license passed

                  Welcome to Q-Chem
     A Quantum Leap Into The Future Of Chemistry


 Q-Chem 5.0, Q-Chem, Inc., Pleasanton, CA (2017)

 Yihan Shao,  Zhengting Gan,  E. Epifanovsky,  A. T. B. Gilbert,  M. Wormit,  
 J. Kussmann,  A. W. Lange,  A. Behn,  Jia Deng,  Xintian Feng,  D. Ghosh,  
 M. Goldey,  P. R. Horn,  L. D. Jacobson,  I. Kaliman,  T. Kus,  A. Landau,  
 Jie Liu,  E. I. Proynov,  R. M. Richard,  R. P. Steele,  E. J. Sundstrom,  
 H. L. Woodcock III,  P. M. Zimmerman,  D. Zuev,  B. Albrecht,  E. Alguire,  
 S. A. Baeppler,  D. Barton,  Z. Benda,  Y. A. Bernard,  E. J. Berquist,  
 K. B. Bravaya,  H. Burton,  D. Casanova,  Chun-Min Chang,  Yunqing Chen,  
 A. Chien,  K. D. Closser,  M. P. Coons,  S. Dasgupta,  A. L. Dempwolff,  
 M. Diedenhofen,  Hainam Do,  R. G. Edgar,  Po-Tung Fang,  S. Fatehi,  
 Qingguo Feng,  J. Fosso-Tande,  Qinghui Ge,  A. Ghysels,  G. Gidofalvi,  
 J. Gomes,  J. Gonthier,  A. Gunina,  M. W. D. Hanson-Heine,  
 P. H. P. Harbach,  A. W. Hauser,  J. E. Herr,  E. G. Hohenstein,  
 Z. C. Holden,  Kerwin Hui,  T.-C. Jagau,  Hyunjun Ji,  B. Kaduk,  
 K. Khistyaev,  Jaehoon Kim,  P. Klunzinger,  K. Koh,  D. Kosenkov,  
 L. Koulias,  T. Kowalczyk,  C. M. Krauter,  A. Kunitsa,  Ka Un Lao,  
 A. Laurent,  K. V. Lawler,  Joonho Lee,  D. Lefrancois,  S. Lehtola,  
 D. S. Levine,  Yi-Pei Li,  You-Sheng Lin,  Fenglai Liu,  E. Livshits,  
 A. Luenser,  P. Manohar,  E. Mansoor,  S. F. Manzer,  Shan-Ping Mao,  
 Yuezhi Mao,  N. Mardirossian,  A. V. Marenich,  T. Markovich,  
 L. A. Martinez-Martinez,  S. A. Maurer,  N. J. Mayhall,  S. C. McKenzie,  
 J.-M. Mewes,  A. F. Morrison,  J. W. Mullinax,  K. Nanda,  
 T. S. Nguyen-Beck,  R. Olivares-Amaya,  J. A. Parkhill,  T. M. Perrine,  
 F. Plasser,  S. Prager,  A. Prociuk,  E. Ramos,  D. R. Rehn,  F. Rob,  
 M. Schneider,  N. Sergueev,  S. M. Sharada,  S. Sharma,  D. W. Small,  
 T. Stauch,  T. Stein,  Yu-Chuan Su,  A. J. W. Thom,  A. Tkatchenko,  
 T. Tsuchimochi,  L. Vogt,  O. Vydrov,  M. A. Watson,  J. Wenzel,  
 M. de Wergifosse,  T. A. Wesolowski,  A. White,  J. Witte,  A. Yamada,  
 Jun Yang,  K. Yao,  S. Yeganeh,  S. R. Yost,  Zhi-Qiang You,  A. Zech,  
 Igor Ying Zhang,  Xing Zhang,  Yan Zhao,  Ying Zhu,  B. R. Brooks,  
 G. K. L. Chan,  C. J. Cramer,  M. S. Gordon,  W. J. Hehre,  A. Klamt,  
 M. W. Schmidt,  C. D. Sherrill,  D. G. Truhlar,  A. Aspuru-Guzik,  R. Baer,  
 A. T. Bell,  N. A. Besley,  Jeng-Da Chai,  R. A. DiStasio Jr.,  A. Dreuw,  
 B. D. Dunietz,  T. R. Furlani,  Chao-Ping Hsu,  Yousung Jung,  Jing Kong,  
 D. S. Lambrecht,  WanZhen Liang,  C. Ochsenfeld,  V. A. Rassolov,  
 L. V. Slipchenko,  J. E. Subotnik,  T. Van Voorhis,  J. M. Herbert,  
 A. I. Krylov,  P. M. W. Gill,  M. Head-Gordon

 Contributors to earlier versions of Q-Chem not listed above: 
 R. D. Adamson,  B. Austin,  J. Baker,  G. J. O. Beran,  K. Brandhorst,  
 S. T. Brown,  E. F. C. Byrd,  A. K. Chakraborty,  C.-L. Cheng,  
 Siu Hung Chien,  D. M. Chipman,  D. L. Crittenden,  H. Dachsel,  
 R. J. Doerksen,  A. D. Dutoi,  L. Fusti-Molnar,  W. A. Goddard III,  
 A. Golubeva-Zadorozhnaya,  S. R. Gwaltney,  G. Hawkins,  A. Heyden,  
 S. Hirata,  G. Kedziora,  F. J. Keil,  C. Kelley,  Jihan Kim,  R. A. King,  
 R. Z. Khaliullin,  P. P. Korambath,  W. Kurlancheek,  A. M. Lee,  M. S. Lee,  
 S. V. Levchenko,  Ching Yeh Lin,  D. Liotard,  R. C. Lochan,  I. Lotan,  
 P. E. Maslen,  N. Nair,  D. P. O'Neill,  D. Neuhauser,  E. Neuscamman,  
 C. M. Oana,  R. Olson,  B. Peters,  R. Peverati,  P. A. Pieniazek,  
 Y. M. Rhee,  J. Ritchie,  M. A. Rohrdanz,  E. Rosta,  N. J. Russ,  
 H. F. Schaefer III,  N. E. Schultz,  N. Shenvi,  A. C. Simmonett,  A. Sodt,  
 D. Stuck,  K. S. Thanthiriwatte,  V. Vanovschi,  Tao Wang,  A. Warshel,  
 C. F. Williams,  Q. Wu,  X. Xu,  W. Zhang

 Please cite Q-Chem as follows:
 Y. Shao et al., Mol. Phys. 113, 184-215 (2015)
 DOI: 10.1080/00268976.2014.952696

 Q-Chem 5.0.2 for Intel X86 EM64T Linux

 Parts of Q-Chem use Armadillo 5.200.1 (Boston Tea Smuggler).
 http://arma.sourceforge.net/

 Q-Chem begins on Wed Mar  2 19:49:22 2022  

Host: 
0

     Scratch files written to ./irc_transition.d//
 Dec517 15110_ 26548  26544 5633   
Processing $rem in /home/leeping/opt/qchem/5.0.2-openmp/config/preferences.
 MEM_STATIC 2000
 MEM_TOTAL  8000
 SYMMETRY   OFF
 SYM_IGNORE TRUE 

Checking the input file for inconsistencies... 	...done.

--------------------------------------------------------------
User input:
--------------------------------------------------------------
$molecule
0 2
C        1.3718026024    0.6853394123   -0.7608391071
C       -0.1031322988   -0.9196866531   -0.4398447072
C       -1.0435819050   -1.0966359743    0.5954594676
C       -1.4951384079    0.1914185948    0.9912954396
C       -0.8614620660    1.1351759910    0.2083199795
N       -0.0518658371    0.4933807423   -0.7279842661
H        1.8077787828    1.6120568235   -1.1253694115
H        0.0523217485   -1.6155700763   -1.2560471783
H       -1.3985190450   -2.0468836982    0.9709619945
H       -2.2338394587    0.4042508700    1.7537145063
H       -0.8788222076    2.2143914135    0.2698709923
C        1.8833508370   -0.4556504244   -0.3063419341
H        2.8870434975   -0.8687430582   -0.2561667947
$end

$rem
method                b3lyp
basis                 6-31+g(d,p)
unrestricted          true
symmetry              off
sym_ignore            true
incdft                false
incfock               0
scf_convergence       8
thresh                14
jobtype               sp
scf_guess             core
scf_guess_mix         5
scf_algorithm         diis
max_scf_cycles        100
$end

--------------------------------------------------------------
 ----------------------------------------------------------------
             Standard Nuclear Orientation (Angstroms)
    I     Atom           X                Y                Z
 ----------------------------------------------------------------
    1      C       1.3718026024     0.6853394123    -0.7608391071
    2      C      -0.1031322988    -0.9196866531    -0.4398447072
    3      C      -1.0435819050    -1.0966359743     0.5954594676
    4      C      -1.4951384079     0.1914185948     0.9912954396
    5      C      -0.8614620660     1.1351759910     0.2083199795
    6      N      -0.0518658371     0.4933807423    -0.7279842661
    7      H       1.8077787828     1.6120568235    -1.1253694115
    8      H       0.0523217485    -1.6155700763    -1.2560471783
    9      H      -1.3985190450    -2.0468836982     0.9709619945
   10      H      -2.2338394587     0.4042508700     1.7537145063
   11      H      -0.8788222076     2.2143914135     0.2698709923
   12      C       1.8833508370    -0.4556504244    -0.3063419341
   13      H       2.8870434975    -0.8687430582    -0.2561667947
 ----------------------------------------------------------------
 Nuclear Repulsion Energy =   270.3514129519 hartrees
 There are       25 alpha and       24 beta electrons
 Requested basis set is 6-31+G(d,p)
 There are 53 shells and 163 basis functions

 Total QAlloc Memory Limit   8000 MB
 Mega-Array Size      1956 MB
 MEM_STATIC part      2000 MB

                       Distance Matrix (Angstroms)
             C (  1)   C (  2)   C (  3)   C (  4)   C (  5)   N (  6)
   C (  2)  2.203311
   C (  3)  3.293792  1.409827
   C (  4)  3.396069  2.284819  1.421152
   C (  5)  2.475701  2.284216  2.272450  1.380317
   N (  6)  1.436927  1.443057  2.294157  2.264981  1.394279
   H (  7)  1.087089  3.245189  4.292846  4.172259  3.021753  2.206270
   H (  8)  2.698230  1.083792  2.213227  3.272673  3.247457  2.176552
   H (  9)  4.258974  2.222381  1.081644  2.240479  3.315955  3.339586
   H ( 10)  4.404843  3.332330  2.238510  1.082709  2.192240  3.305720
   H ( 11)  2.909583  3.305728  3.331074  2.234439  1.081109  2.154402
   C ( 12)  1.330454  2.044326  3.129064  3.676513  3.213970  2.196248
   H ( 13)  2.228412  2.996245  4.028277  4.677993  4.275831  3.273405
             H (  7)   H (  8)   H (  9)   H ( 10)   H ( 11)   C ( 12)
   H (  8)  3.676450
   H (  9)  5.297433  2.692683
   H ( 10)  5.107112  4.285426  2.705277
   H ( 11)  3.086637  4.226590  4.349722  2.704528
   C ( 12)  2.225293  2.366436  3.864479  4.683430  3.884681
   H ( 13)  2.841601  3.097282  4.610847  5.646555  4.895322  1.086537

 
 A cutoff of  1.0D-14 yielded   1380 shell pairs
 There are     13420 function pairs
 
 -------------------------------------------------------
 OpenMP Integral Computing Module                       
 Release: version 1.0, May 2013, Q-Chem Inc. Pittsburgh 
 -------------------------------------------------------
 Integral Job Info:
 Integral job number is                      11
 Integral operator is                         1
 short-range coefficients                     0
 long-range coefficients              100000000
 Omega coefficients                           0
 if combine SR and LR in K                    0
 Integral screening is                        0
 Integral computing path is                   2
 max size of driver memory is            800000
 size of driver memory is                593474
 size of scratch memory is              2361544
 max col of scratch BK array               1296
 max len of scratch array in speh3          155
 max len of scratch index in speh4           18
 max int batch size is                      520
 min int batch size is                       52
 fixed nKL is                                52
 max L of basis functions is                  2
 order of int derivative is                   0
 number of shells is                         53
 number of basis is                         163
 number of cartesian basis is               163
 number of contracted shell pairs          1380
 number of primitive shell pairs           4650
 maxK2 (contraction) of shell pair           36
 max number of K2 of shell pair               1
 max number of CS2 of shell pair            130
 max number of PS2 of shell pair            678
 mem total for path MDJ                  534060
 -------------------------------------------------------
 Smallest overlap matrix eigenvalue = 1.63E-05

 Scale SEOQF with 1.000000e-01/1.000000e-01/1.000000e-01

 Standard Electronic Orientation quadrupole field applied
 Nucleus-field energy     =     0.0000000031 hartrees
 Guess MOs from core Hamiltonian diagonalization
 Mixing HOMO and LUMO in initial guess
 Adding  50% of the LUMO to the HOMO
 An unrestricted hybrid HF-DFT SCF calculation will be
 performed using Pulay DIIS extrapolation
 Exchange:     0.2000 Hartree-Fock + 0.0800 Slater + 0.7200 B88
 Correlation:  0.1900 VWN1RPA + 0.8100 LYP
 Using SG-1 standard quadrature grid
 SCF converges when DIIS error is below 1.0E-08
 using 4 threads for integral computing
 -------------------------------------------------------
 OpenMP Integral computing Module                
 Release: version 1.0, May 2013, Q-Chem Inc. Pittsburgh 
 -------------------------------------------------------
 -------------------------------------------------------
 OpenMP BLAS3 based DFT computing Module                
 Release: version 1.0, May 2013, Q-Chem Inc. Pittsburgh 
 -------------------------------------------------------
 ---------------------------------------
  Cycle       Energy         DIIS Error
 ---------------------------------------
    1    -228.1526461088      1.05E-01
    2    -212.8241915299      7.53E-02
    3    -249.1013238532      7.55E-02
    4    -267.2839438620      6.63E-02
    5    -283.6725178454      2.45E-02
    6    -285.6108053933      1.90E-02
    7    -286.6405801853      7.42E-03
    8    -286.8070215820      3.45E-03
    9    -286.8516583756      7.42E-04
   10    -286.8538109478      3.05E-04
   11    -286.8542663155      1.01E-04
   12    -286.8544097065      4.02E-05
   13    -286.8544697175      2.57E-05
   14    -286.8545035723      1.32E-05
   15    -286.8545187682      7.35E-06
   16    -286.8545208511      2.72E-06
   17    -286.8545210724      9.98E-07
   18    -286.8545211710      4.93E-07
   19    -286.8545212079      2.13E-07
   20    -286.8545212232      3.90E-08
   21    -286.8545212240      1.34E-08
   22    -286.8545212246      9.78E-09 Convergence criterion met
 ---------------------------------------
 <S^2> = 0.7803
 SCF time:  CPU 109.90 s  wall 31.78 s
 SCF   energy in the final basis set = -286.85452122
 Total energy in the final basis set = -286.85452122
 
 --------------------------------------------------------------
 
                    Orbital Energies (a.u.)
 --------------------------------------------------------------
 
 Alpha MOs
 -- Occupied --
-14.380 -10.238 -10.231 -10.230 -10.202 -10.200 -10.198  -0.996
 -0.820  -0.751  -0.709  -0.611  -0.582  -0.554  -0.517  -0.491
 -0.435  -0.420  -0.410  -0.399  -0.368  -0.305  -0.285  -0.247
 -0.171
 -- Virtual --
 -0.014   0.002   0.011   0.023   0.025   0.037   0.041   0.047
  0.054   0.064   0.073   0.081   0.090   0.097   0.113   0.115
  0.126   0.129   0.143   0.149   0.155   0.163   0.179   0.193
  0.198   0.203   0.207   0.218   0.223   0.229   0.239   0.253
  0.260   0.267   0.280   0.287   0.296   0.303   0.331   0.343
  0.390   0.420   0.458   0.507   0.642   0.654   0.672   0.699
  0.705   0.719   0.727   0.738   0.751   0.761   0.782   0.802
  0.846   0.854   0.859   0.892   0.905   0.917   0.941   0.957
  0.980   1.014   1.039   1.057   1.069   1.126   1.139   1.162
  1.183   1.213   1.235   1.310   1.352   1.373   1.391   1.445
  1.461   1.506   1.615   1.661   1.715   1.782   1.839   1.854
  1.877   1.909   1.920   1.930   1.966   1.990   2.024   2.059
  2.122   2.152   2.179   2.237   2.266   2.279   2.361   2.384
  2.390   2.436   2.459   2.473   2.492   2.516   2.544   2.568
  2.591   2.627   2.632   2.672   2.691   2.748   2.759   2.799
  2.881   2.900   2.955   3.047   3.207   3.254   3.262   3.339
  3.530   3.693   3.763   4.258   4.348   4.382   4.418   4.559
  4.674   4.773
 
 Beta MOs
 -- Occupied --
-14.378 -10.240 -10.232 -10.226 -10.201 -10.193 -10.192  -0.991
 -0.814  -0.743  -0.704  -0.601  -0.577  -0.549  -0.512  -0.484
 -0.427  -0.417  -0.408  -0.396  -0.361  -0.294  -0.259  -0.234
 -- Virtual --
 -0.081  -0.005   0.008   0.012   0.025   0.025   0.040   0.043
  0.047   0.057   0.066   0.075   0.084   0.094   0.099   0.114
  0.118   0.127   0.132   0.144   0.151   0.157   0.165   0.181
  0.193   0.198   0.204   0.210   0.220   0.224   0.232   0.241
  0.256   0.262   0.269   0.283   0.290   0.298   0.304   0.337
  0.346   0.393   0.424   0.463   0.515   0.647   0.658   0.679
  0.703   0.713   0.721   0.732   0.744   0.754   0.768   0.790
  0.806   0.851   0.858   0.861   0.896   0.906   0.921   0.944
  0.964   0.985   1.019   1.043   1.060   1.077   1.131   1.144
  1.166   1.187   1.216   1.239   1.316   1.358   1.379   1.396
  1.450   1.469   1.516   1.622   1.676   1.730   1.792   1.845
  1.861   1.883   1.918   1.923   1.937   1.969   1.996   2.030
  2.064   2.128   2.160   2.186   2.242   2.271   2.285   2.362
  2.387   2.394   2.440   2.466   2.480   2.500   2.517   2.553
  2.571   2.600   2.632   2.637   2.677   2.696   2.752   2.764
  2.804   2.884   2.904   2.957   3.054   3.208   3.255   3.267
  3.341   3.532   3.702   3.765   4.264   4.353   4.385   4.429
  4.565   4.681   4.777
 --------------------------------------------------------------
 
          Ground-State Mulliken Net Atomic Charges

     Atom                 Charge (a.u.)    Spin (a.u.)
  --------------------------------------------------------
      1 C                    -0.133933      -0.094664
      2 C                    -0.332360      -0.166574
      3 C                    -0.022975       0.381967
      4 C                    -0.109357      -0.124501
      5 C                    -0.042132       0.314546
      6 N                    -0.054793       0.045283
      7 H                     0.135976       0.016042
      8 H                     0.163382       0.023393
      9 H                     0.131393      -0.017452
     10 H                     0.131780       0.002400
     11 H                     0.139169      -0.014158
     12 C                    -0.135354       0.611028
     13 H                     0.129203       0.022690
  --------------------------------------------------------
  Sum of atomic charges =     0.000000
  Sum of spin   charges =     1.000000

 -----------------------------------------------------------------
                    Cartesian Multipole Moments
 -----------------------------------------------------------------
    Charge (ESU x 10^10)
                 0.0000
    Dipole Moment (Debye)
         X      -0.1028      Y       0.3925      Z       0.0570
       Tot       0.4097
    Quadrupole Moments (Debye-Ang)
        XX     -40.7840     XY       0.6368     YY     -36.9792
        XZ      -3.5409     YZ       0.3713     ZZ     -43.5099
    Octopole Moments (Debye-Ang^2)
       XXX      10.0738    XXY      -0.1298    XYY      -0.1645
       YYY       3.8740    XXZ       6.2820    XYZ      -1.7468
       YYZ       0.7420    XZZ      -3.3113    YZZ      -1.3210
       ZZZ       8.4840
    Hexadecapole Moments (Debye-Ang^3)
      XXXX    -428.6665   XXXY      -7.5638   XXYY    -108.8126
      XYYY       4.2342   YYYY    -223.5950   XXXZ      65.5279
      XXYZ      -0.2181   XYYZ      17.7795   YYYZ       7.3870
      XXZZ     -99.4725   XYZZ       2.6545   YYZZ     -67.0711
      XZZZ      74.8224   YZZZ      12.2874   ZZZZ    -177.9265
 -----------------------------------------------------------------
Archival summary:
1\1\c8-68\SP\ProcedureUnspecified\6-31+G**\166(2)\hpark21\WedMar219:49:552022WedMar219:49:552022\0\\#,ProcedureUnspecified,6-31+G**,\\0,2\N\C,1,1.39428\H,2,1.08111,1,120.468\C,2,1.38032,1,109.437,3,-176.889,0\H,4,1.08271,2,125.328,1,-175.61,0\C,4,1.42115,2,108.411,1,2.58171,0\H,6,1.08164,4,126.533,2,-175.687,0\C,6,1.40983,4,107.622,2,0.726989,0\H,8,1.08379,6,124.62,4,-148.02,0\C,1,1.43693,2,121.949,3,58.2858,0\H,10,1.08709,1,121.258,2,-73.2596,0\C,10,1.33045,1,104.985,2,107.89,0\H,12,1.08654,10,134.187,1,170.489,0\\\@

 Total job time:  32.84s(wall), 111.61s(cpu) 
 Wed Mar  2 19:49:55 2022

        *************************************************************
        *                                                           *
        *  Thank you very much for using Q-Chem.  Have a nice day.  *
        *                                                           *
        *************************************************************


