
Running Job 1 of 1 irc_product.in
qchem irc_product.in_60760.0 ./irc_product.d/ 1
/home/leeping/opt/qchem/5.0.2-openmp/exe/qcprog.exe_s irc_product.in_60760.0 ./irc_product.d/
Check license passed

                  Welcome to Q-Chem
     A Quantum Leap Into The Future Of Chemistry


 Q-Chem 5.0, Q-Chem, Inc., Pleasanton, CA (2017)

 Yihan Shao,  Zhengting Gan,  E. Epifanovsky,  A. T. B. Gilbert,  M. Wormit,  
 J. Kussmann,  A. W. Lange,  A. Behn,  Jia Deng,  Xintian Feng,  D. Ghosh,  
 M. Goldey,  P. R. Horn,  L. D. Jacobson,  I. Kaliman,  T. Kus,  A. Landau,  
 Jie Liu,  E. I. Proynov,  R. M. Richard,  R. P. Steele,  E. J. Sundstrom,  
 H. L. Woodcock III,  P. M. Zimmerman,  D. Zuev,  B. Albrecht,  E. Alguire,  
 S. A. Baeppler,  D. Barton,  Z. Benda,  Y. A. Bernard,  E. J. Berquist,  
 K. B. Bravaya,  H. Burton,  D. Casanova,  Chun-Min Chang,  Yunqing Chen,  
 A. Chien,  K. D. Closser,  M. P. Coons,  S. Dasgupta,  A. L. Dempwolff,  
 M. Diedenhofen,  Hainam Do,  R. G. Edgar,  Po-Tung Fang,  S. Fatehi,  
 Qingguo Feng,  J. Fosso-Tande,  Qinghui Ge,  A. Ghysels,  G. Gidofalvi,  
 J. Gomes,  J. Gonthier,  A. Gunina,  M. W. D. Hanson-Heine,  
 P. H. P. Harbach,  A. W. Hauser,  J. E. Herr,  E. G. Hohenstein,  
 Z. C. Holden,  Kerwin Hui,  T.-C. Jagau,  Hyunjun Ji,  B. Kaduk,  
 K. Khistyaev,  Jaehoon Kim,  P. Klunzinger,  K. Koh,  D. Kosenkov,  
 L. Koulias,  T. Kowalczyk,  C. M. Krauter,  A. Kunitsa,  Ka Un Lao,  
 A. Laurent,  K. V. Lawler,  Joonho Lee,  D. Lefrancois,  S. Lehtola,  
 D. S. Levine,  Yi-Pei Li,  You-Sheng Lin,  Fenglai Liu,  E. Livshits,  
 A. Luenser,  P. Manohar,  E. Mansoor,  S. F. Manzer,  Shan-Ping Mao,  
 Yuezhi Mao,  N. Mardirossian,  A. V. Marenich,  T. Markovich,  
 L. A. Martinez-Martinez,  S. A. Maurer,  N. J. Mayhall,  S. C. McKenzie,  
 J.-M. Mewes,  A. F. Morrison,  J. W. Mullinax,  K. Nanda,  
 T. S. Nguyen-Beck,  R. Olivares-Amaya,  J. A. Parkhill,  T. M. Perrine,  
 F. Plasser,  S. Prager,  A. Prociuk,  E. Ramos,  D. R. Rehn,  F. Rob,  
 M. Schneider,  N. Sergueev,  S. M. Sharada,  S. Sharma,  D. W. Small,  
 T. Stauch,  T. Stein,  Yu-Chuan Su,  A. J. W. Thom,  A. Tkatchenko,  
 T. Tsuchimochi,  L. Vogt,  O. Vydrov,  M. A. Watson,  J. Wenzel,  
 M. de Wergifosse,  T. A. Wesolowski,  A. White,  J. Witte,  A. Yamada,  
 Jun Yang,  K. Yao,  S. Yeganeh,  S. R. Yost,  Zhi-Qiang You,  A. Zech,  
 Igor Ying Zhang,  Xing Zhang,  Yan Zhao,  Ying Zhu,  B. R. Brooks,  
 G. K. L. Chan,  C. J. Cramer,  M. S. Gordon,  W. J. Hehre,  A. Klamt,  
 M. W. Schmidt,  C. D. Sherrill,  D. G. Truhlar,  A. Aspuru-Guzik,  R. Baer,  
 A. T. Bell,  N. A. Besley,  Jeng-Da Chai,  R. A. DiStasio Jr.,  A. Dreuw,  
 B. D. Dunietz,  T. R. Furlani,  Chao-Ping Hsu,  Yousung Jung,  Jing Kong,  
 D. S. Lambrecht,  WanZhen Liang,  C. Ochsenfeld,  V. A. Rassolov,  
 L. V. Slipchenko,  J. E. Subotnik,  T. Van Voorhis,  J. M. Herbert,  
 A. I. Krylov,  P. M. W. Gill,  M. Head-Gordon

 Contributors to earlier versions of Q-Chem not listed above: 
 R. D. Adamson,  B. Austin,  J. Baker,  G. J. O. Beran,  K. Brandhorst,  
 S. T. Brown,  E. F. C. Byrd,  A. K. Chakraborty,  C.-L. Cheng,  
 Siu Hung Chien,  D. M. Chipman,  D. L. Crittenden,  H. Dachsel,  
 R. J. Doerksen,  A. D. Dutoi,  L. Fusti-Molnar,  W. A. Goddard III,  
 A. Golubeva-Zadorozhnaya,  S. R. Gwaltney,  G. Hawkins,  A. Heyden,  
 S. Hirata,  G. Kedziora,  F. J. Keil,  C. Kelley,  Jihan Kim,  R. A. King,  
 R. Z. Khaliullin,  P. P. Korambath,  W. Kurlancheek,  A. M. Lee,  M. S. Lee,  
 S. V. Levchenko,  Ching Yeh Lin,  D. Liotard,  R. C. Lochan,  I. Lotan,  
 P. E. Maslen,  N. Nair,  D. P. O'Neill,  D. Neuhauser,  E. Neuscamman,  
 C. M. Oana,  R. Olson,  B. Peters,  R. Peverati,  P. A. Pieniazek,  
 Y. M. Rhee,  J. Ritchie,  M. A. Rohrdanz,  E. Rosta,  N. J. Russ,  
 H. F. Schaefer III,  N. E. Schultz,  N. Shenvi,  A. C. Simmonett,  A. Sodt,  
 D. Stuck,  K. S. Thanthiriwatte,  V. Vanovschi,  Tao Wang,  A. Warshel,  
 C. F. Williams,  Q. Wu,  X. Xu,  W. Zhang

 Please cite Q-Chem as follows:
 Y. Shao et al., Mol. Phys. 113, 184-215 (2015)
 DOI: 10.1080/00268976.2014.952696

 Q-Chem 5.0.2 for Intel X86 EM64T Linux

 Parts of Q-Chem use Armadillo 5.200.1 (Boston Tea Smuggler).
 http://arma.sourceforge.net/

 Q-Chem begins on Wed Mar  2 19:45:49 2022  

Host: 
0

     Scratch files written to ./irc_product.d//
 Dec517 15110_ 26548  26544 5633   
Processing $rem in /home/leeping/opt/qchem/5.0.2-openmp/config/preferences.
 MEM_STATIC 2000
 MEM_TOTAL  8000
 SYMMETRY   OFF
 SYM_IGNORE TRUE 

Checking the input file for inconsistencies... 	...done.

--------------------------------------------------------------
User input:
--------------------------------------------------------------
$molecule
0 2
C        1.4676687242    0.5452840102   -0.6727566149
C       -0.2250796822   -1.1343038639    0.0537042683
C       -1.4650669209   -1.0693263399    0.6457468959
C       -1.7706319697    0.3120927109    0.8583157717
C       -0.7057250004    1.0424611563    0.3870540444
N        0.2428849616    0.1588279203   -0.1066472551
H        1.6090285550    1.6288999340   -0.6873860143
H        0.3695567280   -1.9747181366   -0.2703478386
H       -2.0866687747   -1.9163412881    0.9008662691
H       -2.6675105475    0.7175185915    1.3051629390
H       -0.5316783418    2.1081201048    0.3556225955
C        2.3971812730   -0.2589237913   -1.1532965085
H        3.3660409954   -0.1595910082   -1.6160385524
$end

$rem
method                b3lyp
basis                 6-31+g(d,p)
unrestricted          true
symmetry              off
sym_ignore            true
incdft                false
incfock               0
scf_convergence       6
thresh                14
jobtype               sp
scf_guess             read
scf_algorithm         diis
max_scf_cycles        100
stability_analysis    true
max_cis_cycles        100
cis_n_roots           4
$end

--------------------------------------------------------------
 ----------------------------------------------------------------
             Standard Nuclear Orientation (Angstroms)
    I     Atom           X                Y                Z
 ----------------------------------------------------------------
    1      C       1.4676687242     0.5452840102    -0.6727566149
    2      C      -0.2250796822    -1.1343038639     0.0537042683
    3      C      -1.4650669209    -1.0693263399     0.6457468959
    4      C      -1.7706319697     0.3120927109     0.8583157717
    5      C      -0.7057250004     1.0424611563     0.3870540444
    6      N       0.2428849616     0.1588279203    -0.1066472551
    7      H       1.6090285550     1.6288999340    -0.6873860143
    8      H       0.3695567280    -1.9747181366    -0.2703478386
    9      H      -2.0866687747    -1.9163412881     0.9008662691
   10      H      -2.6675105475     0.7175185915     1.3051629390
   11      H      -0.5316783418     2.1081201048     0.3556225955
   12      C       2.3971812730    -0.2589237913    -1.1532965085
   13      H       3.3660409954    -0.1595910082    -1.6160385524
 ----------------------------------------------------------------
 Nuclear Repulsion Energy =   262.1779792648 hartrees
 There are       25 alpha and       24 beta electrons
 Requested basis set is 6-31+G(d,p)
 There are 53 shells and 163 basis functions

 Total QAlloc Memory Limit   8000 MB
 Mega-Array Size      1956 MB
 MEM_STATIC part      2000 MB

                       Distance Matrix (Angstroms)
             C (  1)   C (  2)   C (  3)   C (  4)   C (  5)   N (  6)
   C (  2)  2.492821
   C (  3)  3.598105  1.375611
   C (  4)  3.589589  2.264552  1.430690
   C (  5)  2.468608  2.253985  2.259019  1.374610
   N (  6)  1.403540  1.384519  2.234180  2.238056  1.387231
   H (  7)  1.092895  3.398303  4.302061  3.942750  2.618476  2.089191
   H (  8)  2.778164  1.079305  2.241608  3.329233  3.269829  2.143563
   H (  9)  4.601000  2.189699  1.081161  2.251135  3.305378  3.278450
   H ( 10)  4.587106  3.310720  2.252446  1.080941  2.190232  3.282643
   H ( 11)  2.738140  3.270852  3.324388  2.239067  1.080236  2.147878
   C ( 12)  1.319721  3.016520  4.337081  4.662972  3.700582  2.431251
   H ( 13)  2.233931  4.078511  5.411367  5.721042  4.694314  3.483354
             H (  7)   H (  8)   H (  9)   H ( 10)   H ( 11)   C ( 12)
   H (  8)  3.833572
   H (  9)  5.361852  2.721800
   H ( 10)  4.805170  4.353636  2.727279
   H ( 11)  2.429021  4.227722  4.348744  2.719775
   C ( 12)  2.098127  2.799073  5.203031  5.713892  4.056840
   H ( 13)  2.673610  3.752931  6.257238  6.760657  4.921603  1.078279

 
 A cutoff of  1.0D-14 yielded   1347 shell pairs
 There are     13191 function pairs
 Smallest overlap matrix eigenvalue = 1.27E-05

 Scale SEOQF with 1.000000e-01/1.000000e-01/1.000000e-01

 Standard Electronic Orientation quadrupole field applied
 Nucleus-field energy     =     0.0000000041 hartrees
 Guess MOs from SCF MO coefficient file
 Reading MOs from coefficient file
 Reading MOs from coefficient file
 An unrestricted hybrid HF-DFT SCF calculation will be
 performed using Pulay DIIS extrapolation
 Exchange:     0.2000 Hartree-Fock + 0.0800 Slater + 0.7200 B88
 Correlation:  0.1900 VWN1RPA + 0.8100 LYP
 Using SG-1 standard quadrature grid
 SCF converges when DIIS error is below 1.0E-06
Using Q-Chem read-in guess as SCF_GUESS READ specified.

 -------------------------------------------------------
 OpenMP BLAS3 based DFT computing Module                
 -------------------------------------------------------
 ---------------------------------------
  Cycle       Energy         DIIS Error
 ---------------------------------------
    1    -286.8971243653      3.39E-09
    2    -286.8971243654      5.36E-09 Convergence criterion met
 ---------------------------------------
 <S^2> = 0.7616
 SCF time:  CPU 6.28 s  wall 7.53 s
 SCF   energy in the final basis set = -286.89712437
 Total energy in the final basis set = -286.89712437
 
 Direct TDDFT/TDA calculation will be performed
 Exchange:     0.2000 Hartree-Fock + 0.0800 Slater + 0.7200 B88
 Correlation:  0.1900 VWN1RPA + 0.8100 LYP
 Using SG-1 standard quadrature grid
 CIS energy converged when residual is below 10e- 6
 ---------------------------------------------------
 Iter    Rts Conv    Rts Left    Ttl Dev     Max Dev
 ---------------------------------------------------
   1         0           4      0.002969    0.001836
   2         0           4      0.001294    0.000722
   3         0           4      0.000976    0.000826
   4         0           4      0.000368    0.000314
   5         1           3      0.000176    0.000153
   6         2           2      0.000063    0.000055
   7         2           2      0.000028    0.000025
   8         3           1      0.000010    0.000009
   9         3           1      0.000004    0.000003
  10         4           0      0.000002    0.000001    Roots Converged
 ---------------------------------------------------
 
 ---------------------------------------------------
         TDDFT/TDA Excitation Energies              
 ---------------------------------------------------

 Excited state   1: excitation energy (eV) =    1.8220
 Total energy for state  1:                  -286.83016764 au
    <S**2>     :  0.7720
    Trans. Mom.:  0.0703 X  -0.0082 Y   0.1390 Z
    Strength   :     0.0010859978
    D( 22) --> S(  1) amplitude = -0.2362 beta
    D( 23) --> S(  1) amplitude =  0.9165 beta
    D( 24) --> S(  1) amplitude =  0.3045 beta

 Excited state   2: excitation energy (eV) =    2.4195
 Total energy for state  2:                  -286.80820872 au
    <S**2>     :  0.8001
    Trans. Mom.: -0.0120 X   0.0014 Y  -0.0252 Z
    Strength   :     0.0000464163
    D( 23) --> S(  1) amplitude = -0.3128 beta
    D( 24) --> S(  1) amplitude =  0.9493 beta

 Excited state   3: excitation energy (eV) =    3.6951
 Total energy for state  3:                  -286.76133310 au
    <S**2>     :  2.7408
    Trans. Mom.: -0.0172 X   0.0256 Y   0.0093 Z
    Strength   :     0.0000938671
    S(  1) --> V(  1) amplitude =  0.7120 alpha
    D( 24) --> V(  1) amplitude = -0.6141 beta

 Excited state   4: excitation energy (eV) =    3.8406
 Total energy for state  4:                  -286.75598324 au
    <S**2>     :  2.7349
    Trans. Mom.:  0.0292 X  -0.0108 Y  -0.0139 Z
    Strength   :     0.0001089958
    D( 22) --> V(  1) amplitude =  0.1564 alpha
    D( 24) --> V(  1) amplitude = -0.6580 alpha
    D( 23) --> V(  1) amplitude =  0.6824 beta
 
 ---------------------------------------------------

 Stability analysis will be performed
 ---------------------------------------------------
 Iter    Rts Conv    Rts Left    Ttl Dev     Max Dev
 ---------------------------------------------------
   1         0           8      0.003270    0.000571
   2         0           8      0.001092    0.000370
   3         1           7      0.000654    0.000218
   4         2           6      0.000208    0.000067
   5         3           5      0.000115    0.000045
   6         3           5      0.000039    0.000017
   7         5           3      0.000014    0.000007
   8         5           3      0.000013    0.000008
   9         7           1      0.000047    0.000044
  10         7           1      0.000008    0.000005
  11         8           0      0.000004    0.000001    Roots Converged
 UKS-> UKS   stable,    smallest eigenvalue:      0.0596359
 UKS->CUKS   stable,    smallest eigenvalue:      0.0708623
 ---------------------------------------------------
  SETman timing summary (seconds)
  CPU time               173.40s
  System time              0.00s
  Wall time              187.61s
 
 --------------------------------------------------------------
 
                    Orbital Energies (a.u.)
 --------------------------------------------------------------
 
 Alpha MOs
 -- Occupied --
-14.405 -10.254 -10.227 -10.218 -10.214 -10.184 -10.183  -1.001
 -0.829  -0.749  -0.732  -0.629  -0.585  -0.554  -0.523  -0.485
 -0.439  -0.436  -0.427  -0.396  -0.385  -0.316  -0.265  -0.237
 -0.224
 -- Virtual --
 -0.029   0.006   0.022   0.024   0.030   0.040   0.046   0.058
  0.059   0.065   0.071   0.088   0.089   0.097   0.105   0.116
  0.126   0.140   0.142   0.146   0.150   0.177   0.180   0.195
  0.203   0.208   0.215   0.222   0.227   0.240   0.245   0.256
  0.266   0.272   0.274   0.284   0.294   0.308   0.336   0.348
  0.404   0.422   0.462   0.513   0.616   0.668   0.672   0.695
  0.702   0.716   0.717   0.721   0.748   0.751   0.769   0.771
  0.848   0.878   0.893   0.901   0.920   0.938   0.965   0.968
  0.984   1.036   1.065   1.097   1.146   1.164   1.186   1.210
  1.221   1.235   1.258   1.300   1.340   1.370   1.397   1.428
  1.447   1.482   1.540   1.600   1.616   1.762   1.784   1.856
  1.873   1.885   1.922   1.934   1.961   2.017   2.033   2.049
  2.064   2.137   2.148   2.194   2.225   2.318   2.329   2.376
  2.378   2.425   2.432   2.451   2.473   2.512   2.517   2.532
  2.559   2.648   2.664   2.687   2.723   2.758   2.764   2.816
  2.896   2.913   3.019   3.105   3.231   3.261   3.305   3.384
  3.593   3.706   3.811   4.163   4.333   4.364   4.456   4.502
  4.715   4.781
 
 Beta MOs
 -- Occupied --
-14.404 -10.256 -10.218 -10.214 -10.212 -10.184 -10.183  -1.000
 -0.824  -0.737  -0.729  -0.617  -0.584  -0.553  -0.510  -0.476
 -0.436  -0.436  -0.425  -0.395  -0.385  -0.313  -0.229  -0.224
 -- Virtual --
 -0.105  -0.022   0.008   0.024   0.025   0.032   0.040   0.048
  0.058   0.059   0.064   0.071   0.091   0.094   0.098   0.107
  0.117   0.126   0.139   0.144   0.146   0.154   0.176   0.183
  0.200   0.204   0.209   0.216   0.223   0.229   0.240   0.246
  0.258   0.268   0.273   0.275   0.285   0.296   0.309   0.339
  0.355   0.416   0.425   0.463   0.518   0.625   0.669   0.683
  0.694   0.703   0.716   0.724   0.737   0.750   0.762   0.770
  0.786   0.853   0.880   0.895   0.901   0.922   0.942   0.965
  0.972   0.989   1.048   1.072   1.102   1.147   1.168   1.187
  1.213   1.225   1.237   1.263   1.301   1.341   1.372   1.397
  1.429   1.460   1.486   1.541   1.619   1.654   1.774   1.814
  1.858   1.887   1.892   1.924   1.937   1.965   2.016   2.041
  2.057   2.071   2.138   2.149   2.197   2.228   2.323   2.330
  2.380   2.385   2.426   2.436   2.456   2.477   2.514   2.518
  2.533   2.559   2.654   2.685   2.693   2.726   2.758   2.773
  2.819   2.898   2.916   3.020   3.109   3.237   3.261   3.309
  3.391   3.602   3.713   3.811   4.164   4.345   4.365   4.477
  4.503   4.717   4.781
 --------------------------------------------------------------
 
          Ground-State Mulliken Net Atomic Charges

     Atom                 Charge (a.u.)    Spin (a.u.)
  --------------------------------------------------------
      1 C                     0.037287      -0.355263
      2 C                    -0.268057       0.017033
      3 C                    -0.058898      -0.018271
      4 C                    -0.088170      -0.016719
      5 C                    -0.194289      -0.016070
      6 N                     0.026109       0.020724
      7 H                     0.142866       0.068407
      8 H                     0.146179      -0.001101
      9 H                     0.125656       0.000991
     10 H                     0.125971       0.000996
     11 H                     0.132528       0.000057
     12 C                    -0.287557       1.300161
     13 H                     0.160374      -0.000944
  --------------------------------------------------------
  Sum of atomic charges =    -0.000000
  Sum of spin   charges =     1.000000

 -----------------------------------------------------------------
                    Cartesian Multipole Moments
 -----------------------------------------------------------------
    Charge (ESU x 10^10)
                -0.0000
    Dipole Moment (Debye)
         X       0.9893      Y       1.0199      Z      -0.4287
       Tot       1.4841
    Quadrupole Moments (Debye-Ang)
        XX     -38.5213     XY       1.6098     YY     -37.5745
        XZ      -4.0501     YZ      -0.3022     ZZ     -45.2088
    Octopole Moments (Debye-Ang^2)
       XXX       8.1143    XXY       3.9958    XYY      -1.0098
       YYY       8.7717    XXZ      -3.4555    XYZ      -0.6638
       YYZ       0.6215    XZZ       1.9672    YZZ       3.0714
       ZZZ      -0.9260
    Hexadecapole Moments (Debye-Ang^3)
      XXXX    -546.3815   XXXY     -10.1129   XXYY    -136.6797
      XYYY      -7.7752   YYYY    -217.3247   XXXZ      77.1421
      XXYZ      -0.7709   XYYZ      38.1105   YYYZ       1.4707
      XXZZ    -115.9516   XYZZ      -5.2887   YYZZ     -75.1174
      XZZZ     134.9074   YZZZ       2.7335   ZZZZ    -198.2094
 -----------------------------------------------------------------
Archival summary:
1\1\c8-68\SP\ProcedureUnspecified\6-31+G**\166(2)\hpark21\WedMar219:49:062022WedMar219:49:062022\0\\#,ProcedureUnspecified,6-31+G**,\\0,2\N\C,1,1.38452\H,2,1.0793,1,120.416\C,2,1.37561,1,108.084,3,-179.923,0\H,4,1.08116,2,125.648,1,-179.974,0\C,1,1.38723,2,108.819,3,179.956,0\H,6,1.08024,1,120.521,2,179.996,0\C,6,1.37461,1,108.259,2,-0.0035463,0\H,8,1.08094,6,125.819,1,179.954,0\C,1,1.40354,2,126.786,3,0.0558951,0\H,10,1.0929,1,113.034,2,179.998,0\C,10,1.31972,1,126.42,2,-0.131104,0\H,12,1.07828,10,137.137,1,179.623,0\\\@

 Total job time:  197.32s(wall), 179.90s(cpu) 
 Wed Mar  2 19:49:06 2022

        *************************************************************
        *                                                           *
        *  Thank you very much for using Q-Chem.  Have a nice day.  *
        *                                                           *
        *************************************************************


