
Running Job 1 of 1 irc_reactant.in
qchem irc_reactant.in_60641.0 ./irc_reactant.d/ 1
/home/leeping/opt/qchem/5.0.2-openmp/exe/qcprog.exe_s irc_reactant.in_60641.0 ./irc_reactant.d/
Check license passed

                  Welcome to Q-Chem
     A Quantum Leap Into The Future Of Chemistry


 Q-Chem 5.0, Q-Chem, Inc., Pleasanton, CA (2017)

 Yihan Shao,  Zhengting Gan,  E. Epifanovsky,  A. T. B. Gilbert,  M. Wormit,  
 J. Kussmann,  A. W. Lange,  A. Behn,  Jia Deng,  Xintian Feng,  D. Ghosh,  
 M. Goldey,  P. R. Horn,  L. D. Jacobson,  I. Kaliman,  T. Kus,  A. Landau,  
 Jie Liu,  E. I. Proynov,  R. M. Richard,  R. P. Steele,  E. J. Sundstrom,  
 H. L. Woodcock III,  P. M. Zimmerman,  D. Zuev,  B. Albrecht,  E. Alguire,  
 S. A. Baeppler,  D. Barton,  Z. Benda,  Y. A. Bernard,  E. J. Berquist,  
 K. B. Bravaya,  H. Burton,  D. Casanova,  Chun-Min Chang,  Yunqing Chen,  
 A. Chien,  K. D. Closser,  M. P. Coons,  S. Dasgupta,  A. L. Dempwolff,  
 M. Diedenhofen,  Hainam Do,  R. G. Edgar,  Po-Tung Fang,  S. Fatehi,  
 Qingguo Feng,  J. Fosso-Tande,  Qinghui Ge,  A. Ghysels,  G. Gidofalvi,  
 J. Gomes,  J. Gonthier,  A. Gunina,  M. W. D. Hanson-Heine,  
 P. H. P. Harbach,  A. W. Hauser,  J. E. Herr,  E. G. Hohenstein,  
 Z. C. Holden,  Kerwin Hui,  T.-C. Jagau,  Hyunjun Ji,  B. Kaduk,  
 K. Khistyaev,  Jaehoon Kim,  P. Klunzinger,  K. Koh,  D. Kosenkov,  
 L. Koulias,  T. Kowalczyk,  C. M. Krauter,  A. Kunitsa,  Ka Un Lao,  
 A. Laurent,  K. V. Lawler,  Joonho Lee,  D. Lefrancois,  S. Lehtola,  
 D. S. Levine,  Yi-Pei Li,  You-Sheng Lin,  Fenglai Liu,  E. Livshits,  
 A. Luenser,  P. Manohar,  E. Mansoor,  S. F. Manzer,  Shan-Ping Mao,  
 Yuezhi Mao,  N. Mardirossian,  A. V. Marenich,  T. Markovich,  
 L. A. Martinez-Martinez,  S. A. Maurer,  N. J. Mayhall,  S. C. McKenzie,  
 J.-M. Mewes,  A. F. Morrison,  J. W. Mullinax,  K. Nanda,  
 T. S. Nguyen-Beck,  R. Olivares-Amaya,  J. A. Parkhill,  T. M. Perrine,  
 F. Plasser,  S. Prager,  A. Prociuk,  E. Ramos,  D. R. Rehn,  F. Rob,  
 M. Schneider,  N. Sergueev,  S. M. Sharada,  S. Sharma,  D. W. Small,  
 T. Stauch,  T. Stein,  Yu-Chuan Su,  A. J. W. Thom,  A. Tkatchenko,  
 T. Tsuchimochi,  L. Vogt,  O. Vydrov,  M. A. Watson,  J. Wenzel,  
 M. de Wergifosse,  T. A. Wesolowski,  A. White,  J. Witte,  A. Yamada,  
 Jun Yang,  K. Yao,  S. Yeganeh,  S. R. Yost,  Zhi-Qiang You,  A. Zech,  
 Igor Ying Zhang,  Xing Zhang,  Yan Zhao,  Ying Zhu,  B. R. Brooks,  
 G. K. L. Chan,  C. J. Cramer,  M. S. Gordon,  W. J. Hehre,  A. Klamt,  
 M. W. Schmidt,  C. D. Sherrill,  D. G. Truhlar,  A. Aspuru-Guzik,  R. Baer,  
 A. T. Bell,  N. A. Besley,  Jeng-Da Chai,  R. A. DiStasio Jr.,  A. Dreuw,  
 B. D. Dunietz,  T. R. Furlani,  Chao-Ping Hsu,  Yousung Jung,  Jing Kong,  
 D. S. Lambrecht,  WanZhen Liang,  C. Ochsenfeld,  V. A. Rassolov,  
 L. V. Slipchenko,  J. E. Subotnik,  T. Van Voorhis,  J. M. Herbert,  
 A. I. Krylov,  P. M. W. Gill,  M. Head-Gordon

 Contributors to earlier versions of Q-Chem not listed above: 
 R. D. Adamson,  B. Austin,  J. Baker,  G. J. O. Beran,  K. Brandhorst,  
 S. T. Brown,  E. F. C. Byrd,  A. K. Chakraborty,  C.-L. Cheng,  
 Siu Hung Chien,  D. M. Chipman,  D. L. Crittenden,  H. Dachsel,  
 R. J. Doerksen,  A. D. Dutoi,  L. Fusti-Molnar,  W. A. Goddard III,  
 A. Golubeva-Zadorozhnaya,  S. R. Gwaltney,  G. Hawkins,  A. Heyden,  
 S. Hirata,  G. Kedziora,  F. J. Keil,  C. Kelley,  Jihan Kim,  R. A. King,  
 R. Z. Khaliullin,  P. P. Korambath,  W. Kurlancheek,  A. M. Lee,  M. S. Lee,  
 S. V. Levchenko,  Ching Yeh Lin,  D. Liotard,  R. C. Lochan,  I. Lotan,  
 P. E. Maslen,  N. Nair,  D. P. O'Neill,  D. Neuhauser,  E. Neuscamman,  
 C. M. Oana,  R. Olson,  B. Peters,  R. Peverati,  P. A. Pieniazek,  
 Y. M. Rhee,  J. Ritchie,  M. A. Rohrdanz,  E. Rosta,  N. J. Russ,  
 H. F. Schaefer III,  N. E. Schultz,  N. Shenvi,  A. C. Simmonett,  A. Sodt,  
 D. Stuck,  K. S. Thanthiriwatte,  V. Vanovschi,  Tao Wang,  A. Warshel,  
 C. F. Williams,  Q. Wu,  X. Xu,  W. Zhang

 Please cite Q-Chem as follows:
 Y. Shao et al., Mol. Phys. 113, 184-215 (2015)
 DOI: 10.1080/00268976.2014.952696

 Q-Chem 5.0.2 for Intel X86 EM64T Linux

 Parts of Q-Chem use Armadillo 5.200.1 (Boston Tea Smuggler).
 http://arma.sourceforge.net/

 Q-Chem begins on Wed Mar  2 19:44:56 2022  

Host: 
0

     Scratch files written to ./irc_reactant.d//
 Dec517 15110_ 26548  26544 5633   
Processing $rem in /home/leeping/opt/qchem/5.0.2-openmp/config/preferences.
 MEM_STATIC 2000
 MEM_TOTAL  8000
 SYMMETRY   OFF
 SYM_IGNORE TRUE 

Checking the input file for inconsistencies... 	...done.

--------------------------------------------------------------
User input:
--------------------------------------------------------------
$molecule
0 2
C        1.3829522869    0.7512314606   -0.6641941997
C        0.1074352754   -0.8430692904   -0.5105267812
C       -0.7963937107   -1.0287090628    0.6681743706
C       -1.3849853066    0.1971709708    0.9706061492
C       -0.9270060280    1.1866936444    0.1017052671
N       -0.0484191819    0.6327082552   -0.8618734887
H        1.9619808844    1.6582154776   -0.7976379123
H       -0.1175570398   -1.5030198012   -1.3605321526
H       -1.0076520197   -1.9809611214    1.1370095821
H       -2.1097548465    0.3663705164    1.7601105581
H       -1.1459931618    2.2460310750    0.0992274279
C        1.6047052893   -0.5347131272   -0.3542310014
H        2.4806875595   -1.1479489973   -0.1878378191
$end

$rem
method                b3lyp
basis                 6-31+g(d,p)
unrestricted          true
symmetry              off
sym_ignore            true
incdft                false
incfock               0
scf_convergence       8
thresh                14
jobtype               sp
scf_guess             read
scf_algorithm         diis
max_scf_cycles        100
scf_final_print       1
$end

--------------------------------------------------------------
 ----------------------------------------------------------------
             Standard Nuclear Orientation (Angstroms)
    I     Atom           X                Y                Z
 ----------------------------------------------------------------
    1      C       1.3829522869     0.7512314606    -0.6641941997
    2      C       0.1074352754    -0.8430692904    -0.5105267812
    3      C      -0.7963937107    -1.0287090628     0.6681743706
    4      C      -1.3849853066     0.1971709708     0.9706061492
    5      C      -0.9270060280     1.1866936444     0.1017052671
    6      N      -0.0484191819     0.6327082552    -0.8618734887
    7      H       1.9619808844     1.6582154776    -0.7976379123
    8      H      -0.1175570398    -1.5030198012    -1.3605321526
    9      H      -1.0076520197    -1.9809611214     1.1370095821
   10      H      -2.1097548465     0.3663705164     1.7601105581
   11      H      -1.1459931618     2.2460310750     0.0992274279
   12      C       1.6047052893    -0.5347131272    -0.3542310014
   13      H       2.4806875595    -1.1479489973    -0.1878378191
 ----------------------------------------------------------------
 Nuclear Repulsion Energy =   274.6597178350 hartrees
 There are       25 alpha and       24 beta electrons
 Requested basis set is 6-31+G(d,p)
 There are 53 shells and 163 basis functions

 Total QAlloc Memory Limit   8000 MB
 Mega-Array Size      1956 MB
 MEM_STATIC part      2000 MB

                       Distance Matrix (Angstroms)
             C (  1)   C (  2)   C (  3)   C (  4)   C (  5)   N (  6)
   C (  2)  2.047523
   C (  3)  3.113349  1.496899
   C (  4)  3.262060  2.345884  1.393085
   C (  5)  2.472274  2.358990  2.290405  1.394234
   N (  6)  1.449810  1.525010  2.379248  2.309563  1.416792
   H (  7)  1.084298  3.127011  4.120291  4.057526  3.062253  2.257764
   H (  8)  2.796080  1.099393  2.191219  3.151385  3.166687  2.194260
   H (  9)  4.052678  2.291854  1.082229  2.216829  3.333526  3.427379
   H ( 10)  4.269002  3.396244  2.205332  1.085005  2.195936  3.345869
   H ( 11)  3.035260  3.389015  3.342132  2.239251  1.081738  2.175131
   C ( 12)  1.341233  1.536662  2.656054  3.350985  3.095268  2.086479
   H ( 13)  2.244733  2.414416  3.389135  4.253794  4.140865  3.165667
             H (  7)   H (  8)   H (  9)   H ( 10)   H ( 11)   C ( 12)
   H (  8)  3.825537
   H (  9)  5.079881  2.694144
   H ( 10)  4.978953  4.147515  2.666993
   H ( 11)  3.287765  4.152585  4.354721  2.687098
   C ( 12)  2.265655  2.217306  3.337640  4.368021  3.937576
   H ( 13)  2.918128  2.872658  3.823303  5.211509  4.975371  1.082169

 
 A cutoff of  1.0D-14 yielded   1383 shell pairs
 There are     13463 function pairs
 
 -------------------------------------------------------
 OpenMP Integral Computing Module                       
 Release: version 1.0, May 2013, Q-Chem Inc. Pittsburgh 
 -------------------------------------------------------
 Integral Job Info:
 Integral job number is                      11
 Integral operator is                         1
 short-range coefficients                     0
 long-range coefficients              100000000
 Omega coefficients                           0
 if combine SR and LR in K                    0
 Integral screening is                        0
 Integral computing path is                   2
 max size of driver memory is            800000
 size of driver memory is                593474
 size of scratch memory is              2361544
 max col of scratch BK array               1296
 max len of scratch array in speh3          155
 max len of scratch index in speh4           18
 max int batch size is                      520
 min int batch size is                       52
 fixed nKL is                                52
 max L of basis functions is                  2
 order of int derivative is                   0
 number of shells is                         53
 number of basis is                         163
 number of cartesian basis is               163
 number of contracted shell pairs          1383
 number of primitive shell pairs           4696
 maxK2 (contraction) of shell pair           36
 max number of K2 of shell pair               1
 max number of CS2 of shell pair            132
 max number of PS2 of shell pair            678
 mem total for path MDJ                  535308
 -------------------------------------------------------
 Smallest overlap matrix eigenvalue = 1.98E-05

 Scale SEOQF with 1.000000e-01/1.000000e-01/1.000000e-01

 Standard Electronic Orientation quadrupole field applied
 Nucleus-field energy     =     0.0000000026 hartrees
 Guess MOs from SCF MO coefficient file
 Reading MOs from coefficient file
 Reading MOs from coefficient file
 An unrestricted hybrid HF-DFT SCF calculation will be
 performed using Pulay DIIS extrapolation
 Exchange:     0.2000 Hartree-Fock + 0.0800 Slater + 0.7200 B88
 Correlation:  0.1900 VWN1RPA + 0.8100 LYP
 Using SG-1 standard quadrature grid
 SCF converges when DIIS error is below 1.0E-08
Using Q-Chem read-in guess as SCF_GUESS READ specified.

 using 4 threads for integral computing
 -------------------------------------------------------
 OpenMP Integral computing Module                
 Release: version 1.0, May 2013, Q-Chem Inc. Pittsburgh 
 -------------------------------------------------------
 -------------------------------------------------------
 OpenMP BLAS3 based DFT computing Module                
 Release: version 1.0, May 2013, Q-Chem Inc. Pittsburgh 
 -------------------------------------------------------
 ---------------------------------------
  Cycle       Energy         DIIS Error
 ---------------------------------------
    1    -286.8854568940      1.42E-09
    2    -286.8854568940      2.19E-09 Convergence criterion met
 ---------------------------------------
 One-Electron    Energy =  -929.8288038351
 Total Coulomb   Energy =   409.9017298355
 Alpha Exchange  Energy =    -4.0217072948
 Beta  Exchange  Energy =    -3.9236006477
 DFT   Exchange  Energy =   -31.5634031509
 DFT Correlation Energy =    -2.1093896386
 Nuclear Repu.   Energy =   274.6597178376
 Nuclear Attr.   Energy = -1213.9478244630
 Kinetic         Energy =   284.1190206279
 <S^2> = 0.7724
 SCF time:  CPU 10.18 s  wall 2.79 s
 Final Alpha MO Eigenvalues
            1           2           3           4           5           6
    1 -14.3617950 -10.2360020 -10.2323749 -10.2221585 -10.1992956 -10.1980706
            7           8           9          10          11          12
    1 -10.1966642  -0.9877913  -0.8161539  -0.7628139  -0.6838670  -0.6255195
           13          14          15          16          17          18
    1  -0.5709126  -0.5369023  -0.5154223  -0.4964919  -0.4397944  -0.4072838
           19          20          21          22          23          24
    1  -0.4015805  -0.3862512  -0.3614673  -0.3323716  -0.2963265  -0.2462970
           25          26          27          28          29          30
    1  -0.1606548  -0.0043817   0.0110094   0.0165274   0.0230725   0.0278930
 Final Beta MO Eigenvalues
            1           2           3           4           5           6
    1 -14.3593218 -10.2366823 -10.2316474 -10.2146189 -10.2006539 -10.1982479
            7           8           9          10          11          12
    1 -10.1888722  -0.9821757  -0.8089052  -0.7530566  -0.6812841  -0.6146107
           13          14          15          16          17          18
    1  -0.5662443  -0.5329291  -0.5113080  -0.4910054  -0.4330821  -0.4049254
           19          20          21          22          23          24
    1  -0.3967853  -0.3818366  -0.3552952  -0.3180199  -0.2788543  -0.2349646
           25          26          27          28          29
    1  -0.0631881  -0.0022206   0.0115420   0.0186307   0.0236121
 SCF   energy in the final basis set = -286.88545689
 Total energy in the final basis set = -286.88545689
 
 --------------------------------------------------------------
 
                    Orbital Energies (a.u.)
 --------------------------------------------------------------
 
 Alpha MOs
 -- Occupied --
-14.362 -10.236 -10.232 -10.222 -10.199 -10.198 -10.197  -0.988
 -0.816  -0.763  -0.684  -0.626  -0.571  -0.537  -0.515  -0.496
 -0.440  -0.407  -0.402  -0.386  -0.361  -0.332  -0.296  -0.246
 -0.161
 -- Virtual --
 -0.004   0.011   0.017   0.023   0.028   0.038   0.045   0.046
  0.062   0.066   0.072   0.088   0.099   0.109   0.111   0.118
  0.128   0.135   0.137   0.146   0.163   0.176   0.181   0.183
  0.198   0.204   0.210   0.212   0.224   0.234   0.236   0.256
  0.262   0.268   0.282   0.286   0.301   0.306   0.339   0.349
  0.372   0.422   0.467   0.524   0.638   0.653   0.655   0.704
  0.711   0.722   0.737   0.741   0.752   0.766   0.778   0.793
  0.821   0.828   0.865   0.886   0.903   0.906   0.930   0.961
  0.984   1.020   1.045   1.070   1.086   1.110   1.135   1.163
  1.191   1.247   1.291   1.336   1.361   1.383   1.388   1.455
  1.506   1.563   1.565   1.679   1.747   1.816   1.825   1.838
  1.875   1.894   1.903   1.967   1.975   2.025   2.069   2.093
  2.143   2.170   2.202   2.241   2.276   2.326   2.380   2.411
  2.435   2.460   2.475   2.486   2.512   2.525   2.550   2.568
  2.591   2.618   2.672   2.684   2.717   2.741   2.792   2.817
  2.847   2.869   2.890   3.087   3.187   3.255   3.287   3.372
  3.442   3.722   3.732   4.306   4.349   4.394   4.476   4.598
  4.729   4.869
 
 Beta MOs
 -- Occupied --
-14.359 -10.237 -10.232 -10.215 -10.201 -10.198 -10.189  -0.982
 -0.809  -0.753  -0.681  -0.615  -0.566  -0.533  -0.511  -0.491
 -0.433  -0.405  -0.397  -0.382  -0.355  -0.318  -0.279  -0.235
 -- Virtual --
 -0.063  -0.002   0.012   0.019   0.024   0.036   0.044   0.046
  0.047   0.063   0.068   0.073   0.089   0.101   0.110   0.112
  0.121   0.129   0.136   0.138   0.147   0.164   0.177   0.182
  0.186   0.199   0.205   0.213   0.215   0.226   0.237   0.239
  0.261   0.264   0.271   0.286   0.290   0.302   0.309   0.342
  0.353   0.376   0.426   0.473   0.529   0.642   0.655   0.663
  0.712   0.718   0.726   0.740   0.751   0.762   0.770   0.788
  0.795   0.824   0.833   0.868   0.889   0.903   0.909   0.933
  0.965   0.989   1.025   1.050   1.076   1.089   1.114   1.137
  1.167   1.194   1.253   1.295   1.344   1.373   1.388   1.395
  1.460   1.509   1.570   1.572   1.691   1.751   1.823   1.830
  1.850   1.880   1.897   1.907   1.972   1.978   2.035   2.074
  2.095   2.150   2.186   2.210   2.246   2.281   2.329   2.382
  2.416   2.438   2.464   2.487   2.493   2.519   2.527   2.558
  2.575   2.597   2.622   2.675   2.690   2.722   2.746   2.797
  2.824   2.849   2.873   2.896   3.089   3.189   3.255   3.288
  3.377   3.446   3.724   3.735   4.310   4.357   4.397   4.484
  4.602   4.739   4.871
 --------------------------------------------------------------
 
          Ground-State Mulliken Net Atomic Charges

     Atom                 Charge (a.u.)    Spin (a.u.)
  --------------------------------------------------------
      1 C                    -0.080537       0.005439
      2 C                    -0.130524      -0.074565
      3 C                    -0.156642       0.645685
      4 C                    -0.046004      -0.267856
      5 C                    -0.112684       0.610221
      6 N                    -0.214083       0.067287
      7 H                     0.136415       0.000959
      8 H                     0.156096       0.032266
      9 H                     0.129845      -0.029434
     10 H                     0.128557       0.007649
     11 H                     0.135813      -0.027535
     12 C                    -0.077385       0.021941
     13 H                     0.131132       0.007944
  --------------------------------------------------------
  Sum of atomic charges =     0.000000
  Sum of spin   charges =     1.000000

 -----------------------------------------------------------------
                    Cartesian Multipole Moments
 -----------------------------------------------------------------
    Charge (ESU x 10^10)
                -0.0000
    Dipole Moment (Debye)
         X       0.5036      Y      -0.1391      Z       0.5831
       Tot       0.7829
    Quadrupole Moments (Debye-Ang)
        XX     -40.1349     XY       0.0191     YY     -36.9138
        XZ      -2.6887     YZ       0.4745     ZZ     -44.5501
    Octopole Moments (Debye-Ang^2)
       XXX       8.4815    XXY       0.2880    XYY       1.7324
       YYY      -2.0277    XXZ       6.6554    XYZ      -2.3752
       YYZ       2.2556    XZZ      -4.1921    YZZ      -4.7454
       ZZZ      13.1484
    Hexadecapole Moments (Debye-Ang^3)
      XXXX    -368.5699   XXXY       5.6908   XXYY     -95.0226
      XYYY       9.8125   YYYY    -232.6473   XXXZ      61.3588
      XXYZ       2.6236   XYYZ      17.6931   YYYZ       8.8075
      XXZZ     -90.7745   XYZZ       6.4131   YYZZ     -72.0132
      XZZZ      65.6990   YZZZ      18.8530   ZZZZ    -188.0205
 -----------------------------------------------------------------
 Mayer SCF Bond Order, atomic valence on the diagonal:

            1           2           3           4           5           6
    1   3.9071504  -0.0879605   0.0713553  -0.0455668  -0.0871928   1.0122980
    2  -0.0879605   3.9244284   0.9424001  -0.0222910   0.0083455   1.1631619
    3   0.0713553   0.9424001   3.8050414   1.6027828   0.1669508  -0.0857390
    4  -0.0455668  -0.0222910   1.6027828   4.1525606   1.5363608   0.0598719
    5  -0.0871928   0.0083455   0.1669508   1.5363608   3.5256706   0.8853354
    6   1.0122980   1.1631619  -0.0857390   0.0598719   0.8853354   2.8193063
    7   0.9196450   0.0371990  -0.0054648   0.0016812   0.0043024  -0.0259752
    8   0.0431767   0.8715749   0.0166942   0.0128019   0.0063758  -0.0095964
    9  -0.0023904  -0.0107591   0.8902097   0.0346499   0.0144547   0.0092212
   10   0.0006405   0.0065665   0.0378245   0.8503080   0.0448600   0.0082730
   11   0.0063991   0.0134069   0.0175078  -0.0015567   0.9482886  -0.0320268
   12   2.0417673   1.0097262   0.1344954   0.1261136  -0.0067045  -0.1789336
   13   0.0349791  -0.0069420   0.0160246  -0.0025949   0.0042941   0.0134159
            7           8           9          10          11          12
    1   0.9196450   0.0431767  -0.0023904   0.0006405   0.0063991   2.0417673
    2   0.0371990   0.8715749  -0.0107591   0.0065665   0.0134069   1.0097262
    3  -0.0054648   0.0166942   0.8902097   0.0378245   0.0175078   0.1344954
    4   0.0016812   0.0128019   0.0346499   0.8503080  -0.0015567   0.1261136
    5   0.0043024   0.0063758   0.0144547   0.0448600   0.9482886  -0.0067045
    6  -0.0259752  -0.0095964   0.0092212   0.0082730  -0.0320268  -0.1789336
    7   0.9515641   0.0018638   0.0004135   0.0000607   0.0002279   0.0172990
    8   0.0018638   0.9353028   0.0001269   0.0010071   0.0008285  -0.0099020
    9   0.0004135   0.0001269   0.9567388   0.0007475   0.0016343   0.0184072
   10   0.0000607   0.0010071   0.0007475   0.9520190   0.0004042   0.0012691
   11   0.0002279   0.0008285   0.0016343   0.0004042   0.9525013  -0.0030508
   12   0.0172990  -0.0099020   0.0184072   0.0012691  -0.0030508   4.0479598
   13   0.0003115   0.0003515   0.0000235   0.0000580   0.0004383   0.8974730
           13
    1   0.0349791
    2  -0.0069420
    3   0.0160246
    4  -0.0025949
    5   0.0042941
    6   0.0134159
    7   0.0003115
    8   0.0003515
    9   0.0000235
   10   0.0000580
   11   0.0004383
   12   0.8974730
   13   0.9578325


Archival summary:
1\1\c8-68\SP\ProcedureUnspecified\6-31+G**\166(2)\hpark21\WedMar219:45:012022WedMar219:45:012022\0\\#,ProcedureUnspecified,6-31+G**,\\0,2\N\C,1,1.41679\H,2,1.08174,1,120.457\C,2,1.39423,1,110.49,3,-179.196,0\H,4,1.08501,2,124.21,1,-176.591,0\C,4,1.39309,2,110.515,1,2.61178,0\H,6,1.08223,4,126.71,2,-176.11,0\C,1,1.44981,2,119.179,3,80.2842,0\H,8,1.0843,1,125.368,2,-74.1532,0\C,8,1.34123,1,96.6822,2,107.691,0\H,10,1.08217,8,135.454,1,172.577,0\C,6,1.4969,4,108.477,2,-1.01654,0\H,12,1.09939,6,114.255,4,-123.671,0\\\@

 Total job time:  4.92s(wall), 11.92s(cpu) 
 Wed Mar  2 19:45:01 2022

        *************************************************************
        *                                                           *
        *  Thank you very much for using Q-Chem.  Have a nice day.  *
        *                                                           *
        *************************************************************


