
Running Job 1 of 1 qcfsm.in
qchem qcfsm.in_32088.0 ./qcfsm.d/ 1
/home/leeping/opt/qchem/5.0.2-openmp/exe/qcprog.exe_s qcfsm.in_32088.0 ./qcfsm.d/
Check license passed

                  Welcome to Q-Chem
     A Quantum Leap Into The Future Of Chemistry


 Q-Chem 5.0, Q-Chem, Inc., Pleasanton, CA (2017)

 Yihan Shao,  Zhengting Gan,  E. Epifanovsky,  A. T. B. Gilbert,  M. Wormit,  
 J. Kussmann,  A. W. Lange,  A. Behn,  Jia Deng,  Xintian Feng,  D. Ghosh,  
 M. Goldey,  P. R. Horn,  L. D. Jacobson,  I. Kaliman,  T. Kus,  A. Landau,  
 Jie Liu,  E. I. Proynov,  R. M. Richard,  R. P. Steele,  E. J. Sundstrom,  
 H. L. Woodcock III,  P. M. Zimmerman,  D. Zuev,  B. Albrecht,  E. Alguire,  
 S. A. Baeppler,  D. Barton,  Z. Benda,  Y. A. Bernard,  E. J. Berquist,  
 K. B. Bravaya,  H. Burton,  D. Casanova,  Chun-Min Chang,  Yunqing Chen,  
 A. Chien,  K. D. Closser,  M. P. Coons,  S. Dasgupta,  A. L. Dempwolff,  
 M. Diedenhofen,  Hainam Do,  R. G. Edgar,  Po-Tung Fang,  S. Fatehi,  
 Qingguo Feng,  J. Fosso-Tande,  Qinghui Ge,  A. Ghysels,  G. Gidofalvi,  
 J. Gomes,  J. Gonthier,  A. Gunina,  M. W. D. Hanson-Heine,  
 P. H. P. Harbach,  A. W. Hauser,  J. E. Herr,  E. G. Hohenstein,  
 Z. C. Holden,  Kerwin Hui,  T.-C. Jagau,  Hyunjun Ji,  B. Kaduk,  
 K. Khistyaev,  Jaehoon Kim,  P. Klunzinger,  K. Koh,  D. Kosenkov,  
 L. Koulias,  T. Kowalczyk,  C. M. Krauter,  A. Kunitsa,  Ka Un Lao,  
 A. Laurent,  K. V. Lawler,  Joonho Lee,  D. Lefrancois,  S. Lehtola,  
 D. S. Levine,  Yi-Pei Li,  You-Sheng Lin,  Fenglai Liu,  E. Livshits,  
 A. Luenser,  P. Manohar,  E. Mansoor,  S. F. Manzer,  Shan-Ping Mao,  
 Yuezhi Mao,  N. Mardirossian,  A. V. Marenich,  T. Markovich,  
 L. A. Martinez-Martinez,  S. A. Maurer,  N. J. Mayhall,  S. C. McKenzie,  
 J.-M. Mewes,  A. F. Morrison,  J. W. Mullinax,  K. Nanda,  
 T. S. Nguyen-Beck,  R. Olivares-Amaya,  J. A. Parkhill,  T. M. Perrine,  
 F. Plasser,  S. Prager,  A. Prociuk,  E. Ramos,  D. R. Rehn,  F. Rob,  
 M. Schneider,  N. Sergueev,  S. M. Sharada,  S. Sharma,  D. W. Small,  
 T. Stauch,  T. Stein,  Yu-Chuan Su,  A. J. W. Thom,  A. Tkatchenko,  
 T. Tsuchimochi,  L. Vogt,  O. Vydrov,  M. A. Watson,  J. Wenzel,  
 M. de Wergifosse,  T. A. Wesolowski,  A. White,  J. Witte,  A. Yamada,  
 Jun Yang,  K. Yao,  S. Yeganeh,  S. R. Yost,  Zhi-Qiang You,  A. Zech,  
 Igor Ying Zhang,  Xing Zhang,  Yan Zhao,  Ying Zhu,  B. R. Brooks,  
 G. K. L. Chan,  C. J. Cramer,  M. S. Gordon,  W. J. Hehre,  A. Klamt,  
 M. W. Schmidt,  C. D. Sherrill,  D. G. Truhlar,  A. Aspuru-Guzik,  R. Baer,  
 A. T. Bell,  N. A. Besley,  Jeng-Da Chai,  R. A. DiStasio Jr.,  A. Dreuw,  
 B. D. Dunietz,  T. R. Furlani,  Chao-Ping Hsu,  Yousung Jung,  Jing Kong,  
 D. S. Lambrecht,  WanZhen Liang,  C. Ochsenfeld,  V. A. Rassolov,  
 L. V. Slipchenko,  J. E. Subotnik,  T. Van Voorhis,  J. M. Herbert,  
 A. I. Krylov,  P. M. W. Gill,  M. Head-Gordon

 Contributors to earlier versions of Q-Chem not listed above: 
 R. D. Adamson,  B. Austin,  J. Baker,  G. J. O. Beran,  K. Brandhorst,  
 S. T. Brown,  E. F. C. Byrd,  A. K. Chakraborty,  C.-L. Cheng,  
 Siu Hung Chien,  D. M. Chipman,  D. L. Crittenden,  H. Dachsel,  
 R. J. Doerksen,  A. D. Dutoi,  L. Fusti-Molnar,  W. A. Goddard III,  
 A. Golubeva-Zadorozhnaya,  S. R. Gwaltney,  G. Hawkins,  A. Heyden,  
 S. Hirata,  G. Kedziora,  F. J. Keil,  C. Kelley,  Jihan Kim,  R. A. King,  
 R. Z. Khaliullin,  P. P. Korambath,  W. Kurlancheek,  A. M. Lee,  M. S. Lee,  
 S. V. Levchenko,  Ching Yeh Lin,  D. Liotard,  R. C. Lochan,  I. Lotan,  
 P. E. Maslen,  N. Nair,  D. P. O'Neill,  D. Neuhauser,  E. Neuscamman,  
 C. M. Oana,  R. Olson,  B. Peters,  R. Peverati,  P. A. Pieniazek,  
 Y. M. Rhee,  J. Ritchie,  M. A. Rohrdanz,  E. Rosta,  N. J. Russ,  
 H. F. Schaefer III,  N. E. Schultz,  N. Shenvi,  A. C. Simmonett,  A. Sodt,  
 D. Stuck,  K. S. Thanthiriwatte,  V. Vanovschi,  Tao Wang,  A. Warshel,  
 C. F. Williams,  Q. Wu,  X. Xu,  W. Zhang

 Please cite Q-Chem as follows:
 Y. Shao et al., Mol. Phys. 113, 184-215 (2015)
 DOI: 10.1080/00268976.2014.952696

 Q-Chem 5.0.2 for Intel X86 EM64T Linux

 Parts of Q-Chem use Armadillo 5.200.1 (Boston Tea Smuggler).
 http://arma.sourceforge.net/

 Q-Chem begins on Wed Mar  2 13:51:09 2022  

Host: 
0

     Scratch files written to ./qcfsm.d//
 Dec517 15110_ 26548  26544 5633   
Processing $rem in /home/leeping/opt/qchem/5.0.2-openmp/config/preferences.
 MEM_STATIC 2000
 MEM_TOTAL  8000
 SYMMETRY   OFF
 SYM_IGNORE TRUE 
 Now reading second FSM geometry

Checking the input file for inconsistencies... 	...done.

--------------------------------------------------------------
User input:
--------------------------------------------------------------
$molecule
0 2
C        1.3377229558    0.8633036749   -0.5689202540
C        0.2724920303   -1.4150735814   -0.2177472916
C       -0.9149507936   -1.0758508718    0.3588085212
C       -1.3818425014    0.2524025871    0.6619370436
C       -0.7392129679    1.4561108584    0.4366243794
N        0.4581320222    1.7817411342   -0.1018797250
H        2.2443347132    1.3294139244   -0.9610036728
H        0.4653712391   -2.4742036290   -0.3764581414
H       -1.5907552978   -1.8872145573    0.6217163962
H       -2.3627093235    0.3229761402    1.1258508807
H       -1.2988404140    2.3394672015    0.7524234849
C        1.3143769104   -0.5159722949   -0.6461101137
H        2.1958814278   -0.9771005867   -1.0852415070
****
C        1.5314199521    0.2562226162   -0.6994727341
C       -0.2486783322   -1.2924854635    0.0279895950
C       -1.4837525277   -1.1759016125    0.6142339642
C       -1.7254334730    0.2179735994    0.8213100777
C       -0.6310879784    0.9027318449    0.3542539778
N        0.2776075752   -0.0200801288   -0.1340444381
H        2.0616369989   -0.6459241712   -1.0163551798
H        0.3112515763   -2.1592023569   -0.2937516649
H       -2.1442699156   -1.9938766489    0.8681421859
H       -2.6066874510    0.6633433528    1.2633376227
H       -0.4045494575    1.9578842873    0.3190208304
C        2.0713790673    1.4479513979   -0.8603087122
H        2.9911639655    1.8413632835   -1.2643555247
$end

$rem
method                b3lyp
basis                 6-31g(d)
unrestricted          true
symmetry              off
sym_ignore            true
incdft                false
incfock               0
scf_convergence       8
thresh                14
jobtype               fsm
scf_guess             core
scf_guess_mix         5
scf_algorithm         diis
max_scf_cycles        100
fsm_nnode             21
fsm_ngrad             6
fsm_mode              2
fsm_opt_mode          2
$end

--------------------------------------------------------------
 ----------------------------------------------------------------
             Standard Nuclear Orientation (Angstroms)
    I     Atom           X                Y                Z
 ----------------------------------------------------------------
    1      C       1.3377229558     0.8633036749    -0.5689202540
    2      C       0.2724920303    -1.4150735814    -0.2177472916
    3      C      -0.9149507936    -1.0758508718     0.3588085212
    4      C      -1.3818425014     0.2524025871     0.6619370436
    5      C      -0.7392129679     1.4561108584     0.4366243794
    6      N       0.4581320222     1.7817411342    -0.1018797250
    7      H       2.2443347132     1.3294139244    -0.9610036728
    8      H       0.4653712391    -2.4742036290    -0.3764581414
    9      H      -1.5907552978    -1.8872145573     0.6217163962
   10      H      -2.3627093235     0.3229761402     1.1258508807
   11      H      -1.2988404140     2.3394672015     0.7524234849
   12      C       1.3143769104    -0.5159722949    -0.6461101137
   13      H       2.1958814278    -0.9771005867    -1.0852415070
 ----------------------------------------------------------------
 Nuclear Repulsion Energy =   260.7215910140 hartrees
 There are       25 alpha and       24 beta electrons
 Requested basis set is 6-31G(d)
 There are 40 shells and 117 basis functions

 Total QAlloc Memory Limit   8000 MB
 Mega-Array Size      1956 MB
 MEM_STATIC part      2000 MB
 beginning FSman 

*******************************************
*******************************************
******** Starting FSM Calculation *********
*******************************************
*******************************************
-FSM parameters:
 Maximum displacement of each coordinate during optimization (Angstrom)      0.05
 Maximum optimization steps for each new node                                6
 The scaling factor for optimization (hartrees/Angstrom^2)                   1.75
 The number of LST interpolations used for reparameterization                100
-Aligning product structure to maximum coincidence with the reactant structure
 Total R --> P Distance 4.876150
 New node interpolation distace (Angstroms): 0.23
-Performing force calculation on reactant structure in state:0
 ----------------------------------------------------------------
             Standard Nuclear Orientation (Angstroms)
    I     Atom           X                Y                Z
 ----------------------------------------------------------------
    1      C       1.3377229558     0.8633036749    -0.5689202540
    2      C       0.2724920303    -1.4150735814    -0.2177472916
    3      C      -0.9149507936    -1.0758508718     0.3588085212
    4      C      -1.3818425014     0.2524025871     0.6619370436
    5      C      -0.7392129679     1.4561108584     0.4366243794
    6      N       0.4581320222     1.7817411342    -0.1018797250
    7      H       2.2443347132     1.3294139244    -0.9610036728
    8      H       0.4653712391    -2.4742036290    -0.3764581414
    9      H      -1.5907552978    -1.8872145573     0.6217163962
   10      H      -2.3627093235     0.3229761402     1.1258508807
   11      H      -1.2988404140     2.3394672015     0.7524234849
   12      C       1.3143769104    -0.5159722949    -0.6461101137
   13      H       2.1958814278    -0.9771005867    -1.0852415070
 ----------------------------------------------------------------
 Nuclear Repulsion Energy =   260.7215910140 hartrees
 There are       25 alpha and       24 beta electrons

                       Distance Matrix (Angstroms)
             C (  1)   C (  2)   C (  3)   C (  4)   C (  5)   N (  6)
   C (  2)  2.539496
   C (  3)  3.113766  1.362905
   C (  4)  3.047006  2.508215  1.440185
   C (  5)  2.382478  3.113752  2.539246  1.382987
   N (  6)  1.354745  3.204296  3.203658  2.511533  1.352648
   H (  7)  1.092215  3.460174  4.184291  4.116194  3.297116  2.033031
   H (  8)  3.454996  1.088186  2.097927  3.453237  4.190406  4.264799
   H (  9)  4.190340  2.097453  1.088183  2.150168  3.455027  4.264126
   H ( 10)  4.105777  3.430796  2.154316  1.087335  2.096370  3.404771
   H ( 11)  3.297950  4.184124  3.459292  2.090674  1.092351  2.031710
   C ( 12)  1.381631  1.441320  2.508631  3.093701  3.046089  2.511738
   H ( 13)  2.095259  2.154946  3.431080  4.167064  4.105042  3.405581
             H (  7)   H (  8)   H (  9)   H ( 10)   H ( 11)   C ( 12)
   H (  8)  4.239565
   H (  9)  5.249725  2.359781
   H ( 10)  5.156814  4.251963  2.394788
   H ( 11)  4.063266  5.249595  4.238766  2.310303
   C ( 12)  2.090318  2.151323  3.453619  4.167091  4.115621
   H ( 13)  2.310366  2.395487  4.252132  5.230667  5.156522  1.087440

 
 Requested basis set is 6-31G(d)
 There are 40 shells and 117 basis functions
 A cutoff of  1.0D-14 yielded    791 shell pairs
 There are      7063 function pairs
 
 -------------------------------------------------------
 OpenMP Integral Computing Module                       
 Release: version 1.0, May 2013, Q-Chem Inc. Pittsburgh 
 -------------------------------------------------------
 Integral Job Info:
 Integral job number is                      11
 Integral operator is                         1
 short-range coefficients                     0
 long-range coefficients              100000000
 Omega coefficients                           0
 if combine SR and LR in K                    0
 Integral screening is                        0
 Integral computing path is                   2
 max size of driver memory is            800000
 size of driver memory is                593474
 size of scratch memory is              2361544
 max col of scratch BK array               1296
 max len of scratch array in speh3          155
 max len of scratch index in speh4           18
 max int batch size is                      520
 min int batch size is                       52
 fixed nKL is                                52
 max L of basis functions is                  2
 order of int derivative is                   0
 number of shells is                         40
 number of basis is                         117
 number of cartesian basis is               117
 number of contracted shell pairs           791
 number of primitive shell pairs           3395
 maxK2 (contraction) of shell pair           36
 max number of K2 of shell pair               1
 max number of CS2 of shell pair             94
 max number of PS2 of shell pair            402
 mem total for path MDJ                  535308
 -------------------------------------------------------
 Smallest overlap matrix eigenvalue = 1.33E-03

 Scale SEOQF with 1.000000e-01/1.000000e-01/1.000000e+00

 Standard Electronic Orientation quadrupole field applied
 Nucleus-field energy     =    -0.0000000070 hartrees
 Guess MOs from core Hamiltonian diagonalization
 Mixing HOMO and LUMO in initial guess
 Adding  50% of the LUMO to the HOMO
 An unrestricted hybrid HF-DFT SCF calculation will be
 performed using Pulay DIIS extrapolation
 Exchange:     0.2000 Hartree-Fock + 0.0800 Slater + 0.7200 B88
 Correlation:  0.1900 VWN1RPA + 0.8100 LYP
 Using SG-1 standard quadrature grid
 SCF converges when DIIS error is below 1.0E-08
 using 4 threads for integral computing
 -------------------------------------------------------
 OpenMP Integral computing Module                
 Release: version 1.0, May 2013, Q-Chem Inc. Pittsburgh 
 -------------------------------------------------------
 -------------------------------------------------------
 OpenMP BLAS3 based DFT computing Module                
 Release: version 1.0, May 2013, Q-Chem Inc. Pittsburgh 
 -------------------------------------------------------
 ---------------------------------------
  Cycle       Energy         DIIS Error
 ---------------------------------------
    1    -239.4930454643      1.26E-01
    2    -227.9162339228      1.03E-01
    3    -250.2628727011      1.03E-01
    4    -281.9157745897      4.85E-02
    5    -282.4505165379      4.74E-02
    6    -285.5285669602      2.31E-02
    7    -286.6134865307      1.25E-02
    8    -286.8606552310      4.95E-03
    9    -286.9210326922      8.96E-04
   10    -286.9229792429      7.36E-04
   11    -286.9239960112      1.84E-04
   12    -286.9241932289      8.95E-05
   13    -286.9242681930      5.37E-05
   14    -286.9243347320      1.19E-05
   15    -286.9243436659      5.04E-06
   16    -286.9243452955      3.03E-06
   17    -286.9243459897      6.80E-07
   18    -286.9243460257      3.27E-07
   19    -286.9243460298      9.00E-08
   20    -286.9243460304      5.97E-08
   21    -286.9243460306      3.80E-08
   22    -286.9243460306      1.96E-08
   23    -286.9243460307      4.41E-09 Convergence criterion met
 ---------------------------------------
 <S^2> = 0.7684
 SCF time:  CPU 59.10 s  wall 36.31 s
 SCF   energy in the final basis set = -286.92434603
 Total energy in the final basis set = -286.92434603
 
 --------------------------------------------------------------
 
                    Orbital Energies (a.u.)
 --------------------------------------------------------------
 
 Alpha MOs
 -- Occupied --
-14.322 -10.232 -10.232 -10.212 -10.211 -10.201 -10.200  -0.922
 -0.818  -0.784  -0.693  -0.667  -0.551  -0.537  -0.518  -0.449
 -0.439  -0.414  -0.394  -0.387  -0.349  -0.322  -0.299  -0.251
 -0.162
 -- Virtual --
 -0.072   0.077   0.097   0.101   0.117   0.142   0.181   0.184
  0.193   0.213   0.266   0.320   0.356   0.390   0.412   0.483
  0.496   0.521   0.547   0.576   0.584   0.587   0.591   0.610
  0.619   0.624   0.646   0.658   0.713   0.718   0.833   0.840
  0.847   0.854   0.868   0.872   0.885   0.922   0.965   0.975
  1.024   1.027   1.043   1.127   1.177   1.185   1.300   1.303
  1.326   1.402   1.429   1.480   1.482   1.546   1.574   1.586
  1.682   1.732   1.769   1.829   1.850   1.919   1.925   2.030
  2.046   2.048   2.100   2.141   2.142   2.191   2.247   2.391
  2.410   2.414   2.446   2.545   2.577   2.601   2.614   2.739
  2.748   2.807   3.052   3.249   3.250   4.018   4.046   4.102
  4.196   4.239   4.532   4.595
 
 Beta MOs
 -- Occupied --
-14.314 -10.234 -10.233 -10.210 -10.210 -10.196 -10.196  -0.911
 -0.809  -0.777  -0.681  -0.665  -0.546  -0.535  -0.514  -0.447
 -0.438  -0.411  -0.383  -0.373  -0.348  -0.295  -0.276  -0.241
 -- Virtual --
 -0.078  -0.070   0.078   0.118   0.124   0.125   0.142   0.182
  0.187   0.196   0.219   0.268   0.324   0.360   0.393   0.415
  0.486   0.505   0.525   0.551   0.587   0.588   0.592   0.596
  0.614   0.624   0.629   0.649   0.676   0.716   0.729   0.834
  0.843   0.846   0.869   0.875   0.880   0.887   0.925   0.967
  0.979   1.026   1.030   1.045   1.133   1.180   1.189   1.311
  1.315   1.333   1.411   1.429   1.489   1.492   1.560   1.582
  1.597   1.685   1.737   1.781   1.831   1.853   1.922   1.933
  2.036   2.058   2.061   2.110   2.141   2.147   2.203   2.259
  2.399   2.422   2.425   2.448   2.558   2.578   2.611   2.624
  2.742   2.761   2.810   3.054   3.252   3.254   4.030   4.053
  4.109   4.200   4.239   4.537   4.601
 --------------------------------------------------------------
 
          Ground-State Mulliken Net Atomic Charges

     Atom                 Charge (a.u.)    Spin (a.u.)
  --------------------------------------------------------
      1 C                     0.034624      -0.109844
      2 C                    -0.111955       0.099717
      3 C                    -0.110619       0.087741
      4 C                    -0.132012       0.351626
      5 C                     0.036148      -0.115396
      6 N                    -0.423203       0.386951
      7 H                     0.142708       0.003265
      8 H                     0.141893      -0.006923
      9 H                     0.141971      -0.006349
     10 H                     0.134287      -0.018548
     11 H                     0.142583       0.003539
     12 C                    -0.130849       0.342340
     13 H                     0.134424      -0.018119
  --------------------------------------------------------
  Sum of atomic charges =    -0.000000
  Sum of spin   charges =     1.000000

 -----------------------------------------------------------------
                    Cartesian Multipole Moments
 -----------------------------------------------------------------
    Charge (ESU x 10^10)
                -0.0000
    Dipole Moment (Debye)
         X      -0.5584      Y      -2.1689      Z       0.1249
       Tot       2.2431
    Quadrupole Moments (Debye-Ang)
        XX     -36.3968     XY      -1.7225     YY     -41.8619
        XZ      -3.3552     YZ       0.9055     ZZ     -41.7398
    Octopole Moments (Debye-Ang^2)
       XXX      -3.6343    XXY      -5.8597    XYY      -7.5412
       YYY     -37.2884    XXZ      -0.0611    XYZ      -0.3640
       YYZ       1.8948    XZZ      -1.3507    YZZ      -5.5696
       ZZZ       0.9582
    Hexadecapole Moments (Debye-Ang^3)
      XXXX    -323.3612   XXXY      -2.0113   XXYY    -117.9002
      XYYY     -21.3706   YYYY    -430.5532   XXXZ      53.5076
      XXYZ      -3.5982   XYYZ      16.0837   YYYZ      -1.8732
      XXZZ     -70.8358   XYZZ      -2.1261   YYZZ     -88.2101
      XZZZ      71.5969   YZZZ      -9.8654   ZZZZ    -114.0273
 -----------------------------------------------------------------
 Calculating analytic gradient of the SCF energy
 Gradient of SCF Energy
            1           2           3           4           5           6
    1   0.0001577  -0.0000393   0.0000028  -0.0000702   0.0001758  -0.0001852
    2  -0.0001421  -0.0000424   0.0000550  -0.0001731   0.0001510   0.0000741
    3  -0.0000489   0.0000392   0.0000165   0.0000195  -0.0000977   0.0000674
            7           8           9          10          11          12
    1  -0.0000044  -0.0000192  -0.0000117  -0.0000070  -0.0000143  -0.0000017
    2   0.0000068  -0.0000243   0.0000097  -0.0000133   0.0000012   0.0001015
    3   0.0000125  -0.0000028  -0.0000147   0.0000133  -0.0000068  -0.0000099
           13
    1   0.0000166
    2  -0.0000040
    3   0.0000124
 Max gradient component =       1.852E-04
 RMS gradient           =       7.367E-05
 Gradient time:  CPU 7.35 s  wall 3.30 s
-Performing force calculation on product structure in state0
 ----------------------------------------------------------------
             Standard Nuclear Orientation (Angstroms)
    I     Atom           X                Y                Z
 ----------------------------------------------------------------
    1      C       1.5314114585     0.2561697865    -0.6995106788
    2      C      -0.2480865863    -1.2925689203     0.0293536327
    3      C      -1.4833064829    -1.1759186705     0.6152777314
    4      C      -1.7256627984     0.2180688296     0.8208028357
    5      C      -0.6315598964     0.9028245587     0.3531750478
    6      N       0.2776378570    -0.0200975262    -0.1339790975
    7      H       2.0620942958    -0.6460756915    -1.0153306447
    8      H       0.3122935315    -2.1593760937    -0.2913589515
    9      H      -2.1434864105    -1.9939222922     0.8699702969
   10      H      -2.6071915090     0.6635114638     1.2622086961
   11      H      -0.4055025197     1.9580425456     0.3168320250
   12      C       2.0708461290     1.4479722927    -0.8615556399
   13      H       2.9905129320     1.8413697169    -1.2658852526
 ----------------------------------------------------------------
 Nuclear Repulsion Energy =   262.3948810051 hartrees
 There are       25 alpha and       24 beta electrons

                       Distance Matrix (Angstroms)
             C (  1)   C (  2)   C (  3)   C (  4)   C (  5)   N (  6)
   C (  2)  2.469099
   C (  3)  3.587209  1.372109
   C (  4)  3.594626  2.256468  1.429748
   C (  5)  2.490935  2.252036  2.261713  1.372817
   N (  6)  1.402889  1.386451  2.235673  2.231938  1.384104
   H (  7)  1.093350  2.616535  3.938208  4.297119  3.395243  2.086364
   H (  8)  2.736366  1.080850  2.239053  3.323013  3.268540  2.145340
   H (  9)  4.585963  2.188852  1.081589  2.251644  3.308193  3.281119
   H ( 10)  4.598076  3.303265  2.250587  1.081828  2.187860  3.277026
   H ( 11)  2.771454  3.267093  3.327528  2.241499  1.079772  2.140782
   C ( 12)  1.318196  3.698883  4.658094  4.330874  3.012599  2.429031
   H ( 13)  2.227693  4.689109  5.714706  5.406634  4.076964  3.479362
             H (  7)   H (  8)   H (  9)   H ( 10)   H ( 11)   C ( 12)
   H (  8)  2.424049
   H (  9)  4.801870  2.721565
   H ( 10)  5.357652  4.348064  2.725954
   H ( 11)  3.826895  4.223537  4.352537  2.723414
   C ( 12)  2.099705  4.053467  5.710116  5.197094  2.789457
   H ( 13)  2.666856  4.912080  6.754946  6.254031  3.748537  1.078903

 
 Applying Cartesian multipole field
    Component          Value
    ---------          -----
     (2,0,0)        1.00000E-11
     (0,2,0)        2.00000E-11
     (0,0,2)       -3.00000E-10
 Nucleus-field energy     =    -0.0000000138 hartrees
 Requested basis set is 6-31G(d)
 There are 40 shells and 117 basis functions
 A cutoff of  1.0D-14 yielded    781 shell pairs
 There are      6992 function pairs
 Smallest overlap matrix eigenvalue = 1.00E-03
 Guess MOs from core Hamiltonian diagonalization
 Mixing HOMO and LUMO in initial guess
 Adding  50% of the LUMO to the HOMO
 An unrestricted hybrid HF-DFT SCF calculation will be
 performed using Pulay DIIS extrapolation
 Exchange:     0.2000 Hartree-Fock + 0.0800 Slater + 0.7200 B88
 Correlation:  0.1900 VWN1RPA + 0.8100 LYP
 Using SG-1 standard quadrature grid
 SCF converges when DIIS error is below 1.0E-08
 using 4 threads for integral computing
 -------------------------------------------------------
 OpenMP Integral computing Module                
 Release: version 1.0, May 2013, Q-Chem Inc. Pittsburgh 
 -------------------------------------------------------
 -------------------------------------------------------
 OpenMP BLAS3 based DFT computing Module                
 Release: version 1.0, May 2013, Q-Chem Inc. Pittsburgh 
 -------------------------------------------------------
 ---------------------------------------
  Cycle       Energy         DIIS Error
 ---------------------------------------
    1    -222.2921116833      1.50E-01
    2    -184.8377273639      1.44E-01
    3    -237.4789164431      1.13E-01
    4    -240.9403147789      1.19E-01
    5    -280.4367891155      3.86E-02
    6    -278.5126513685      5.24E-02
    7    -286.4586156504      1.13E-02
    8    -286.7370699056      8.28E-03
    9    -286.8612454784      2.19E-03
   10    -286.8680355111      1.23E-03
   11    -286.8702827165      8.20E-04
   12    -286.8713356990      5.69E-04
   13    -286.8721627181      2.50E-04
   14    -286.8723786613      4.23E-05
   15    -286.8723867047      1.53E-05
   16    -286.8723883237      3.45E-06
   17    -286.8723888551      1.28E-06
   18    -286.8723892153      5.19E-07
   19    -286.8723893758      3.10E-07
   20    -286.8723895427      2.11E-07
   21    -286.8723895871      3.04E-08
   22    -286.8723895872      6.82E-09 Convergence criterion met
 ---------------------------------------
 <S^2> = 0.7625
 SCF time:  CPU 55.32 s  wall 30.20 s
 SCF   energy in the final basis set = -286.87238959
 Total energy in the final basis set = -286.87238959
 
 --------------------------------------------------------------
 
                    Orbital Energies (a.u.)
 --------------------------------------------------------------
 
 Alpha MOs
 -- Occupied --
-14.392 -10.242 -10.214 -10.205 -10.201 -10.171 -10.170  -0.988
 -0.817  -0.737  -0.720  -0.618  -0.574  -0.544  -0.513  -0.476
 -0.428  -0.423  -0.417  -0.386  -0.374  -0.303  -0.255  -0.224
 -0.210
 -- Virtual --
 -0.008   0.076   0.091   0.101   0.127   0.136   0.165   0.176
  0.180   0.224   0.237   0.282   0.339   0.362   0.391   0.456
  0.488   0.507   0.536   0.556   0.561   0.589   0.590   0.596
  0.606   0.619   0.622   0.650   0.673   0.704   0.800   0.810
  0.829   0.847   0.856   0.857   0.888   0.921   0.928   0.956
  0.982   1.034   1.083   1.128   1.200   1.217   1.274   1.346
  1.385   1.387   1.428   1.458   1.494   1.496   1.551   1.558
  1.676   1.742   1.818   1.878   1.929   1.982   2.003   2.006
  2.071   2.080   2.153   2.178   2.211   2.251   2.269   2.302
  2.337   2.339   2.533   2.549   2.592   2.648   2.682   2.719
  2.776   2.858   3.044   3.100   3.178   3.977   4.069   4.121
  4.171   4.273   4.472   4.474
 
 Beta MOs
 -- Occupied --
-14.391 -10.243 -10.205 -10.201 -10.198 -10.171 -10.170  -0.987
 -0.812  -0.725  -0.717  -0.605  -0.573  -0.543  -0.500  -0.466
 -0.424  -0.424  -0.414  -0.385  -0.374  -0.301  -0.216  -0.211
 -- Virtual --
 -0.087   0.001   0.077   0.091   0.109   0.128   0.143   0.165
  0.176   0.181   0.228   0.239   0.286   0.342   0.372   0.403
  0.461   0.498   0.507   0.539   0.560   0.567   0.589   0.594
  0.601   0.619   0.628   0.633   0.666   0.672   0.705   0.806
  0.811   0.831   0.849   0.857   0.859   0.901   0.927   0.934
  0.958   0.988   1.040   1.092   1.129   1.204   1.221   1.278
  1.346   1.386   1.388   1.441   1.461   1.495   1.497   1.551
  1.559   1.736   1.762   1.840   1.886   1.948   1.985   2.006
  2.013   2.076   2.086   2.165   2.180   2.211   2.250   2.273
  2.306   2.337   2.340   2.534   2.563   2.595   2.655   2.685
  2.719   2.787   2.861   3.044   3.102   3.185   3.977   4.102
  4.121   4.171   4.277   4.474   4.474
 --------------------------------------------------------------
 
          Ground-State Mulliken Net Atomic Charges

     Atom                 Charge (a.u.)    Spin (a.u.)
  --------------------------------------------------------
      1 C                     0.068170      -0.140511
      2 C                     0.027537      -0.002622
      3 C                    -0.193456      -0.005386
      4 C                    -0.186593      -0.008659
      5 C                     0.037286       0.008949
      6 N                    -0.401179       0.019483
      7 H                     0.163169       0.068826
      8 H                     0.144881       0.000098
      9 H                     0.128615       0.001016
     10 H                     0.128861       0.000826
     11 H                     0.154925       0.000530
     12 C                    -0.244476       1.062447
     13 H                     0.172260      -0.004997
  --------------------------------------------------------
  Sum of atomic charges =     0.000000
  Sum of spin   charges =     1.000000

 -----------------------------------------------------------------
                    Cartesian Multipole Moments
 -----------------------------------------------------------------
    Charge (ESU x 10^10)
                -0.0000
    Dipole Moment (Debye)
         X       1.2535      Y      -0.3424      Z      -0.6185
       Tot       1.4391
    Quadrupole Moments (Debye-Ang)
        XX     -36.3389     XY      -0.1675     YY     -37.2219
        XZ      -4.0184     YZ       0.5896     ZZ     -42.9535
    Octopole Moments (Debye-Ang^2)
       XXX       9.8665    XXY       1.1788    XYY       1.8747
       YYY      -7.6497    XXZ      -3.4031    XYZ      -1.4045
       YYZ      -1.1536    XZZ       2.4011    YZZ      -1.3527
       ZZZ      -2.7130
    Hexadecapole Moments (Debye-Ang^3)
      XXXX    -480.1027   XXXY     -62.5095   XXYY    -119.8670
      XYYY     -76.9990   YYYY    -284.1923   XXXZ      70.6434
      XXYZ      -0.7004   XYYZ      25.0845   YYYZ      29.5651
      XXZZ    -101.7116   XYZZ     -26.5353   YYZZ     -75.0581
      XZZZ     110.8338   YZZZ      31.9186   ZZZZ    -149.6730
 -----------------------------------------------------------------
 Calculating analytic gradient of the SCF energy
 Gradient of SCF Energy
            1           2           3           4           5           6
    1   0.0000460   0.0000360   0.0000193   0.0000001   0.0000694  -0.0001384
    2   0.0000030  -0.0000212  -0.0000156   0.0000373  -0.0000102   0.0000167
    3  -0.0000317   0.0001364   0.0000133  -0.0000165   0.0000170  -0.0001455
            7           8           9          10          11          12
    1  -0.0000168   0.0000117  -0.0000133  -0.0000029  -0.0000193   0.0000413
    2  -0.0000090   0.0000006   0.0000111   0.0000011   0.0000087  -0.0000363
    3   0.0000065  -0.0000018  -0.0000163  -0.0000088   0.0000132   0.0000732
           13
    1  -0.0000331
    2   0.0000138
    3  -0.0000390
 Max gradient component =       1.455E-04
 RMS gradient           =       4.662E-05
 Gradient time:  CPU 7.11 s  wall 1.96 s

STARTING FREEZING STRING ITERATION # 1
 The distance between the innermost nodes (Angstroms): 4.876
-Adding two new nodes
 The distance between the previous and current R_nodes (Angstroms): 0.2174
 The distance between the previous and current P_nodes (Angstroms): 0.2355
-Optimizing new reactant side node
 Using BFGS, step: 2 E_tol 0.0520
 max_steps 6, node_spacing 0.2322, sigma 0.7000
 ----------------------------------------------------------------
             Standard Nuclear Orientation (Angstroms)
    I     Atom           X                Y                Z
 ----------------------------------------------------------------
    1      C       1.3568786890     0.8615147003    -0.5795650244
    2      C       0.2223848550    -1.4170347107    -0.1951959443
    3      C      -0.9638889223    -1.0854112429     0.3810247025
    4      C      -1.4155931629     0.2442062589     0.6769785930
    5      C      -0.7487037488     1.4254778677     0.4373263503
    6      N       0.4476019775     1.7301446667    -0.1011437760
    7      H       2.2498676335     1.3591305496    -0.9624396599
    8      H       0.4272293692    -2.4735917650    -0.3601379620
    9      H      -1.6400415160    -1.8960145219     0.6454471590
   10      H      -2.3933970974     0.3355973145     1.1437202805
   11      H      -1.2724700925     2.3339211100     0.7418600838
   12      C       1.4057385059    -0.4955904250    -0.6955493454
   13      H       2.3053658013    -0.9251368398    -1.1263035789
 ----------------------------------------------------------------
 Nuclear Repulsion Energy =   258.9223267163 hartrees
 There are       25 alpha and       24 beta electrons

                       Distance Matrix (Angstroms)
             C (  1)   C (  2)   C (  3)   C (  4)   C (  5)   N (  6)
   C (  2)  2.574219
   C (  3)  3.177926  1.359871
   C (  4)  3.105893  2.490659  1.435099
   C (  5)  2.405327  3.069687  2.520722  1.377526
   N (  6)  1.345433  3.156629  3.186244  2.506987  1.346818
   H (  7)  1.091624  3.522278  4.255457  4.167295  3.309861  2.031660
   H (  8)  3.469197  1.088797  2.100376  3.443549  4.149881  4.211757
   H (  9)  4.252782  2.098746  1.088200  2.152189  3.445302  4.250257
   H ( 10)  4.160633  3.421510  2.155102  1.087336  2.095674  3.400842
   H ( 11)  3.290535  4.145158  3.452138  2.095615  1.091944  2.008445
   C ( 12)  1.362928  1.581056  2.668714  3.223514  3.100892  2.495043
   H ( 13)  2.095394  2.334038  3.603575  4.297060  4.159047  3.398935
             H (  7)   H (  8)   H (  9)   H ( 10)   H ( 11)   C ( 12)
   H (  8)  4.286553
   H (  9)  5.320964  2.370318
   H ( 10)  5.200331  4.255475  2.407470
   H ( 11)  4.032582  5.216853  4.246971  2.326213
   C ( 12)  2.055182  2.232145  3.610573  4.302002  4.152720
   H ( 13)  2.290810  2.551885  4.432600  5.368504  5.187717  1.085997

 
 Applying Cartesian multipole field
    Component          Value
    ---------          -----
     (2,0,0)        1.00000E-11
     (0,2,0)        2.00000E-11
     (0,0,2)       -3.00000E-10
 Nucleus-field energy     =    -0.0000000078 hartrees
 Requested basis set is 6-31G(d)
 There are 40 shells and 117 basis functions
 A cutoff of  1.0D-14 yielded    789 shell pairs
 There are      7061 function pairs
 Smallest overlap matrix eigenvalue = 1.46E-03
 Guess MOs from core Hamiltonian diagonalization
 Mixing HOMO and LUMO in initial guess
 Adding  50% of the LUMO to the HOMO
 An unrestricted hybrid HF-DFT SCF calculation will be
 performed using Pulay DIIS extrapolation
 Exchange:     0.2000 Hartree-Fock + 0.0800 Slater + 0.7200 B88
 Correlation:  0.1900 VWN1RPA + 0.8100 LYP
 Using SG-1 standard quadrature grid
 SCF converges when DIIS error is below 1.0E-08
 using 4 threads for integral computing
 -------------------------------------------------------
 OpenMP Integral computing Module                
 Release: version 1.0, May 2013, Q-Chem Inc. Pittsburgh 
 -------------------------------------------------------
 -------------------------------------------------------
 OpenMP BLAS3 based DFT computing Module                
 Release: version 1.0, May 2013, Q-Chem Inc. Pittsburgh 
 -------------------------------------------------------
 ---------------------------------------
  Cycle       Energy         DIIS Error
 ---------------------------------------
    1    -238.5869670900      1.27E-01
    2    -221.7879863482      1.04E-01
    3    -238.0120302861      1.09E-01
    4    -282.9604993570      4.04E-02
    5    -284.1163864811      3.72E-02
    6    -286.6516368800      1.12E-02
    7    -286.8288847629      6.29E-03
    8    -286.8888285218      3.17E-03
    9    -286.9089390291      9.30E-04
   10    -286.9106420528      6.13E-04
   11    -286.9115215823      1.39E-04
   12    -286.9116852531      6.53E-05
   13    -286.9117262710      3.43E-05
   14    -286.9117548366      1.72E-05
   15    -286.9117798398      1.20E-05
   16    -286.9117853755      3.10E-06
   17    -286.9117863132      1.30E-06
   18    -286.9117866300      9.98E-07
   19    -286.9117867752      5.12E-07
   20    -286.9117867851      1.26E-07
   21    -286.9117867867      3.29E-08
   22    -286.9117867868      7.02E-09 Convergence criterion met
 ---------------------------------------
 <S^2> = 0.7746
 SCF time:  CPU 56.45 s  wall 32.50 s
 SCF   energy in the final basis set = -286.91178679
 Total energy in the final basis set = -286.91178679
 
 --------------------------------------------------------------
 
                    Orbital Energies (a.u.)
 --------------------------------------------------------------
 
 Alpha MOs
 -- Occupied --
-14.322 -10.230 -10.225 -10.219 -10.213 -10.210 -10.201  -0.922
 -0.812  -0.782  -0.698  -0.659  -0.555  -0.530  -0.513  -0.453
 -0.433  -0.418  -0.393  -0.391  -0.338  -0.320  -0.296  -0.246
 -0.170
 -- Virtual --
 -0.064   0.079   0.088   0.104   0.117   0.142   0.156   0.183
  0.192   0.202   0.264   0.312   0.348   0.379   0.414   0.481
  0.497   0.498   0.559   0.574   0.581   0.585   0.585   0.608
  0.617   0.635   0.648   0.653   0.715   0.720   0.828   0.839
  0.852   0.857   0.868   0.877   0.888   0.920   0.945   0.973
  1.012   1.035   1.043   1.130   1.169   1.188   1.294   1.306
  1.322   1.408   1.426   1.471   1.494   1.542   1.577   1.586
  1.646   1.693   1.788   1.820   1.861   1.923   1.928   1.989
  2.010   2.071   2.074   2.128   2.169   2.170   2.247   2.355
  2.368   2.433   2.451   2.521   2.572   2.593   2.617   2.724
  2.747   2.802   3.041   3.184   3.280   4.018   4.028   4.097
  4.209   4.245   4.520   4.572
 
 Beta MOs
 -- Occupied --
-14.314 -10.232 -10.227 -10.217 -10.213 -10.205 -10.196  -0.911
 -0.803  -0.774  -0.685  -0.656  -0.550  -0.528  -0.509  -0.451
 -0.432  -0.415  -0.388  -0.371  -0.337  -0.295  -0.271  -0.237
 -- Virtual --
 -0.084  -0.062   0.081   0.114   0.119   0.128   0.142   0.163
  0.185   0.193   0.206   0.265   0.316   0.351   0.381   0.417
  0.484   0.501   0.505   0.563   0.584   0.585   0.589   0.590
  0.612   0.621   0.640   0.650   0.672   0.722   0.726   0.831
  0.842   0.851   0.869   0.879   0.884   0.891   0.923   0.949
  0.976   1.014   1.037   1.044   1.135   1.174   1.191   1.305
  1.312   1.334   1.417   1.427   1.480   1.504   1.556   1.588
  1.595   1.653   1.698   1.795   1.824   1.866   1.928   1.934
  2.006   2.016   2.083   2.084   2.130   2.171   2.180   2.259
  2.362   2.379   2.443   2.455   2.535   2.576   2.602   2.626
  2.728   2.759   2.804   3.043   3.187   3.283   4.026   4.038
  4.105   4.214   4.244   4.526   4.578
 --------------------------------------------------------------
 
          Ground-State Mulliken Net Atomic Charges

     Atom                 Charge (a.u.)    Spin (a.u.)
  --------------------------------------------------------
      1 C                     0.039703      -0.117008
      2 C                    -0.138125       0.175597
      3 C                    -0.102635      -0.004593
      4 C                    -0.124887       0.393251
      5 C                     0.032803      -0.147321
      6 N                    -0.419220       0.383006
      7 H                     0.135816       0.003504
      8 H                     0.137431      -0.010679
      9 H                     0.147735      -0.001876
     10 H                     0.134923      -0.020313
     11 H                     0.141128       0.005256
     12 C                    -0.128894       0.360450
     13 H                     0.144222      -0.019275
  --------------------------------------------------------
  Sum of atomic charges =    -0.000000
  Sum of spin   charges =     1.000000

 -----------------------------------------------------------------
                    Cartesian Multipole Moments
 -----------------------------------------------------------------
    Charge (ESU x 10^10)
                 0.0000
    Dipole Moment (Debye)
         X      -0.5631      Y      -2.1119      Z       0.1429
       Tot       2.1903
    Quadrupole Moments (Debye-Ang)
        XX     -35.9875     XY      -1.5723     YY     -41.7949
        XZ      -3.5662     YZ       0.8376     ZZ     -41.7535
    Octopole Moments (Debye-Ang^2)
       XXX      -2.5563    XXY      -6.2222    XYY      -7.3332
       YYY     -34.4481    XXZ      -0.4063    XYZ       0.0647
       YYZ       1.9731    XZZ      -1.1111    YZZ      -5.1606
       ZZZ       1.1295
    Hexadecapole Moments (Debye-Ang^3)
      XXXX    -336.6708   XXXY      -5.1575   XXYY    -119.2630
      XYYY     -20.8025   YYYY    -419.9962   XXXZ      55.3737
      XXYZ      -2.7078   XYYZ      17.5207   YYYZ      -1.7066
      XXZZ     -73.5050   XYZZ      -3.0282   YYZZ     -87.6270
      XZZZ      75.5013   YZZZ      -8.5502   ZZZZ    -118.1445
 -----------------------------------------------------------------
 Calculating analytic gradient of the SCF energy
 Gradient of SCF Energy
            1           2           3           4           5           6
    1  -0.0115182  -0.0503672  -0.0080774   0.0046528  -0.0071590   0.0064226
    2  -0.0018934  -0.0140226  -0.0074613   0.0066979  -0.0101996  -0.0074635
    3   0.0058892   0.0235359   0.0033095  -0.0016886   0.0021872  -0.0033700
            7           8           9          10          11          12
    1  -0.0006264   0.0014183  -0.0009888   0.0001043   0.0027297   0.0587770
    2  -0.0040757   0.0003189   0.0005970  -0.0001206   0.0011699   0.0295446
    3  -0.0001320  -0.0007752   0.0003818   0.0000144  -0.0010130  -0.0272139
           13
    1   0.0046323
    2   0.0069086
    3  -0.0011252
 Max gradient component =       5.878E-02
 RMS gradient           =       1.527E-02
 Gradient time:  CPU 7.67 s  wall 2.97 s
 ----------------------------------------------------------------
             Standard Nuclear Orientation (Angstroms)
    I     Atom           X                Y                Z
 ----------------------------------------------------------------
    1      C       1.3679560545     0.8614032832    -0.5853323684
    2      C       0.2489834032    -1.4065511813    -0.2074881449
    3      C      -0.9662154998    -1.0814018283     0.3822898835
    4      C      -1.4243566091     0.2386840083     0.6806029031
    5      C      -0.7453455676     1.4275577717     0.4359697575
    6      N       0.4417355073     1.7253966833    -0.0987030296
    7      H       2.2509432818     1.3662945299    -0.9623295859
    8      H       0.4202885574    -2.4724856499    -0.3568487535
    9      H      -1.6472800717    -1.8973330653     0.6488714904
   10      H      -2.3985273604     0.3381742821     1.1465894541
   11      H      -1.2695916726     2.3324478608     0.7405883964
   12      C       1.3813412402    -0.5132390319    -0.6857561691
   13      H       2.3210404819    -0.9217322336    -1.1324325405
 ----------------------------------------------------------------
 Nuclear Repulsion Energy =   258.8242667810 hartrees
 There are       25 alpha and       24 beta electrons

                       Distance Matrix (Angstroms)
             C (  1)   C (  2)   C (  3)   C (  4)   C (  5)   N (  6)
   C (  2)  2.557046
   C (  3)  3.187341  1.389341
   C (  4)  3.128479  2.509098  1.428814
   C (  5)  2.414463  3.071629  2.519235  1.390799
   N (  6)  1.356900  3.139759  3.176759  2.509967  1.335569
   H (  7)  1.084762  3.502328  4.260203  4.180737  3.307074  2.036673
   H (  8)  3.473484  1.089895  2.098531  3.439399  4.146999  4.205867
   H (  9)  4.269137  2.137764  1.095746  2.147853  3.451625  4.248179
   H ( 10)  4.178483  3.447739  2.156587  1.084459  2.103508  3.397386
   H ( 11)  3.298287  4.145483  3.445981  2.100333  1.089244  2.000390
   C ( 12)  1.378371  1.519533  2.640938  3.210026  3.089945  2.497795
   H ( 13)  2.094579  2.320343  3.622973  4.319915  4.169145  3.407004
             H (  7)   H (  8)   H (  9)   H ( 10)   H ( 11)   C ( 12)
   H (  8)  4.295828
   H (  9)  5.333233  2.370045
   H ( 10)  5.207893  4.255098  2.410309
   H ( 11)  4.028343  5.210321  4.247600  2.327329
   C ( 12)  2.089341  2.206910  3.587408  4.286001  4.142443
   H ( 13)  2.295412  2.572785  4.457848  5.390327  5.195242  1.117775

 
 Applying Cartesian multipole field
    Component          Value
    ---------          -----
     (2,0,0)        1.00000E-11
     (0,2,0)        2.00000E-11
     (0,0,2)       -3.00000E-10
 Nucleus-field energy     =    -0.0000000078 hartrees
 Requested basis set is 6-31G(d)
 There are 40 shells and 117 basis functions
 A cutoff of  1.0D-14 yielded    789 shell pairs
 There are      7061 function pairs
 Smallest overlap matrix eigenvalue = 1.46E-03
 Guess MOs from core Hamiltonian diagonalization
 Mixing HOMO and LUMO in initial guess
 Adding  50% of the LUMO to the HOMO
 An unrestricted hybrid HF-DFT SCF calculation will be
 performed using Pulay DIIS extrapolation
 Exchange:     0.2000 Hartree-Fock + 0.0800 Slater + 0.7200 B88
 Correlation:  0.1900 VWN1RPA + 0.8100 LYP
 Using SG-1 standard quadrature grid
 SCF converges when DIIS error is below 1.0E-08
 using 4 threads for integral computing
 -------------------------------------------------------
 OpenMP Integral computing Module                
 Release: version 1.0, May 2013, Q-Chem Inc. Pittsburgh 
 -------------------------------------------------------
 -------------------------------------------------------
 OpenMP BLAS3 based DFT computing Module                
 Release: version 1.0, May 2013, Q-Chem Inc. Pittsburgh 
 -------------------------------------------------------
 ---------------------------------------
  Cycle       Energy         DIIS Error
 ---------------------------------------
    1    -238.8329284482      1.26E-01
    2    -227.0204891155      1.04E-01
    3    -243.3688841738      1.08E-01
    4    -282.0452535841      5.04E-02
    5    -281.3035436500      4.78E-02
    6    -286.4195054165      1.40E-02
    7    -286.5387744949      1.29E-02
    8    -286.8816878416      3.99E-03
    9    -286.9069491603      2.32E-03
   10    -286.9155533774      4.29E-04
   11    -286.9160376567      2.08E-04
   12    -286.9161822763      1.00E-04
   13    -286.9162814588      3.56E-05
   14    -286.9163167198      2.07E-05
   15    -286.9163290735      8.49E-06
   16    -286.9163344042      4.90E-06
   17    -286.9163350115      2.76E-06
   18    -286.9163356564      1.66E-06
   19    -286.9163358536      6.72E-07
   20    -286.9163358940      2.10E-07
   21    -286.9163358979      5.02E-08
   22    -286.9163358981      1.78E-08
   23    -286.9163358981      8.09E-09 Convergence criterion met
 ---------------------------------------
 <S^2> = 0.7724
 SCF time:  CPU 58.86 s  wall 35.59 s
 SCF   energy in the final basis set = -286.91633590
 Total energy in the final basis set = -286.91633590
 
 --------------------------------------------------------------
 
                    Orbital Energies (a.u.)
 --------------------------------------------------------------
 
 Alpha MOs
 -- Occupied --
-14.320 -10.232 -10.229 -10.219 -10.218 -10.211 -10.199  -0.921
 -0.810  -0.782  -0.691  -0.664  -0.554  -0.533  -0.510  -0.451
 -0.434  -0.415  -0.392  -0.390  -0.348  -0.317  -0.298  -0.244
 -0.163
 -- Virtual --
 -0.071   0.077   0.089   0.101   0.115   0.143   0.163   0.183
  0.191   0.210   0.258   0.312   0.349   0.376   0.413   0.482
  0.498   0.503   0.556   0.575   0.579   0.583   0.586   0.607
  0.619   0.623   0.646   0.654   0.710   0.715   0.818   0.836
  0.851   0.857   0.869   0.875   0.885   0.924   0.948   0.973
  1.011   1.030   1.038   1.127   1.167   1.189   1.296   1.308
  1.312   1.407   1.425   1.472   1.491   1.548   1.573   1.575
  1.666   1.714   1.779   1.825   1.851   1.911   1.917   2.003
  2.013   2.065   2.070   2.116   2.160   2.170   2.247   2.367
  2.377   2.407   2.441   2.521   2.568   2.584   2.614   2.725
  2.742   2.792   3.044   3.188   3.266   4.018   4.021   4.098
  4.195   4.243   4.525   4.574
 
 Beta MOs
 -- Occupied --
-14.313 -10.234 -10.230 -10.218 -10.216 -10.207 -10.194  -0.911
 -0.801  -0.775  -0.679  -0.661  -0.549  -0.531  -0.506  -0.449
 -0.432  -0.412  -0.387  -0.371  -0.346  -0.292  -0.273  -0.235
 -- Virtual --
 -0.079  -0.069   0.079   0.114   0.116   0.126   0.143   0.168
  0.185   0.193   0.215   0.260   0.317   0.352   0.378   0.416
  0.484   0.506   0.506   0.560   0.583   0.585   0.587   0.590
  0.611   0.623   0.628   0.649   0.672   0.711   0.726   0.820
  0.838   0.851   0.870   0.878   0.883   0.887   0.927   0.951
  0.977   1.013   1.032   1.040   1.132   1.172   1.192   1.307
  1.316   1.324   1.416   1.426   1.482   1.501   1.562   1.581
  1.586   1.671   1.719   1.787   1.828   1.855   1.915   1.924
  2.010   2.027   2.077   2.079   2.119   2.161   2.181   2.258
  2.374   2.388   2.419   2.443   2.533   2.570   2.595   2.624
  2.728   2.754   2.795   3.046   3.192   3.269   4.026   4.030
  4.105   4.200   4.243   4.530   4.581
 --------------------------------------------------------------
 
          Ground-State Mulliken Net Atomic Charges

     Atom                 Charge (a.u.)    Spin (a.u.)
  --------------------------------------------------------
      1 C                     0.035646      -0.084844
      2 C                    -0.137821       0.207866
      3 C                    -0.103804      -0.012808
      4 C                    -0.132460       0.409150
      5 C                     0.042525      -0.148955
      6 N                    -0.421260       0.365446
      7 H                     0.142754       0.002000
      8 H                     0.138273      -0.012225
      9 H                     0.148165      -0.001471
     10 H                     0.134215      -0.021191
     11 H                     0.141476       0.005307
     12 C                    -0.128434       0.309034
     13 H                     0.140726      -0.017309
  --------------------------------------------------------
  Sum of atomic charges =    -0.000000
  Sum of spin   charges =     1.000000

 -----------------------------------------------------------------
                    Cartesian Multipole Moments
 -----------------------------------------------------------------
    Charge (ESU x 10^10)
                -0.0000
    Dipole Moment (Debye)
         X      -0.5335      Y      -2.0220      Z       0.1357
       Tot       2.0956
    Quadrupole Moments (Debye-Ang)
        XX     -35.9746     XY      -1.3148     YY     -41.7772
        XZ      -3.5889     YZ       0.7222     ZZ     -41.8250
    Octopole Moments (Debye-Ang^2)
       XXX      -2.3139    XXY      -5.5397    XYY      -7.4122
       YYY     -33.9707    XXZ      -0.4666    XYZ      -0.1801
       YYZ       2.0288    XZZ      -1.1014    YZZ      -4.8744
       ZZZ       1.1995
    Hexadecapole Moments (Debye-Ang^3)
      XXXX    -337.0317   XXXY      -3.0400   XXYY    -118.8120
      XYYY     -19.1508   YYYY    -419.0443   XXXZ      55.3055
      XXYZ      -3.4267   XYYZ      17.4399   YYYZ      -2.4526
      XXZZ     -73.6936   XYZZ      -2.5097   YYZZ     -87.5203
      XZZZ      75.8345   YZZZ      -9.0007   ZZZZ    -118.7091
 -----------------------------------------------------------------
 Calculating analytic gradient of the SCF energy
 Gradient of SCF Energy
            1           2           3           4           5           6
    1   0.0065067  -0.0126839  -0.0229294  -0.0012102  -0.0013115  -0.0038964
    2   0.0120969  -0.0063141  -0.0008516  -0.0006321  -0.0005806  -0.0088145
    3  -0.0016592   0.0062621   0.0107397   0.0005629   0.0000687   0.0014165
            7           8           9          10          11          12
    1  -0.0036900  -0.0014900  -0.0058669   0.0016796   0.0037480   0.0197091
    2  -0.0030987  -0.0011486  -0.0019024   0.0003230  -0.0007858   0.0083872
    3   0.0014049   0.0005084   0.0025031  -0.0006853  -0.0016238  -0.0106610
           13
    1   0.0214349
    2   0.0033211
    3  -0.0088370
 Max gradient component =       2.293E-02
 RMS gradient           =       7.824E-03
 Gradient time:  CPU 7.68 s  wall 2.91 s
 FSM gradient convergence criteria satisfied
done with opt_step_by_gradient, Reactant, iter1
-Optimizing new product side node
 Using BFGS, step: 2 E_tol 0.0519564
 max_steps 6, node_spacing 0.2321976, sigma 0.7000000
 ----------------------------------------------------------------
             Standard Nuclear Orientation (Angstroms)
    I     Atom           X                Y                Z
 ----------------------------------------------------------------
    1      C       1.5320519873     0.2597672132    -0.6981331892
    2      C      -0.2324122899    -1.3405253063     0.0224644819
    3      C      -1.4604424488    -1.1797058244     0.6049829834
    4      C      -1.7174043804     0.2104101779     0.8154662949
    5      C      -0.6553551895     0.9531522024     0.3678504905
    6      N       0.2898169090     0.1041195492    -0.1383902255
    7      H       2.0849535115    -0.6205905953    -1.0253283838
    8      H       0.2918096535    -2.2321753994    -0.2891272779
    9      H      -2.1218435477    -1.9952463402     0.8646933316
   10      H      -2.6073669623     0.6299321889     1.2648669574
   11      H      -0.4870423493     2.0189062252     0.3578207397
   12      C       2.0610852870     1.4517581944    -0.8733133009
   13      H       3.0195379809     1.7357784236    -1.2812653374
 ----------------------------------------------------------------
 Nuclear Repulsion Energy =   260.4197688164 hartrees
 There are       25 alpha and       24 beta electrons

                       Distance Matrix (Angstroms)
             C (  1)   C (  2)   C (  3)   C (  4)   C (  5)   N (  6)
   C (  2)  2.488681
   C (  3)  3.567242  1.368667
   C (  4)  3.585022  2.288985  1.429250
   C (  5)  2.530189  2.357780  2.292047  1.371121
   N (  6)  1.371381  1.544538  2.294389  2.224877  1.367657
   H (  7)  1.089856  2.643172  3.942126  4.305463  3.453535  2.129408
   H (  8)  2.813408  1.080249  2.231034  3.350118  3.387485  2.341154
   H (  9)  4.569296  2.169783  1.081669  2.242970  3.330239  3.351063
   H ( 10)  4.596214  3.326661  2.241801  1.081662  2.172432  3.261792
   H ( 11)  2.878602  3.385717  3.352569  2.234701  1.079009  2.125122
   C ( 12)  1.315829  3.722821  4.638008  4.320869  3.027894  2.343850
   H ( 13)  2.175148  4.662460  5.668175  5.400153  4.103282  3.379327
             H (  7)   H (  8)   H (  9)   H ( 10)   H ( 11)   C ( 12)
   H (  8)  2.520826
   H (  9)  4.812380  2.685733
   H ( 10)  5.369048  4.360250  2.699525
   H ( 11)  3.936395  4.369994  4.363819  2.692166
   C ( 12)  2.078054  4.128314  5.692047  5.200160  2.886226
   H ( 13)  2.547828  4.916248  6.705184  6.274372  3.881091  1.079687

 
 Applying Cartesian multipole field
    Component          Value
    ---------          -----
     (2,0,0)        1.00000E-11
     (0,2,0)        2.00000E-11
     (0,0,2)       -3.00000E-10
 Nucleus-field energy     =    -0.0000000139 hartrees
 Requested basis set is 6-31G(d)
 There are 40 shells and 117 basis functions
 A cutoff of  1.0D-14 yielded    783 shell pairs
 There are      7003 function pairs
 Smallest overlap matrix eigenvalue = 1.08E-03
 Guess MOs from core Hamiltonian diagonalization
 Mixing HOMO and LUMO in initial guess
 Adding  50% of the LUMO to the HOMO
 An unrestricted hybrid HF-DFT SCF calculation will be
 performed using Pulay DIIS extrapolation
 Exchange:     0.2000 Hartree-Fock + 0.0800 Slater + 0.7200 B88
 Correlation:  0.1900 VWN1RPA + 0.8100 LYP
 Using SG-1 standard quadrature grid
 SCF converges when DIIS error is below 1.0E-08
 using 4 threads for integral computing
 -------------------------------------------------------
 OpenMP Integral computing Module                
 Release: version 1.0, May 2013, Q-Chem Inc. Pittsburgh 
 -------------------------------------------------------
 -------------------------------------------------------
 OpenMP BLAS3 based DFT computing Module                
 Release: version 1.0, May 2013, Q-Chem Inc. Pittsburgh 
 -------------------------------------------------------
 ---------------------------------------
  Cycle       Energy         DIIS Error
 ---------------------------------------
    1    -224.2796648104      1.48E-01
    2    -187.7656707893      1.34E-01
    3    -233.1956830983      1.18E-01
    4    -256.5434126566      1.08E-01
    5    -283.0598148576      3.20E-02
    6    -284.3311569796      3.10E-02
    7    -286.7647365842      5.92E-03
    8    -286.8264308972      3.66E-03
    9    -286.8488400917      1.22E-03
   10    -286.8514277477      5.10E-04
   11    -286.8521106290      1.86E-04
   12    -286.8522395102      1.06E-04
   13    -286.8523073411      2.17E-05
   14    -286.8523205973      8.73E-06
   15    -286.8523296535      3.26E-06
   16    -286.8523358387      1.41E-06
   17    -286.8523402707      1.17E-06
   18    -286.8523411221      4.31E-07
   19    -286.8523412189      1.24E-07
   20    -286.8523412284      3.45E-08
   21    -286.8523412310      1.42E-08
   22    -286.8523412315      5.49E-09 Convergence criterion met
 ---------------------------------------
 <S^2> = 0.7632
 SCF time:  CPU 55.12 s  wall 33.17 s
 SCF   energy in the final basis set = -286.85234123
 Total energy in the final basis set = -286.85234123
 
 --------------------------------------------------------------
 
                    Orbital Energies (a.u.)
 --------------------------------------------------------------
 
 Alpha MOs
 -- Occupied --
-14.390 -10.233 -10.214 -10.211 -10.203 -10.178 -10.172  -0.970
 -0.817  -0.733  -0.717  -0.614  -0.569  -0.547  -0.508  -0.471
 -0.441  -0.413  -0.399  -0.384  -0.375  -0.304  -0.257  -0.226
 -0.206
 -- Virtual --
 -0.009   0.064   0.096   0.098   0.112   0.136   0.152   0.174
  0.174   0.207   0.229   0.288   0.327   0.372   0.406   0.430
  0.482   0.509   0.536   0.547   0.562   0.588   0.592   0.593
  0.606   0.622   0.628   0.661   0.672   0.704   0.778   0.818
  0.825   0.846   0.848   0.854   0.889   0.916   0.928   0.950
  0.991   1.031   1.091   1.119   1.180   1.217   1.289   1.337
  1.348   1.387   1.420   1.468   1.491   1.512   1.532   1.540
  1.683   1.741   1.775   1.867   1.905   1.980   1.999   2.004
  2.041   2.111   2.127   2.136   2.219   2.249   2.254   2.305
  2.332   2.385   2.482   2.525   2.596   2.613   2.666   2.693
  2.772   2.881   3.005   3.069   3.207   3.948   4.070   4.116
  4.157   4.276   4.452   4.471
 
 Beta MOs
 -- Occupied --
-14.390 -10.234 -10.214 -10.211 -10.187 -10.178 -10.172  -0.969
 -0.813  -0.727  -0.708  -0.604  -0.567  -0.545  -0.495  -0.463
 -0.438  -0.414  -0.398  -0.383  -0.373  -0.302  -0.223  -0.201
 -- Virtual --
 -0.085  -0.001   0.067   0.098   0.103   0.112   0.137   0.156
  0.174   0.179   0.210   0.233   0.291   0.328   0.388   0.411
  0.437   0.495   0.510   0.537   0.549   0.568   0.588   0.594
  0.601   0.616   0.628   0.638   0.671   0.686   0.705   0.784
  0.819   0.826   0.846   0.851   0.856   0.902   0.923   0.931
  0.953   0.998   1.036   1.101   1.121   1.182   1.221   1.293
  1.339   1.348   1.386   1.429   1.472   1.492   1.513   1.532
  1.540   1.742   1.743   1.814   1.878   1.910   1.982   2.003
  2.009   2.052   2.122   2.137   2.141   2.219   2.250   2.262
  2.307   2.336   2.386   2.482   2.543   2.601   2.617   2.669
  2.693   2.782   2.883   3.007   3.071   3.215   3.948   4.104
  4.116   4.158   4.280   4.453   4.472
 --------------------------------------------------------------
 
          Ground-State Mulliken Net Atomic Charges

     Atom                 Charge (a.u.)    Spin (a.u.)
  --------------------------------------------------------
      1 C                     0.077617      -0.128354
      2 C                    -0.007050      -0.009157
      3 C                    -0.163616      -0.000924
      4 C                    -0.196716      -0.015388
      5 C                     0.072000       0.011598
      6 N                    -0.430060       0.013801
      7 H                     0.171534       0.059841
      8 H                     0.157574       0.000439
      9 H                     0.132893       0.000515
     10 H                     0.128472       0.001109
     11 H                     0.161326       0.000299
     12 C                    -0.260667       1.062434
     13 H                     0.156693       0.003788
  --------------------------------------------------------
  Sum of atomic charges =    -0.000000
  Sum of spin   charges =     1.000000

 -----------------------------------------------------------------
                    Cartesian Multipole Moments
 -----------------------------------------------------------------
    Charge (ESU x 10^10)
                -0.0000
    Dipole Moment (Debye)
         X       0.8452      Y      -0.6650      Z      -0.4149
       Tot       1.1527
    Quadrupole Moments (Debye-Ang)
        XX     -36.8030     XY      -0.9456     YY     -36.9334
        XZ      -3.8631     YZ       1.0463     ZZ     -43.1554
    Octopole Moments (Debye-Ang^2)
       XXX       8.0589    XXY      -2.1265    XYY      -0.7524
       YYY     -11.6978    XXZ      -2.8484    XYZ      -0.0884
       YYZ       0.0566    XZZ       1.8687    YZZ      -2.4410
       ZZZ      -1.8595
    Hexadecapole Moments (Debye-Ang^3)
      XXXX    -482.1245   XXXY     -67.7058   XXYY    -126.5495
      XYYY     -81.3850   YYYY    -289.3143   XXXZ      72.4111
      XXYZ       2.0058   XYYZ      27.5313   YYYZ      32.2941
      XXZZ    -102.2464   XYZZ     -27.5075   YYZZ     -77.7300
      XZZZ     111.4416   YZZZ      32.3967   ZZZZ    -150.9234
 -----------------------------------------------------------------
 Calculating analytic gradient of the SCF energy
 Gradient of SCF Energy
            1           2           3           4           5           6
    1  -0.0051547   0.0025057  -0.0058262   0.0074603  -0.0044666   0.0224865
    2  -0.0285093  -0.0716879   0.0020206  -0.0026060   0.0061522   0.1078010
    3   0.0020779  -0.0042711   0.0022881  -0.0042464   0.0034093  -0.0052333
            7           8           9          10          11          12
    1   0.0063026  -0.0068388   0.0018025   0.0006937   0.0002839  -0.0186697
    2   0.0045422  -0.0066342  -0.0002311   0.0004096  -0.0012003  -0.0037804
    3  -0.0031346   0.0027198  -0.0007802  -0.0001261  -0.0002834   0.0074463
           13
    1  -0.0005792
    2  -0.0062764
    3   0.0001336
 Max gradient component =       1.078E-01
 RMS gradient           =       2.206E-02
 Gradient time:  CPU 7.26 s  wall 2.71 s
 ----------------------------------------------------------------
             Standard Nuclear Orientation (Angstroms)
    I     Atom           X                Y                Z
 ----------------------------------------------------------------
    1      C       1.5353347538     0.2785537886    -0.6977451046
    2      C      -0.2292281347    -1.3011861721     0.0233879284
    3      C      -1.4502743750    -1.1815170067     0.6003093847
    4      C      -1.7202669618     0.2107221730     0.8167459860
    5      C      -0.6579039214     0.9611305236     0.3692736325
    6      N       0.2767660873     0.0607150988    -0.1358906412
    7      H       2.0852238346    -0.6188974946    -1.0249006336
    8      H       0.2926034422    -2.2429899656    -0.2904428307
    9      H      -2.1176686318    -1.9946382710     0.8630079308
   10      H      -2.6077901446     0.6220358852     1.2647331767
   11      H      -0.5064613935     2.0339248244     0.3679008132
   12      C       2.0717426258     1.4531742690    -0.8803499335
   13      H       3.0253123968     1.7145534673    -1.2834428877
 ----------------------------------------------------------------
 Nuclear Repulsion Energy =   260.9030335919 hartrees
 There are       25 alpha and       24 beta electrons

                       Distance Matrix (Angstroms)
             C (  1)   C (  2)   C (  3)   C (  4)   C (  5)   N (  6)
   C (  2)  2.475741
   C (  3)  3.567999  1.355770
   C (  4)  3.591271  2.266822  1.434598
   C (  5)  2.532733  2.328406  2.296120  1.375485
   N (  6)  1.395396  1.461566  2.251177  2.217692  1.392676
   H (  7)  1.102192  2.630801  3.931615  4.308328  3.459040  2.126671
   H (  8)  2.840503  1.121513  2.226609  3.361282  3.406623  2.308938
   H (  9)  4.576875  2.179919  1.084247  2.241357  3.333355  3.309923
   H ( 10)  4.597258  3.301103  2.243681  1.075904  2.172300  3.255379
   H ( 11)  2.895835  3.364300  3.359146  2.235812  1.083432  2.181928
   C ( 12)  1.304152  3.701042  4.640965  4.336261  3.042143  2.390628
   H ( 13)  2.150621  4.625422  5.653903  5.403039  4.106726  3.406841
             H (  7)   H (  8)   H (  9)   H ( 10)   H ( 11)   C ( 12)
   H (  8)  2.527962
   H (  9)  4.808447  2.683568
   H ( 10)  5.367189  4.363396  2.692320
   H ( 11)  3.961590  4.400446  4.366972  2.685763
   C ( 12)  2.077151  4.144268  5.698936  5.214422  2.922762
   H ( 13)  2.528953  4.910794  6.694446  6.278427  3.911823  1.067754

 
 Applying Cartesian multipole field
    Component          Value
    ---------          -----
     (2,0,0)        1.00000E-11
     (0,2,0)        2.00000E-11
     (0,0,2)       -3.00000E-10
 Nucleus-field energy     =    -0.0000000140 hartrees
 Requested basis set is 6-31G(d)
 There are 40 shells and 117 basis functions
 A cutoff of  1.0D-14 yielded    781 shell pairs
 There are      6992 function pairs
 Smallest overlap matrix eigenvalue = 1.06E-03
 Guess MOs from core Hamiltonian diagonalization
 Mixing HOMO and LUMO in initial guess
 Adding  50% of the LUMO to the HOMO
 An unrestricted hybrid HF-DFT SCF calculation will be
 performed using Pulay DIIS extrapolation
 Exchange:     0.2000 Hartree-Fock + 0.0800 Slater + 0.7200 B88
 Correlation:  0.1900 VWN1RPA + 0.8100 LYP
 Using SG-1 standard quadrature grid
 SCF converges when DIIS error is below 1.0E-08
 using 4 threads for integral computing
 -------------------------------------------------------
 OpenMP Integral computing Module                
 Release: version 1.0, May 2013, Q-Chem Inc. Pittsburgh 
 -------------------------------------------------------
 -------------------------------------------------------
 OpenMP BLAS3 based DFT computing Module                
 Release: version 1.0, May 2013, Q-Chem Inc. Pittsburgh 
 -------------------------------------------------------
 ---------------------------------------
  Cycle       Energy         DIIS Error
 ---------------------------------------
    1    -224.1827620568      1.47E-01
    2    -180.8555031376      1.46E-01
    3    -232.5854832077      1.15E-01
    4    -237.9959414380      1.29E-01
    5    -283.5248691340      2.91E-02
    6    -280.7624533423      4.64E-02
    7    -286.3128814085      1.34E-02
    8    -286.7610378731      7.35E-03
    9    -286.8558758677      1.70E-03
   10    -286.8616156141      5.80E-04
   11    -286.8623430675      2.66E-04
   12    -286.8625441970      1.16E-04
   13    -286.8626187884      6.74E-05
   14    -286.8626536482      3.99E-05
   15    -286.8626736064      1.98E-05
   16    -286.8626841753      7.19E-06
   17    -286.8626864640      1.33E-06
   18    -286.8626869530      5.58E-07
   19    -286.8626871000      3.02E-07
   20    -286.8626871940      1.43E-07
   21    -286.8626872059      2.20E-08
   22    -286.8626872059      5.95E-09 Convergence criterion met
 ---------------------------------------
 <S^2> = 0.7618
 SCF time:  CPU 54.93 s  wall 34.52 s
 SCF   energy in the final basis set = -286.86268721
 Total energy in the final basis set = -286.86268721
 
 --------------------------------------------------------------
 
                    Orbital Energies (a.u.)
 --------------------------------------------------------------
 
 Alpha MOs
 -- Occupied --
-14.392 -10.235 -10.213 -10.209 -10.205 -10.172 -10.171  -0.973
 -0.816  -0.734  -0.721  -0.612  -0.567  -0.546  -0.506  -0.473
 -0.431  -0.415  -0.410  -0.384  -0.374  -0.304  -0.258  -0.223
 -0.213
 -- Virtual --
 -0.005   0.071   0.093   0.099   0.113   0.138   0.155   0.173
  0.176   0.216   0.228   0.282   0.334   0.372   0.392   0.436
  0.488   0.508   0.536   0.550   0.561   0.589   0.593   0.602
  0.603   0.622   0.624   0.652   0.673   0.706   0.783   0.804
  0.823   0.844   0.849   0.852   0.890   0.917   0.929   0.953
  0.984   1.034   1.097   1.122   1.184   1.214   1.282   1.339
  1.348   1.385   1.413   1.466   1.496   1.497   1.536   1.544
  1.680   1.760   1.796   1.869   1.912   1.978   2.007   2.016
  2.046   2.097   2.144   2.166   2.209   2.245   2.256   2.302
  2.343   2.367   2.500   2.547   2.597   2.621   2.667   2.705
  2.770   2.872   3.028   3.051   3.186   3.949   4.075   4.121
  4.160   4.269   4.460   4.471
 
 Beta MOs
 -- Occupied --
-14.391 -10.236 -10.213 -10.209 -10.189 -10.173 -10.171  -0.972
 -0.811  -0.723  -0.717  -0.602  -0.565  -0.545  -0.493  -0.464
 -0.428  -0.416  -0.407  -0.383  -0.374  -0.301  -0.219  -0.208
 -- Virtual --
 -0.088   0.003   0.074   0.094   0.104   0.115   0.141   0.156
  0.176   0.178   0.221   0.229   0.286   0.336   0.387   0.398
  0.443   0.500   0.508   0.537   0.554   0.567   0.589   0.594
  0.606   0.619   0.628   0.628   0.672   0.680   0.707   0.788
  0.805   0.824   0.849   0.850   0.853   0.900   0.928   0.930
  0.956   0.991   1.039   1.106   1.125   1.186   1.219   1.286
  1.341   1.348   1.385   1.423   1.470   1.498   1.498   1.536
  1.545   1.739   1.780   1.813   1.881   1.918   1.981   2.009
  2.024   2.054   2.112   2.154   2.168   2.212   2.245   2.263
  2.306   2.345   2.367   2.502   2.564   2.601   2.626   2.672
  2.705   2.779   2.875   3.029   3.054   3.194   3.950   4.108
  4.121   4.160   4.273   4.461   4.472
 --------------------------------------------------------------
 
          Ground-State Mulliken Net Atomic Charges

     Atom                 Charge (a.u.)    Spin (a.u.)
  --------------------------------------------------------
      1 C                     0.076677      -0.128497
      2 C                     0.022701      -0.004818
      3 C                    -0.176233      -0.003036
      4 C                    -0.191666      -0.011250
      5 C                     0.055057       0.009580
      6 N                    -0.436402       0.016178
      7 H                     0.166971       0.067629
      8 H                     0.154455       0.000168
      9 H                     0.130116       0.000705
     10 H                     0.126570       0.000946
     11 H                     0.163099       0.000185
     12 C                    -0.252074       1.051016
     13 H                     0.160729       0.001193
  --------------------------------------------------------
  Sum of atomic charges =     0.000000
  Sum of spin   charges =     1.000000

 -----------------------------------------------------------------
                    Cartesian Multipole Moments
 -----------------------------------------------------------------
    Charge (ESU x 10^10)
                 0.0000
    Dipole Moment (Debye)
         X       0.9762      Y      -0.5677      Z      -0.4639
       Tot       1.2209
    Quadrupole Moments (Debye-Ang)
        XX     -36.6926     XY      -0.8074     YY     -36.9642
        XZ      -3.8742     YZ       0.9849     ZZ     -43.1221
    Octopole Moments (Debye-Ang^2)
       XXX       8.9217    XXY      -1.4899    XYY      -0.5704
       YYY     -11.2144    XXZ      -3.0528    XYZ      -0.4149
       YYZ       0.0469    XZZ       2.0177    YZZ      -2.4123
       ZZZ      -1.9952
    Hexadecapole Moments (Debye-Ang^3)
      XXXX    -480.5731   XXXY     -65.8462   XXYY    -126.2164
      XYYY     -81.0971   YYYY    -287.1438   XXXZ      72.0590
      XXYZ       1.5206   XYYZ      27.5953   YYYZ      32.2967
      XXZZ    -102.0749   XYZZ     -27.0406   YYZZ     -77.3622
      XZZZ     111.4817   YZZZ      32.0183   ZZZZ    -150.9837
 -----------------------------------------------------------------
 Calculating analytic gradient of the SCF energy
 Gradient of SCF Energy
            1           2           3           4           5           6
    1   0.0088579  -0.0162191   0.0129252   0.0001263  -0.0013858   0.0033821
    2   0.0047209  -0.0214355  -0.0054014  -0.0020570   0.0203543   0.0522352
    3  -0.0018363   0.0079622  -0.0069224  -0.0008283   0.0029962  -0.0002389
            7           8           9          10          11          12
    1   0.0072856   0.0037550  -0.0013620   0.0043940  -0.0034473  -0.0102289
    2  -0.0024246  -0.0286015  -0.0004292  -0.0010640   0.0037462  -0.0109195
    3  -0.0042766  -0.0039021   0.0006836  -0.0019652   0.0018455   0.0030577
           13
    1  -0.0080830
    2  -0.0087239
    3   0.0034247
 Max gradient component =       5.224E-02
 RMS gradient           =       1.206E-02
 Gradient time:  CPU 7.46 s  wall 2.95 s
 FSM gradient convergence criteria satisfied
 After opt distance between the previous and current R_nodes (Angstroms): 0.2174
 After opt distance between the previous and current P_nodes (Angstroms): 0.2355
-Printing perpgrad.txt, Vfile.txt, and stringfile.txt

STARTING FREEZING STRING ITERATION # 2
 The distance between the innermost nodes (Angstroms): 4.603
-Adding two new nodes
 The distance between the previous and current R_nodes (Angstroms): 0.2344
 The distance between the previous and current P_nodes (Angstroms): 0.2352
-Optimizing new reactant side node
 Using BFGS, step: 3 E_tol 0.0520
 max_steps 6, node_spacing 0.2322, sigma 0.7000
 ----------------------------------------------------------------
             Standard Nuclear Orientation (Angstroms)
    I     Atom           X                Y                Z
 ----------------------------------------------------------------
    1      C       1.3883192728     0.8531886365    -0.5959062128
    2      C       0.1966124352    -1.4073572192    -0.1826453695
    3      C      -1.0149526182    -1.0916344922     0.4044819858
    4      C      -1.4587657829     0.2309869865     0.6959610098
    5      C      -0.7578910995     1.3969401042     0.4381057942
    6      N       0.4313202839     1.6599761196    -0.0996241549
    7      H       2.2568778313     1.3898595777    -0.9642782841
    8      H       0.3817330179    -2.4736745765    -0.3401781344
    9      H      -1.6959600739    -1.9063602650     0.6729143291
   10      H      -2.4288366354     0.3504800325     1.1649587631
   11      H      -1.2446581559     2.3263778898     0.7307480004
   12      C       1.4792217976    -0.4939382223    -0.7424916775
   13      H       2.4359114622    -0.8636068209    -1.1735309979
 ----------------------------------------------------------------
 Nuclear Repulsion Energy =   257.2082226889 hartrees
 There are       25 alpha and       24 beta electrons

                       Distance Matrix (Angstroms)
             C (  1)   C (  2)   C (  3)   C (  4)   C (  5)   N (  6)
   C (  2)  2.588632
   C (  3)  3.249435  1.382855
   C (  4)  3.187781  2.489257  1.425222
   C (  5)  2.443576  3.026631  2.502042  1.384616
   N (  6)  1.346495  3.077420  3.149157  2.499478  1.331377
   H (  7)  1.085407  3.560908  4.328532  4.231476  3.324991  2.037952
   H (  8)  3.485202  1.093672  2.101258  3.431649  4.109273  4.140941
   H (  9)  4.328717  2.136075  1.095265  2.150592  3.441933  4.223848
   H ( 10)  4.233679  3.434969  2.158029  1.084101  2.101298  3.390346
   H ( 11)  3.295887  4.105158  3.441224  2.106589  1.089237  1.985576
   C ( 12)  1.358124  1.671182  2.809572  3.350587  3.158149  2.480065
   H ( 13)  2.092483  2.508382  3.801392  4.456641  4.231763  3.397077
             H (  7)   H (  8)   H (  9)   H ( 10)   H ( 11)   C ( 12)
   H (  8)  4.339650
   H (  9)  5.400962  2.380128
   H ( 10)  5.250703  4.259177  2.423333
   H ( 11)  4.001367  5.180013  4.257122  2.344140
   C ( 12)  2.050032  2.299064  3.752345  4.429936  4.188573
   H ( 13)  2.270231  2.739789  4.644250  5.532478  5.229615  1.112522

 
 Applying Cartesian multipole field
    Component          Value
    ---------          -----
     (2,0,0)        1.00000E-11
     (0,2,0)        2.00000E-11
     (0,0,2)       -3.00000E-10
 Nucleus-field energy     =    -0.0000000088 hartrees
 Requested basis set is 6-31G(d)
 There are 40 shells and 117 basis functions
 A cutoff of  1.0D-14 yielded    789 shell pairs
 There are      7061 function pairs
 Smallest overlap matrix eigenvalue = 1.61E-03
 Guess MOs from core Hamiltonian diagonalization
 Mixing HOMO and LUMO in initial guess
 Adding  50% of the LUMO to the HOMO
 An unrestricted hybrid HF-DFT SCF calculation will be
 performed using Pulay DIIS extrapolation
 Exchange:     0.2000 Hartree-Fock + 0.0800 Slater + 0.7200 B88
 Correlation:  0.1900 VWN1RPA + 0.8100 LYP
 Using SG-1 standard quadrature grid
 SCF converges when DIIS error is below 1.0E-08
 using 4 threads for integral computing
 -------------------------------------------------------
 OpenMP Integral computing Module                
 Release: version 1.0, May 2013, Q-Chem Inc. Pittsburgh 
 -------------------------------------------------------
 -------------------------------------------------------
 OpenMP BLAS3 based DFT computing Module                
 Release: version 1.0, May 2013, Q-Chem Inc. Pittsburgh 
 -------------------------------------------------------
 ---------------------------------------
  Cycle       Energy         DIIS Error
 ---------------------------------------
    1    -237.2629211698      1.29E-01
    2    -219.9764669616      1.08E-01
    3    -240.1980040273      1.03E-01
    4    -278.3156567600      6.24E-02
    5    -280.6473235058      4.65E-02
    6    -286.4482239745      1.36E-02
    7    -286.2894211263      1.58E-02
    8    -286.8216886847      5.26E-03
    9    -286.8628580829      3.52E-03
   10    -286.8880340703      7.64E-04
   11    -286.8893109415      2.67E-04
   12    -286.8895404075      9.01E-05
   13    -286.8896331835      4.96E-05
   14    -286.8896872441      2.11E-05
   15    -286.8897002583      8.71E-06
   16    -286.8897047034      3.06E-06
   17    -286.8897055795      1.65E-06
   18    -286.8897058203      1.14E-06
   19    -286.8897058410      5.90E-07
   20    -286.8897058527      1.90E-07
   21    -286.8897058561      8.34E-08
   22    -286.8897058567      3.18E-08
   23    -286.8897058568      1.38E-08
   24    -286.8897058568      4.98E-09 Convergence criterion met
 ---------------------------------------
 <S^2> = 0.7818
 SCF time:  CPU 60.55 s  wall 26.73 s
 SCF   energy in the final basis set = -286.88970586
 Total energy in the final basis set = -286.88970586
 
 --------------------------------------------------------------
 
                    Orbital Energies (a.u.)
 --------------------------------------------------------------
 
 Alpha MOs
 -- Occupied --
-14.320 -10.230 -10.227 -10.224 -10.219 -10.218 -10.200  -0.921
 -0.808  -0.778  -0.696  -0.655  -0.557  -0.526  -0.506  -0.454
 -0.430  -0.418  -0.392  -0.391  -0.334  -0.318  -0.293  -0.238
 -0.172
 -- Virtual --
 -0.063   0.075   0.079   0.108   0.111   0.125   0.144   0.183
  0.190   0.199   0.256   0.312   0.341   0.370   0.416   0.478
  0.486   0.498   0.566   0.571   0.575   0.578   0.586   0.605
  0.618   0.638   0.646   0.649   0.713   0.723   0.815   0.835
  0.853   0.862   0.870   0.880   0.886   0.903   0.946   0.971
  0.997   1.038   1.056   1.130   1.160   1.201   1.280   1.292
  1.339   1.408   1.411   1.463   1.504   1.550   1.578   1.593
  1.610   1.673   1.787   1.822   1.853   1.923   1.931   1.942
  1.999   2.055   2.088   2.109   2.159   2.190   2.248   2.311
  2.331   2.432   2.449   2.500   2.548   2.594   2.623   2.700
  2.753   2.799   3.043   3.119   3.306   3.997   4.026   4.095
  4.202   4.256   4.493   4.569
 
 Beta MOs
 -- Occupied --
[...]
      5 C                     0.066762      -0.174886
      6 N                    -0.326556       0.295966
      7 H                     0.141631      -0.001551
      8 H                     0.154293      -0.017600
      9 H                     0.143771       0.006428
     10 H                     0.149841      -0.021561
     11 H                     0.146616       0.006092
     12 C                    -0.208075       0.325158
     13 H                     0.120197      -0.015949
  --------------------------------------------------------
  Sum of atomic charges =     0.000000
  Sum of spin   charges =     1.000000

 -----------------------------------------------------------------
                    Cartesian Multipole Moments
 -----------------------------------------------------------------
    Charge (ESU x 10^10)
                 0.0000
    Dipole Moment (Debye)
         X      -1.3958      Y       1.0774      Z       0.6298
       Tot       1.8723
    Quadrupole Moments (Debye-Ang)
        XX     -37.3339     XY       1.4114     YY     -36.9759
        XZ      -3.4671     YZ      -0.2596     ZZ     -42.0176
    Octopole Moments (Debye-Ang^2)
       XXX      -5.4796    XXY       3.8859    XYY      -6.0650
       YYY      -0.9129    XXZ       2.1816    XYZ      -2.3311
       YYZ       2.9518    XZZ      -1.4118    YZZ       2.2960
       ZZZ       3.2682
    Hexadecapole Moments (Debye-Ang^3)
      XXXX    -473.8550   XXXY       1.0745   XXYY    -133.3813
      XYYY      -1.0907   YYYY    -275.6516   XXXZ      78.5101
      XXYZ      -2.2468   XYYZ      30.5815   YYYZ       3.1532
      XXZZ    -100.4042   XYZZ       0.3242   YYZZ     -75.2490
      XZZZ     106.7168   YZZZ       0.7480   ZZZZ    -150.2049
 -----------------------------------------------------------------
 Calculating analytic gradient of the SCF energy
 Gradient of SCF Energy
            1           2           3           4           5           6
    1  -0.0052720   0.0091657  -0.0067351   0.0004985  -0.0090084  -0.0013940
    2  -0.0204120  -0.0086416   0.0096325  -0.0011336  -0.0058510   0.0171875
    3   0.0112144  -0.0210685   0.0040268   0.0043438   0.0149638  -0.0175761
            7           8           9          10          11          12
    1  -0.0013542  -0.0095992  -0.0010250  -0.0061709  -0.0029862   0.0215696
    2  -0.0175519   0.0064220   0.0022634   0.0034884  -0.0032036   0.0044485
    3  -0.0033011   0.0104604  -0.0000841  -0.0015402   0.0040805   0.0086546
           13
    1   0.0123111
    2   0.0133515
    3  -0.0141743
 Max gradient component =       2.157E-02
 RMS gradient           =       1.018E-02
 Gradient time:  CPU 7.64 s  wall 2.89 s
 ----------------------------------------------------------------
             Standard Nuclear Orientation (Angstroms)
    I     Atom           X                Y                Z
 ----------------------------------------------------------------
    1      C       1.4458318438     0.7057525150    -0.7449582183
    2      C      -0.0120184566    -1.3547347853    -0.1321867830
    3      C      -1.1956105472    -1.0687311247     0.5199384529
    4      C      -1.6511493162     0.2245177675     0.8623329062
    5      C      -0.8056017498     1.2534311080     0.4216114766
    6      N       0.1925365276     0.8596316154    -0.3306020768
    7      H       1.9775167516     1.5234811943    -1.2149299517
    8      H       0.2102668331    -2.3964650164    -0.2602603004
    9      H      -1.8420081830    -1.9100595381     0.7793176943
   10      H      -2.6152042596     0.4461500806     1.3258603048
   11      H      -1.0411658985     2.2932457859     0.6613593445
   12      C       2.1154055567    -0.4670933852    -0.7694736334
   13      H       3.1572472536    -0.3762773849    -1.2006996883
 ----------------------------------------------------------------
 Nuclear Repulsion Energy =   255.2637427673 hartrees
 There are       25 alpha and       24 beta electrons

                       Distance Matrix (Angstroms)
             C (  1)   C (  2)   C (  3)   C (  4)   C (  5)   N (  6)
   C (  2)  2.597388
   C (  3)  3.424321  1.381288
   C (  4)  3.522253  2.483920  1.413238
   C (  5)  2.594184  2.781905  2.356738  1.402800
   N (  6)  1.328954  2.232628  2.523679  2.285966  1.310413
   H (  7)  1.082701  3.662610  4.449502  4.378304  3.239899  2.099735
   H (  8)  3.374212  1.072854  2.085205  3.405090  3.849504  3.256905
   H (  9)  4.469427  2.118511  1.092218  2.144700  3.348099  3.611438
   H ( 10)  4.565928  3.485063  2.227021  1.092420  2.178079  3.286068
   H ( 11)  3.268489  3.872547  3.368493  2.166127  1.092787  2.135710
   C ( 12)  1.350740  2.391647  3.603801  4.162698  3.593212  2.377022
   H ( 13)  2.075435  3.484730  4.731539  5.266663  4.581704  3.327770
             H (  7)   H (  8)   H (  9)   H ( 10)   H ( 11)   C ( 12)
   H (  8)  4.404605
   H (  9)  5.509537  2.351413
   H ( 10)  5.358110  4.310397  2.539343
   H ( 11)  3.636680  4.940532  4.280542  2.516132
   C ( 12)  2.044464  2.758863  4.487987  5.253866  4.430654
   H ( 13)  2.236303  3.694628  5.591557  6.354612  5.312277  1.131211

 
 Applying Cartesian multipole field
    Component          Value
    ---------          -----
     (2,0,0)        1.00000E-11
     (0,2,0)        2.00000E-11
     (0,0,2)       -3.00000E-10
 Nucleus-field energy     =    -0.0000000149 hartrees
 Requested basis set is 6-31G(d)
 There are 40 shells and 117 basis functions
 A cutoff of  1.0D-14 yielded    786 shell pairs
 There are      7038 function pairs
 Smallest overlap matrix eigenvalue = 1.75E-03
 Guess MOs from core Hamiltonian diagonalization
 Mixing HOMO and LUMO in initial guess
 Adding  50% of the LUMO to the HOMO
 An unrestricted hybrid HF-DFT SCF calculation will be
 performed using Pulay DIIS extrapolation
 Exchange:     0.2000 Hartree-Fock + 0.0800 Slater + 0.7200 B88
 Correlation:  0.1900 VWN1RPA + 0.8100 LYP
 Using SG-1 standard quadrature grid
 SCF converges when DIIS error is below 1.0E-08
 using 4 threads for integral computing
 -------------------------------------------------------
 OpenMP Integral computing Module                
 Release: version 1.0, May 2013, Q-Chem Inc. Pittsburgh 
 -------------------------------------------------------
 -------------------------------------------------------
 OpenMP BLAS3 based DFT computing Module                
 Release: version 1.0, May 2013, Q-Chem Inc. Pittsburgh 
 -------------------------------------------------------
 ---------------------------------------
  Cycle       Energy         DIIS Error
 ---------------------------------------
    1    -232.1498945987      1.35E-01
    2    -201.6034623374      1.17E-01
    3    -240.1132137646      1.09E-01
    4    -268.2665917076      8.33E-02
    5    -283.5323220347      3.91E-02
    6    -286.1252936466      1.50E-02
    7    -285.7180556579      2.14E-02
    8    -286.6944531542      2.41E-03
    9    -286.6634175527      4.29E-03
   10    -286.7070384502      8.87E-04
   11    -286.7087545672      3.06E-04
   12    -286.7092061039      1.45E-04
   13    -286.7094679545      6.36E-05
   14    -286.7095678456      1.54E-05
   15    -286.7096135680      7.91E-06
   16    -286.7096415114      4.89E-06
   17    -286.7096525807      4.10E-06
   18    -286.7096612162      2.53E-06
   19    -286.7096775733      2.05E-06
   20    -286.7096932086      1.77E-06
   21    -286.7097015863      1.62E-06
   22    -286.7097189201      4.06E-06
   23    -286.7097208681      2.46E-06
   24    -286.7097219923      1.95E-06
   25    -286.7097219890      1.37E-07
   26    -286.7097219963      3.81E-07
   27    -286.7097219994      2.86E-08
   28    -286.7097220024      8.14E-08
   29    -286.7097220027      3.82E-08
   30    -286.7097220028      7.25E-09 Convergence criterion met
 ---------------------------------------
 <S^2> = 0.8050
 SCF time:  CPU 75.59 s  wall 35.72 s
 SCF   energy in the final basis set = -286.70972200
 Total energy in the final basis set = -286.70972200
 
 --------------------------------------------------------------
 
                    Orbital Energies (a.u.)
 --------------------------------------------------------------
 
 Alpha MOs
 -- Occupied --
-14.360 -10.247 -10.231 -10.221 -10.209 -10.197 -10.193  -0.944
 -0.814  -0.760  -0.697  -0.633  -0.565  -0.531  -0.489  -0.471
 -0.423  -0.407  -0.401  -0.395  -0.316  -0.273  -0.248  -0.215
 -0.196
 -- Virtual --
 -0.073  -0.035   0.056   0.087   0.105   0.132   0.144   0.159
  0.189   0.195   0.247   0.303   0.334   0.367   0.398   0.418
  0.476   0.502   0.549   0.559   0.570   0.581   0.593   0.615
  0.630   0.631   0.652   0.666   0.698   0.719   0.787   0.807
  0.831   0.849   0.858   0.867   0.877   0.900   0.913   0.927
  1.011   1.042   1.079   1.117   1.142   1.147   1.211   1.233
  1.291   1.380   1.457   1.468   1.484   1.517   1.589   1.686
  1.737   1.746   1.766   1.792   1.835   1.877   1.907   1.970
  1.996   2.003   2.066   2.124   2.175   2.184   2.230   2.235
  2.280   2.343   2.414   2.477   2.560   2.585   2.615   2.684
  2.746   2.837   2.909   3.185   3.252   4.012   4.063   4.109
  4.130   4.288   4.402   4.491
 
 Beta MOs
 -- Occupied --
-14.354 -10.249 -10.225 -10.222 -10.203 -10.199 -10.189  -0.935
 -0.808  -0.755  -0.684  -0.624  -0.560  -0.530  -0.486  -0.468
 -0.418  -0.399  -0.396  -0.386  -0.297  -0.257  -0.235  -0.209
 -- Virtual --
 -0.107  -0.060  -0.021   0.079   0.099   0.109   0.134   0.144
  0.162   0.191   0.197   0.249   0.306   0.336   0.369   0.400
  0.421   0.480   0.510   0.552   0.569   0.575   0.589   0.596
  0.617   0.632   0.653   0.655   0.669   0.708   0.723   0.791
  0.810   0.840   0.855   0.861   0.870   0.882   0.905   0.913
  0.928   1.018   1.047   1.085   1.124   1.146   1.150   1.218
  1.238   1.299   1.389   1.465   1.478   1.492   1.523   1.597
  1.701   1.743   1.762   1.784   1.798   1.846   1.881   1.911
  1.977   2.001   2.008   2.075   2.141   2.183   2.196   2.236
  2.240   2.285   2.353   2.418   2.487   2.570   2.590   2.617
  2.690   2.754   2.839   2.911   3.186   3.258   4.015   4.069
  4.119   4.143   4.289   4.405   4.497
 --------------------------------------------------------------
 
          Ground-State Mulliken Net Atomic Charges

     Atom                 Charge (a.u.)    Spin (a.u.)
  --------------------------------------------------------
      1 C                     0.005117      -0.075012
      2 C                    -0.120284       0.414233
      3 C                    -0.147028      -0.182565
      4 C                    -0.125846       0.448629
      5 C                     0.066618      -0.174784
      6 N                    -0.326624       0.296601
      7 H                     0.141129      -0.001978
      8 H                     0.153513      -0.017496
      9 H                     0.143673       0.006765
     10 H                     0.149760      -0.021636
     11 H                     0.145850       0.006168
     12 C                    -0.206922       0.317493
     13 H                     0.121044      -0.016418
  --------------------------------------------------------
  Sum of atomic charges =    -0.000000
  Sum of spin   charges =     1.000000

 -----------------------------------------------------------------
                    Cartesian Multipole Moments
 -----------------------------------------------------------------
    Charge (ESU x 10^10)
                 0.0000
    Dipole Moment (Debye)
         X      -1.3663      Y       1.0552      Z       0.6272
       Tot       1.8367
    Quadrupole Moments (Debye-Ang)
        XX     -37.2550     XY       1.3772     YY     -37.0165
        XZ      -3.4841     YZ      -0.2460     ZZ     -42.0182
    Octopole Moments (Debye-Ang^2)
       XXX      -5.2271    XXY       3.7704    XYY      -6.0072
       YYY      -1.0306    XXZ       2.1012    XYZ      -2.2873
       YYZ       2.9640    XZZ      -1.3870    YZZ       2.2533
       ZZZ       3.3065
    Hexadecapole Moments (Debye-Ang^3)
      XXXX    -472.3458   XXXY       0.9345   XXYY    -133.2476
      XYYY      -1.0296   YYYY    -276.6277   XXXZ      78.1997
      XXYZ      -2.1790   XYYZ      30.5510   YYYZ       3.0713
      XXZZ    -100.1900   XYZZ       0.3032   YYZZ     -75.3786
      XZZZ     106.5945   YZZZ       0.6828   ZZZZ    -150.1463
 -----------------------------------------------------------------
 Calculating analytic gradient of the SCF energy
 Gradient of SCF Energy
            1           2           3           4           5           6
    1  -0.0051726   0.0088620  -0.0067976   0.0003243  -0.0088703  -0.0015497
    2  -0.0204487  -0.0081715   0.0096218  -0.0011035  -0.0059657   0.0164077
    3   0.0111830  -0.0209950   0.0041575   0.0043053   0.0149535  -0.0175057
            7           8           9          10          11          12
    1  -0.0015919  -0.0095426  -0.0012559  -0.0062690  -0.0027546   0.0220271
    2  -0.0175694   0.0066100   0.0021648   0.0036546  -0.0033282   0.0045361
    3  -0.0031910   0.0103073   0.0000517  -0.0014658   0.0039132   0.0085182
           13
    1   0.0125909
    2   0.0135920
    3  -0.0142322
 Max gradient component =       2.203E-02
 RMS gradient           =       1.016E-02
 Gradient time:  CPU 7.08 s  wall 2.00 s
 E1 = -286.7096652, E2 = -286.7097220, Emax = -286.7096906
 Iteration 5, Curvature = -0.1745805
 Curvature, final (in Hartree/Bohr^2) = -0.0488875
 ----------------------------------------------------------------
             Standard Nuclear Orientation (Angstroms)
    I     Atom           X                Y                Z
 ----------------------------------------------------------------
    1      C       1.4462881377     0.7054377091    -0.7453250187
    2      C      -0.0131944268    -1.3539922730    -0.1312722239
    3      C      -1.1966313607    -1.0689626622     0.5204774508
    4      C      -1.6515212760     0.2246194636     0.8625904821
    5      C      -0.8056493061     1.2527948586     0.4213129001
    6      N       0.1925201208     0.8566943467    -0.3305270922
    7      H       1.9759506641     1.5237207836    -1.2166609139
    8      H       0.2104955644    -2.3952693259    -0.2606919826
    9      H      -1.8425552398    -1.9104182060     0.7797403045
   10      H      -2.6154184530     0.4463793764     1.3260881684
   11      H      -1.0406499922     2.2928192889     0.6608738407
   12      C       2.1173713128    -0.4668256640    -0.7692655820
   13      H       3.1589304969    -0.3741537332    -1.2003113527
 ----------------------------------------------------------------
 Nuclear Repulsion Energy =   255.2669674586 hartrees
 There are       25 alpha and       24 beta electrons
 Requested basis set is 6-31G(d)
 There are 40 shells and 117 basis functions
 Geometry Optimization Parameters
   NAtoms,    NIC,     NZ,  NCons,   NDum,   NFix, NCnnct, MaxDiis
       13      69       0       0       0       0       0       0


** GEOMETRY OPTIMIZATION IN DELOCALIZED INTERNAL COORDINATES **
   Searching for a Minimum

   Optimization Cycle:   1

                       Coordinates (Angstroms)
     ATOM                X               Y               Z
      1  C         1.4462881377    0.7054377091   -0.7453250187
      2  C        -0.0131944268   -1.3539922730   -0.1312722239
      3  C        -1.1966313607   -1.0689626622    0.5204774508
      4  C        -1.6515212760    0.2246194636    0.8625904821
      5  C        -0.8056493061    1.2527948586    0.4213129001
      6  N         0.1925201208    0.8566943467   -0.3305270922
      7  H         1.9759506641    1.5237207836   -1.2166609139
      8  H         0.2104955644   -2.3952693259   -0.2606919826
      9  H        -1.8425552398   -1.9104182060    0.7797403045
     10  H        -2.6154184530    0.4463793764    1.3260881684
     11  H        -1.0406499922    2.2928192889    0.6608738407
     12  C         2.1173713128   -0.4668256640   -0.7692655820
     13  H         3.1589304969   -0.3741537332   -1.2003113527
   Point Group: c1    Number of degrees of freedom:    33


   Energy is   -286.709722003


 Attempting to Generate Delocalized Internal Coordinates

 33 Hessian modes will be used to form the next step
  Hessian Eigenvalues:
     0.020652    0.021603    0.022059    0.022095    0.024118    0.024950
     0.025006    0.027428    0.027429    0.028892    0.159267    0.159685
     0.159841    0.159993    0.160000    0.160000    0.220004    0.220044
     0.220114    0.220233    0.250000    0.304709    0.344882    0.345489
     0.345816    0.356674    0.368700    0.434908    0.451875    0.489607
     0.548149    0.596863    0.642505

 Minimum Search - Taking Simple RFO Step
 Searching for Lamda that Minimizes Along All modes
 Value Taken    Lamda =  -0.08335987
 Calculated Step too Large.  Step scaled by  0.467434
 Step Taken.  Stepsize is  0.300000

                             Maximum     Tolerance    Cnvgd?
         Gradient           0.099796      0.000300      NO
         Displacement       0.170749      0.001200      NO
         Energy change     *********      0.000001      NO


 New Cartesian Coordinates Obtained by Inverse Iteration

 Displacement from previous Coordinates is:  1.827094
 ----------------------------------------------------------------
             Standard Nuclear Orientation (Angstroms)
    I     Atom           X                Y                Z
 ----------------------------------------------------------------
    1      C       1.3741838279     0.6746027782    -0.6999838091
    2      C       0.1918183692    -1.1266195425    -0.0801984832
    3      C      -1.0612641464    -1.0100917319     0.4828706694
    4      C      -1.6607870448     0.2302879281     0.8200295328
    5      C      -0.8607983180     1.3160994385     0.4320227296
    6      N       0.1432445501     0.9117241897    -0.2893267737
    7      H       2.0481946600     1.4576256560    -1.0468862701
    8      H       0.5861609541    -2.1151193975    -0.2527161817
    9      H      -1.6209189134    -1.9270354420     0.6819493767
   10      H      -2.6528341376     0.3622501212     1.2494743836
   11      H      -1.1083157955     2.3515600204     0.6830028911
   12      C       1.7571038603    -0.6120013346    -0.8465980763
   13      H       2.8001483764    -0.7804387207    -1.2166110083
 ----------------------------------------------------------------
 Nuclear Repulsion Energy =   264.5877927767 hartrees
 There are       25 alpha and       24 beta electrons

































 Eigenvalues after right structure
 -0.0726148 -0.0000000 -0.0000000 -0.0000000 -0.0000000 0.0000000 0.0002142 0.0021675 0.0035129 0.0077326 0.0140445 0.0169169 0.0268155 0.0383729 0.0494043 0.0527121 0.0555029 0.0684973 0.0698311 0.0789356 0.0988601 0.1030984 0.1318839 0.1653094 0.2120217 0.2814480 0.3354859 0.3800415 0.5074797 0.5464528 0.6927335 0.7038043 0.8702375 1.0817650 1.1897844 1.3064101 1.4548964 1.5406223 2.0259839
Archival summary:
1\1\c8-68\JobtypUnspecified\ProcedureUnspecified\6-31G*\166(2)\hpark21\WedMar214:43:552022WedMar214:43:552022\0\\#,JobtypUnspecified,ProcedureUnspecified,6-31G*,\\0,2\N\C,1,1.30076\H,2,1.09382,1,126.599\C,1,1.31912,2,161.589,3,63.5518,0\H,4,1.08984,1,123.165,2,-70.4409,0\C,4,1.35036,1,118.014,2,117.71,0\H,6,1.11947,4,116.324,1,178.778,0\C,2,1.4034,1,110.659,3,177.247,0\H,8,1.08903,2,122.313,1,-167.125,0\C,8,1.41832,2,111.713,1,8.16262,0\H,10,1.09253,8,118.303,2,-176.355,0\C,10,1.37871,8,123.723,2,3.80917,0\H,12,1.07815,10,118.377,8,176.739,0\\\@

 Total job time:  3165.98s(wall), 6489.39s(cpu) 
 Wed Mar  2 14:43:55 2022

        *************************************************************
        *                                                           *
        *  Thank you very much for using Q-Chem.  Have a nice day.  *
        *                                                           *
        *************************************************************


