
Running Job 1 of 1 qcirc.in
qchem qcirc.in_42085.0 ./qcirc.d/ 1
/home/leeping/opt/qchem/5.0.2-openmp/exe/qcprog.exe_s qcirc.in_42085.0 ./qcirc.d/
Check license passed

                  Welcome to Q-Chem
     A Quantum Leap Into The Future Of Chemistry


 Q-Chem 5.0, Q-Chem, Inc., Pleasanton, CA (2017)

 Yihan Shao,  Zhengting Gan,  E. Epifanovsky,  A. T. B. Gilbert,  M. Wormit,  
 J. Kussmann,  A. W. Lange,  A. Behn,  Jia Deng,  Xintian Feng,  D. Ghosh,  
 M. Goldey,  P. R. Horn,  L. D. Jacobson,  I. Kaliman,  T. Kus,  A. Landau,  
 Jie Liu,  E. I. Proynov,  R. M. Richard,  R. P. Steele,  E. J. Sundstrom,  
 H. L. Woodcock III,  P. M. Zimmerman,  D. Zuev,  B. Albrecht,  E. Alguire,  
 S. A. Baeppler,  D. Barton,  Z. Benda,  Y. A. Bernard,  E. J. Berquist,  
 K. B. Bravaya,  H. Burton,  D. Casanova,  Chun-Min Chang,  Yunqing Chen,  
 A. Chien,  K. D. Closser,  M. P. Coons,  S. Dasgupta,  A. L. Dempwolff,  
 M. Diedenhofen,  Hainam Do,  R. G. Edgar,  Po-Tung Fang,  S. Fatehi,  
 Qingguo Feng,  J. Fosso-Tande,  Qinghui Ge,  A. Ghysels,  G. Gidofalvi,  
 J. Gomes,  J. Gonthier,  A. Gunina,  M. W. D. Hanson-Heine,  
 P. H. P. Harbach,  A. W. Hauser,  J. E. Herr,  E. G. Hohenstein,  
 Z. C. Holden,  Kerwin Hui,  T.-C. Jagau,  Hyunjun Ji,  B. Kaduk,  
 K. Khistyaev,  Jaehoon Kim,  P. Klunzinger,  K. Koh,  D. Kosenkov,  
 L. Koulias,  T. Kowalczyk,  C. M. Krauter,  A. Kunitsa,  Ka Un Lao,  
 A. Laurent,  K. V. Lawler,  Joonho Lee,  D. Lefrancois,  S. Lehtola,  
 D. S. Levine,  Yi-Pei Li,  You-Sheng Lin,  Fenglai Liu,  E. Livshits,  
 A. Luenser,  P. Manohar,  E. Mansoor,  S. F. Manzer,  Shan-Ping Mao,  
 Yuezhi Mao,  N. Mardirossian,  A. V. Marenich,  T. Markovich,  
 L. A. Martinez-Martinez,  S. A. Maurer,  N. J. Mayhall,  S. C. McKenzie,  
 J.-M. Mewes,  A. F. Morrison,  J. W. Mullinax,  K. Nanda,  
 T. S. Nguyen-Beck,  R. Olivares-Amaya,  J. A. Parkhill,  T. M. Perrine,  
 F. Plasser,  S. Prager,  A. Prociuk,  E. Ramos,  D. R. Rehn,  F. Rob,  
 M. Schneider,  N. Sergueev,  S. M. Sharada,  S. Sharma,  D. W. Small,  
 T. Stauch,  T. Stein,  Yu-Chuan Su,  A. J. W. Thom,  A. Tkatchenko,  
 T. Tsuchimochi,  L. Vogt,  O. Vydrov,  M. A. Watson,  J. Wenzel,  
 M. de Wergifosse,  T. A. Wesolowski,  A. White,  J. Witte,  A. Yamada,  
 Jun Yang,  K. Yao,  S. Yeganeh,  S. R. Yost,  Zhi-Qiang You,  A. Zech,  
 Igor Ying Zhang,  Xing Zhang,  Yan Zhao,  Ying Zhu,  B. R. Brooks,  
 G. K. L. Chan,  C. J. Cramer,  M. S. Gordon,  W. J. Hehre,  A. Klamt,  
 M. W. Schmidt,  C. D. Sherrill,  D. G. Truhlar,  A. Aspuru-Guzik,  R. Baer,  
 A. T. Bell,  N. A. Besley,  Jeng-Da Chai,  R. A. DiStasio Jr.,  A. Dreuw,  
 B. D. Dunietz,  T. R. Furlani,  Chao-Ping Hsu,  Yousung Jung,  Jing Kong,  
 D. S. Lambrecht,  WanZhen Liang,  C. Ochsenfeld,  V. A. Rassolov,  
 L. V. Slipchenko,  J. E. Subotnik,  T. Van Voorhis,  J. M. Herbert,  
 A. I. Krylov,  P. M. W. Gill,  M. Head-Gordon

 Contributors to earlier versions of Q-Chem not listed above: 
 R. D. Adamson,  B. Austin,  J. Baker,  G. J. O. Beran,  K. Brandhorst,  
 S. T. Brown,  E. F. C. Byrd,  A. K. Chakraborty,  C.-L. Cheng,  
 Siu Hung Chien,  D. M. Chipman,  D. L. Crittenden,  H. Dachsel,  
 R. J. Doerksen,  A. D. Dutoi,  L. Fusti-Molnar,  W. A. Goddard III,  
 A. Golubeva-Zadorozhnaya,  S. R. Gwaltney,  G. Hawkins,  A. Heyden,  
 S. Hirata,  G. Kedziora,  F. J. Keil,  C. Kelley,  Jihan Kim,  R. A. King,  
 R. Z. Khaliullin,  P. P. Korambath,  W. Kurlancheek,  A. M. Lee,  M. S. Lee,  
 S. V. Levchenko,  Ching Yeh Lin,  D. Liotard,  R. C. Lochan,  I. Lotan,  
 P. E. Maslen,  N. Nair,  D. P. O'Neill,  D. Neuhauser,  E. Neuscamman,  
 C. M. Oana,  R. Olson,  B. Peters,  R. Peverati,  P. A. Pieniazek,  
 Y. M. Rhee,  J. Ritchie,  M. A. Rohrdanz,  E. Rosta,  N. J. Russ,  
 H. F. Schaefer III,  N. E. Schultz,  N. Shenvi,  A. C. Simmonett,  A. Sodt,  
 D. Stuck,  K. S. Thanthiriwatte,  V. Vanovschi,  Tao Wang,  A. Warshel,  
 C. F. Williams,  Q. Wu,  X. Xu,  W. Zhang

 Please cite Q-Chem as follows:
 Y. Shao et al., Mol. Phys. 113, 184-215 (2015)
 DOI: 10.1080/00268976.2014.952696

 Q-Chem 5.0.2 for Intel X86 EM64T Linux

 Parts of Q-Chem use Armadillo 5.200.1 (Boston Tea Smuggler).
 http://arma.sourceforge.net/

 Q-Chem begins on Wed Mar  2 15:52:26 2022  

Host: 
0

     Scratch files written to ./qcirc.d//
 Dec517 15110_ 26548  26544 5633   
Processing $rem in /home/leeping/opt/qchem/5.0.2-openmp/config/preferences.
 MEM_STATIC 2000
 MEM_TOTAL  8000
 SYMMETRY   OFF
 SYM_IGNORE TRUE 

Checking the input file for inconsistencies... 	...done.

--------------------------------------------------------------
User input:
--------------------------------------------------------------
$molecule
0 2
C        1.3718026024    0.6853394123   -0.7608391071
C       -0.1031322988   -0.9196866531   -0.4398447072
C       -1.0435819050   -1.0966359743    0.5954594676
C       -1.4951384079    0.1914185948    0.9912954396
C       -0.8614620660    1.1351759910    0.2083199795
N       -0.0518658371    0.4933807423   -0.7279842661
H        1.8077787828    1.6120568235   -1.1253694115
H        0.0523217485   -1.6155700763   -1.2560471783
H       -1.3985190450   -2.0468836982    0.9709619945
H       -2.2338394587    0.4042508700    1.7537145063
H       -0.8788222076    2.2143914135    0.2698709923
C        1.8833508370   -0.4556504244   -0.3063419341
H        2.8870434975   -0.8687430582   -0.2561667947
$end

$rem
method                b3lyp
basis                 6-31+g(d,p)
unrestricted          true
symmetry              off
sym_ignore            true
incdft                false
incfock               0
scf_convergence       8
thresh                14
jobtype               rpath
scf_guess             core
scf_guess_mix         5
scf_algorithm         diis
max_scf_cycles        100
rpath_direction       1
rpath_tol_displacement 1000
rpath_max_cycles      50
geom_opt_max_cycles   300
geom_opt_hessian      read
$end

--------------------------------------------------------------
 ----------------------------------------------------------------
             Standard Nuclear Orientation (Angstroms)
    I     Atom           X                Y                Z
 ----------------------------------------------------------------
    1      C       1.3718026024     0.6853394123    -0.7608391071
    2      C      -0.1031322988    -0.9196866531    -0.4398447072
    3      C      -1.0435819050    -1.0966359743     0.5954594676
    4      C      -1.4951384079     0.1914185948     0.9912954396
    5      C      -0.8614620660     1.1351759910     0.2083199795
    6      N      -0.0518658371     0.4933807423    -0.7279842661
    7      H       1.8077787828     1.6120568235    -1.1253694115
    8      H       0.0523217485    -1.6155700763    -1.2560471783
    9      H      -1.3985190450    -2.0468836982     0.9709619945
   10      H      -2.2338394587     0.4042508700     1.7537145063
   11      H      -0.8788222076     2.2143914135     0.2698709923
   12      C       1.8833508370    -0.4556504244    -0.3063419341
   13      H       2.8870434975    -0.8687430582    -0.2561667947
 ----------------------------------------------------------------
 Nuclear Repulsion Energy =   270.3514129519 hartrees
 There are       25 alpha and       24 beta electrons
 Requested basis set is 6-31+G(d,p)
 There are 53 shells and 163 basis functions

 Total QAlloc Memory Limit   8000 MB
 Mega-Array Size      1956 MB
 MEM_STATIC part      2000 MB
 Starting direction for rxn path = 1

                       Distance Matrix (Angstroms)
             C (  1)   C (  2)   C (  3)   C (  4)   C (  5)   N (  6)
   C (  2)  2.203311
   C (  3)  3.293792  1.409827
   C (  4)  3.396069  2.284819  1.421152
   C (  5)  2.475701  2.284216  2.272450  1.380317
   N (  6)  1.436927  1.443057  2.294157  2.264981  1.394279
   H (  7)  1.087089  3.245189  4.292846  4.172259  3.021753  2.206270
   H (  8)  2.698230  1.083792  2.213227  3.272673  3.247457  2.176552
   H (  9)  4.258974  2.222381  1.081644  2.240479  3.315955  3.339586
   H ( 10)  4.404843  3.332330  2.238510  1.082709  2.192240  3.305720
   H ( 11)  2.909583  3.305728  3.331074  2.234439  1.081109  2.154402
   C ( 12)  1.330454  2.044326  3.129064  3.676513  3.213970  2.196248
   H ( 13)  2.228412  2.996245  4.028277  4.677993  4.275831  3.273405
             H (  7)   H (  8)   H (  9)   H ( 10)   H ( 11)   C ( 12)
   H (  8)  3.676450
   H (  9)  5.297433  2.692683
   H ( 10)  5.107112  4.285426  2.705277
   H ( 11)  3.086637  4.226590  4.349722  2.704528
   C ( 12)  2.225293  2.366436  3.864479  4.683430  3.884681
   H ( 13)  2.841601  3.097282  4.610847  5.646555  4.895322  1.086537

 
 A cutoff of  1.0D-14 yielded   1380 shell pairs
 There are     13420 function pairs
 
 -------------------------------------------------------
 OpenMP Integral Computing Module                       
 Release: version 1.0, May 2013, Q-Chem Inc. Pittsburgh 
 -------------------------------------------------------
 Integral Job Info:
 Integral job number is                      11
 Integral operator is                         1
 short-range coefficients                     0
 long-range coefficients              100000000
 Omega coefficients                           0
 if combine SR and LR in K                    0
 Integral screening is                        0
 Integral computing path is                   2
 max size of driver memory is            800000
 size of driver memory is                593474
 size of scratch memory is              2361544
 max col of scratch BK array               1296
 max len of scratch array in speh3          155
 max len of scratch index in speh4           18
 max int batch size is                      520
 min int batch size is                       52
 fixed nKL is                                52
 max L of basis functions is                  2
 order of int derivative is                   0
 number of shells is                         53
 number of basis is                         163
 number of cartesian basis is               163
 number of contracted shell pairs          1380
 number of primitive shell pairs           4650
 maxK2 (contraction) of shell pair           36
 max number of K2 of shell pair               1
 max number of CS2 of shell pair            130
 max number of PS2 of shell pair            678
 mem total for path MDJ                  534060
 -------------------------------------------------------
 Smallest overlap matrix eigenvalue = 1.63E-05

 Scale SEOQF with 1.000000e-01/1.000000e-01/1.000000e-01

 Standard Electronic Orientation quadrupole field applied
 Nucleus-field energy     =     0.0000000031 hartrees
 Guess MOs from core Hamiltonian diagonalization
 Mixing HOMO and LUMO in initial guess
 Adding  50% of the LUMO to the HOMO
 An unrestricted hybrid HF-DFT SCF calculation will be
 performed using Pulay DIIS extrapolation
 Exchange:     0.2000 Hartree-Fock + 0.0800 Slater + 0.7200 B88
 Correlation:  0.1900 VWN1RPA + 0.8100 LYP
 Using SG-1 standard quadrature grid
 SCF converges when DIIS error is below 1.0E-08
 using 4 threads for integral computing
 -------------------------------------------------------
 OpenMP Integral computing Module                
 Release: version 1.0, May 2013, Q-Chem Inc. Pittsburgh 
 -------------------------------------------------------
 -------------------------------------------------------
 OpenMP BLAS3 based DFT computing Module                
 Release: version 1.0, May 2013, Q-Chem Inc. Pittsburgh 
 -------------------------------------------------------
 ---------------------------------------
  Cycle       Energy         DIIS Error
 ---------------------------------------
    1    -228.1526461088      1.05E-01
    2    -212.8241915314      7.53E-02
    3    -249.1013238536      7.55E-02
    4    -267.2839438608      6.63E-02
    5    -283.6725178428      2.45E-02
    6    -285.6108053931      1.90E-02
    7    -286.6405801849      7.42E-03
    8    -286.8070215821      3.45E-03
    9    -286.8516583756      7.42E-04
   10    -286.8538109478      3.05E-04
   11    -286.8542663155      1.01E-04
   12    -286.8544097065      4.02E-05
   13    -286.8544697175      2.57E-05
   14    -286.8545035723      1.32E-05
   15    -286.8545187682      7.35E-06
   16    -286.8545208511      2.72E-06
   17    -286.8545210724      9.98E-07
   18    -286.8545211710      4.93E-07
   19    -286.8545212079      2.13E-07
   20    -286.8545212232      3.90E-08
   21    -286.8545212240      1.34E-08
   22    -286.8545212246      9.78E-09 Convergence criterion met
 ---------------------------------------
 <S^2> = 0.7803
 SCF time:  CPU 110.97 s  wall 40.68 s
 SCF   energy in the final basis set = -286.85452122
 Total energy in the final basis set = -286.85452122
 
 --------------------------------------------------------------
 
                    Orbital Energies (a.u.)
 --------------------------------------------------------------
 
 Alpha MOs
 -- Occupied --
-14.380 -10.238 -10.231 -10.230 -10.202 -10.200 -10.198  -0.996
 -0.820  -0.751  -0.709  -0.611  -0.582  -0.554  -0.517  -0.491
 -0.435  -0.420  -0.410  -0.399  -0.368  -0.305  -0.285  -0.247
 -0.171
 -- Virtual --
 -0.014   0.002   0.011   0.023   0.025   0.037   0.041   0.047
  0.054   0.064   0.073   0.081   0.090   0.097   0.113   0.115
  0.126   0.129   0.143   0.149   0.155   0.163   0.179   0.193
  0.198   0.203   0.207   0.218   0.223   0.229   0.239   0.253
  0.260   0.267   0.280   0.287   0.296   0.303   0.331   0.343
  0.390   0.420   0.458   0.507   0.642   0.654   0.672   0.699
  0.705   0.719   0.727   0.738   0.751   0.761   0.782   0.802
  0.846   0.854   0.859   0.892   0.905   0.917   0.941   0.957
  0.980   1.014   1.039   1.057   1.069   1.126   1.139   1.162
  1.183   1.213   1.235   1.310   1.352   1.373   1.391   1.445
  1.461   1.506   1.615   1.661   1.715   1.782   1.839   1.854
  1.877   1.909   1.920   1.930   1.966   1.990   2.024   2.059
  2.122   2.152   2.179   2.237   2.266   2.279   2.361   2.384
  2.390   2.436   2.459   2.473   2.492   2.516   2.544   2.568
  2.591   2.627   2.632   2.672   2.691   2.748   2.759   2.799
  2.881   2.900   2.955   3.047   3.207   3.254   3.262   3.339
  3.530   3.693   3.763   4.258   4.348   4.382   4.418   4.559
  4.674   4.773
 
 Beta MOs
 -- Occupied --
-14.378 -10.240 -10.232 -10.226 -10.201 -10.193 -10.192  -0.991
 -0.814  -0.743  -0.704  -0.601  -0.577  -0.549  -0.512  -0.484
 -0.427  -0.417  -0.408  -0.396  -0.361  -0.294  -0.259  -0.234
 -- Virtual --
 -0.081  -0.005   0.008   0.012   0.025   0.025   0.040   0.043
  0.047   0.057   0.066   0.075   0.084   0.094   0.099   0.114
  0.118   0.127   0.132   0.144   0.151   0.157   0.165   0.181
  0.193   0.198   0.204   0.210   0.220   0.224   0.232   0.241
  0.256   0.262   0.269   0.283   0.290   0.298   0.304   0.337
  0.346   0.393   0.424   0.463   0.515   0.647   0.658   0.679
  0.703   0.713   0.721   0.732   0.744   0.754   0.768   0.790
  0.806   0.851   0.858   0.861   0.896   0.906   0.921   0.944
  0.964   0.985   1.019   1.043   1.060   1.077   1.131   1.144
  1.166   1.187   1.216   1.239   1.316   1.358   1.379   1.396
  1.450   1.469   1.516   1.622   1.676   1.730   1.792   1.845
  1.861   1.883   1.918   1.923   1.937   1.969   1.996   2.030
  2.064   2.128   2.160   2.186   2.242   2.271   2.285   2.362
  2.387   2.394   2.440   2.466   2.480   2.500   2.517   2.553
  2.571   2.600   2.632   2.637   2.677   2.696   2.752   2.764
  2.804   2.884   2.904   2.957   3.054   3.208   3.255   3.267
  3.341   3.532   3.702   3.765   4.264   4.353   4.385   4.429
  4.565   4.681   4.777
 --------------------------------------------------------------
 
          Ground-State Mulliken Net Atomic Charges

     Atom                 Charge (a.u.)    Spin (a.u.)
  --------------------------------------------------------
      1 C                    -0.133933      -0.094664
      2 C                    -0.332360      -0.166574
      3 C                    -0.022975       0.381967
      4 C                    -0.109357      -0.124501
      5 C                    -0.042132       0.314546
      6 N                    -0.054793       0.045283
      7 H                     0.135976       0.016042
      8 H                     0.163382       0.023393
      9 H                     0.131393      -0.017452
     10 H                     0.131780       0.002400
     11 H                     0.139169      -0.014158
     12 C                    -0.135354       0.611028
     13 H                     0.129203       0.022690
  --------------------------------------------------------
  Sum of atomic charges =     0.000000
  Sum of spin   charges =     1.000000

 -----------------------------------------------------------------
                    Cartesian Multipole Moments
 -----------------------------------------------------------------
    Charge (ESU x 10^10)
                 0.0000
    Dipole Moment (Debye)
         X      -0.1028      Y       0.3925      Z       0.0570
       Tot       0.4097
    Quadrupole Moments (Debye-Ang)
        XX     -40.7840     XY       0.6368     YY     -36.9792
        XZ      -3.5409     YZ       0.3713     ZZ     -43.5099
    Octopole Moments (Debye-Ang^2)
       XXX      10.0738    XXY      -0.1298    XYY      -0.1645
       YYY       3.8740    XXZ       6.2820    XYZ      -1.7468
       YYZ       0.7420    XZZ      -3.3113    YZZ      -1.3210
       ZZZ       8.4840
    Hexadecapole Moments (Debye-Ang^3)
      XXXX    -428.6665   XXXY      -7.5638   XXYY    -108.8126
      XYYY       4.2342   YYYY    -223.5950   XXXZ      65.5279
      XXYZ      -0.2181   XYYZ      17.7795   YYYZ       7.3870
      XXZZ     -99.4725   XYZZ       2.6545   YYZZ     -67.0711
      XZZZ      74.8224   YZZZ      12.2874   ZZZZ    -177.9265
 -----------------------------------------------------------------
 Calculating analytic gradient of the SCF energy
 Gradient of SCF Energy
            1           2           3           4           5           6
    1  -0.0000028   0.0000069   0.0000059  -0.0000043  -0.0000086  -0.0000017
    2   0.0000056  -0.0000031  -0.0000041  -0.0000048  -0.0000049  -0.0000042
    3   0.0000001   0.0000048   0.0000027  -0.0000052  -0.0000085  -0.0000028
            7           8           9          10          11          12
    1  -0.0000082   0.0000145   0.0000113  -0.0000077  -0.0000162   0.0000042
    2   0.0000067  -0.0000063  -0.0000045  -0.0000061  -0.0000045   0.0000115
    3  -0.0000038   0.0000086   0.0000069  -0.0000083  -0.0000142   0.0000076
           13
    1   0.0000066
    2   0.0000186
    3   0.0000122
 Max gradient component =       1.860E-05
 RMS gradient           =       7.983E-06
 Gradient time:  CPU 16.31 s  wall 4.89 s
rPathMan2.  file_steps = 951
 ------------------------------------------------------------------------
 Reaction path following.  The coordinates are cartesian              
 Step   1 E=    -286.854521 |G|=  0.000050 S_lin= 0.0000 S_tot= 0.0000
 ------------------------------------------------------------------------
 IRC -- neg. force constant =  -0.116474538822947     
 IRC -- max trans/rot const =   7.485314830994037E-005
 In first_irc_step: ISign =            1
 ----------------------------------------------------------------
             Standard Nuclear Orientation (Angstroms)
    I     Atom           X                Y                Z
 ----------------------------------------------------------------
    1      C       1.3697295547     0.6920502087    -0.7598185724
    2      C      -0.0494349344    -0.9182891999    -0.4281689537
    3      C      -1.0305804517    -1.0960468835     0.6030531795
    4      C      -1.4918558757     0.1856669404     0.9884707895
    5      C      -0.8628408614     1.1364268395     0.2043509019
    6      N      -0.0504595392     0.5042245103    -0.7378966487
    7      H       1.8141923151     1.6133188134    -1.1239758543
    8      H       0.0415395935    -1.6122342315    -1.2618266009
    9      H      -1.3938293388    -2.0462991445     0.9719956199
   10      H      -2.2329926381     0.4009953713     1.7498743694
   11      H      -0.8825505317     2.2152365087     0.2692687703
   12      C       1.8440843370    -0.4689724623    -0.3017137179
   13      H       2.8609346123    -0.8732333069    -0.2565843022
 ----------------------------------------------------------------
 Nuclear Repulsion Energy =   270.7166832634 hartrees
 There are       25 alpha and       24 beta electrons

                       Distance Matrix (Angstroms)
             C (  1)   C (  2)   C (  3)   C (  4)   C (  5)   N (  6)
   C (  2)  2.171914
   C (  3)  3.288799  1.434456
   C (  4)  3.391402  2.303512  1.415667
   C (  5)  2.472138  2.298601  2.273992  1.383636
   N (  6)  1.432723  1.455843  2.306437  2.271442  1.395519
   H (  7)  1.085769  3.219673  4.291390  4.174994  3.026282  2.203650
   H (  8)  2.706627  1.088495  2.212164  3.263064  3.243874  2.182284
   H (  9)  4.258520  2.245053  1.082150  2.234178  3.316771  3.351648
   H ( 10)  4.400327  3.354446  2.236544  1.084152  2.192446  3.311059
   H ( 11)  2.907212  3.316547  3.331354  2.237780  1.080941  2.152747
   C ( 12)  1.335233  1.950203  3.078234  3.636155  3.187609  2.174089
   H ( 13)  2.219696  2.915771  3.991555  4.649539  4.256489  3.256573
             H (  7)   H (  8)   H (  9)   H ( 10)   H ( 11)   C ( 12)
   H (  8)  3.683136
   H (  9)  5.298802  2.690475
   H ( 10)  5.109643  4.277491  2.701581
   H ( 11)  3.094488  4.224657  4.349243  2.703212
   C ( 12)  2.238961  2.340520  3.820259  4.646333  3.868532
   H ( 13)  2.833898  3.083119  4.581322  5.621177  4.881480  1.095193

 
 Applying Cartesian multipole field
    Component          Value
    ---------          -----
     (2,0,0)        1.00000E-11
     (0,2,0)        2.00000E-11
     (0,0,2)       -3.00000E-11
 Nucleus-field energy     =     0.0000000030 hartrees
 Requested basis set is 6-31+G(d,p)
 There are 53 shells and 163 basis functions
 A cutoff of  1.0D-14 yielded   1381 shell pairs
 There are     13421 function pairs
 Smallest overlap matrix eigenvalue = 1.67E-05
 Guess MOs from core Hamiltonian diagonalization
 Mixing HOMO and LUMO in initial guess
 Adding  50% of the LUMO to the HOMO
 An unrestricted hybrid HF-DFT SCF calculation will be
 performed using Pulay DIIS extrapolation
 Exchange:     0.2000 Hartree-Fock + 0.0800 Slater + 0.7200 B88
 Correlation:  0.1900 VWN1RPA + 0.8100 LYP
 Using SG-1 standard quadrature grid
 SCF converges when DIIS error is below 1.0E-08
 using 4 threads for integral computing
 -------------------------------------------------------
 OpenMP Integral computing Module                
 Release: version 1.0, May 2013, Q-Chem Inc. Pittsburgh 
 -------------------------------------------------------
 -------------------------------------------------------
 OpenMP BLAS3 based DFT computing Module                
 Release: version 1.0, May 2013, Q-Chem Inc. Pittsburgh 
 -------------------------------------------------------
 ---------------------------------------
  Cycle       Energy         DIIS Error
 ---------------------------------------
    1    -229.7412669166      1.03E-01
    2    -218.4762746901      7.33E-02
    3    -265.1318618034      6.45E-02
    4    -273.9832854561      5.11E-02
    5    -271.2761820390      5.11E-02
    6    -286.3101637161      1.17E-02
    7    -286.6798351738      6.99E-03
    8    -286.7473795309      5.45E-03
    9    -286.8452437214      1.78E-03
   10    -286.8552138667      3.65E-04
   11    -286.8557304493      1.64E-04
   12    -286.8558381422      4.95E-05
   13    -286.8558592491      2.11E-05
   14    -286.8558659138      9.74E-06
   15    -286.8558689551      3.51E-06
   16    -286.8558702443      2.04E-06
   17    -286.8558708226      9.96E-07
   18    -286.8558708991      2.17E-07
   19    -286.8558709088      6.56E-08
   20    -286.8558709135      3.78E-08
   21    -286.8558709159      2.28E-08
   22    -286.8558709164      7.11E-09 Convergence criterion met
 ---------------------------------------
 <S^2> = 0.7773
 SCF time:  CPU 110.82 s  wall 49.66 s
 SCF   energy in the final basis set = -286.85587092
 Total energy in the final basis set = -286.85587092
 
 --------------------------------------------------------------
 
                    Orbital Energies (a.u.)
 --------------------------------------------------------------
 
 Alpha MOs
 -- Occupied --
-14.376 -10.245 -10.230 -10.229 -10.204 -10.201 -10.198  -0.995
 -0.820  -0.752  -0.705  -0.612  -0.580  -0.552  -0.516  -0.491
 -0.431  -0.418  -0.408  -0.400  -0.365  -0.309  -0.292  -0.246
 -0.165
 -- Virtual --
 -0.009   0.001   0.011   0.023   0.025   0.036   0.041   0.047
  0.054   0.065   0.073   0.083   0.091   0.097   0.112   0.115
  0.126   0.130   0.143   0.150   0.154   0.163   0.180   0.192
  0.197   0.203   0.207   0.217   0.222   0.230   0.237   0.251
  0.260   0.267   0.279   0.284   0.298   0.302   0.330   0.346
  0.383   0.418   0.456   0.507   0.642   0.649   0.671   0.698
  0.704   0.716   0.728   0.736   0.748   0.755   0.783   0.801
  0.844   0.849   0.857   0.894   0.904   0.917   0.938   0.957
  0.975   1.016   1.037   1.059   1.082   1.120   1.141   1.158
  1.185   1.226   1.237   1.310   1.351   1.370   1.389   1.445
  1.466   1.501   1.618   1.641   1.718   1.790   1.845   1.857
  1.874   1.904   1.916   1.936   1.963   1.996   2.026   2.058
  2.117   2.154   2.168   2.256   2.266   2.283   2.361   2.384
  2.389   2.433   2.468   2.472   2.490   2.517   2.533   2.559
  2.593   2.624   2.639   2.671   2.683   2.736   2.758   2.798
  2.866   2.899   2.935   3.045   3.196   3.251   3.261   3.344
  3.503   3.680   3.751   4.260   4.339   4.380   4.420   4.543
  4.685   4.770
 
 Beta MOs
 -- Occupied --
-14.374 -10.247 -10.230 -10.225 -10.202 -10.196 -10.192  -0.990
 -0.813  -0.742  -0.701  -0.603  -0.575  -0.547  -0.512  -0.484
 -0.424  -0.414  -0.406  -0.397  -0.356  -0.295  -0.271  -0.233
 -- Virtual --
 -0.079  -0.000   0.006   0.012   0.025   0.026   0.040   0.043
  0.047   0.057   0.066   0.075   0.085   0.094   0.100   0.113
  0.119   0.127   0.132   0.144   0.152   0.156   0.165   0.181
  0.193   0.197   0.203   0.210   0.219   0.224   0.232   0.240
  0.255   0.262   0.269   0.283   0.288   0.300   0.304   0.335
  0.349   0.386   0.422   0.461   0.514   0.646   0.654   0.677
  0.702   0.712   0.721   0.731   0.744   0.750   0.766   0.789
  0.807   0.847   0.853   0.860   0.898   0.905   0.921   0.942
  0.963   0.979   1.021   1.042   1.063   1.090   1.125   1.145
  1.162   1.189   1.228   1.242   1.318   1.359   1.376   1.394
  1.450   1.472   1.510   1.626   1.651   1.732   1.797   1.850
  1.863   1.878   1.909   1.920   1.946   1.966   2.002   2.032
  2.064   2.122   2.163   2.177   2.262   2.270   2.289   2.363
  2.387   2.393   2.438   2.475   2.480   2.499   2.520   2.541
  2.564   2.601   2.630   2.643   2.675   2.687   2.740   2.764
  2.804   2.869   2.903   2.938   3.050   3.198   3.254   3.264
  3.347   3.506   3.687   3.754   4.265   4.345   4.384   4.428
  4.548   4.692   4.774
 --------------------------------------------------------------
 
          Ground-State Mulliken Net Atomic Charges

     Atom                 Charge (a.u.)    Spin (a.u.)
  --------------------------------------------------------
      1 C                    -0.137940      -0.070326
      2 C                    -0.326409      -0.164316
      3 C                    -0.045180       0.487501
      4 C                    -0.094414      -0.170669
      5 C                    -0.047652       0.407253
      6 N                    -0.062228       0.049592
      7 H                     0.134998       0.009659
      8 H                     0.161523       0.025779
      9 H                     0.131401      -0.022074
     10 H                     0.132312       0.003780
     11 H                     0.139069      -0.018443
     12 C                    -0.114169       0.437699
     13 H                     0.128689       0.024566
  --------------------------------------------------------
  Sum of atomic charges =    -0.000000
  Sum of spin   charges =     1.000000

 -----------------------------------------------------------------
                    Cartesian Multipole Moments
 -----------------------------------------------------------------
    Charge (ESU x 10^10)
                -0.0000
    Dipole Moment (Debye)
         X      -0.0645      Y       0.3794      Z       0.0846
       Tot       0.3940
    Quadrupole Moments (Debye-Ang)
        XX     -40.6943     XY       0.6429     YY     -37.0370
        XZ      -3.5649     YZ       0.4499     ZZ     -43.6832
    Octopole Moments (Debye-Ang^2)
       XXX       9.8296    XXY       0.1818    XYY      -0.1456
       YYY       3.9630    XXZ       6.0983    XYZ      -1.9919
       YYZ       0.6850    XZZ      -3.3628    YZZ      -1.1373
       ZZZ       8.4031
    Hexadecapole Moments (Debye-Ang^3)
      XXXX    -421.1452   XXXY      -5.9160   XXYY    -108.0751
      XYYY       5.0512   YYYY    -225.1756   XXXZ      65.0065
      XXYZ       0.1053   XYYZ      17.9237   YYYZ       8.0372
      XXZZ     -98.2040   XYZZ       2.9833   YYZZ     -67.6732
      XZZZ      74.5071   YZZZ      13.4130   ZZZZ    -178.7137
 -----------------------------------------------------------------
 Calculating analytic gradient of the SCF energy
 Gradient of SCF Energy
            1           2           3           4           5           6
    1   0.0004909  -0.0128811  -0.0022759  -0.0008471   0.0004570  -0.0004747
    2  -0.0006104  -0.0001556   0.0000931   0.0011831  -0.0005682  -0.0017467
    3  -0.0008651  -0.0004802  -0.0026910   0.0006030   0.0003634   0.0028579
            7           8           9          10          11          12
    1  -0.0014671   0.0022076  -0.0009816  -0.0001564   0.0008358   0.0089485
    2  -0.0001655  -0.0014444  -0.0001382   0.0007285  -0.0001934   0.0015422
    3  -0.0004462   0.0001302  -0.0001824   0.0008543   0.0001369  -0.0001558
           13
    1   0.0061441
    2   0.0014754
    3  -0.0001248
 Max gradient component =       1.288E-02
 RMS gradient           =       2.906E-03
 Gradient time:  CPU 17.01 s  wall 9.67 s
rPathMan2.  file_steps = 951
 IRC --- Status = 2.  Assess steepest descent step
 IRC --- Previous SD length =   0.150000
 IRC --- Point 1 E =     -286.854521 |G| =   0.000050 G.D1 =  -0.000001
 IRC --- Point 2 E =     -286.855871 |G| =   0.018149 G.D1 =  -0.017748
 IRC --- Angle(G1/G2) =   12.07 Deg.  Curvature =  -0.1183
 IRC --- Corrector step required
 IRC --- equal length displacement: B_eq =   0.031551
 IRC --- chosen bisector length  : B_len =   0.015776
 ----------------------------------------------------------------
             Standard Nuclear Orientation (Angstroms)
    I     Atom           X                Y                Z
 ----------------------------------------------------------------
    1      C       1.3696925213     0.6900297300    -0.7584370656
    2      C      -0.0481153369    -0.9186476954    -0.4329567648
    3      C      -1.0321043753    -1.0965450677     0.6051410035
    4      C      -1.4916446582     0.1859555410     0.9885644965
    5      C      -0.8631507846     1.1370439328     0.2055407547
    6      N      -0.0501246487     0.5026222801    -0.7391901049
    7      H       1.8141938406     1.6130496617    -1.1236967857
    8      H       0.0421030646    -1.6107434569    -1.2592215073
    9      H      -1.3940275812    -2.0462892195     0.9718777757
   10      H      -2.2330740367     0.4010301155     1.7499263372
   11      H      -0.8825140968     2.2152368128     0.2692705797
   12      C       1.8441491522    -0.4656840039    -0.3036870308
   13      H       2.8605531818    -0.8742146671    -0.2561027076
 ----------------------------------------------------------------
 Nuclear Repulsion Energy =   270.7132277717 hartrees
 There are       25 alpha and       24 beta electrons

                       Distance Matrix (Angstroms)
             C (  1)   C (  2)   C (  3)   C (  4)   C (  5)   N (  6)
   C (  2)  2.168861
   C (  3)  3.289350  1.441364
   C (  4)  3.390185  2.307520  1.415273
   C (  5)  2.472785  2.301702  2.275334  1.383004
   N (  6)  1.432261  1.453888  2.308429  2.272310  1.398577
   H (  7)  1.087641  3.217889  4.293273  4.174544  3.026818  2.203764
   H (  8)  2.703116  1.081596  2.212277  3.260836  3.242738  2.178360
   H (  9)  4.256710  2.248692  1.080508  2.234440  3.317034  3.351235
   H ( 10)  4.399470  3.358656  2.235082  1.084272  2.191696  3.312294
   H ( 11)  2.907727  3.318219  3.332129  2.237500  1.080248  2.154742
   C ( 12)  1.329504  1.950013  3.081686  3.636216  3.187087  2.171532
   H ( 13)  2.218528  2.914379  3.992988  4.649170  4.257258  3.255933
             H (  7)   H (  8)   H (  9)   H ( 10)   H ( 11)   C ( 12)
   H (  8)  3.681238
   H (  9)  5.298573  2.688861
   H ( 10)  5.109509  4.275352  2.701616
   H ( 11)  3.094385  4.222479  4.349242  2.703276
   C ( 12)  2.234826  2.339140  3.822456  4.646748  3.866563
   H ( 13)  2.834444  3.080971  4.580737  5.620982  4.881729  1.096466

 
 Applying Cartesian multipole field
    Component          Value
    ---------          -----
     (2,0,0)        1.00000E-11
     (0,2,0)        2.00000E-11
     (0,0,2)       -3.00000E-11
 Nucleus-field energy     =     0.0000000030 hartrees
 Requested basis set is 6-31+G(d,p)
 There are 53 shells and 163 basis functions
 A cutoff of  1.0D-14 yielded   1381 shell pairs
 There are     13421 function pairs
 Smallest overlap matrix eigenvalue = 1.69E-05
 Guess MOs from core Hamiltonian diagonalization
 Mixing HOMO and LUMO in initial guess
 Adding  50% of the LUMO to the HOMO
 An unrestricted hybrid HF-DFT SCF calculation will be
 performed using Pulay DIIS extrapolation
 Exchange:     0.2000 Hartree-Fock + 0.0800 Slater + 0.7200 B88
 Correlation:  0.1900 VWN1RPA + 0.8100 LYP
 Using SG-1 standard quadrature grid
 SCF converges when DIIS error is below 1.0E-08
 using 4 threads for integral computing
 -------------------------------------------------------
 OpenMP Integral computing Module                
 Release: version 1.0, May 2013, Q-Chem Inc. Pittsburgh 
 -------------------------------------------------------
 -------------------------------------------------------
 OpenMP BLAS3 based DFT computing Module                
 Release: version 1.0, May 2013, Q-Chem Inc. Pittsburgh 
 -------------------------------------------------------
 ---------------------------------------
  Cycle       Energy         DIIS Error
 ---------------------------------------
    1    -229.9117604422      1.02E-01
    2    -218.7612602522      7.33E-02
    3    -266.1431911626      6.34E-02
    4    -276.2560433434      4.60E-02
    5    -271.7220510954      4.99E-02
    6    -286.3888935225      1.10E-02
    7    -286.6502865419      7.54E-03
    8    -286.7690876285      4.96E-03
    9    -286.8446979954      1.81E-03
   10    -286.8550137070      4.14E-04
   11    -286.8556780245      1.51E-04
   12    -286.8557585967      5.31E-05
   13    -286.8557775614      2.06E-05
   14    -286.8557827444      1.02E-05
   15    -286.8557852938      3.13E-06
   16    -286.8557863383      1.69E-06
   17    -286.8557867691      1.06E-06
   18    -286.8557869393      2.24E-07
   19    -286.8557869592      6.55E-08
   20    -286.8557869642      4.48E-08
   21    -286.8557869675      3.05E-08
   22    -286.8557869682      7.89E-09 Convergence criterion met
 ---------------------------------------
 <S^2> = 0.7775
 SCF time:  CPU 110.99 s  wall 44.44 s
 SCF   energy in the final basis set = -286.85578697
 Total energy in the final basis set = -286.85578697
 
 --------------------------------------------------------------
 
                    Orbital Energies (a.u.)
 --------------------------------------------------------------
 
 Alpha MOs
 -- Occupied --
-14.376 -10.245 -10.230 -10.229 -10.204 -10.201 -10.199  -0.995
 -0.820  -0.751  -0.706  -0.612  -0.580  -0.552  -0.515  -0.491
 -0.432  -0.418  -0.409  -0.401  -0.364  -0.308  -0.292  -0.247
 -0.165
 -- Virtual --
 -0.009   0.002   0.011   0.023   0.025   0.036   0.041   0.047
  0.054   0.064   0.073   0.083   0.091   0.098   0.112   0.115
  0.126   0.130   0.143   0.150   0.154   0.163   0.180   0.192
  0.197   0.203   0.207   0.217   0.223   0.230   0.237   0.251
  0.260   0.266   0.278   0.284   0.298   0.303   0.331   0.346
  0.383   0.417   0.455   0.508   0.641   0.648   0.671   0.698
  0.705   0.716   0.727   0.736   0.748   0.755   0.783   0.802
  0.844   0.850   0.857   0.894   0.904   0.917   0.938   0.957
  0.975   1.015   1.039   1.060   1.082   1.120   1.143   1.158
  1.185   1.226   1.238   1.310   1.351   1.370   1.390   1.445
  1.465   1.500   1.618   1.642   1.718   1.791   1.845   1.858
  1.871   1.903   1.915   1.938   1.964   1.997   2.026   2.057
  2.118   2.153   2.167   2.257   2.269   2.284   2.361   2.384
  2.390   2.433   2.468   2.473   2.490   2.518   2.535   2.562
  2.593   2.626   2.641   2.671   2.684   2.737   2.758   2.798
  2.867   2.898   2.936   3.047   3.197   3.250   3.260   3.352
  3.509   3.682   3.752   4.260   4.338   4.380   4.423   4.544
  4.685   4.770
 
 Beta MOs
 -- Occupied --
-14.374 -10.247 -10.229 -10.225 -10.202 -10.196 -10.193  -0.990
 -0.813  -0.742  -0.702  -0.603  -0.575  -0.548  -0.511  -0.484
 -0.424  -0.414  -0.406  -0.397  -0.355  -0.294  -0.271  -0.234
 -- Virtual --
 -0.079  -0.000   0.007   0.012   0.025   0.026   0.040   0.043
  0.048   0.057   0.066   0.075   0.085   0.094   0.100   0.113
  0.119   0.127   0.132   0.144   0.152   0.156   0.165   0.181
  0.193   0.197   0.204   0.210   0.219   0.224   0.232   0.239
  0.254   0.263   0.269   0.283   0.287   0.300   0.304   0.336
  0.350   0.386   0.421   0.461   0.516   0.645   0.653   0.677
  0.703   0.712   0.722   0.730   0.743   0.750   0.766   0.790
  0.808   0.846   0.855   0.860   0.898   0.905   0.921   0.942
  0.963   0.980   1.021   1.043   1.063   1.090   1.125   1.146
  1.162   1.189   1.228   1.243   1.318   1.359   1.376   1.395
  1.451   1.471   1.509   1.627   1.653   1.732   1.797   1.850
  1.864   1.875   1.908   1.919   1.947   1.968   2.003   2.032
  2.063   2.123   2.162   2.176   2.262   2.273   2.290   2.363
  2.387   2.394   2.437   2.475   2.481   2.499   2.520   2.543
  2.566   2.601   2.631   2.646   2.676   2.689   2.741   2.763
  2.804   2.869   2.902   2.938   3.053   3.199   3.254   3.262
  3.355   3.512   3.688   3.755   4.266   4.344   4.383   4.430
  4.549   4.692   4.775
 --------------------------------------------------------------
 
          Ground-State Mulliken Net Atomic Charges

     Atom                 Charge (a.u.)    Spin (a.u.)
  --------------------------------------------------------
      1 C                    -0.134834      -0.069166
      2 C                    -0.324734      -0.164818
      3 C                    -0.047456       0.491203
      4 C                    -0.092289      -0.173107
      5 C                    -0.049518       0.410482
      6 N                    -0.063273       0.049682
      7 H                     0.134686       0.009795
      8 H                     0.161255       0.025049
      9 H                     0.131082      -0.022202
     10 H                     0.132354       0.003878
     11 H                     0.139118      -0.018598
     12 C                    -0.115271       0.433667
     13 H                     0.128881       0.024136
  --------------------------------------------------------
  Sum of atomic charges =     0.000000
  Sum of spin   charges =     1.000000

 -----------------------------------------------------------------
                    Cartesian Multipole Moments
 -----------------------------------------------------------------
    Charge (ESU x 10^10)
                -0.0000
    Dipole Moment (Debye)
         X      -0.0527      Y       0.3689      Z       0.0847
       Tot       0.3822
    Quadrupole Moments (Debye-Ang)
        XX     -40.6733     XY       0.6224     YY     -37.0308
        XZ      -3.5621     YZ       0.4781     ZZ     -43.6781
    Octopole Moments (Debye-Ang^2)
       XXX       9.9073    XXY       0.1519    XYY      -0.1282
       YYY       3.8983    XXZ       6.1242    XYZ      -1.9802
       YYZ       0.6951    XZZ      -3.3208    YZZ      -1.1588
       ZZZ       8.4167
    Hexadecapole Moments (Debye-Ang^3)
      XXXX    -421.1000   XXXY      -6.0997   XXYY    -108.0416
      XYYY       4.8985   YYYY    -224.9132   XXXZ      65.1585
      XXYZ       0.1347   XYYZ      17.9742   YYYZ       8.0625
      XXZZ     -98.2069   XYZZ       2.9377   YYZZ     -67.7059
      XZZZ      74.5690   YZZZ      13.4211   ZZZZ    -178.8700
 -----------------------------------------------------------------
 Calculating analytic gradient of the SCF energy
 Gradient of SCF Energy
            1           2           3           4           5           6
    1   0.0017546  -0.0101000  -0.0054629  -0.0004677  -0.0008365   0.0007879
    2  -0.0074178  -0.0020918  -0.0013055   0.0017404   0.0009284  -0.0037386
    3   0.0019715  -0.0084132   0.0011565   0.0000786   0.0019613   0.0025371
            7           8           9          10          11          12
    1  -0.0010255   0.0018950  -0.0004920  -0.0002195   0.0008185   0.0063969
    2   0.0007457   0.0012775   0.0007409   0.0006681  -0.0006052   0.0082278
    3  -0.0009419   0.0038599  -0.0007349   0.0008435   0.0001135  -0.0024428
           13
    1   0.0069513
    2   0.0008301
    3   0.0000109
 Max gradient component =       1.010E-02
 RMS gradient           =       3.550E-03
 Gradient time:  CPU 16.86 s  wall 4.51 s
rPathMan2.  file_steps = 951
 IRC --- Status = 3.  Assess initial corrector step
 IRC --- bisector search: b =  0.000000 E =     -286.855871 G.B =  -0.001909
 IRC --- bisector search: b =  0.015776 E =     -286.855787 G.B =   0.012576
 IRC --- performed gradient/energy interpolation
 IRC --- bisector search:  estimate b(min) =   2.082387460840436E-003
 ----------------------------------------------------------------
             Standard Nuclear Orientation (Angstroms)
    I     Atom           X                Y                Z
 ----------------------------------------------------------------
    1      C       1.3697246662     0.6917835051    -0.7596362132
    2      C      -0.0492607473    -0.9183365213    -0.4288009457
    3      C      -1.0307816099    -1.0961126439     0.6033287727
    4      C      -1.4918279950     0.1857050357     0.9884831589
    5      C      -0.8628817713     1.1365082959     0.2045079627
    6      N      -0.0504153336     0.5040130156    -0.7380673852
    7      H       1.8141925165     1.6132832853    -1.1239390172
    8      H       0.0416139718    -1.6120374490    -1.2614827280
    9      H      -1.3938555068    -2.0462978344     0.9719800644
   10      H      -2.2330033827     0.4009999575     1.7498812292
   11      H      -0.8825457223     2.2152365489     0.2692690091
   12      C       1.8440928926    -0.4685383851    -0.3019741956
   13      H       2.8608842634    -0.8733628466    -0.2565207317
 ----------------------------------------------------------------
 Nuclear Repulsion Energy =   270.7161625481 hartrees
 There are       25 alpha and       24 beta electrons

                       Distance Matrix (Angstroms)
             C (  1)   C (  2)   C (  3)   C (  4)   C (  5)   N (  6)
   C (  2)  2.171511
   C (  3)  3.288872  1.435367
   C (  4)  3.391242  2.304040  1.415614
   C (  5)  2.472223  2.299010  2.274169  1.383552
   N (  6)  1.432662  1.455584  2.306700  2.271556  1.395923
   H (  7)  1.086016  3.219437  4.291638  4.174935  3.026353  2.203665
   H (  8)  2.706163  1.087584  2.212178  3.262770  3.243724  2.181766
   H (  9)  4.258281  2.245533  1.081933  2.234213  3.316806  3.351594
   H ( 10)  4.400214  3.355002  2.236351  1.084168  2.192347  3.311222
   H ( 11)  2.907280  3.316767  3.331457  2.237743  1.080849  2.153010
   C ( 12)  1.334476  1.950177  3.078689  3.636163  3.187540  2.173751
   H ( 13)  2.219542  2.915587  3.991744  4.649491  4.256591  3.256488
             H (  7)   H (  8)   H (  9)   H ( 10)   H ( 11)   C ( 12)
   H (  8)  3.682886
   H (  9)  5.298772  2.690262
   H ( 10)  5.109625  4.277209  2.701586
   H ( 11)  3.094475  4.224370  4.349243  2.703221
   C ( 12)  2.238415  2.340337  3.820549  4.646388  3.868272
   H ( 13)  2.833970  3.082835  4.581245  5.621151  4.881513  1.095360

 
 Applying Cartesian multipole field
    Component          Value
    ---------          -----
     (2,0,0)        1.00000E-11
     (0,2,0)        2.00000E-11
     (0,0,2)       -3.00000E-11
 Nucleus-field energy     =     0.0000000030 hartrees
 Requested basis set is 6-31+G(d,p)
 There are 53 shells and 163 basis functions
 A cutoff of  1.0D-14 yielded   1381 shell pairs
 There are     13421 function pairs
 Smallest overlap matrix eigenvalue = 1.67E-05
 Guess MOs from core Hamiltonian diagonalization
 Mixing HOMO and LUMO in initial guess
 Adding  50% of the LUMO to the HOMO
 An unrestricted hybrid HF-DFT SCF calculation will be
 performed using Pulay DIIS extrapolation
 Exchange:     0.2000 Hartree-Fock + 0.0800 Slater + 0.7200 B88
 Correlation:  0.1900 VWN1RPA + 0.8100 LYP
 Using SG-1 standard quadrature grid
 SCF converges when DIIS error is below 1.0E-08
 using 4 threads for integral computing
 -------------------------------------------------------
 OpenMP Integral computing Module                
 Release: version 1.0, May 2013, Q-Chem Inc. Pittsburgh 
 -------------------------------------------------------
 -------------------------------------------------------
 OpenMP BLAS3 based DFT computing Module                
 Release: version 1.0, May 2013, Q-Chem Inc. Pittsburgh 
 -------------------------------------------------------
 ---------------------------------------
  Cycle       Energy         DIIS Error
 ---------------------------------------
    1    -229.7648729838      1.03E-01
    2    -218.5153675924      7.33E-02
    3    -265.2855859567      6.44E-02
    4    -274.1012328906      5.08E-02
    5    -271.2017647646      5.12E-02
    6    -286.3062595797      1.17E-02
    7    -286.6755967852      7.06E-03
    8    -286.7441174749      5.51E-03
    9    -286.8452420031      1.79E-03
   10    -286.8552195588      3.62E-04
   11    -286.8557334847      1.61E-04
   12    -286.8558386445      4.99E-05
   13    -286.8558606854      2.14E-05
   14    -286.8558676934      1.00E-05
   15    -286.8558708461      3.62E-06
   16    -286.8558722068      2.09E-06
   17    -286.8558728147      1.00E-06
   18    -286.8558728912      2.23E-07
   19    -286.8558729014      6.99E-08
   20    -286.8558729066      3.92E-08
   21    -286.8558729090      2.31E-08
   22    -286.8558729095      6.03E-09 Convergence criterion met
 ---------------------------------------
 <S^2> = 0.7774
 SCF time:  CPU 111.01 s  wall 41.46 s
 SCF   energy in the final basis set = -286.85587291
 Total energy in the final basis set = -286.85587291
 
 --------------------------------------------------------------
 
                    Orbital Energies (a.u.)
 --------------------------------------------------------------
 
 Alpha MOs
 -- Occupied --
-14.376 -10.245 -10.230 -10.229 -10.204 -10.201 -10.198  -0.995
 -0.820  -0.752  -0.705  -0.612  -0.580  -0.552  -0.516  -0.491
 -0.431  -0.418  -0.408  -0.400  -0.365  -0.309  -0.292  -0.247
 -0.165
 -- Virtual --
 -0.009   0.001   0.011   0.023   0.025   0.036   0.041   0.047
  0.054   0.065   0.073   0.083   0.091   0.097   0.112   0.115
  0.126   0.130   0.143   0.150   0.154   0.163   0.180   0.192
  0.197   0.203   0.207   0.217   0.222   0.230   0.237   0.251
  0.260   0.267   0.278   0.284   0.298   0.302   0.331   0.346
  0.383   0.418   0.456   0.507   0.642   0.649   0.671   0.698
  0.704   0.716   0.728   0.736   0.748   0.755   0.783   0.801
  0.844   0.849   0.857   0.894   0.904   0.917   0.938   0.957
  0.975   1.016   1.038   1.059   1.082   1.120   1.142   1.158
  1.185   1.226   1.237   1.310   1.351   1.370   1.389   1.445
  1.466   1.501   1.618   1.641   1.718   1.790   1.845   1.857
  1.873   1.904   1.916   1.936   1.963   1.996   2.026   2.058
  2.117   2.154   2.168   2.256   2.266   2.283   2.361   2.384
  2.389   2.433   2.468   2.472   2.490   2.517   2.533   2.559
  2.593   2.624   2.639   2.671   2.683   2.736   2.758   2.798
  2.866   2.899   2.935   3.045   3.196   3.251   3.261   3.345
  3.504   3.680   3.751   4.260   4.339   4.380   4.421   4.543
  4.685   4.770
 
 Beta MOs
 -- Occupied --
-14.374 -10.247 -10.230 -10.225 -10.202 -10.196 -10.192  -0.990
 -0.813  -0.742  -0.701  -0.603  -0.575  -0.547  -0.511  -0.484
 -0.424  -0.414  -0.406  -0.397  -0.356  -0.295  -0.271  -0.233
 -- Virtual --
 -0.079  -0.000   0.006   0.012   0.025   0.026   0.040   0.043
  0.047   0.057   0.066   0.075   0.085   0.094   0.100   0.113
  0.119   0.127   0.132   0.144   0.152   0.156   0.165   0.181
  0.193   0.197   0.204   0.210   0.219   0.224   0.232   0.240
  0.255   0.262   0.269   0.283   0.288   0.300   0.304   0.335
  0.349   0.386   0.422   0.461   0.515   0.646   0.654   0.677
  0.702   0.712   0.721   0.731   0.744   0.750   0.766   0.790
  0.807   0.847   0.853   0.860   0.898   0.905   0.921   0.942
  0.963   0.979   1.021   1.042   1.063   1.090   1.125   1.145
  1.162   1.189   1.228   1.243   1.318   1.359   1.376   1.394
  1.450   1.472   1.510   1.626   1.651   1.732   1.797   1.850
  1.863   1.878   1.908   1.920   1.946   1.967   2.002   2.032
  2.064   2.122   2.163   2.177   2.262   2.271   2.289   2.363
  2.387   2.393   2.438   2.475   2.480   2.499   2.520   2.541
  2.564   2.601   2.630   2.643   2.676   2.688   2.740   2.764
  2.804   2.869   2.903   2.938   3.051   3.198   3.254   3.264
  3.348   3.507   3.687   3.754   4.265   4.345   4.384   4.428
  4.548   4.692   4.774
 --------------------------------------------------------------
 
          Ground-State Mulliken Net Atomic Charges

     Atom                 Charge (a.u.)    Spin (a.u.)
  --------------------------------------------------------
      1 C                    -0.137529      -0.070167
      2 C                    -0.326189      -0.164383
      3 C                    -0.045484       0.487995
      4 C                    -0.094132      -0.170996
      5 C                    -0.047900       0.407684
      6 N                    -0.062365       0.049603
      7 H                     0.134957       0.009676
      8 H                     0.161491       0.025681
      9 H                     0.131359      -0.022091
     10 H                     0.132318       0.003793
     11 H                     0.139075      -0.018464
     12 C                    -0.114316       0.437160
     13 H                     0.128714       0.024509
  --------------------------------------------------------
  Sum of atomic charges =     0.000000
  Sum of spin   charges =     1.000000

 -----------------------------------------------------------------
                    Cartesian Multipole Moments
 -----------------------------------------------------------------
    Charge (ESU x 10^10)
                 0.0000
    Dipole Moment (Debye)
         X      -0.0630      Y       0.3780      Z       0.0846
       Tot       0.3924
    Quadrupole Moments (Debye-Ang)
        XX     -40.6916     XY       0.6402     YY     -37.0362
        XZ      -3.5645     YZ       0.4537     ZZ     -43.6825
    Octopole Moments (Debye-Ang^2)
       XXX       9.8399    XXY       0.1779    XYY      -0.1433
       YYY       3.9545    XXZ       6.1018    XYZ      -1.9904
       YYZ       0.6863    XZZ      -3.3572    YZZ      -1.1401
       ZZZ       8.4049
    Hexadecapole Moments (Debye-Ang^3)
      XXXX    -421.1391   XXXY      -5.9402   XXYY    -108.0706
      XYYY       5.0311   YYYY    -225.1408   XXXZ      65.0266
      XXYZ       0.1091   XYYZ      17.9303   YYYZ       8.0406
      XXZZ     -98.2044   XYZZ       2.9773   YYZZ     -67.6774
      XZZZ      74.5152   YZZZ      13.4141   ZZZZ    -178.7341
 -----------------------------------------------------------------
 Calculating analytic gradient of the SCF energy
 Gradient of SCF Energy
            1           2           3           4           5           6
    1   0.0006521  -0.0125085  -0.0027033  -0.0007973   0.0002850  -0.0003067
    2  -0.0014997  -0.0004028  -0.0000923   0.0012567  -0.0003699  -0.0020095
    3  -0.0004938  -0.0015261  -0.0021766   0.0005339   0.0005753   0.0028144
            7           8           9          10          11          12
    1  -0.0014085   0.0021673  -0.0009172  -0.0001647   0.0008335   0.0086177
    2  -0.0000442  -0.0010930  -0.0000227   0.0007205  -0.0002476   0.0024139
    3  -0.0005119   0.0006149  -0.0002554   0.0008529   0.0001337  -0.0004543
           13
    1   0.0062506
    2   0.0013908
    3  -0.0001070
 Max gradient component =       1.251E-02
 RMS gradient           =       2.873E-03
 Gradient time:  CPU 16.41 s  wall 4.24 s
rPathMan2.  file_steps = 951
 IRC --- Status = 4.  Checking bisector search.
 IRC --- Bisector search finished successfully.
 ------------------------------------------------------------------------
 Reaction path following.  The coordinates are cartesian              
 Step   2 E=    -286.855873 |G|=  0.017939 S_lin= 0.1498 S_tot= 0.1498
 ------------------------------------------------------------------------
  IRC -- SD step length =   0.150000000000000     
 ----------------------------------------------------------------
             Standard Nuclear Orientation (Angstroms)
    I     Atom           X                Y                Z
 ----------------------------------------------------------------
    1      C       1.3668393863     0.6984194979    -0.7574510435
    2      C       0.0060863650    -0.9165540654    -0.4220484628
    3      C      -1.0188201961    -1.0957040876     0.6129597226
    4      C      -1.4883001877     0.1801443560     0.9861209882
    5      C      -0.8641429658     1.1381451919     0.2019623758
    6      N      -0.0490582118     0.5129046862    -0.7505206134
    7      H       1.8204246309     1.6134790489    -1.1216741119
    8      H       0.0320241608    -1.6072012607    -1.2642035048
    9      H      -1.3897971401    -2.0461973482     0.9731099951
   10      H      -2.2322744192     0.3978118946     1.7461074473
   11      H      -0.8862337523     2.2163322078     0.2686773044
   12      C       1.8059617141    -0.4792195330    -0.2999640241
   13      H       2.8332268574    -0.8795166247    -0.2560470926
 ----------------------------------------------------------------
 Nuclear Repulsion Energy =   271.0464376319 hartrees
 There are       25 alpha and       24 beta electrons

                       Distance Matrix (Angstroms)
             C (  1)   C (  2)   C (  3)   C (  4)   C (  5)   N (  6)
   C (  2)  2.138290
   C (  3)  3.284551  1.467573
   C (  4)  3.385332  2.327849  1.409770
   C (  5)  2.468018  2.316998  2.276604  1.386450
   N (  6)  1.428016  1.467749  2.321021  2.279928  1.400897
   H (  7)  1.084312  3.190982  4.290680  4.176710  3.030653  2.200905
   H (  8)  2.711903  1.089445  2.211254  3.251146  3.238778  2.182955
   H (  9)  4.257559  2.273995  1.082021  2.228558  3.318285  3.364147
   H ( 10)  4.394518  3.382117  2.233178  1.085567  2.191862  3.318559
   H ( 11)  2.904021  3.329912  3.332521  2.241265  1.080475  2.154366
   C ( 12)  1.337519  1.856264  3.031976  3.597351  3.161844  2.151374
   H ( 13)  2.211692  2.832252  3.954766  4.619682  4.236895  3.238967
             H (  7)   H (  8)   H (  9)   H ( 10)   H ( 11)   C ( 12)
   H (  8)  3.686661
   H (  9)  5.299705  2.686981
   H ( 10)  5.111398  4.267212  2.698235
   H ( 11)  3.102017  4.220466  4.349593  2.702155
   C ( 12)  2.248289  2.312781  3.780081  4.611176  3.851918
   H ( 13)  2.826678  3.064742  4.550374  5.594595  4.867649  1.103377

 
 Applying Cartesian multipole field
    Component          Value
    ---------          -----
     (2,0,0)        1.00000E-11
     (0,2,0)        2.00000E-11
     (0,0,2)       -3.00000E-11
 Nucleus-field energy     =     0.0000000030 hartrees
 Requested basis set is 6-31+G(d,p)
 There are 53 shells and 163 basis functions
 A cutoff of  1.0D-14 yielded   1380 shell pairs
 There are     13418 function pairs
 Smallest overlap matrix eigenvalue = 1.73E-05
 Guess MOs from core Hamiltonian diagonalization
 Mixing HOMO and LUMO in initial guess
 Adding  50% of the LUMO to the HOMO
 An unrestricted hybrid HF-DFT SCF calculation will be
 performed using Pulay DIIS extrapolation
 Exchange:     0.2000 Hartree-Fock + 0.0800 Slater + 0.7200 B88
 Correlation:  0.1900 VWN1RPA + 0.8100 LYP
 Using SG-1 standard quadrature grid
 SCF converges when DIIS error is below 1.0E-08
 using 4 threads for integral computing
 -------------------------------------------------------
 OpenMP Integral computing Module                
 Release: version 1.0, May 2013, Q-Chem Inc. Pittsburgh 
 -------------------------------------------------------
 -------------------------------------------------------
 OpenMP BLAS3 based DFT computing Module                
 Release: version 1.0, May 2013, Q-Chem Inc. Pittsburgh 
 -------------------------------------------------------
 ---------------------------------------
  Cycle       Energy         DIIS Error
 ---------------------------------------
    1    -230.6588340953      1.02E-01
    2    -220.1014789496      7.19E-02
    3    -266.9273349493      6.51E-02
    4    -282.0809750832      3.07E-02
    5    -279.2345512621      4.28E-02
    6    -286.1781063296      1.27E-02
    7    -286.5003634496      9.25E-03
    8    -286.7982631692      3.75E-03
    9    -286.8474397292      1.87E-03
   10    -286.8589762725      3.33E-04
   11    -286.8594550183      1.30E-04
   12    -286.8595375530      6.20E-05
   13    -286.8595660767      1.19E-05
   14    -286.8595703347      9.45E-06
   15    -286.8595725750      3.11E-06
   16    -286.8595736129      1.04E-06
   17    -286.8595737441      2.86E-07
   18    -286.8595737599      1.33E-07
   19    -286.8595737644      7.25E-08
   20    -286.8595737667      2.77E-08
   21    -286.8595737681      1.21E-08
   22    -286.8595737684      3.67E-09 Convergence criterion met
 ---------------------------------------
 <S^2> = 0.7725
 SCF time:  CPU 110.63 s  wall 40.11 s
 SCF   energy in the final basis set = -286.85957377
 Total energy in the final basis set = -286.85957377
 
 --------------------------------------------------------------
 
                    Orbital Energies (a.u.)
 --------------------------------------------------------------
 
 Alpha MOs
 -- Occupied --
-14.372 -10.250 -10.229 -10.229 -10.206 -10.201 -10.199  -0.994
 -0.819  -0.751  -0.701  -0.615  -0.577  -0.549  -0.515  -0.490
 -0.429  -0.415  -0.405  -0.400  -0.360  -0.315  -0.297  -0.246
 -0.162
 -- Virtual --
 -0.003   0.001   0.011   0.023   0.025   0.036   0.042   0.047
  0.055   0.065   0.073   0.084   0.093   0.098   0.111   0.115
  0.126   0.131   0.142   0.151   0.153   0.163   0.180   0.190
  0.197   0.203   0.207   0.216   0.222   0.231   0.236   0.250
  0.259   0.266   0.276   0.282   0.300   0.303   0.330   0.348
  0.377   0.415   0.455   0.508   0.641   0.645   0.671   0.698
  0.705   0.714   0.727   0.735   0.745   0.753   0.784   0.800
  0.839   0.845   0.857   0.894   0.904   0.918   0.932   0.956
  0.973   1.018   1.037   1.061   1.091   1.115   1.145   1.153
  1.188   1.232   1.251   1.313   1.352   1.367   1.389   1.445
  1.473   1.501   1.607   1.627   1.724   1.798   1.847   1.856
  1.863   1.894   1.917   1.945   1.963   2.003   2.029   2.058
  2.112   2.155   2.161   2.251   2.277   2.289   2.361   2.385
  2.394   2.430   2.468   2.478   2.489   2.517   2.529   2.554
  2.594   2.620   2.650   2.676   2.679   2.723   2.758   2.796
  2.853   2.896   2.917   3.041   3.187   3.252   3.262   3.357
  3.484   3.669   3.742   4.264   4.323   4.379   4.427   4.535
  4.696   4.774
 
 Beta MOs
 -- Occupied --
-14.369 -10.251 -10.229 -10.223 -10.203 -10.201 -10.192  -0.988
 -0.813  -0.741  -0.697  -0.605  -0.572  -0.545  -0.511  -0.484
 -0.422  -0.411  -0.402  -0.397  -0.351  -0.300  -0.279  -0.233
 -- Virtual --
 -0.075   0.001   0.008   0.012   0.025   0.027   0.040   0.043
  0.048   0.058   0.067   0.074   0.086   0.096   0.102   0.112
  0.119   0.127   0.133   0.143   0.152   0.157   0.165   0.181
  0.191   0.197   0.204   0.210   0.218   0.224   0.233   0.239
  0.254   0.262   0.268   0.282   0.285   0.301   0.305   0.334
  0.352   0.380   0.418   0.460   0.515   0.644   0.651   0.676
  0.703   0.710   0.723   0.730   0.743   0.746   0.765   0.790
  0.808   0.842   0.848   0.860   0.898   0.904   0.920   0.936
  0.962   0.978   1.023   1.042   1.065   1.097   1.121   1.148
  1.157   1.191   1.236   1.255   1.322   1.362   1.373   1.394
  1.452   1.479   1.508   1.615   1.635   1.736   1.804   1.853
  1.860   1.868   1.899   1.921   1.954   1.967   2.009   2.036
  2.065   2.116   2.164   2.172   2.256   2.281   2.295   2.363
  2.388   2.399   2.434   2.476   2.485   2.499   2.522   2.534
  2.560   2.601   2.625   2.655   2.681   2.684   2.726   2.764
  2.802   2.855   2.900   2.920   3.046   3.188   3.255   3.264
  3.360   3.487   3.674   3.745   4.270   4.330   4.383   4.433
  4.541   4.703   4.778
 --------------------------------------------------------------
 
          Ground-State Mulliken Net Atomic Charges

     Atom                 Charge (a.u.)    Spin (a.u.)
  --------------------------------------------------------
      1 C                    -0.136599      -0.045735
      2 C                    -0.305569      -0.139009
      3 C                    -0.077779       0.570139
      4 C                    -0.074984      -0.211069
      5 C                    -0.060777       0.483827
      6 N                    -0.079867       0.053872
      7 H                     0.134722       0.004883
      8 H                     0.158946       0.025541
      9 H                     0.130770      -0.025681
     10 H                     0.132381       0.005215
     11 H                     0.138403      -0.022061
     12 C                    -0.089753       0.277364
     13 H                     0.130106       0.022714
  --------------------------------------------------------
  Sum of atomic charges =    -0.000000
  Sum of spin   charges =     1.000000

 -----------------------------------------------------------------
                    Cartesian Multipole Moments
 -----------------------------------------------------------------
    Charge (ESU x 10^10)
                -0.0000
    Dipole Moment (Debye)
         X       0.0854      Y       0.3417      Z       0.1063
       Tot       0.3679
    Quadrupole Moments (Debye-Ang)
        XX     -40.4731     XY       0.6107     YY     -37.0940
        XZ      -3.5973     YZ       0.4994     ZZ     -43.8848
    Octopole Moments (Debye-Ang^2)
       XXX      10.1429    XXY       0.3321    XYY       0.0551
       YYY       3.9890    XXZ       5.8717    XYZ      -2.2539
       YYZ       0.6169    XZZ      -3.2531    YZZ      -0.9374
       ZZZ       8.2961
    Hexadecapole Moments (Debye-Ang^3)
      XXXX    -412.5566   XXXY      -4.6352   XXYY    -107.1373
      XYYY       5.7708   YYYY    -226.6595   XXXZ      64.4802
      XXYZ       0.3564   XYYZ      18.0727   YYYZ       8.5441
      XXZZ     -96.9616   XYZZ       3.3043   YYZZ     -68.3743
      XZZZ      74.2472   YZZZ      14.4005   ZZZZ    -180.0441
 -----------------------------------------------------------------
 Calculating analytic gradient of the SCF energy
 Gradient of SCF Energy
            1           2           3           4           5           6
    1   0.0006382  -0.0184515  -0.0079997  -0.0016462  -0.0000278   0.0007094
    2  -0.0026207  -0.0011720  -0.0001737   0.0017459   0.0003378  -0.0041321
    3  -0.0009805  -0.0059320  -0.0018309   0.0008827   0.0019242   0.0047136
            7           8           9          10          11          12
    1  -0.0028703   0.0030396  -0.0016616  -0.0003158   0.0015910   0.0144869
    2  -0.0005471  -0.0012693   0.0000999   0.0013998  -0.0005292   0.0038008
    3  -0.0011319   0.0017983  -0.0005686   0.0015827   0.0002812  -0.0001870
           13
    1   0.0125079
    2   0.0030598
    3  -0.0005517
 Max gradient component =       1.845E-02
 RMS gradient           =       4.877E-03
 Gradient time:  CPU 16.43 s  wall 4.29 s
rPathMan2.  file_steps = 951
 IRC --- Status = 2.  Assess steepest descent step
 IRC --- Previous SD length =   0.150000
 IRC --- Point 1 E =     -286.855873 |G| =   0.017939 G.D1 =  -0.017939
 IRC --- Point 2 E =     -286.859574 |G| =   0.030458 G.D1 =  -0.029711
 IRC --- Angle(G1/G2) =   12.72 Deg.  Curvature =  -0.0785
 IRC --- Corrector step required
 IRC --- equal length displacement: B_eq =   0.033232
 IRC --- chosen bisector length  : B_len =   0.016616
 ----------------------------------------------------------------
             Standard Nuclear Orientation (Angstroms)
    I     Atom           X                Y                Z
 ----------------------------------------------------------------
    1      C       1.3674504703     0.6985163567    -0.7572659367
    2      C       0.0024558543    -0.9159181124    -0.4176950518
    3      C      -1.0143770030    -1.0956820846     0.6105299445
    4      C      -1.4879190687     0.1806497471     0.9861518928
    5      C      -0.8634761069     1.1368865638     0.2007279181
    6      N      -0.0506611668     0.5138431502    -0.7504360191
    7      H       1.8210487457     1.6140941004    -1.1213315994
    8      H       0.0328583863    -1.6079654062    -1.2651863957
    9      H      -1.3896611582    -2.0463777603     0.9732858813
   10      H      -2.2322273501     0.3975818764     1.7459320367
   11      H      -0.8864628399     2.2164738852     0.2686066960
   12      C       1.8061503065    -0.4788315185    -0.3007253950
   13      H       2.8307571721    -0.8804268341    -0.2555649914
 ----------------------------------------------------------------
 Nuclear Repulsion Energy =   271.1550706171 hartrees
 There are       25 alpha and       24 beta electrons

                       Distance Matrix (Angstroms)
             C (  1)   C (  2)   C (  3)   C (  4)   C (  5)   N (  6)
   C (  2)  2.141242
   C (  3)  3.280719  1.457227
   C (  4)  3.385384  2.322599  1.412217
   C (  5)  2.467175  2.312205  2.274878  1.386077
   N (  6)  1.430102  1.468930  2.317660  2.278698  1.397700
   H (  7)  1.084702  3.194268  4.287408  4.176783  3.030221  2.202592
   H (  8)  2.712744  1.094575  2.208494  3.252758  3.238292  2.184952
   H (  9)  4.258042  2.269528  1.084552  2.229231  3.317663  3.364353
   H ( 10)  4.394797  3.376444  2.236545  1.085505  2.192648  3.317318
   H ( 11)  2.904606  3.327622  3.332214  2.240804  1.081963  2.153129
   C ( 12)  1.336800  1.859581  3.027584  3.597480  3.160523  2.152996
   H ( 13)  2.210437  2.833167  3.947342  4.617219  4.233806  3.239052
             H (  7)   H (  8)   H (  9)   H ( 10)   H ( 11)   C ( 12)
   H (  8)  3.687816
   H (  9)  5.300484  2.688220
   H ( 10)  5.111766  4.268450  2.698118
   H ( 11)  3.102484  4.221849  4.349906  2.702210
   C ( 12)  2.248100  2.312940  3.780677  4.611442  3.852139
   H ( 13)  2.826959  3.062170  4.547686  5.592236  4.866546  1.101425

 
 Applying Cartesian multipole field
    Component          Value
    ---------          -----
     (2,0,0)        1.00000E-11
     (0,2,0)        2.00000E-11
     (0,0,2)       -3.00000E-11
 Nucleus-field energy     =     0.0000000030 hartrees
 Requested basis set is 6-31+G(d,p)
 There are 53 shells and 163 basis functions
 A cutoff of  1.0D-14 yielded   1380 shell pairs
 There are     13418 function pairs
 Smallest overlap matrix eigenvalue = 1.71E-05
 Guess MOs from core Hamiltonian diagonalization
 Mixing HOMO and LUMO in initial guess
 Adding  50% of the LUMO to the HOMO
 An unrestricted hybrid HF-DFT SCF calculation will be
 performed using Pulay DIIS extrapolation
 Exchange:     0.2000 Hartree-Fock + 0.0800 Slater + 0.7200 B88
 Correlation:  0.1900 VWN1RPA + 0.8100 LYP
 Using SG-1 standard quadrature grid
 SCF converges when DIIS error is below 1.0E-08
 using 4 threads for integral computing
 -------------------------------------------------------
 OpenMP Integral computing Module                
 Release: version 1.0, May 2013, Q-Chem Inc. Pittsburgh 
 -------------------------------------------------------
 -------------------------------------------------------
 OpenMP BLAS3 based DFT computing Module                
 Release: version 1.0, May 2013, Q-Chem Inc. Pittsburgh 
 -------------------------------------------------------
 ---------------------------------------
  Cycle       Energy         DIIS Error
 ---------------------------------------
    1    -230.5522925639      1.02E-01
    2    -219.9056561552      7.19E-02
    3    -267.0486750493      6.45E-02
    4    -281.8335042272      3.40E-02
    5    -277.6936514658      4.59E-02
    6    -286.3983433714      1.08E-02
    7    -286.6996475954      6.17E-03
    8    -286.7597140100      5.20E-03
    9    -286.8528177433      1.36E-03
   10    -286.8586264240      4.40E-04
   11    -286.8594286424      1.52E-04
   12    -286.8595055848      7.65E-05
   13    -286.8595335320      1.28E-05
   14    -286.8595376063      6.39E-06
   15    -286.8595389932      3.88E-06
   16    -286.8595400454      1.29E-06
   17    -286.8595401984      3.49E-07
   18    -286.8595402141      2.00E-07
   19    -286.8595402217      5.60E-08
   20    -286.8595402264      3.55E-08
   21    -286.8595402281      1.49E-08
   22    -286.8595402284      4.92E-09 Convergence criterion met
 ---------------------------------------
 <S^2> = 0.7725
 SCF time:  CPU 111.38 s  wall 39.94 s
 SCF   energy in the final basis set = -286.85954023
 Total energy in the final basis set = -286.85954023
 
 --------------------------------------------------------------
 
                    Orbital Energies (a.u.)
 --------------------------------------------------------------
 
 Alpha MOs
 -- Occupied --
-14.372 -10.249 -10.229 -10.229 -10.206 -10.201 -10.199  -0.994
 -0.819  -0.752  -0.701  -0.614  -0.578  -0.549  -0.515  -0.491
 -0.430  -0.415  -0.405  -0.399  -0.361  -0.316  -0.296  -0.246
 -0.162
 -- Virtual --
 -0.003   0.001   0.011   0.023   0.025   0.036   0.042   0.047
  0.055   0.065   0.073   0.084   0.093   0.098   0.111   0.115
  0.126   0.131   0.142   0.151   0.153   0.163   0.180   0.190
  0.197   0.202   0.207   0.216   0.222   0.230   0.236   0.250
  0.259   0.266   0.277   0.282   0.299   0.302   0.330   0.348
  0.378   0.416   0.456   0.508   0.641   0.647   0.671   0.697
  0.705   0.714   0.728   0.736   0.745   0.753   0.784   0.801
  0.840   0.845   0.857   0.893   0.904   0.917   0.933   0.956
  0.973   1.018   1.036   1.060   1.091   1.115   1.145   1.153
  1.188   1.232   1.250   1.313   1.353   1.367   1.389   1.446
  1.472   1.501   1.607   1.627   1.724   1.797   1.846   1.859
  1.865   1.895   1.918   1.945   1.962   2.003   2.030   2.060
  2.112   2.156   2.163   2.248   2.277   2.289   2.363   2.385
  2.394   2.430   2.468   2.478   2.489   2.517   2.529   2.552
  2.594   2.621   2.649   2.674   2.680   2.723   2.758   2.797
  2.853   2.897   2.919   3.041   3.186   3.252   3.262   3.349
  3.480   3.671   3.740   4.265   4.325   4.380   4.427   4.536
  4.696   4.775
 
 Beta MOs
 -- Occupied --
-14.370 -10.251 -10.229 -10.223 -10.203 -10.201 -10.192  -0.988
 -0.813  -0.742  -0.698  -0.605  -0.573  -0.544  -0.511  -0.484
 -0.422  -0.412  -0.402  -0.395  -0.352  -0.300  -0.279  -0.234
 -- Virtual --
 -0.075   0.001   0.008   0.012   0.025   0.027   0.040   0.043
  0.048   0.058   0.067   0.074   0.086   0.096   0.102   0.112
  0.119   0.127   0.133   0.143   0.152   0.157   0.165   0.181
  0.191   0.197   0.204   0.210   0.218   0.223   0.233   0.239
  0.254   0.262   0.269   0.282   0.286   0.301   0.304   0.334
  0.352   0.381   0.420   0.461   0.515   0.644   0.653   0.676
  0.702   0.711   0.723   0.730   0.744   0.746   0.765   0.790
  0.808   0.843   0.849   0.860   0.897   0.904   0.920   0.937
  0.961   0.977   1.023   1.041   1.065   1.097   1.121   1.148
  1.156   1.192   1.235   1.254   1.322   1.362   1.373   1.394
  1.452   1.478   1.508   1.616   1.635   1.736   1.803   1.852
  1.863   1.870   1.900   1.922   1.954   1.966   2.010   2.037
  2.067   2.117   2.165   2.174   2.253   2.281   2.295   2.364
  2.388   2.399   2.434   2.477   2.485   2.499   2.522   2.534
  2.559   2.601   2.626   2.653   2.680   2.684   2.727   2.765
  2.803   2.856   2.901   2.922   3.046   3.187   3.254   3.265
  3.353   3.483   3.676   3.743   4.271   4.331   4.383   4.433
  4.541   4.703   4.779
 --------------------------------------------------------------
 
          Ground-State Mulliken Net Atomic Charges

     Atom                 Charge (a.u.)    Spin (a.u.)
  --------------------------------------------------------
      1 C                    -0.136865      -0.047385
      2 C                    -0.308506      -0.141173
      3 C                    -0.073622       0.565847
      4 C                    -0.077956      -0.206674
      5 C                    -0.059267       0.474836
      6 N                    -0.080448       0.054488
      7 H                     0.134942       0.005212
      8 H                     0.159038       0.026692
      9 H                     0.131049      -0.025548
     10 H                     0.132339       0.005053
     11 H                     0.138340      -0.021651
     12 C                    -0.089029       0.287493
     13 H                     0.129985       0.022810
  --------------------------------------------------------
  Sum of atomic charges =     0.000000
  Sum of spin   charges =     1.000000

 -----------------------------------------------------------------
                    Cartesian Multipole Moments
 -----------------------------------------------------------------
    Charge (ESU x 10^10)
                 0.0000
    Dipole Moment (Debye)
         X       0.0854      Y       0.3440      Z       0.1111
       Tot       0.3714
    Quadrupole Moments (Debye-Ang)
        XX     -40.4632     XY       0.6089     YY     -37.1133
        XZ      -3.5946     YZ       0.4827     ZZ     -43.8804
    Octopole Moments (Debye-Ang^2)
       XXX      10.0811    XXY       0.2927    XYY       0.0747
       YYY       4.0018    XXZ       5.8880    XYZ      -2.2387
       YYZ       0.6259    XZZ      -3.2570    YZZ      -0.9486
       ZZZ       8.3120
    Hexadecapole Moments (Debye-Ang^3)
      XXXX    -412.2389   XXXY      -4.6347   XXYY    -107.0191
      XYYY       5.7503   YYYY    -226.8524   XXXZ      64.3456
      XXYZ       0.3442   XYYZ      18.0270   YYYZ       8.5465
      XXZZ     -96.8200   XYZZ       3.2952   YYZZ     -68.3459
      XZZZ      74.1238   YZZZ      14.3892   ZZZZ    -179.8435
 -----------------------------------------------------------------
 Calculating analytic gradient of the SCF energy
 Gradient of SCF Energy
            1           2           3           4           5           6
    1   0.0015427  -0.0211937  -0.0031116  -0.0023966   0.0013807  -0.0012297
    2  -0.0029321   0.0004715   0.0009014   0.0023270  -0.0021907  -0.0026795
    3  -0.0006071   0.0015103  -0.0064514   0.0014715   0.0003331   0.0047730
            7           8           9          10          11          12
    1  -0.0027103   0.0031096  -0.0025545  -0.0003748   0.0015550   0.0146713
    2  -0.0002755  -0.0030305  -0.0011877   0.0014350   0.0004103   0.0034707
    3  -0.0011085  -0.0009810   0.0002685   0.0015977   0.0004211  -0.0005892
           13
    1   0.0113119
    2   0.0032801
    3  -0.0006379
 Max gradient component =       2.119E-02
 RMS gradient           =       5.006E-03
 Gradient time:  CPU 16.67 s  wall 4.70 s
rPathMan2.  file_steps = 951
 IRC --- Status = 3.  Assess initial corrector step
 IRC --- bisector search: b =  0.000000 E =     -286.859574 G.B =  -0.003374
 IRC --- bisector search: b =  0.016616 E =     -286.859540 G.B =   0.007460
 IRC --- performed gradient/energy interpolation
 IRC --- bisector search:  estimate b(min) =   5.198193615724926E-003
 ----------------------------------------------------------------
             Standard Nuclear Orientation (Angstroms)
    I     Atom           X                Y                Z
 ----------------------------------------------------------------
    1      C       1.3670305578     0.6984497992    -0.7573931347
    2      C       0.0049505959    -0.9163551138    -0.4206865415
    3      C      -1.0174301874    -1.0956972042     0.6121995907
    4      C      -1.4881809584     0.1803024626     0.9861306564
    5      C      -0.8639343456     1.1377514426     0.2015761880
    6      N      -0.0495596803     0.5131982753    -0.7504941489
    7      H       1.8206198790     1.6136714616    -1.1215669603
    8      H       0.0322851400    -1.6074403160    -1.2645109924
    9      H      -1.3897545995    -2.0462537883     0.9731650193
   10      H      -2.2322596941     0.3977399357     1.7460525719
   11      H      -0.8863054201     2.2163765302     0.2686552153
   12      C       1.8060207134    -0.4790981465    -0.3002022114
   13      H       2.8324542410    -0.8798013747    -0.2558962720
 ----------------------------------------------------------------
 Nuclear Repulsion Energy =   271.0802672028 hartrees
 There are       25 alpha and       24 beta electrons

                       Distance Matrix (Angstroms)
             C (  1)   C (  2)   C (  3)   C (  4)   C (  5)   N (  6)
   C (  2)  2.139212
   C (  3)  3.283352  1.464336
   C (  4)  3.385349  2.326206  1.410534
   C (  5)  2.467755  2.315497  2.276064  1.386333
   N (  6)  1.428668  1.468117  2.319968  2.279543  1.399897
   H (  7)  1.084434  3.192009  4.289657  4.176733  3.030518  2.201433
   H (  8)  2.712166  1.091048  2.210390  3.251650  3.238626  2.183580
   H (  9)  4.257710  2.272597  1.082811  2.228768  3.318091  3.364211
   H ( 10)  4.394605  3.380342  2.234231  1.085548  2.192108  3.318171
   H ( 11)  2.904204  3.329195  3.332424  2.241121  1.080940  2.153979
   C ( 12)  1.337294  1.857300  3.030602  3.597392  3.161431  2.151881
   H ( 13)  2.211299  2.832538  3.952444  4.618911  4.235928  3.238994
             H (  7)   H (  8)   H (  9)   H ( 10)   H ( 11)   C ( 12)
   H (  8)  3.687023
   H (  9)  5.299949  2.687368
   H ( 10)  5.111513  4.267599  2.698199
   H ( 11)  3.102163  4.220898  4.349691  2.702172
   C ( 12)  2.248230  2.312831  3.780267  4.611259  3.851987
   H ( 13)  2.826765  3.063937  4.549533  5.593857  4.867304  1.102766

 
 Applying Cartesian multipole field
    Component          Value
    ---------          -----
     (2,0,0)        1.00000E-11
     (0,2,0)        2.00000E-11
     (0,0,2)       -3.00000E-11
 Nucleus-field energy     =     0.0000000030 hartrees
 Requested basis set is 6-31+G(d,p)
 There are 53 shells and 163 basis functions
 A cutoff of  1.0D-14 yielded   1380 shell pairs
 There are     13418 function pairs
 Smallest overlap matrix eigenvalue = 1.72E-05
 Guess MOs from core Hamiltonian diagonalization
 Mixing HOMO and LUMO in initial guess
 Adding  50% of the LUMO to the HOMO
 An unrestricted hybrid HF-DFT SCF calculation will be
 performed using Pulay DIIS extrapolation
 Exchange:     0.2000 Hartree-Fock + 0.0800 Slater + 0.7200 B88
 Correlation:  0.1900 VWN1RPA + 0.8100 LYP
 Using SG-1 standard quadrature grid
 SCF converges when DIIS error is below 1.0E-08
 using 4 threads for integral computing
 -------------------------------------------------------
 OpenMP Integral computing Module                
[...]
 -0.444  -0.428  -0.416  -0.390  -0.383  -0.314  -0.263  -0.243
 -0.218
 -- Virtual --
 -0.023   0.007   0.022   0.024   0.025   0.039   0.047   0.052
  0.058   0.066   0.068   0.082   0.087   0.097   0.110   0.119
  0.122   0.134   0.141   0.149   0.156   0.170   0.186   0.193
  0.198   0.203   0.206   0.218   0.225   0.229   0.249   0.251
  0.263   0.268   0.282   0.288   0.294   0.302   0.330   0.346
  0.415   0.421   0.466   0.506   0.615   0.660   0.669   0.688
  0.692   0.704   0.725   0.729   0.744   0.749   0.759   0.831
  0.854   0.872   0.891   0.899   0.913   0.916   0.948   0.968
  0.977   1.026   1.036   1.070   1.101   1.127   1.162   1.184
  1.217   1.230   1.249   1.335   1.347   1.364   1.386   1.420
  1.438   1.486   1.539   1.580   1.625   1.745   1.816   1.844
  1.859   1.908   1.918   1.933   1.979   1.993   2.018   2.033
  2.065   2.141   2.150   2.193   2.238   2.294   2.352   2.373
  2.397   2.417   2.443   2.446   2.454   2.504   2.515   2.559
  2.565   2.619   2.655   2.678   2.692   2.759   2.791   2.815
  2.861   2.903   3.017   3.089   3.218   3.264   3.289   3.355
  3.571   3.691   3.807   4.171   4.345   4.363   4.427   4.521
  4.674   4.780
 
 Beta MOs
 -- Occupied --
-14.400 -10.253 -10.217 -10.213 -10.212 -10.182 -10.182  -0.999
 -0.823  -0.736  -0.727  -0.613  -0.580  -0.548  -0.510  -0.486
 -0.440  -0.427  -0.414  -0.389  -0.383  -0.310  -0.237  -0.219
 -- Virtual --
 -0.103  -0.016   0.009   0.024   0.026   0.026   0.039   0.049
  0.052   0.058   0.066   0.070   0.085   0.088   0.099   0.114
  0.120   0.124   0.135   0.142   0.149   0.159   0.172   0.187
  0.194   0.199   0.204   0.214   0.219   0.228   0.230   0.249
  0.253   0.264   0.270   0.282   0.288   0.294   0.304   0.332
  0.352   0.419   0.431   0.468   0.512   0.627   0.662   0.677
  0.693   0.704   0.714   0.726   0.737   0.745   0.749   0.769
  0.835   0.856   0.876   0.891   0.901   0.914   0.919   0.955
  0.971   0.980   1.029   1.047   1.077   1.107   1.130   1.170
  1.185   1.217   1.231   1.252   1.337   1.350   1.368   1.387
  1.422   1.439   1.493   1.552   1.588   1.674   1.758   1.844
  1.857   1.866   1.911   1.921   1.934   1.986   1.995   2.020
  2.041   2.066   2.144   2.154   2.195   2.240   2.297   2.355
  2.378   2.402   2.420   2.447   2.448   2.458   2.505   2.516
  2.559   2.566   2.622   2.674   2.687   2.698   2.759   2.797
  2.820   2.864   2.905   3.019   3.094   3.223   3.264   3.295
  3.358   3.581   3.700   3.807   4.172   4.351   4.369   4.439
  4.531   4.677   4.780
 --------------------------------------------------------------
 
          Ground-State Mulliken Net Atomic Charges

     Atom                 Charge (a.u.)    Spin (a.u.)
  --------------------------------------------------------
      1 C                    -0.096266      -0.267836
      2 C                    -0.258185       0.005567
      3 C                    -0.084980      -0.006917
      4 C                    -0.129581       0.011205
      5 C                    -0.139492      -0.013678
      6 N                     0.006773       0.031958
      7 H                     0.147230       0.068717
      8 H                     0.144116      -0.000722
      9 H                     0.125472       0.000687
     10 H                     0.124277       0.000238
     11 H                     0.133657       0.000040
     12 C                    -0.137397       1.171840
     13 H                     0.164376      -0.001098
  --------------------------------------------------------
  Sum of atomic charges =     0.000000
  Sum of spin   charges =     1.000000

 -----------------------------------------------------------------
                    Cartesian Multipole Moments
 -----------------------------------------------------------------
    Charge (ESU x 10^10)
                -0.0000
    Dipole Moment (Debye)
         X       1.3013      Y       0.8957      Z      -0.4996
       Tot       1.6569
    Quadrupole Moments (Debye-Ang)
        XX     -38.0465     XY       1.3374     YY     -38.2004
        XZ      -4.0059     YZ       0.1751     ZZ     -44.2392
    Octopole Moments (Debye-Ang^2)
       XXX      20.8770    XXY       1.1763    XYY      -0.6349
       YYY       9.2936    XXZ       2.0690    XYZ      -1.3570
       YYZ      -0.5076    XZZ      -1.1596    YZZ       3.8766
       ZZZ       3.0602
    Hexadecapole Moments (Debye-Ang^3)
      XXXX    -523.0418   XXXY     -22.0531   XXYY    -137.7619
      XYYY     -10.2526   YYYY    -216.6129   XXXZ      67.4476
      XXYZ      -3.0919   XYYZ      26.8468   YYYZ      -0.1570
      XXZZ    -122.7759   XYZZ      -6.9294   YYZZ     -65.5175
      XZZZ     106.5332   YZZZ      -2.1761   ZZZZ    -167.8610
 -----------------------------------------------------------------
 Calculating analytic gradient of the SCF energy
 Gradient of SCF Energy
            1           2           3           4           5           6
    1   0.0225694   0.0159955  -0.0100099  -0.0081928  -0.0038409   0.0012778
    2  -0.0282568   0.0129329   0.0112332  -0.0024831  -0.0146168  -0.0085704
    3   0.0054970  -0.0096280   0.0099133   0.0064898  -0.0011551  -0.0042301
            7           8           9          10          11          12
    1   0.0007912  -0.0001416  -0.0004405   0.0072116   0.0012000  -0.0383272
    2   0.0063752  -0.0006503  -0.0032004  -0.0032484   0.0111616   0.0207932
    3  -0.0028922  -0.0018868   0.0010941  -0.0039899   0.0005128   0.0000782
           13
    1   0.0119073
    2  -0.0014698
    3   0.0001970
 Max gradient component =       3.833E-02
 RMS gradient           =       1.125E-02
 Gradient time:  CPU 15.68 s  wall 4.11 s
rPathMan2.  file_steps = 952
 IRC --- Status = 3.  Assess initial corrector step
 IRC --- bisector search: b =  0.000000 E =     -286.892280 G.B =  -0.015321
 IRC --- bisector search: b =  0.104595 E =     -286.890257 G.B =   0.054518
 IRC --- performed gradient/energy interpolation
 IRC --- bisector search:  estimate b(min) =   2.311828283651327E-002
 ----------------------------------------------------------------
             Standard Nuclear Orientation (Angstroms)
    I     Atom           X                Y                Z
 ----------------------------------------------------------------
    1      C       1.4394457306     0.5646817582    -0.7302115419
    2      C      -0.3410526770    -1.0876079090    -0.2817722067
    3      C      -1.4627558793    -1.1008220908     0.5087814090
    4      C      -1.7032907424     0.2478389378     0.9323122281
    5      C      -0.7239384762     1.0362909139     0.3759232468
    6      N       0.1168036679     0.2193391227    -0.3658001559
    7      H       1.5612461904     1.5903536999    -1.0914274729
    8      H       0.1701903128    -1.8692263339    -0.8205980739
    9      H      -2.0528204976    -1.9719087103     0.7521425287
   10      H      -2.5030007055     0.5894694162     1.5775847811
   11      H      -0.5296098056     2.0938244873     0.4609624860
   12      C       2.4494455775    -0.2742967757    -0.6196516846
   13      H       3.5152735450    -0.3050925565    -0.7812165637
 ----------------------------------------------------------------
 Nuclear Repulsion Energy =   263.0358985622 hartrees
 There are       25 alpha and       24 beta electrons

                       Distance Matrix (Angstroms)
             C (  1)   C (  2)   C (  3)   C (  4)   C (  5)   N (  6)
   C (  2)  2.470088
   C (  3)  3.568162  1.372358
   C (  4)  3.569477  2.261219  1.433918
   C (  5)  2.475112  2.256127  2.265117  1.374902
   N (  6)  1.414722  1.387373  2.236678  2.235766  1.387231
   H (  7)  1.094219  3.383158  4.352894  4.068792  2.771673  2.119583
   H (  8)  2.746468  1.078253  2.241475  3.326348  3.266980  2.138176
   H (  9)  4.563725  2.186576  1.079904  2.254310  3.310096  3.280035
   H ( 10)  4.568306  3.308144  2.254226  1.082878  2.192875  3.282852
   H ( 11)  2.763033  3.272418  3.328485  2.237713  1.078597  2.148274
   C ( 12)  1.317653  2.926178  4.154735  4.463904  3.574797  2.397777
   H ( 13)  2.251260  3.966488  5.203658  5.520446  4.594475  3.463697
             H (  7)   H (  8)   H (  9)   H ( 10)   H ( 11)   C ( 12)
   H (  8)  3.738593
   H (  9)  5.399069  2.725038
   H ( 10)  4.964222  4.352289  2.728493
   H ( 11)  2.652372  4.223493  4.351453  2.721066
   C ( 12)  2.118583  2.789119  5.003409  5.486407  3.956071
   H ( 13)  2.739922  3.692919  6.011085  6.525627  4.864041  1.078444

 
 Applying Cartesian multipole field
    Component          Value
    ---------          -----
     (2,0,0)        1.00000E-11
     (0,2,0)        2.00000E-11
     (0,0,2)       -3.00000E-11
 Nucleus-field energy     =     0.0000000044 hartrees
 Requested basis set is 6-31+G(d,p)
 There are 53 shells and 163 basis functions
 A cutoff of  1.0D-14 yielded   1350 shell pairs
 There are     13201 function pairs
 Smallest overlap matrix eigenvalue = 1.75E-05
 Guess MOs from core Hamiltonian diagonalization
 Mixing HOMO and LUMO in initial guess
 Adding  50% of the LUMO to the HOMO
 An unrestricted hybrid HF-DFT SCF calculation will be
 performed using Pulay DIIS extrapolation
 Exchange:     0.2000 Hartree-Fock + 0.0800 Slater + 0.7200 B88
 Correlation:  0.1900 VWN1RPA + 0.8100 LYP
 Using SG-1 standard quadrature grid
 SCF converges when DIIS error is below 1.0E-08
 using 4 threads for integral computing
 -------------------------------------------------------
 OpenMP Integral computing Module                
 Release: version 1.0, May 2013, Q-Chem Inc. Pittsburgh 
 -------------------------------------------------------
 -------------------------------------------------------
 OpenMP BLAS3 based DFT computing Module                
 Release: version 1.0, May 2013, Q-Chem Inc. Pittsburgh 
 -------------------------------------------------------
 ---------------------------------------
  Cycle       Energy         DIIS Error
 ---------------------------------------
    1    -222.7270619260      1.08E-01
    2    -178.9222794501      9.61E-02
    3    -237.0222221812      9.04E-02
    4    -264.2556443457      6.80E-02
    5    -282.5747490837      3.13E-02
    6    -285.4243406834      1.49E-02
    7    -285.5582459054      1.67E-02
    8    -286.5981632848      6.45E-03
    9    -286.8256362094      3.97E-03
   10    -286.8796045933      1.47E-03
   11    -286.8870171228      9.08E-04
   12    -286.8911996130      4.45E-04
   13    -286.8923205582      1.22E-04
   14    -286.8924367785      2.83E-05
   15    -286.8924475755      1.39E-05
   16    -286.8924529576      3.47E-06
   17    -286.8924560561      1.50E-06
   18    -286.8924574452      6.52E-07
   19    -286.8924583125      3.08E-07
   20    -286.8924586191      1.64E-07
   21    -286.8924586232      2.32E-08
   22    -286.8924586235      3.16E-09 Convergence criterion met
 ---------------------------------------
 <S^2> = 0.7613
 SCF time:  CPU 106.07 s  wall 32.57 s
 SCF   energy in the final basis set = -286.89245862
 Total energy in the final basis set = -286.89245862
 
 --------------------------------------------------------------
 
                    Orbital Energies (a.u.)
 --------------------------------------------------------------
 
 Alpha MOs
 -- Occupied --
-14.400 -10.253 -10.229 -10.216 -10.212 -10.183 -10.182  -0.997
 -0.826  -0.747  -0.729  -0.625  -0.582  -0.553  -0.524  -0.494
 -0.442  -0.429  -0.414  -0.394  -0.383  -0.311  -0.264  -0.240
 -0.222
 -- Virtual --
 -0.025   0.007   0.022   0.024   0.025   0.039   0.048   0.052
  0.058   0.066   0.068   0.083   0.087   0.097   0.111   0.119
  0.121   0.134   0.141   0.148   0.156   0.170   0.186   0.194
  0.198   0.203   0.208   0.218   0.225   0.230   0.247   0.250
  0.261   0.268   0.283   0.286   0.294   0.303   0.331   0.346
  0.408   0.419   0.465   0.503   0.616   0.658   0.670   0.687
  0.692   0.701   0.722   0.728   0.743   0.751   0.757   0.831
  0.850   0.875   0.895   0.899   0.912   0.917   0.949   0.969
  0.975   1.026   1.037   1.071   1.100   1.126   1.155   1.182
  1.216   1.232   1.250   1.337   1.345   1.362   1.386   1.421
  1.435   1.487   1.540   1.579   1.621   1.748   1.812   1.848
  1.856   1.909   1.921   1.928   1.971   1.993   2.016   2.025
  2.066   2.135   2.147   2.195   2.233   2.293   2.357   2.377
  2.401   2.418   2.442   2.447   2.455   2.505   2.515   2.558
  2.564   2.623   2.654   2.678   2.698   2.760   2.789   2.813
  2.863   2.909   3.025   3.084   3.230   3.260   3.300   3.363
  3.588   3.698   3.808   4.166   4.337   4.360   4.425   4.521
  4.677   4.779
 
 Beta MOs
 -- Occupied --
-14.399 -10.255 -10.216 -10.213 -10.212 -10.183 -10.182  -0.996
 -0.821  -0.735  -0.726  -0.612  -0.580  -0.551  -0.513  -0.485
 -0.439  -0.428  -0.413  -0.393  -0.383  -0.307  -0.233  -0.224
 -- Virtual --
 -0.102  -0.018   0.009   0.024   0.025   0.026   0.039   0.049
  0.052   0.058   0.066   0.070   0.085   0.088   0.099   0.114
  0.120   0.123   0.135   0.142   0.149   0.159   0.172   0.187
  0.194   0.199   0.205   0.216   0.219   0.227   0.230   0.248
  0.252   0.262   0.269   0.283   0.287   0.294   0.306   0.332
  0.352   0.417   0.424   0.467   0.508   0.628   0.660   0.675
  0.692   0.705   0.711   0.727   0.734   0.745   0.751   0.765
  0.834   0.853   0.880   0.896   0.900   0.913   0.921   0.956
  0.971   0.978   1.030   1.048   1.078   1.107   1.130   1.161
  1.182   1.217   1.233   1.252   1.338   1.348   1.366   1.387
  1.422   1.437   1.494   1.552   1.588   1.671   1.761   1.840
  1.850   1.874   1.911   1.923   1.929   1.979   1.996   2.019
  2.033   2.067   2.139   2.151   2.196   2.235   2.295   2.360
  2.383   2.405   2.422   2.446   2.450   2.457   2.506   2.517
  2.559   2.564   2.626   2.675   2.686   2.702   2.760   2.795
  2.817   2.866   2.910   3.026   3.089   3.233   3.260   3.306
  3.367   3.598   3.706   3.808   4.167   4.349   4.363   4.436
  4.531   4.680   4.780
 --------------------------------------------------------------
 
          Ground-State Mulliken Net Atomic Charges

     Atom                 Charge (a.u.)    Spin (a.u.)
  --------------------------------------------------------
      1 C                    -0.097140      -0.263799
      2 C                    -0.245607       0.004893
      3 C                    -0.079909      -0.006774
      4 C                    -0.133363       0.009861
      5 C                    -0.133703      -0.013336
      6 N                    -0.004802       0.029670
      7 H                     0.147279       0.062509
      8 H                     0.144306      -0.000687
      9 H                     0.126038       0.000681
     10 H                     0.125346       0.000286
     11 H                     0.133189       0.000033
     12 C                    -0.143783       1.177970
     13 H                     0.162149      -0.001308
  --------------------------------------------------------
  Sum of atomic charges =     0.000000
  Sum of spin   charges =     1.000000

 -----------------------------------------------------------------
                    Cartesian Multipole Moments
 -----------------------------------------------------------------
    Charge (ESU x 10^10)
                 0.0000
    Dipole Moment (Debye)
         X       1.1931      Y       0.8960      Z      -0.4793
       Tot       1.5672
    Quadrupole Moments (Debye-Ang)
        XX     -38.2758     XY       1.4698     YY     -38.0019
        XZ      -3.9189     YZ       0.1131     ZZ     -44.3355
    Octopole Moments (Debye-Ang^2)
       XXX      19.6474    XXY       1.0975    XYY      -0.9247
       YYY       9.4134    XXZ       1.9987    XYZ      -1.3796
       YYZ      -0.4463    XZZ      -1.3447    YZZ       3.8927
       ZZZ       3.1070
    Hexadecapole Moments (Debye-Ang^3)
      XXXX    -527.7921   XXXY     -20.8133   XXYY    -138.2321
      XYYY      -9.9214   YYYY    -217.4992   XXXZ      67.6797
      XXYZ      -3.5085   XYYZ      26.9517   YYYZ      -0.4997
      XXZZ    -123.4978   XYZZ      -6.6598   YYZZ     -65.5389
      XZZZ     107.2741   YZZZ      -2.5238   ZZZZ    -167.9486
 -----------------------------------------------------------------
 Calculating analytic gradient of the SCF energy
 Gradient of SCF Energy
            1           2           3           4           5           6
    1   0.0015426  -0.0012900   0.0014566   0.0021017  -0.0002415  -0.0016056
    2  -0.0009633  -0.0019595  -0.0025720   0.0014737   0.0013668   0.0022304
    3  -0.0005922  -0.0005457  -0.0010899  -0.0004854  -0.0001817  -0.0003100
            7           8           9          10          11          12
    1   0.0001634  -0.0007748   0.0013816  -0.0000127  -0.0006799  -0.0023192
    2   0.0005807   0.0011768   0.0003333  -0.0001094  -0.0010129   0.0004048
    3  -0.0007913  -0.0008746   0.0004708   0.0018932  -0.0005958   0.0011008
           13
    1   0.0002777
    2  -0.0009492
    3   0.0020018
 Max gradient component =       2.572E-03
 RMS gradient           =       1.230E-03
 Gradient time:  CPU 15.65 s  wall 4.06 s
rPathMan2.  file_steps = 952
 IRC --- Status = 4.  Checking bisector search.
 IRC --- Bisector search finished successfully.
 ------------------------------------------------------------------------
 Reaction path following.  The coordinates are cartesian              
 Step  51 E=    -286.892459 |G|=  0.007680 S_lin= 3.3893 S_tot= 3.8568
 ------------------------------------------------------------------------
  IRC -- maximum number of cycles reached.
  IRC -- but gradient not converged
  IRC -- recommend geom opt from this point
 ----------------------------------------------------------------
             Standard Nuclear Orientation (Angstroms)
    I     Atom           X                Y                Z
 ----------------------------------------------------------------
    1      C       1.3718026024     0.6853394123    -0.7608391071
    2      C      -0.1031322988    -0.9196866531    -0.4398447072
    3      C      -1.0435819050    -1.0966359743     0.5954594676
    4      C      -1.4951384079     0.1914185948     0.9912954396
    5      C      -0.8614620660     1.1351759910     0.2083199795
    6      N      -0.0518658371     0.4933807423    -0.7279842661
    7      H       1.8077787828     1.6120568235    -1.1253694115
    8      H       0.0523217485    -1.6155700763    -1.2560471783
    9      H      -1.3985190450    -2.0468836982     0.9709619945
   10      H      -2.2338394587     0.4042508700     1.7537145063
   11      H      -0.8788222076     2.2143914135     0.2698709923
   12      C       1.8833508370    -0.4556504244    -0.3063419341
   13      H       2.8870434975    -0.8687430582    -0.2561667947
 ----------------------------------------------------------------
 Nuclear Repulsion Energy =   270.3514129519 hartrees
 There are       25 alpha and       24 beta electrons
 Here is where we should summarize the reaction path
Archival summary:
1\1\c8-68\JobtypUnspecified\ProcedureUnspecified\6-31+G**\166(2)\hpark21\WedMar219:35:452022WedMar219:35:452022\0\\#,JobtypUnspecified,ProcedureUnspecified,6-31+G**,\\0,2\N\C,1,1.39428\H,2,1.08111,1,120.468\C,2,1.38032,1,109.437,3,-176.889,0\H,4,1.08271,2,125.328,1,-175.61,0\C,4,1.42115,2,108.411,1,2.58171,0\H,6,1.08164,4,126.533,2,-175.687,0\C,6,1.40983,4,107.622,2,0.726989,0\H,8,1.08379,6,124.62,4,-148.02,0\C,1,1.43693,2,121.949,3,58.2858,0\H,10,1.08709,1,121.258,2,-73.2596,0\C,10,1.33045,1,104.985,2,107.89,0\H,12,1.08654,10,134.187,1,170.489,0\\\@

 Total job time:  13399.03s(wall), 37740.61s(cpu) 
 Wed Mar  2 19:35:45 2022

        *************************************************************
        *                                                           *
        *  Thank you very much for using Q-Chem.  Have a nice day.  *
        *                                                           *
        *************************************************************


