
Running Job 1 of 1 qcopt_prd.in
qchem qcopt_prd.in_31879.0 ./qcopt_prd.d/ 1
/home/leeping/opt/qchem/5.0.2-openmp/exe/qcprog.exe_s qcopt_prd.in_31879.0 ./qcopt_prd.d/
Check license passed

                  Welcome to Q-Chem
     A Quantum Leap Into The Future Of Chemistry


 Q-Chem 5.0, Q-Chem, Inc., Pleasanton, CA (2017)

 Yihan Shao,  Zhengting Gan,  E. Epifanovsky,  A. T. B. Gilbert,  M. Wormit,  
 J. Kussmann,  A. W. Lange,  A. Behn,  Jia Deng,  Xintian Feng,  D. Ghosh,  
 M. Goldey,  P. R. Horn,  L. D. Jacobson,  I. Kaliman,  T. Kus,  A. Landau,  
 Jie Liu,  E. I. Proynov,  R. M. Richard,  R. P. Steele,  E. J. Sundstrom,  
 H. L. Woodcock III,  P. M. Zimmerman,  D. Zuev,  B. Albrecht,  E. Alguire,  
 S. A. Baeppler,  D. Barton,  Z. Benda,  Y. A. Bernard,  E. J. Berquist,  
 K. B. Bravaya,  H. Burton,  D. Casanova,  Chun-Min Chang,  Yunqing Chen,  
 A. Chien,  K. D. Closser,  M. P. Coons,  S. Dasgupta,  A. L. Dempwolff,  
 M. Diedenhofen,  Hainam Do,  R. G. Edgar,  Po-Tung Fang,  S. Fatehi,  
 Qingguo Feng,  J. Fosso-Tande,  Qinghui Ge,  A. Ghysels,  G. Gidofalvi,  
 J. Gomes,  J. Gonthier,  A. Gunina,  M. W. D. Hanson-Heine,  
 P. H. P. Harbach,  A. W. Hauser,  J. E. Herr,  E. G. Hohenstein,  
 Z. C. Holden,  Kerwin Hui,  T.-C. Jagau,  Hyunjun Ji,  B. Kaduk,  
 K. Khistyaev,  Jaehoon Kim,  P. Klunzinger,  K. Koh,  D. Kosenkov,  
 L. Koulias,  T. Kowalczyk,  C. M. Krauter,  A. Kunitsa,  Ka Un Lao,  
 A. Laurent,  K. V. Lawler,  Joonho Lee,  D. Lefrancois,  S. Lehtola,  
 D. S. Levine,  Yi-Pei Li,  You-Sheng Lin,  Fenglai Liu,  E. Livshits,  
 A. Luenser,  P. Manohar,  E. Mansoor,  S. F. Manzer,  Shan-Ping Mao,  
 Yuezhi Mao,  N. Mardirossian,  A. V. Marenich,  T. Markovich,  
 L. A. Martinez-Martinez,  S. A. Maurer,  N. J. Mayhall,  S. C. McKenzie,  
 J.-M. Mewes,  A. F. Morrison,  J. W. Mullinax,  K. Nanda,  
 T. S. Nguyen-Beck,  R. Olivares-Amaya,  J. A. Parkhill,  T. M. Perrine,  
 F. Plasser,  S. Prager,  A. Prociuk,  E. Ramos,  D. R. Rehn,  F. Rob,  
 M. Schneider,  N. Sergueev,  S. M. Sharada,  S. Sharma,  D. W. Small,  
 T. Stauch,  T. Stein,  Yu-Chuan Su,  A. J. W. Thom,  A. Tkatchenko,  
 T. Tsuchimochi,  L. Vogt,  O. Vydrov,  M. A. Watson,  J. Wenzel,  
 M. de Wergifosse,  T. A. Wesolowski,  A. White,  J. Witte,  A. Yamada,  
 Jun Yang,  K. Yao,  S. Yeganeh,  S. R. Yost,  Zhi-Qiang You,  A. Zech,  
 Igor Ying Zhang,  Xing Zhang,  Yan Zhao,  Ying Zhu,  B. R. Brooks,  
 G. K. L. Chan,  C. J. Cramer,  M. S. Gordon,  W. J. Hehre,  A. Klamt,  
 M. W. Schmidt,  C. D. Sherrill,  D. G. Truhlar,  A. Aspuru-Guzik,  R. Baer,  
 A. T. Bell,  N. A. Besley,  Jeng-Da Chai,  R. A. DiStasio Jr.,  A. Dreuw,  
 B. D. Dunietz,  T. R. Furlani,  Chao-Ping Hsu,  Yousung Jung,  Jing Kong,  
 D. S. Lambrecht,  WanZhen Liang,  C. Ochsenfeld,  V. A. Rassolov,  
 L. V. Slipchenko,  J. E. Subotnik,  T. Van Voorhis,  J. M. Herbert,  
 A. I. Krylov,  P. M. W. Gill,  M. Head-Gordon

 Contributors to earlier versions of Q-Chem not listed above: 
 R. D. Adamson,  B. Austin,  J. Baker,  G. J. O. Beran,  K. Brandhorst,  
 S. T. Brown,  E. F. C. Byrd,  A. K. Chakraborty,  C.-L. Cheng,  
 Siu Hung Chien,  D. M. Chipman,  D. L. Crittenden,  H. Dachsel,  
 R. J. Doerksen,  A. D. Dutoi,  L. Fusti-Molnar,  W. A. Goddard III,  
 A. Golubeva-Zadorozhnaya,  S. R. Gwaltney,  G. Hawkins,  A. Heyden,  
 S. Hirata,  G. Kedziora,  F. J. Keil,  C. Kelley,  Jihan Kim,  R. A. King,  
 R. Z. Khaliullin,  P. P. Korambath,  W. Kurlancheek,  A. M. Lee,  M. S. Lee,  
 S. V. Levchenko,  Ching Yeh Lin,  D. Liotard,  R. C. Lochan,  I. Lotan,  
 P. E. Maslen,  N. Nair,  D. P. O'Neill,  D. Neuhauser,  E. Neuscamman,  
 C. M. Oana,  R. Olson,  B. Peters,  R. Peverati,  P. A. Pieniazek,  
 Y. M. Rhee,  J. Ritchie,  M. A. Rohrdanz,  E. Rosta,  N. J. Russ,  
 H. F. Schaefer III,  N. E. Schultz,  N. Shenvi,  A. C. Simmonett,  A. Sodt,  
 D. Stuck,  K. S. Thanthiriwatte,  V. Vanovschi,  Tao Wang,  A. Warshel,  
 C. F. Williams,  Q. Wu,  X. Xu,  W. Zhang

 Please cite Q-Chem as follows:
 Y. Shao et al., Mol. Phys. 113, 184-215 (2015)
 DOI: 10.1080/00268976.2014.952696

 Q-Chem 5.0.2 for Intel X86 EM64T Linux

 Parts of Q-Chem use Armadillo 5.200.1 (Boston Tea Smuggler).
 http://arma.sourceforge.net/

 Q-Chem begins on Wed Mar  2 13:49:36 2022  

Host: 
0

     Scratch files written to ./qcopt_prd.d//
 Dec517 15110_ 26548  26544 5633   
Processing $rem in /home/leeping/opt/qchem/5.0.2-openmp/config/preferences.
 MEM_STATIC 2000
 MEM_TOTAL  8000
 SYMMETRY   OFF
 SYM_IGNORE TRUE 

Checking the input file for inconsistencies... 	...done.

--------------------------------------------------------------
User input:
--------------------------------------------------------------
$molecule
0 2
C        1.5315314933    0.2559102732   -0.6997034488
C       -0.2489688964   -1.2924905509    0.0275103171
C       -1.4833900242   -1.1759607653    0.6152700601
C       -1.7252016290    0.2180451142    0.8215104983
C       -0.6315330577    0.9026755662    0.3526022193
N        0.2772684087   -0.0202252077   -0.1352001332
H        2.0613239360   -0.6462602523   -1.0171283467
H        0.3108701829   -2.1589569490   -0.2948535445
H       -2.1438457391   -1.9937896763    0.8697808501
H       -2.6060684652    0.6634234345    1.2643720287
H       -0.4055536092    1.9578996987    0.3169601894
C        2.0719715321    1.4477271091   -0.8587092334
H        2.9915958678    1.8420022058   -1.2624114565
$end

$rem
method                b3lyp
basis                 6-31g(d)
unrestricted          true
symmetry              off
sym_ignore            true
incdft                false
incfock               0
scf_convergence       8
thresh                14
jobtype               opt
scf_guess             core
scf_guess_mix         5
scf_algorithm         diis
max_scf_cycles        100
geom_opt_max_cycles   300
$end

--------------------------------------------------------------
 ----------------------------------------------------------------
             Standard Nuclear Orientation (Angstroms)
    I     Atom           X                Y                Z
 ----------------------------------------------------------------
    1      C       1.5315314933     0.2559102732    -0.6997034488
    2      C      -0.2489688964    -1.2924905509     0.0275103171
    3      C      -1.4833900242    -1.1759607653     0.6152700601
    4      C      -1.7252016290     0.2180451142     0.8215104983
    5      C      -0.6315330577     0.9026755662     0.3526022193
    6      N       0.2772684087    -0.0202252077    -0.1352001332
    7      H       2.0613239360    -0.6462602523    -1.0171283467
    8      H       0.3108701829    -2.1589569490    -0.2948535445
    9      H      -2.1438457391    -1.9937896763     0.8697808501
   10      H      -2.6060684652     0.6634234345     1.2643720287
   11      H      -0.4055536092     1.9578996987     0.3169601894
   12      C       2.0719715321     1.4477271091    -0.8587092334
   13      H       2.9915958678     1.8420022058    -1.2624114565
 ----------------------------------------------------------------
 Nuclear Repulsion Energy =   262.3963760461 hartrees
 There are       25 alpha and       24 beta electrons
 Requested basis set is 6-31G(d)
 There are 40 shells and 117 basis functions

 Total QAlloc Memory Limit   8000 MB
 Mega-Array Size      1956 MB
 MEM_STATIC part      2000 MB
 A cutoff of  1.0D-14 yielded    781 shell pairs
 There are      6992 function pairs
 
 -------------------------------------------------------
 OpenMP Integral Computing Module                       
 Release: version 1.0, May 2013, Q-Chem Inc. Pittsburgh 
 -------------------------------------------------------
 Integral Job Info:
 Integral job number is                      11
 Integral operator is                         1
 short-range coefficients                     0
 long-range coefficients              100000000
 Omega coefficients                           0
 if combine SR and LR in K                    0
 Integral screening is                        0
 Integral computing path is                   2
 max size of driver memory is            800000
 size of driver memory is                593474
 size of scratch memory is              2361544
 max col of scratch BK array               1296
 max len of scratch array in speh3          155
 max len of scratch index in speh4           18
 max int batch size is                      520
 min int batch size is                       52
 fixed nKL is                                52
 max L of basis functions is                  2
 order of int derivative is                   0
 number of shells is                         40
 number of basis is                         117
 number of cartesian basis is               117
 number of contracted shell pairs           781
 number of primitive shell pairs           3319
 maxK2 (contraction) of shell pair           36
 max number of K2 of shell pair               1
 max number of CS2 of shell pair             86
 max number of PS2 of shell pair            390
 mem total for path MDJ                  529068
 -------------------------------------------------------
 Smallest overlap matrix eigenvalue = 1.00E-03

 Scale SEOQF with 1.000000e-01/1.000000e-01/1.000000e+00

 Standard Electronic Orientation quadrupole field applied
 Nucleus-field energy     =    -0.0000000138 hartrees
 Guess MOs from core Hamiltonian diagonalization
 Mixing HOMO and LUMO in initial guess
 Adding  50% of the LUMO to the HOMO
 An unrestricted hybrid HF-DFT SCF calculation will be
 performed using Pulay DIIS extrapolation
 Exchange:     0.2000 Hartree-Fock + 0.0800 Slater + 0.7200 B88
 Correlation:  0.1900 VWN1RPA + 0.8100 LYP
 Using SG-1 standard quadrature grid
 SCF converges when DIIS error is below 1.0E-08
 using 4 threads for integral computing
 -------------------------------------------------------
 OpenMP Integral computing Module                
 Release: version 1.0, May 2013, Q-Chem Inc. Pittsburgh 
 -------------------------------------------------------
 -------------------------------------------------------
 OpenMP BLAS3 based DFT computing Module                
 Release: version 1.0, May 2013, Q-Chem Inc. Pittsburgh 
 -------------------------------------------------------
 ---------------------------------------
  Cycle       Energy         DIIS Error
 ---------------------------------------
    1    -222.2961606099      1.50E-01
    2    -184.9025118823      1.44E-01
    3    -237.6106577427      1.13E-01
    4    -241.3950732403      1.19E-01
    5    -280.2411869396      3.96E-02
    6    -278.6801464194      5.18E-02
    7    -286.5125573705      1.02E-02
    8    -286.7319969170      8.38E-03
    9    -286.8595310084      2.26E-03
   10    -286.8659106774      1.49E-03
   11    -286.8687412926      1.10E-03
   12    -286.8706148546      7.62E-04
   13    -286.8722014616      2.33E-04
   14    -286.8723765903      5.36E-05
   15    -286.8723854777      1.82E-05
   16    -286.8723874391      3.46E-06
   17    -286.8723881375      1.23E-06
   18    -286.8723886384      5.45E-07
   19    -286.8723888632      3.77E-07
   20    -286.8723890922      2.72E-07
   21    -286.8723891327      3.33E-08
   22    -286.8723891328      6.08E-09 Convergence criterion met
 ---------------------------------------
 <S^2> = 0.7625
 SCF time:  CPU 55.41 s  wall 36.64 s
 SCF   energy in the final basis set = -286.87238913
 Total energy in the final basis set = -286.87238913
 
 --------------------------------------------------------------
 
                    Orbital Energies (a.u.)
 --------------------------------------------------------------
 
 Alpha MOs
 -- Occupied --
-14.392 -10.242 -10.214 -10.205 -10.201 -10.171 -10.170  -0.988
 -0.817  -0.737  -0.720  -0.618  -0.574  -0.544  -0.513  -0.476
 -0.428  -0.423  -0.417  -0.386  -0.374  -0.303  -0.255  -0.224
 -0.210
 -- Virtual --
 -0.008   0.076   0.091   0.101   0.127   0.136   0.165   0.176
  0.180   0.224   0.237   0.282   0.339   0.362   0.391   0.456
  0.488   0.507   0.536   0.556   0.561   0.589   0.590   0.596
  0.606   0.619   0.622   0.650   0.673   0.704   0.800   0.810
  0.829   0.847   0.856   0.857   0.888   0.921   0.928   0.956
  0.982   1.034   1.082   1.128   1.200   1.217   1.274   1.346
  1.385   1.387   1.428   1.458   1.493   1.496   1.551   1.558
  1.676   1.742   1.818   1.878   1.929   1.982   2.003   2.006
  2.071   2.080   2.152   2.178   2.211   2.251   2.269   2.302
  2.336   2.339   2.533   2.549   2.592   2.648   2.682   2.719
  2.776   2.858   3.044   3.100   3.178   3.977   4.069   4.121
  4.171   4.273   4.472   4.474
 
 Beta MOs
 -- Occupied --
-14.391 -10.243 -10.205 -10.201 -10.198 -10.171 -10.170  -0.987
 -0.812  -0.725  -0.717  -0.605  -0.573  -0.543  -0.500  -0.466
 -0.424  -0.424  -0.414  -0.385  -0.374  -0.301  -0.216  -0.211
 -- Virtual --
 -0.087   0.001   0.077   0.091   0.109   0.128   0.143   0.165
  0.176   0.181   0.228   0.239   0.286   0.342   0.372   0.403
  0.461   0.498   0.507   0.539   0.560   0.568   0.589   0.594
  0.601   0.619   0.628   0.633   0.666   0.672   0.705   0.806
  0.811   0.831   0.849   0.857   0.859   0.901   0.927   0.934
  0.958   0.988   1.040   1.092   1.130   1.204   1.221   1.278
  1.346   1.386   1.388   1.441   1.461   1.495   1.498   1.551
  1.559   1.736   1.762   1.840   1.886   1.948   1.985   2.006
  2.013   2.076   2.086   2.165   2.180   2.211   2.250   2.273
  2.306   2.337   2.340   2.534   2.563   2.595   2.655   2.685
  2.719   2.787   2.861   3.044   3.102   3.185   3.977   4.102
  4.121   4.171   4.277   4.474   4.474
 --------------------------------------------------------------
 
          Ground-State Mulliken Net Atomic Charges

     Atom                 Charge (a.u.)    Spin (a.u.)
  --------------------------------------------------------
      1 C                     0.068157      -0.140575
      2 C                     0.027501      -0.002620
      3 C                    -0.193456      -0.005388
      4 C                    -0.186573      -0.008657
      5 C                     0.037261       0.008947
      6 N                    -0.401118       0.019498
      7 H                     0.163177       0.068806
      8 H                     0.144836       0.000098
      9 H                     0.128622       0.001018
     10 H                     0.128860       0.000826
     11 H                     0.154901       0.000530
     12 C                    -0.244460       1.062535
     13 H                     0.172292      -0.005017
  --------------------------------------------------------
  Sum of atomic charges =    -0.000000
  Sum of spin   charges =     1.000000

 -----------------------------------------------------------------
                    Cartesian Multipole Moments
 -----------------------------------------------------------------
    Charge (ESU x 10^10)
                 0.0000
    Dipole Moment (Debye)
         X       1.2533      Y      -0.3412      Z      -0.6204
       Tot       1.4395
    Quadrupole Moments (Debye-Ang)
        XX     -36.3426     XY      -0.1611     YY     -37.2219
        XZ      -4.0233     YZ       0.5959     ZZ     -42.9471
    Octopole Moments (Debye-Ang^2)
       XXX       9.8776    XXY       1.1937    XYY       1.8790
       YYY      -7.6242    XXZ      -3.3919    XYZ      -1.4006
       YYZ      -1.1646    XZZ       2.3854    YZZ      -1.3560
       ZZZ      -2.7054
    Hexadecapole Moments (Debye-Ang^3)
      XXXX    -480.2374   XXXY     -62.4885   XXYY    -119.8451
      XYYY     -77.0131   YYYY    -284.1551   XXXZ      70.5767
      XXYZ      -0.7326   XYYZ      25.0575   YYYZ      29.4482
      XXZZ    -101.7220   XYZZ     -26.5876   YYZZ     -75.0295
      XZZZ     110.7530   YZZZ      31.7927   ZZZZ    -149.5390
 -----------------------------------------------------------------
 Calculating analytic gradient of the SCF energy
 Gradient of SCF Energy
            1           2           3           4           5           6
    1   0.0000491   0.0000075   0.0000017  -0.0000186   0.0001053  -0.0000270
    2  -0.0000839   0.0000361  -0.0000689   0.0000791  -0.0000509  -0.0000360
    3  -0.0000080   0.0000390   0.0001222   0.0000039  -0.0001576  -0.0000765
            7           8           9          10          11          12
    1  -0.0000402   0.0000070  -0.0000295  -0.0000164  -0.0000654   0.0000357
    2  -0.0000131   0.0000696   0.0000249  -0.0000073  -0.0000066   0.0000067
    3   0.0000240  -0.0000264  -0.0000191   0.0000262   0.0000288   0.0001084
           13
    1  -0.0000093
    2   0.0000502
    3  -0.0000648
 Max gradient component =       1.576E-04
 RMS gradient           =       5.568E-05
 Gradient time:  CPU 7.06 s  wall 4.21 s
 Geometry Optimization Parameters
   NAtoms,    NIC,     NZ,  NCons,   NDum,   NFix, NCnnct, MaxDiis
       13      84       0       0       0       0       0       0


** GEOMETRY OPTIMIZATION IN DELOCALIZED INTERNAL COORDINATES **
   Searching for a Minimum

   Optimization Cycle:   1

                       Coordinates (Angstroms)
     ATOM                X               Y               Z
      1  C         1.5315314933    0.2559102732   -0.6997034488
      2  C        -0.2489688964   -1.2924905509    0.0275103171
      3  C        -1.4833900242   -1.1759607653    0.6152700601
      4  C        -1.7252016290    0.2180451142    0.8215104983
      5  C        -0.6315330577    0.9026755662    0.3526022193
      6  N         0.2772684087   -0.0202252077   -0.1352001332
      7  H         2.0613239360   -0.6462602523   -1.0171283467
      8  H         0.3108701829   -2.1589569490   -0.2948535445
      9  H        -2.1438457391   -1.9937896763    0.8697808501
     10  H        -2.6060684652    0.6634234345    1.2643720287
     11  H        -0.4055536092    1.9578996987    0.3169601894
     12  C         2.0719715321    1.4477271091   -0.8587092334
     13  H         2.9915958678    1.8420022058   -1.2624114565
   Point Group: c1    Number of degrees of freedom:    33


   Energy is   -286.872389133


 Attempting to Generate Delocalized Internal Coordinates

 33 Hessian modes will be used to form the next step
  Hessian Eigenvalues:
     0.015264    0.016940    0.019092    0.020435    0.021827    0.022208
     0.022383    0.022895    0.023902    0.033221    0.160000    0.160000
     0.160000    0.160000    0.160000    0.160000    0.220000    0.220000
     0.231815    0.249995    0.344317    0.357709    0.358037    0.358993
     0.360259    0.361213    0.384392    0.433555    0.451455    0.457103
     0.489502    0.503265    0.623691

 Minimum Search - Taking Simple RFO Step
 Searching for Lamda that Minimizes Along All modes
 Value Taken    Lamda =  -0.00000110
 Step Taken.  Stepsize is  0.006581

                             Maximum     Tolerance    Cnvgd?
         Gradient           0.000112      0.000300     YES
         Displacement       0.004110      0.001200      NO
         Energy change     *********      0.000001      NO


 New Cartesian Coordinates Obtained by Inverse Iteration

 Displacement from previous Coordinates is:  0.009512
 ----------------------------------------------------------------
             Standard Nuclear Orientation (Angstroms)
    I     Atom           X                Y                Z
 ----------------------------------------------------------------
    1      C       1.5314199521     0.2562226162    -0.6994727341
    2      C      -0.2486783322    -1.2924854635     0.0279895950
    3      C      -1.4837525277    -1.1759016125     0.6142339642
    4      C      -1.7254334730     0.2179735994     0.8213100777
    5      C      -0.6310879784     0.9027318449     0.3542539778
    6      N       0.2776075752    -0.0200801288    -0.1340444381
    7      H       2.0616369989    -0.6459241712    -1.0163551798
    8      H       0.3112515763    -2.1592023569    -0.2937516649
    9      H      -2.1442699156    -1.9938766489     0.8681421859
   10      H      -2.6066874510     0.6633433528     1.2633376227
   11      H      -0.4045494575     1.9578842873     0.3190208304
   12      C       2.0713790673     1.4479513979    -0.8603087122
   13      H       2.9911639655     1.8413632835    -1.2643555247
 ----------------------------------------------------------------
 Nuclear Repulsion Energy =   262.3948810075 hartrees
 There are       25 alpha and       24 beta electrons
 Applying Cartesian multipole field
    Component          Value
    ---------          -----
     (2,0,0)        1.00000E-11
     (0,2,0)        2.00000E-11
     (0,0,2)       -3.00000E-10
 Nucleus-field energy     =    -0.0000000138 hartrees
 Requested basis set is 6-31G(d)
 There are 40 shells and 117 basis functions
 A cutoff of  1.0D-14 yielded    781 shell pairs
 There are      6992 function pairs
 Smallest overlap matrix eigenvalue = 1.00E-03
 Guess MOs from SCF MO coefficient file
 Reading MOs from coefficient file
 Mixing HOMO and LUMO in initial guess
 Adding  50% of the LUMO to the HOMO
 Reading MOs from coefficient file
 An unrestricted hybrid HF-DFT SCF calculation will be
 performed using Pulay DIIS extrapolation
 Exchange:     0.2000 Hartree-Fock + 0.0800 Slater + 0.7200 B88
 Correlation:  0.1900 VWN1RPA + 0.8100 LYP
 Using SG-1 standard quadrature grid
 SCF converges when DIIS error is below 1.0E-08
 Geometry optimization detected.  Setting ReadMinima to 0
 Setting SaveMinima to 0
 using 4 threads for integral computing
 -------------------------------------------------------
 OpenMP Integral computing Module                
 Release: version 1.0, May 2013, Q-Chem Inc. Pittsburgh 
 -------------------------------------------------------
 -------------------------------------------------------
 OpenMP BLAS3 based DFT computing Module                
 Release: version 1.0, May 2013, Q-Chem Inc. Pittsburgh 
 -------------------------------------------------------
 ---------------------------------------
  Cycle       Energy         DIIS Error
 ---------------------------------------
    1    -286.8323421068      2.17E-03
    2    -286.8327754111      4.64E-03
    3    -286.8700075624      8.38E-04
    4    -286.8716267852      4.48E-04
    5    -286.8721721941      7.89E-05
    6    -286.8722786119      5.38E-05
    7    -286.8723274869      1.34E-05
    8    -286.8723548351      6.14E-06
    9    -286.8723688285      1.76E-06
   10    -286.8723787722      8.24E-07
   11    -286.8723851949      4.29E-07
   12    -286.8723888276      2.42E-07
   13    -286.8723897346      9.71E-08
   14    -286.8723898054      2.42E-08
   15    -286.8723898067      1.17E-08
   16    -286.8723898068      3.06E-09 Convergence criterion met
 ---------------------------------------
 <S^2> = 0.7625
 SCF time:  CPU 40.14 s  wall 27.07 s
 SCF   energy in the final basis set = -286.87238981
 Total energy in the final basis set = -286.87238981
 
 --------------------------------------------------------------
 
                    Orbital Energies (a.u.)
 --------------------------------------------------------------
 
 Alpha MOs
 -- Occupied --
-14.392 -10.242 -10.214 -10.205 -10.201 -10.171 -10.170  -0.988
 -0.817  -0.737  -0.720  -0.618  -0.574  -0.544  -0.513  -0.476
 -0.428  -0.423  -0.417  -0.386  -0.374  -0.303  -0.255  -0.224
 -0.210
 -- Virtual --
 -0.008   0.076   0.091   0.101   0.127   0.136   0.165   0.176
  0.180   0.224   0.237   0.282   0.339   0.362   0.391   0.456
  0.488   0.507   0.536   0.556   0.561   0.589   0.590   0.596
  0.606   0.619   0.622   0.650   0.673   0.704   0.800   0.810
  0.829   0.847   0.856   0.857   0.888   0.921   0.928   0.956
  0.982   1.034   1.083   1.128   1.200   1.217   1.274   1.346
  1.385   1.387   1.428   1.458   1.494   1.496   1.551   1.558
  1.676   1.742   1.818   1.878   1.929   1.982   2.003   2.006
  2.071   2.080   2.153   2.178   2.211   2.251   2.269   2.302
  2.337   2.339   2.533   2.549   2.592   2.648   2.682   2.719
  2.776   2.858   3.044   3.100   3.178   3.977   4.069   4.121
  4.171   4.273   4.472   4.474
 
 Beta MOs
 -- Occupied --
-14.391 -10.243 -10.205 -10.201 -10.198 -10.171 -10.170  -0.987
 -0.812  -0.725  -0.717  -0.605  -0.573  -0.543  -0.500  -0.466
 -0.424  -0.424  -0.414  -0.385  -0.374  -0.301  -0.216  -0.211
 -- Virtual --
 -0.087   0.001   0.077   0.091   0.109   0.128   0.143   0.165
  0.176   0.181   0.228   0.239   0.286   0.342   0.372   0.403
  0.461   0.498   0.507   0.539   0.560   0.567   0.589   0.594
  0.601   0.619   0.628   0.633   0.666   0.672   0.705   0.806
  0.811   0.831   0.849   0.857   0.859   0.901   0.927   0.934
  0.958   0.988   1.040   1.092   1.129   1.204   1.221   1.278
  1.346   1.386   1.388   1.441   1.461   1.495   1.497   1.551
  1.559   1.736   1.762   1.840   1.886   1.948   1.985   2.006
  2.013   2.076   2.086   2.165   2.180   2.211   2.250   2.273
  2.306   2.337   2.340   2.534   2.563   2.595   2.655   2.685
  2.719   2.787   2.861   3.044   3.102   3.185   3.977   4.102
  4.121   4.171   4.277   4.474   4.474
 --------------------------------------------------------------
 
          Ground-State Mulliken Net Atomic Charges

     Atom                 Charge (a.u.)    Spin (a.u.)
  --------------------------------------------------------
      1 C                     0.068170      -0.140510
      2 C                     0.027536      -0.002604
      3 C                    -0.193456      -0.005406
      4 C                    -0.186592      -0.008647
      5 C                     0.037285       0.008939
      6 N                    -0.401179       0.019483
      7 H                     0.163169       0.068826
      8 H                     0.144882       0.000096
      9 H                     0.128615       0.001019
     10 H                     0.128861       0.000825
     11 H                     0.154925       0.000530
     12 C                    -0.244475       1.062446
     13 H                     0.172260      -0.004998
  --------------------------------------------------------
  Sum of atomic charges =     0.000000
  Sum of spin   charges =     1.000000

 -----------------------------------------------------------------
                    Cartesian Multipole Moments
 -----------------------------------------------------------------
    Charge (ESU x 10^10)
                -0.0000
    Dipole Moment (Debye)
         X       1.2532      Y      -0.3423      Z      -0.6190
       Tot       1.4391
    Quadrupole Moments (Debye-Ang)
        XX     -36.3403     XY      -0.1634     YY     -37.2231
        XZ      -4.0194     YZ       0.5977     ZZ     -42.9510
    Octopole Moments (Debye-Ang^2)
       XXX       9.8665    XXY       1.1792    XYY       1.8729
       YYY      -7.6485    XXZ      -3.4039    XYZ      -1.4045
       YYZ      -1.1580    XZZ       2.3981    YZZ      -1.3529
       ZZZ      -2.7185
    Hexadecapole Moments (Debye-Ang^3)
      XXXX    -480.1737   XXXY     -62.5309   XXYY    -119.8709
      XYYY     -77.0412   YYYY    -284.1783   XXXZ      70.6020
      XXYZ      -0.7280   XYYZ      25.0798   YYYZ      29.4784
      XXZZ    -101.7251   XYZZ     -26.5836   YYZZ     -75.0465
      XZZZ     110.7864   YZZZ      31.7980   ZZZZ    -149.6042
 -----------------------------------------------------------------
 Calculating analytic gradient of the SCF energy
 Gradient of SCF Energy
            1           2           3           4           5           6
    1   0.0000453   0.0000349   0.0000201   0.0000000   0.0000692  -0.0001379
    2   0.0000032  -0.0000219  -0.0000154   0.0000368  -0.0000101   0.0000173
    3  -0.0000317   0.0001369   0.0000135  -0.0000167   0.0000173  -0.0001462
            7           8           9          10          11          12
    1  -0.0000164   0.0000117  -0.0000135  -0.0000027  -0.0000192   0.0000415
    2  -0.0000090   0.0000007   0.0000113   0.0000009   0.0000087  -0.0000365
    3   0.0000068  -0.0000016  -0.0000165  -0.0000086   0.0000129   0.0000728
           13
    1  -0.0000330
    2   0.0000140
    3  -0.0000389
 Max gradient component =       1.462E-04
 RMS gradient           =       4.662E-05
 Gradient time:  CPU 7.09 s  wall 3.18 s
 Geometry Optimization Parameters
   NAtoms,    NIC,     NZ,  NCons,   NDum,   NFix, NCnnct, MaxDiis
       13      84       0       0       0       0       0       0

 Cartesian Hessian Update
 Hessian Updated using BFGS Update


** GEOMETRY OPTIMIZATION IN DELOCALIZED INTERNAL COORDINATES **
   Searching for a Minimum

   Optimization Cycle:   2

                       Coordinates (Angstroms)
     ATOM                X               Y               Z
      1  C         1.5314199521    0.2562226162   -0.6994727341
      2  C        -0.2486783322   -1.2924854635    0.0279895950
      3  C        -1.4837525277   -1.1759016125    0.6142339642
      4  C        -1.7254334730    0.2179735994    0.8213100777
      5  C        -0.6310879784    0.9027318449    0.3542539778
      6  N         0.2776075752   -0.0200801288   -0.1340444381
      7  H         2.0616369989   -0.6459241712   -1.0163551798
      8  H         0.3112515763   -2.1592023569   -0.2937516649
      9  H        -2.1442699156   -1.9938766489    0.8681421859
     10  H        -2.6066874510    0.6633433528    1.2633376227
     11  H        -0.4045494575    1.9578842873    0.3190208304
     12  C         2.0713790673    1.4479513979   -0.8603087122
     13  H         2.9911639655    1.8413632835   -1.2643555247
   Point Group: c1    Number of degrees of freedom:    33


   Energy is   -286.872389807

 Hessian Updated using BFGS Update

 29 Hessian modes will be used to form the next step
  Hessian Eigenvalues:
     0.007546    0.016082    0.019893    0.021481    0.021814    0.022177
     0.022869    0.023698    0.031107    0.038146    0.146466    0.160907
     0.216058    0.220007    0.239192    0.250213    0.344214    0.357790
     0.358021    0.359658    0.360435    0.363506    0.383321    0.433594
     0.451733    0.458625    0.490304    0.506552    0.627518

 Minimum Search - Taking Simple RFO Step
 Searching for Lamda that Minimizes Along All modes
 Value Taken    Lamda =  -0.00000111
 Step Taken.  Stepsize is  0.010991

                             Maximum     Tolerance    Cnvgd?
         Gradient           0.000067      0.000300     YES
         Displacement       0.005867      0.001200      NO
         Energy change     -0.000001      0.000001     YES


                       Distance Matrix (Angstroms)
             C (  1)   C (  2)   C (  3)   C (  4)   C (  5)   N (  6)
   C (  2)  2.469099
   C (  3)  3.587209  1.372109
   C (  4)  3.594626  2.256468  1.429748
   C (  5)  2.490935  2.252036  2.261713  1.372817
   N (  6)  1.402889  1.386451  2.235673  2.231938  1.384104
   H (  7)  1.093350  2.616535  3.938208  4.297119  3.395243  2.086364
   H (  8)  2.736366  1.080850  2.239053  3.323013  3.268540  2.145340
   H (  9)  4.585963  2.188852  1.081589  2.251644  3.308193  3.281119
   H ( 10)  4.598076  3.303265  2.250587  1.081828  2.187860  3.277026
   H ( 11)  2.771454  3.267093  3.327528  2.241499  1.079772  2.140782
   C ( 12)  1.318196  3.698883  4.658094  4.330874  3.012599  2.429031
   H ( 13)  2.227693  4.689109  5.714706  5.406634  4.076964  3.479362
             H (  7)   H (  8)   H (  9)   H ( 10)   H ( 11)   C ( 12)
   H (  8)  2.424049
   H (  9)  4.801870  2.721565
   H ( 10)  5.357652  4.348064  2.725954
   H ( 11)  3.826895  4.223537  4.352537  2.723414
   C ( 12)  2.099705  4.053467  5.710116  5.197094  2.789457
   H ( 13)  2.666856  4.912080  6.754946  6.254031  3.748537  1.078903

 
 Final energy is   -286.872389806756     


 ******************************
 **  OPTIMIZATION CONVERGED  **
 ******************************

                       Coordinates (Angstroms)
     ATOM                X               Y               Z
      1  C         1.5314199521    0.2562226162   -0.6994727341
      2  C        -0.2486783322   -1.2924854635    0.0279895950
      3  C        -1.4837525277   -1.1759016125    0.6142339642
      4  C        -1.7254334730    0.2179735994    0.8213100777
      5  C        -0.6310879784    0.9027318449    0.3542539778
      6  N         0.2776075752   -0.0200801288   -0.1340444381
      7  H         2.0616369989   -0.6459241712   -1.0163551798
      8  H         0.3112515763   -2.1592023569   -0.2937516649
      9  H        -2.1442699156   -1.9938766489    0.8681421859
     10  H        -2.6066874510    0.6633433528    1.2633376227
     11  H        -0.4045494575    1.9578842873    0.3190208304
     12  C         2.0713790673    1.4479513979   -0.8603087122
     13  H         2.9911639655    1.8413632835   -1.2643555247

Z-matrix Print:
$molecule
0 2
N 
C  1 1.384104
H  2 1.079772 1 120.150176
C  2 1.372817 1 108.108353 3 179.995310 0
H  4 1.081828 2 125.663434 1 -179.927128 0
C  1 1.386451 2 108.749876 3 179.966961 0
H  6 1.080850 1 120.297388 2 179.948308 0
C  6 1.372109 1 108.278571 2 0.055412 0
H  8 1.081589 6 125.855532 1 179.930906 0
C  1 1.402889 2 126.700750 3 0.185453 0
H  10 1.093350 1 112.812612 2 -179.663691 0
C  10 1.318196 1 126.393339 2 0.375043 0
H  12 1.078903 10 136.432171 1 -179.724914 0
$end

 
 --------------------------------------------------------------
 
                    Orbital Energies (a.u.)
 --------------------------------------------------------------
 
 Alpha MOs
 -- Occupied --
-14.392 -10.242 -10.214 -10.205 -10.201 -10.171 -10.170  -0.988
 -0.817  -0.737  -0.720  -0.618  -0.574  -0.544  -0.513  -0.476
 -0.428  -0.423  -0.417  -0.386  -0.374  -0.303  -0.255  -0.224
 -0.210
 -- Virtual --
 -0.008   0.076   0.091   0.101   0.127   0.136   0.165   0.176
  0.180   0.224   0.237   0.282   0.339   0.362   0.391   0.456
  0.488   0.507   0.536   0.556   0.561   0.589   0.590   0.596
  0.606   0.619   0.622   0.650   0.673   0.704   0.800   0.810
  0.829   0.847   0.856   0.857   0.888   0.921   0.928   0.956
  0.982   1.034   1.083   1.128   1.200   1.217   1.274   1.346
  1.385   1.387   1.428   1.458   1.494   1.496   1.551   1.558
  1.676   1.742   1.818   1.878   1.929   1.982   2.003   2.006
  2.071   2.080   2.153   2.178   2.211   2.251   2.269   2.302
  2.337   2.339   2.533   2.549   2.592   2.648   2.682   2.719
  2.776   2.858   3.044   3.100   3.178   3.977   4.069   4.121
  4.171   4.273   4.472   4.474
 
 Beta MOs
 -- Occupied --
-14.391 -10.243 -10.205 -10.201 -10.198 -10.171 -10.170  -0.987
 -0.812  -0.725  -0.717  -0.605  -0.573  -0.543  -0.500  -0.466
 -0.424  -0.424  -0.414  -0.385  -0.374  -0.301  -0.216  -0.211
 -- Virtual --
 -0.087   0.001   0.077   0.091   0.109   0.128   0.143   0.165
  0.176   0.181   0.228   0.239   0.286   0.342   0.372   0.403
  0.461   0.498   0.507   0.539   0.560   0.567   0.589   0.594
  0.601   0.619   0.628   0.633   0.666   0.672   0.705   0.806
  0.811   0.831   0.849   0.857   0.859   0.901   0.927   0.934
  0.958   0.988   1.040   1.092   1.129   1.204   1.221   1.278
  1.346   1.386   1.388   1.441   1.461   1.495   1.497   1.551
  1.559   1.736   1.762   1.840   1.886   1.948   1.985   2.006
  2.013   2.076   2.086   2.165   2.180   2.211   2.250   2.273
  2.306   2.337   2.340   2.534   2.563   2.595   2.655   2.685
  2.719   2.787   2.861   3.044   3.102   3.185   3.977   4.102
  4.121   4.171   4.277   4.474   4.474
 --------------------------------------------------------------
 
          Ground-State Mulliken Net Atomic Charges

     Atom                 Charge (a.u.)    Spin (a.u.)
  --------------------------------------------------------
      1 C                     0.068170      -0.140510
      2 C                     0.027536      -0.002604
      3 C                    -0.193456      -0.005406
      4 C                    -0.186592      -0.008647
      5 C                     0.037285       0.008939
      6 N                    -0.401179       0.019483
      7 H                     0.163169       0.068826
      8 H                     0.144882       0.000096
      9 H                     0.128615       0.001019
     10 H                     0.128861       0.000825
     11 H                     0.154925       0.000530
     12 C                    -0.244475       1.062446
     13 H                     0.172260      -0.004998
  --------------------------------------------------------
  Sum of atomic charges =     0.000000
  Sum of spin   charges =     1.000000

 -----------------------------------------------------------------
                    Cartesian Multipole Moments
 -----------------------------------------------------------------
    Charge (ESU x 10^10)
                -0.0000
    Dipole Moment (Debye)
         X       1.2532      Y      -0.3423      Z      -0.6190
       Tot       1.4391
    Quadrupole Moments (Debye-Ang)
        XX     -36.3403     XY      -0.1634     YY     -37.2231
        XZ      -4.0194     YZ       0.5977     ZZ     -42.9510
    Octopole Moments (Debye-Ang^2)
       XXX       9.8665    XXY       1.1792    XYY       1.8729
       YYY      -7.6485    XXZ      -3.4039    XYZ      -1.4045
       YYZ      -1.1580    XZZ       2.3981    YZZ      -1.3529
       ZZZ      -2.7185
    Hexadecapole Moments (Debye-Ang^3)
      XXXX    -480.1737   XXXY     -62.5309   XXYY    -119.8709
      XYYY     -77.0412   YYYY    -284.1783   XXXZ      70.6020
      XXYZ      -0.7280   XYYZ      25.0798   YYYZ      29.4784
      XXZZ    -101.7251   XYZZ     -26.5836   YYZZ     -75.0465
      XZZZ     110.7864   YZZZ      31.7980   ZZZZ    -149.6042
 -----------------------------------------------------------------
Archival summary:
1\1\c8-68\OPT\ProcedureUnspecified\6-31G*\166(2)\hpark21\WedMar213:51:002022WedMar213:51:002022\0\\#,OPT,ProcedureUnspecified,6-31G*,\\0,2\N\C,1,1.3841\H,2,1.07977,1,120.15\C,2,1.37282,1,108.108,3,179.995,0\H,4,1.08183,2,125.663,1,-179.927,0\C,1,1.38645,2,108.75,3,179.967,0\H,6,1.08085,1,120.297,2,179.948,0\C,6,1.37211,1,108.279,2,0.0554124,0\H,8,1.08159,6,125.856,1,179.931,0\C,1,1.40289,2,126.701,3,0.185453,0\H,10,1.09335,1,112.813,2,-179.664,0\C,10,1.3182,1,126.393,2,0.375043,0\H,12,1.0789,10,136.432,1,-179.725,0\\\@

 Total job time:  83.77s(wall), 113.31s(cpu) 
 Wed Mar  2 13:51:00 2022

        *************************************************************
        *                                                           *
        *  Thank you very much for using Q-Chem.  Have a nice day.  *
        *                                                           *
        *************************************************************


