
Running Job 1 of 1 qcts2.in
qchem qcts2.in_39919.0 ./qcts2.d/ 1
/home/leeping/opt/qchem/5.0.2-openmp/exe/qcprog.exe_s qcts2.in_39919.0 ./qcts2.d/
Check license passed

                  Welcome to Q-Chem
     A Quantum Leap Into The Future Of Chemistry


 Q-Chem 5.0, Q-Chem, Inc., Pleasanton, CA (2017)

 Yihan Shao,  Zhengting Gan,  E. Epifanovsky,  A. T. B. Gilbert,  M. Wormit,  
 J. Kussmann,  A. W. Lange,  A. Behn,  Jia Deng,  Xintian Feng,  D. Ghosh,  
 M. Goldey,  P. R. Horn,  L. D. Jacobson,  I. Kaliman,  T. Kus,  A. Landau,  
 Jie Liu,  E. I. Proynov,  R. M. Richard,  R. P. Steele,  E. J. Sundstrom,  
 H. L. Woodcock III,  P. M. Zimmerman,  D. Zuev,  B. Albrecht,  E. Alguire,  
 S. A. Baeppler,  D. Barton,  Z. Benda,  Y. A. Bernard,  E. J. Berquist,  
 K. B. Bravaya,  H. Burton,  D. Casanova,  Chun-Min Chang,  Yunqing Chen,  
 A. Chien,  K. D. Closser,  M. P. Coons,  S. Dasgupta,  A. L. Dempwolff,  
 M. Diedenhofen,  Hainam Do,  R. G. Edgar,  Po-Tung Fang,  S. Fatehi,  
 Qingguo Feng,  J. Fosso-Tande,  Qinghui Ge,  A. Ghysels,  G. Gidofalvi,  
 J. Gomes,  J. Gonthier,  A. Gunina,  M. W. D. Hanson-Heine,  
 P. H. P. Harbach,  A. W. Hauser,  J. E. Herr,  E. G. Hohenstein,  
 Z. C. Holden,  Kerwin Hui,  T.-C. Jagau,  Hyunjun Ji,  B. Kaduk,  
 K. Khistyaev,  Jaehoon Kim,  P. Klunzinger,  K. Koh,  D. Kosenkov,  
 L. Koulias,  T. Kowalczyk,  C. M. Krauter,  A. Kunitsa,  Ka Un Lao,  
 A. Laurent,  K. V. Lawler,  Joonho Lee,  D. Lefrancois,  S. Lehtola,  
 D. S. Levine,  Yi-Pei Li,  You-Sheng Lin,  Fenglai Liu,  E. Livshits,  
 A. Luenser,  P. Manohar,  E. Mansoor,  S. F. Manzer,  Shan-Ping Mao,  
 Yuezhi Mao,  N. Mardirossian,  A. V. Marenich,  T. Markovich,  
 L. A. Martinez-Martinez,  S. A. Maurer,  N. J. Mayhall,  S. C. McKenzie,  
 J.-M. Mewes,  A. F. Morrison,  J. W. Mullinax,  K. Nanda,  
 T. S. Nguyen-Beck,  R. Olivares-Amaya,  J. A. Parkhill,  T. M. Perrine,  
 F. Plasser,  S. Prager,  A. Prociuk,  E. Ramos,  D. R. Rehn,  F. Rob,  
 M. Schneider,  N. Sergueev,  S. M. Sharada,  S. Sharma,  D. W. Small,  
 T. Stauch,  T. Stein,  Yu-Chuan Su,  A. J. W. Thom,  A. Tkatchenko,  
 T. Tsuchimochi,  L. Vogt,  O. Vydrov,  M. A. Watson,  J. Wenzel,  
 M. de Wergifosse,  T. A. Wesolowski,  A. White,  J. Witte,  A. Yamada,  
 Jun Yang,  K. Yao,  S. Yeganeh,  S. R. Yost,  Zhi-Qiang You,  A. Zech,  
 Igor Ying Zhang,  Xing Zhang,  Yan Zhao,  Ying Zhu,  B. R. Brooks,  
 G. K. L. Chan,  C. J. Cramer,  M. S. Gordon,  W. J. Hehre,  A. Klamt,  
 M. W. Schmidt,  C. D. Sherrill,  D. G. Truhlar,  A. Aspuru-Guzik,  R. Baer,  
 A. T. Bell,  N. A. Besley,  Jeng-Da Chai,  R. A. DiStasio Jr.,  A. Dreuw,  
 B. D. Dunietz,  T. R. Furlani,  Chao-Ping Hsu,  Yousung Jung,  Jing Kong,  
 D. S. Lambrecht,  WanZhen Liang,  C. Ochsenfeld,  V. A. Rassolov,  
 L. V. Slipchenko,  J. E. Subotnik,  T. Van Voorhis,  J. M. Herbert,  
 A. I. Krylov,  P. M. W. Gill,  M. Head-Gordon

 Contributors to earlier versions of Q-Chem not listed above: 
 R. D. Adamson,  B. Austin,  J. Baker,  G. J. O. Beran,  K. Brandhorst,  
 S. T. Brown,  E. F. C. Byrd,  A. K. Chakraborty,  C.-L. Cheng,  
 Siu Hung Chien,  D. M. Chipman,  D. L. Crittenden,  H. Dachsel,  
 R. J. Doerksen,  A. D. Dutoi,  L. Fusti-Molnar,  W. A. Goddard III,  
 A. Golubeva-Zadorozhnaya,  S. R. Gwaltney,  G. Hawkins,  A. Heyden,  
 S. Hirata,  G. Kedziora,  F. J. Keil,  C. Kelley,  Jihan Kim,  R. A. King,  
 R. Z. Khaliullin,  P. P. Korambath,  W. Kurlancheek,  A. M. Lee,  M. S. Lee,  
 S. V. Levchenko,  Ching Yeh Lin,  D. Liotard,  R. C. Lochan,  I. Lotan,  
 P. E. Maslen,  N. Nair,  D. P. O'Neill,  D. Neuhauser,  E. Neuscamman,  
 C. M. Oana,  R. Olson,  B. Peters,  R. Peverati,  P. A. Pieniazek,  
 Y. M. Rhee,  J. Ritchie,  M. A. Rohrdanz,  E. Rosta,  N. J. Russ,  
 H. F. Schaefer III,  N. E. Schultz,  N. Shenvi,  A. C. Simmonett,  A. Sodt,  
 D. Stuck,  K. S. Thanthiriwatte,  V. Vanovschi,  Tao Wang,  A. Warshel,  
 C. F. Williams,  Q. Wu,  X. Xu,  W. Zhang

 Please cite Q-Chem as follows:
 Y. Shao et al., Mol. Phys. 113, 184-215 (2015)
 DOI: 10.1080/00268976.2014.952696

 Q-Chem 5.0.2 for Intel X86 EM64T Linux

 Parts of Q-Chem use Armadillo 5.200.1 (Boston Tea Smuggler).
 http://arma.sourceforge.net/

 Q-Chem begins on Wed Mar  2 15:26:03 2022  

Host: 
0

     Scratch files written to ./qcts2.d//
 Dec517 15110_ 26548  26544 5633   
Processing $rem in /home/leeping/opt/qchem/5.0.2-openmp/config/preferences.
 MEM_STATIC 2000
 MEM_TOTAL  8000
 SYMMETRY   OFF
 SYM_IGNORE TRUE 

Checking the input file for inconsistencies... 	...done.

--------------------------------------------------------------
User input:
--------------------------------------------------------------
$molecule
0 2
C        1.3739565980    0.6816414054   -0.7582440069
C       -0.1036549007   -0.9196312082   -0.4353474902
C       -1.0448833464   -1.0955888954    0.5962483288
C       -1.4961728969    0.1918454279    0.9909642047
C       -0.8608294512    1.1324022267    0.2097780239
N       -0.0513418268    0.4919396068   -0.7261443168
H        1.8048826430    1.6094277272   -1.1285132546
H        0.0506380389   -1.6149275650   -1.2528216090
H       -1.4055055618   -2.0458360895    0.9677364295
H       -2.2387577256    0.4046726716    1.7504512201
H       -0.8738536990    2.2122378299    0.2718808218
C        1.8860208148   -0.4561075567   -0.3039169347
H        2.8954375558   -0.8592316177   -0.2650424359
$end

$rem
method                b3lyp
basis                 6-31+g(d,p)
unrestricted          true
symmetry              off
sym_ignore            true
incdft                false
incfock               0
scf_convergence       8
thresh                14
jobtype               freq
scf_guess             read
scf_algorithm         diis
max_scf_cycles        100
$end

--------------------------------------------------------------
 ----------------------------------------------------------------
             Standard Nuclear Orientation (Angstroms)
    I     Atom           X                Y                Z
 ----------------------------------------------------------------
    1      C       1.3739565980     0.6816414054    -0.7582440069
    2      C      -0.1036549007    -0.9196312082    -0.4353474902
    3      C      -1.0448833464    -1.0955888954     0.5962483288
    4      C      -1.4961728969     0.1918454279     0.9909642047
    5      C      -0.8608294512     1.1324022267     0.2097780239
    6      N      -0.0513418268     0.4919396068    -0.7261443168
    7      H       1.8048826430     1.6094277272    -1.1285132546
    8      H       0.0506380389    -1.6149275650    -1.2528216090
    9      H      -1.4055055618    -2.0458360895     0.9677364295
   10      H      -2.2387577256     0.4046726716     1.7504512201
   11      H      -0.8738536990     2.2122378299     0.2718808218
   12      C       1.8860208148    -0.4561075567    -0.3039169347
   13      H       2.8954375558    -0.8592316177    -0.2650424359
 ----------------------------------------------------------------
 Nuclear Repulsion Energy =   270.4617580346 hartrees
 There are       25 alpha and       24 beta electrons
 Requested basis set is 6-31+G(d,p)
 There are 53 shells and 163 basis functions

 Total QAlloc Memory Limit   8000 MB
 Mega-Array Size      1956 MB
 MEM_STATIC part      2000 MB

                       Distance Matrix (Angstroms)
             C (  1)   C (  2)   C (  3)   C (  4)   C (  5)   N (  6)
   C (  2)  2.202651
   C (  3)  3.293020  1.407502
   C (  4)  3.396656  2.282291  1.420194
   C (  5)  2.476796  2.280426  2.268740  1.377883
   N (  6)  1.438226  1.442162  2.292617  2.264079  1.393346
   H (  7)  1.087926  3.243321  4.291047  4.171174  3.020695  2.203690
   H (  8)  2.696295  1.084208  2.211095  3.269805  3.243114  2.174092
   H (  9)  4.259525  2.220765  1.082137  2.239638  3.312457  3.338158
   H ( 10)  4.407036  3.330189  2.237924  1.083304  2.191335  3.305439
   H ( 11)  2.908012  3.301815  3.328090  2.233013  1.081698  2.152210
   C ( 12)  1.327816  2.047178  3.132001  3.679102  3.214410  2.197827
   H ( 13)  2.220910  3.004531  4.040274  4.687063  4.278037  3.274414
             H (  7)   H (  8)   H (  9)   H ( 10)   H ( 11)   C ( 12)
   H (  8)  3.672777
   H (  9)  5.297340  2.690151
   H ( 10)  5.107925  4.282495  2.704061
   H ( 11)  3.082225  4.222156  4.347190  2.704889
   C ( 12)  2.225529  2.368948  3.870205  4.687768  3.881819
   H ( 13)  2.833579  3.104782  4.628810  5.658589  4.891806  1.087632

 
 A cutoff of  1.0D-14 yielded   1379 shell pairs
 There are     13419 function pairs
 Smallest overlap matrix eigenvalue = 1.61E-05
 Guess MOs from SCF MO coefficient file
 Reading MOs from coefficient file
 Reading MOs from coefficient file
 An unrestricted hybrid HF-DFT SCF calculation will be
 performed using Pulay DIIS extrapolation
 Exchange:     0.2000 Hartree-Fock + 0.0800 Slater + 0.7200 B88
 Correlation:  0.1900 VWN1RPA + 0.8100 LYP
 Using SG-1 standard quadrature grid
 SCF converges when DIIS error is below 1.0E-08
Using Q-Chem read-in guess as SCF_GUESS READ specified.

 -------------------------------------------------------
 OpenMP BLAS3 based DFT computing Module                
 -------------------------------------------------------
 ---------------------------------------
  Cycle       Energy         DIIS Error
 ---------------------------------------
    1    -286.8544814637      4.36E-10
    2    -286.8544814637      7.45E-10 Convergence criterion met
 ---------------------------------------
 <S^2> = 0.7799
 SCF time:  CPU 6.68 s  wall 9.96 s
 SCF   energy in the final basis set = -286.85448146
 Total energy in the final basis set = -286.85448146
 
 --------------------------------------------------------------
 
                    Orbital Energies (a.u.)
 --------------------------------------------------------------
 
 Alpha MOs
 -- Occupied --
-14.380 -10.238 -10.230 -10.230 -10.202 -10.199 -10.198  -0.996
 -0.820  -0.751  -0.710  -0.611  -0.582  -0.554  -0.516  -0.491
 -0.435  -0.420  -0.410  -0.399  -0.368  -0.305  -0.286  -0.248
 -0.172
 -- Virtual --
 -0.014   0.002   0.011   0.023   0.025   0.037   0.041   0.047
  0.053   0.064   0.073   0.081   0.090   0.097   0.113   0.115
  0.126   0.129   0.143   0.149   0.155   0.163   0.179   0.193
  0.198   0.203   0.207   0.218   0.223   0.230   0.239   0.253
  0.260   0.267   0.280   0.287   0.296   0.303   0.332   0.344
  0.391   0.421   0.459   0.507   0.641   0.654   0.673   0.699
  0.704   0.719   0.727   0.738   0.751   0.761   0.783   0.802
  0.847   0.854   0.859   0.892   0.905   0.918   0.941   0.957
  0.980   1.013   1.039   1.055   1.069   1.126   1.139   1.163
  1.184   1.213   1.234   1.309   1.352   1.373   1.392   1.445
  1.460   1.507   1.616   1.663   1.714   1.781   1.840   1.855
  1.879   1.908   1.921   1.932   1.966   1.989   2.026   2.059
  2.125   2.152   2.180   2.236   2.267   2.282   2.360   2.383
  2.390   2.436   2.459   2.474   2.492   2.517   2.541   2.568
  2.590   2.628   2.633   2.673   2.692   2.748   2.761   2.799
  2.883   2.901   2.959   3.047   3.206   3.252   3.261   3.338
  3.529   3.691   3.764   4.257   4.349   4.382   4.419   4.559
  4.671   4.773
 
 Beta MOs
 -- Occupied --
-14.378 -10.240 -10.231 -10.226 -10.200 -10.193 -10.192  -0.992
 -0.814  -0.743  -0.705  -0.601  -0.578  -0.549  -0.511  -0.484
 -0.427  -0.417  -0.408  -0.396  -0.361  -0.294  -0.259  -0.235
 -- Virtual --
 -0.082  -0.005   0.008   0.012   0.025   0.025   0.040   0.043
  0.047   0.057   0.066   0.075   0.084   0.094   0.099   0.114
  0.118   0.127   0.132   0.145   0.151   0.157   0.165   0.181
  0.193   0.199   0.204   0.210   0.220   0.224   0.232   0.242
  0.256   0.262   0.270   0.284   0.291   0.298   0.305   0.337
  0.347   0.393   0.425   0.464   0.516   0.646   0.658   0.679
  0.703   0.713   0.721   0.732   0.744   0.754   0.768   0.790
  0.807   0.852   0.858   0.861   0.895   0.906   0.922   0.943
  0.964   0.985   1.019   1.042   1.059   1.077   1.131   1.144
  1.166   1.188   1.216   1.238   1.315   1.358   1.379   1.397
  1.450   1.468   1.517   1.623   1.678   1.730   1.791   1.845
  1.862   1.885   1.917   1.924   1.938   1.969   1.995   2.031
  2.064   2.130   2.161   2.187   2.242   2.272   2.289   2.362
  2.386   2.394   2.440   2.466   2.480   2.500   2.518   2.551
  2.571   2.599   2.634   2.638   2.677   2.696   2.752   2.765
  2.805   2.885   2.905   2.961   3.055   3.208   3.254   3.267
  3.341   3.532   3.700   3.766   4.263   4.353   4.386   4.429
  4.564   4.678   4.777
 --------------------------------------------------------------
 
          Ground-State Mulliken Net Atomic Charges

     Atom                 Charge (a.u.)    Spin (a.u.)
  --------------------------------------------------------
      1 C                    -0.134337      -0.094655
      2 C                    -0.332219      -0.165966
      3 C                    -0.022860       0.378354
      4 C                    -0.108643      -0.121711
      5 C                    -0.040776       0.310460
      6 N                    -0.055693       0.044634
      7 H                     0.135712       0.016386
      8 H                     0.163194       0.023018
      9 H                     0.131447      -0.017254
     10 H                     0.131949       0.002319
     11 H                     0.138955      -0.013999
     12 C                    -0.135593       0.614830
     13 H                     0.128864       0.023586
  --------------------------------------------------------
  Sum of atomic charges =    -0.000000
  Sum of spin   charges =     1.000000

 -----------------------------------------------------------------
                    Cartesian Multipole Moments
 -----------------------------------------------------------------
    Charge (ESU x 10^10)
                 0.0000
    Dipole Moment (Debye)
         X      -0.1304      Y       0.4002      Z       0.0467
       Tot       0.4235
    Quadrupole Moments (Debye-Ang)
        XX     -40.7528     XY       0.6812     YY     -37.0161
        XZ      -3.5683     YZ       0.3848     ZZ     -43.4963
    Octopole Moments (Debye-Ang^2)
       XXX       9.8795    XXY      -0.1113    XYY      -0.2949
       YYY       3.9691    XXZ       6.1392    XYZ      -1.7048
       YYZ       0.6717    XZZ      -3.2988    YZZ      -1.2622
       ZZZ       8.2324
    Hexadecapole Moments (Debye-Ang^3)
      XXXX    -428.9174   XXXY      -7.4460   XXYY    -109.0378
      XYYY       4.3965   YYYY    -223.1879   XXXZ      65.1543
      XXYZ      -0.1461   XYYZ      17.8017   YYYZ       7.3944
      XXZZ     -99.4647   XYZZ       2.6334   YYZZ     -66.9012
      XZZZ      74.8598   YZZZ      12.2232   ZZZZ    -177.4606
 -----------------------------------------------------------------
 Calculating MO derivatives via CPSCF
   1         3          39      0.306831    0.070168
   2         3          39      0.039394    0.008420
   3         3          39      0.005922    0.001397
   4         3          39      0.000919    0.000253
   5        21          21      0.000090    0.000029
   6        40           2      0.000004    0.000002
   7        42           0      0.000000    0.000000    Roots Converged
 Time for AOints: 19.3 s (CPU) 20.9 s (wall)
 ------------------------------------------------------------------------------
                     AOints        : Timing summary (seconds)
 ------------------------------------------------------------------------------
     job step          cpu (% of tot)      sys (% of tot)     wall (% of tot)
 ------------------------------------------------------------------------------
  cpscf_lag         0.1133E+03 (27.4)   0.3700E-04 (32.5)   0.1163E+03 (26.8)
  iterzp            0.2801E+03 (67.8)   0.7600E-04 (66.7)   0.2963E+03 (68.3)
  make_fx           0.0000E+00 ( 0.0)   0.0000E+00 ( 0.0)   0.0000E+00 ( 0.0)
  AOints            0.1927E+02 ( 4.7)   0.1000E-05 ( 0.9)   0.2090E+02 ( 4.8)
 ------------------------------------------------------------------------------
   Grand Totals     0.4130E+03          0.1140E-03          0.4340E+03
 ------------------------------------------------------------------------------
 Calculating analytic Hessian of the SCF energy
 Polarizability Matrix (a.u.)
            1           2           3
    1-100.1219865   2.8818300  17.7452009
    2   2.8818300 -79.1520477   3.7521999
    3  17.7452009   3.7521999 -62.7924112
 
 Direct stationary perturbation theory relativistic correction:
 
 rels  =       0.069355482390
 relv  =      -0.338513888666
 rel2e =       0.156245019956
 E_rel =      -0.112913386321
 
 Hessian of the SCF Energy
            1           2           3           4           5           6
    1   0.4877435  -0.0231625   0.0050527  -0.0051004  -0.0286114  -0.0014833
    2  -0.0231625   0.8015783  -0.2478606  -0.0689365  -0.0301904   0.0128448
    3   0.0050527  -0.2478606   0.2140764   0.0130962   0.0134231  -0.0034231
    4  -0.0051004  -0.0689365   0.0130962   0.1037185   0.0029165  -0.2107125
    5  -0.0286114  -0.0301904   0.0134231   0.0029165   0.5573533   0.1304852
    6  -0.0014833   0.0128448  -0.0034231  -0.2107125   0.1304852   0.5608613
    7  -0.0054101   0.0039634  -0.0038423  -0.1146460  -0.0235637   0.1312352
    8   0.0013551  -0.0068149   0.0061293  -0.0265329  -0.1049072   0.0239761
    9   0.0053108  -0.0047497   0.0071017   0.0587992   0.0198145  -0.2094105
   10   0.0037339   0.0022121   0.0019126  -0.0119143   0.0182506   0.0232709
   11   0.0055072   0.0004444  -0.0122447   0.0649269   0.0039888  -0.0402820
   12  -0.0060975  -0.0028562   0.0009587   0.0203697  -0.0157200  -0.0178598
   13  -0.0439880   0.0189797   0.0231118  -0.0058830   0.0219837   0.0063418
   14   0.0135311   0.0086709   0.0098892   0.0012612  -0.0540637  -0.0148810
   15   0.0188186   0.0043765  -0.0166232   0.0107577  -0.0165589  -0.0064570
   16  -0.1984688  -0.0233662  -0.0055216  -0.0864820  -0.0003291   0.0160733
   17  -0.0516708  -0.0863667  -0.0104100  -0.0468490  -0.1946649   0.0431485
   18   0.0050605  -0.0037598  -0.0293350   0.0527544   0.0034980  -0.0887244
   19  -0.0941652  -0.0866746   0.0334586  -0.0047514   0.0016103   0.0007166
   20  -0.0944800  -0.2583241   0.0875654  -0.0026520  -0.0005057   0.0041973
   21   0.0419377   0.0886039  -0.0728043  -0.0014759   0.0032686   0.0062087
   22  -0.0041702   0.0015048  -0.0016771  -0.0045928   0.0178034   0.0349766
   23   0.0037393  -0.0002475   0.0007184   0.0249882  -0.1665377  -0.1358818
   24  -0.0036891   0.0023934   0.0004786   0.0604168  -0.1476464  -0.2253839
   25   0.0015524   0.0005262   0.0001236  -0.0030466  -0.0182460   0.0024184
   26   0.0001532  -0.0001482   0.0002528   0.0008718   0.0033754  -0.0019687
   27   0.0008556   0.0021620  -0.0005924  -0.0011165   0.0176908  -0.0003935
   28   0.0019697  -0.0009911   0.0000388   0.0034670   0.0002227   0.0037353
   29   0.0008026   0.0005492   0.0007384   0.0020666  -0.0057116  -0.0021518
   30   0.0013127  -0.0011852  -0.0009554   0.0029549  -0.0004309   0.0023202
   31   0.0010129  -0.0008499  -0.0007462   0.0008367   0.0004006   0.0059394
   32  -0.0004709   0.0001927  -0.0000503   0.0003767   0.0012069  -0.0014774
   33  -0.0007422  -0.0004401  -0.0000497   0.0039732  -0.0003230  -0.0012684
   34  -0.1405094   0.1875165  -0.0709614   0.1226031   0.0068650  -0.0146064
   35   0.1596907  -0.4321579   0.1544995   0.0412912  -0.0088292  -0.0201553
   36  -0.0529647   0.1446004  -0.0971460  -0.0145198  -0.0099849  -0.0120415
   37  -0.0042002  -0.0107219   0.0059542   0.0057914   0.0006974   0.0020946
   38   0.0136164   0.0028142  -0.0026504   0.0062714  -0.0005139   0.0021460
   39  -0.0133719   0.0058706  -0.0016862   0.0047026   0.0024839  -0.0044280
            7           8           9          10          11          12
    1  -0.0054101   0.0013551   0.0053108   0.0037339   0.0055072  -0.0060975
    2   0.0039634  -0.0068149  -0.0047497   0.0022121   0.0004444  -0.0028562
    3  -0.0038423   0.0061293   0.0071017   0.0019126  -0.0122447   0.0009587
    4  -0.1146460  -0.0265329   0.0587992  -0.0119143   0.0649269   0.0203697
    5  -0.0235637  -0.1049072   0.0198145   0.0182506   0.0039888  -0.0157200
    6   0.1312352   0.0239761  -0.2094105   0.0232709  -0.0402820  -0.0178598
    7   0.3286851   0.0742841  -0.2385719  -0.1043733   0.0312606   0.0476074
    8   0.0742841   0.7321587  -0.0916843   0.0683952  -0.2485852  -0.0571639
    9  -0.2385719  -0.0916843   0.3727301   0.0455580  -0.0252151  -0.0918636
   10  -0.1043733   0.0683952   0.0455580   0.4516666  -0.0212801  -0.3591032
   11   0.0312606  -0.2485852  -0.0252151  -0.0212801   0.5466058  -0.0137392
   12   0.0476074  -0.0571639  -0.0918636  -0.3591032  -0.0137392   0.5030543
   13   0.0233875  -0.0215186  -0.0024370  -0.1398979  -0.0849448   0.1002859
   14   0.0107951  -0.0748977  -0.0098907  -0.1006737  -0.2130151   0.1182152
   15  -0.0142197   0.0319089   0.0192557   0.0973760   0.0906585  -0.1738896
   16  -0.0098787  -0.0147215   0.0136840  -0.0306198  -0.0112181   0.0481722
   17  -0.0112466  -0.0257730   0.0137695   0.0009067   0.0082248   0.0032609
   18   0.0132344   0.0133442  -0.0129334   0.0434932   0.0267443  -0.0412438
   19  -0.0000104  -0.0014851   0.0008105  -0.0004978  -0.0010875   0.0007362
   20  -0.0002857  -0.0006873  -0.0014013  -0.0000035   0.0007480  -0.0000535
   21  -0.0011428  -0.0006217   0.0008387  -0.0004647  -0.0006292  -0.0004037
   22  -0.0092206   0.0142564   0.0210635  -0.0008534  -0.0050580   0.0042995
   23   0.0010161   0.0089315   0.0032523  -0.0019524   0.0008342   0.0007207
   24  -0.0042487  -0.0146049  -0.0024650   0.0032744  -0.0009618  -0.0022579
   25  -0.0734534  -0.0876097   0.0486035   0.0065818   0.0103742  -0.0060862
   26  -0.0860462  -0.2863763   0.0900988  -0.0108406  -0.0109467   0.0107194
   27   0.0518505   0.0881263  -0.0792225  -0.0055126  -0.0074081   0.0059266
   28  -0.0019047  -0.0016512   0.0025458  -0.1818559   0.0383757   0.1542313
   29   0.0176912   0.0039040  -0.0174534   0.0416591  -0.0703630  -0.0386734
   30   0.0014039   0.0014511  -0.0007820   0.1521742  -0.0388811  -0.1898237
   31   0.0018517  -0.0033325   0.0034273   0.0064863  -0.0093080  -0.0051596
   32  -0.0017743  -0.0008053   0.0017022   0.0038855  -0.0083254  -0.0048409
   33   0.0051877   0.0015651  -0.0008231  -0.0025096   0.0176832   0.0063812
   34  -0.0346488   0.0007115   0.0417385   0.0006989  -0.0200073   0.0012209
   35  -0.0158965   0.0060628   0.0224312  -0.0019697  -0.0126238   0.0015718
   36   0.0130214  -0.0028652  -0.0046637   0.0012788   0.0050641   0.0008794
   37  -0.0003782  -0.0021508  -0.0005323   0.0008448   0.0024593  -0.0004768
   38  -0.0001976  -0.0022102  -0.0006741   0.0014109   0.0030132  -0.0014407
   39  -0.0015151   0.0004389   0.0022376  -0.0007483  -0.0007887   0.0001420
           13          14          15          16          17          18
    1  -0.0439880   0.0135311   0.0188186  -0.1984688  -0.0516708   0.0050605
    2   0.0189797   0.0086709   0.0043765  -0.0233662  -0.0863667  -0.0037598
    3   0.0231118   0.0098892  -0.0166232  -0.0055216  -0.0104100  -0.0293350
    4  -0.0058830   0.0012612   0.0107577  -0.0864820  -0.0468490   0.0527544
    5   0.0219837  -0.0540637  -0.0165589  -0.0003291  -0.1946649   0.0034980
    6   0.0063418  -0.0148810  -0.0064570   0.0160733   0.0431485  -0.0887244
    7   0.0233875   0.0107951  -0.0142197  -0.0098787  -0.0112466   0.0132344
    8  -0.0215186  -0.0748977   0.0319089  -0.0147215  -0.0257730   0.0133442
    9  -0.0024370  -0.0098907   0.0192557   0.0136840   0.0137695  -0.0129334
   10  -0.1398979  -0.1006737   0.0973760  -0.0306198   0.0009067   0.0434932
   11  -0.0849448  -0.2130151   0.0906585  -0.0112181   0.0082248   0.0267443
   12   0.1002859   0.1182152  -0.1738896   0.0481722   0.0032609  -0.0412438
   13   0.3309892   0.0403570  -0.2256088  -0.1243625   0.0462223   0.0728523
   14   0.0403570   0.8277792  -0.0322816   0.0231126  -0.1485049  -0.0516115
   15  -0.2256088  -0.0322816   0.3535465   0.0971994  -0.0819196  -0.1267164
   16  -0.1243625   0.0231126   0.0971994   0.5356554  -0.0223510  -0.1605837
   17   0.0462223  -0.1485049  -0.0819196  -0.0223510   0.4848878   0.0298701
   18   0.0728523  -0.0516115  -0.1267164  -0.1605837   0.0298701   0.2703588
   19   0.0023286  -0.0021664  -0.0027467  -0.0121750  -0.0239449   0.0099578
   20  -0.0013660  -0.0001040   0.0010507   0.0027232   0.0010487   0.0001660
   21  -0.0008673  -0.0006560  -0.0011072  -0.0027659  -0.0006392   0.0033668
   22   0.0004348   0.0020665  -0.0001688  -0.0004671   0.0112875  -0.0057973
   23  -0.0029042  -0.0037991   0.0024445   0.0035470  -0.0189870  -0.0209250
   24   0.0005606   0.0033549  -0.0010654   0.0005837   0.0125575   0.0087924
   25  -0.0005241   0.0029939   0.0043320   0.0009405  -0.0026412   0.0048254
   26   0.0013005  -0.0041261  -0.0010853   0.0004516   0.0004977  -0.0012944
   27   0.0021120  -0.0031595   0.0014587   0.0065952  -0.0003829   0.0001982
   28  -0.0046433   0.0078960   0.0036561   0.0019563   0.0009151   0.0049012
   29  -0.0137770   0.0113185   0.0143267  -0.0034590  -0.0026871   0.0029871
   30   0.0069000  -0.0056296  -0.0079074   0.0045256   0.0032860   0.0045024
   31  -0.0420696  -0.0039649   0.0205567   0.0012255   0.0204918  -0.0047006
   32   0.0011644  -0.3546809  -0.0156158  -0.0002860  -0.0086930   0.0004414
   33   0.0139465  -0.0115828  -0.0420703  -0.0016035  -0.0254214  -0.0026340
   34   0.0064132   0.0035679  -0.0116295  -0.0769403   0.0737569  -0.0332783
   35  -0.0018265   0.0027868  -0.0027072   0.0379340  -0.0100654   0.0017603
   36   0.0047815  -0.0014511   0.0007251  -0.0205588   0.0097580   0.0058966
   37  -0.0021848   0.0012238   0.0016768  -0.0003835   0.0051230  -0.0027192
   38  -0.0036704   0.0026359   0.0054026   0.0079625   0.0010829  -0.0012208
   39  -0.0019793  -0.0003155   0.0008505   0.0042000   0.0031226   0.0084716
           19          20          21          22          23          24
    1  -0.0941652  -0.0944800   0.0419377  -0.0041702   0.0037393  -0.0036891
    2  -0.0866746  -0.2583241   0.0886039   0.0015048  -0.0002475   0.0023934
    3   0.0334586   0.0875654  -0.0728043  -0.0016771   0.0007184   0.0004786
    4  -0.0047514  -0.0026520  -0.0014759  -0.0045928   0.0249882   0.0604168
    5   0.0016103  -0.0005057   0.0032686   0.0178034  -0.1665377  -0.1476464
    6   0.0007166   0.0041973   0.0062087   0.0349766  -0.1358818  -0.2253839
    7  -0.0000104  -0.0002857  -0.0011428  -0.0092206   0.0010161  -0.0042487
    8  -0.0014851  -0.0006873  -0.0006217   0.0142564   0.0089315  -0.0146049
    9   0.0008105  -0.0014013   0.0008387   0.0210635   0.0032523  -0.0024650
   10  -0.0004978  -0.0000035  -0.0004647  -0.0008534  -0.0019524   0.0032744
   11  -0.0010875   0.0007480  -0.0006292  -0.0050580   0.0008342  -0.0009618
   12   0.0007362  -0.0000535  -0.0004037   0.0042995   0.0007207  -0.0022579
   13   0.0023286  -0.0013660  -0.0008673   0.0004348  -0.0029042   0.0005606
   14  -0.0021664  -0.0001040  -0.0006560   0.0020665  -0.0037991   0.0033549
   15  -0.0027467   0.0010507  -0.0011072  -0.0001688   0.0024445  -0.0010654
   16  -0.0121750   0.0027232  -0.0027659  -0.0004671   0.0035470   0.0005837
   17  -0.0239449   0.0010487  -0.0006392   0.0112875  -0.0189870   0.0125575
   18   0.0099578   0.0001660   0.0033668  -0.0057973  -0.0209250   0.0087924
   19   0.1003393   0.1047216  -0.0401636   0.0002772  -0.0003611   0.0002386
   20   0.1047216   0.2667354  -0.0985477   0.0005743   0.0000053  -0.0000619
   21  -0.0401636  -0.0985477   0.0594331   0.0014991   0.0006133  -0.0000690
   22   0.0002772   0.0005743   0.0014991   0.0420236  -0.0271895  -0.0458364
   23  -0.0003611   0.0000053   0.0006133  -0.0271895   0.1777847   0.1515367
   24   0.0002386  -0.0000619  -0.0000690  -0.0458364   0.1515367   0.2226531
   25  -0.0001497  -0.0001731  -0.0000472  -0.0010444   0.0008009  -0.0002479
   26   0.0000215   0.0000313  -0.0000192  -0.0002207  -0.0001080   0.0004773
   27   0.0004554  -0.0000145   0.0001376  -0.0015088  -0.0002052   0.0000021
   28  -0.0002222   0.0000775   0.0001157  -0.0002202  -0.0004602   0.0003739
   29  -0.0001261   0.0000205  -0.0000389   0.0006879   0.0006141  -0.0009315
   30   0.0000156   0.0000809   0.0000670   0.0000291  -0.0002869   0.0002697
   31  -0.0001859  -0.0001593   0.0003274   0.0004485   0.0008743  -0.0004477
   32   0.0003709   0.0000110  -0.0000921   0.0001914  -0.0002743   0.0002085
   33   0.0002845   0.0000419   0.0000331   0.0008614  -0.0006989   0.0005279
   34   0.0091983  -0.0098434   0.0036503  -0.0219070  -0.0018093  -0.0102127
   35   0.0091925  -0.0091347   0.0098900  -0.0155432   0.0022729  -0.0052569
   36  -0.0040376   0.0084003   0.0069986  -0.0072251  -0.0014023  -0.0011808
   37   0.0000143   0.0008665  -0.0006029  -0.0007085  -0.0002890  -0.0007654
   38  -0.0000711   0.0001555  -0.0011318  -0.0003608  -0.0004891  -0.0010651
   39   0.0002742  -0.0014235  -0.0026994  -0.0005158   0.0001142  -0.0003018
           25          26          27          28          29          30
    1   0.0015524   0.0001532   0.0008556   0.0019697   0.0008026   0.0013127
    2   0.0005262  -0.0001482   0.0021620  -0.0009911   0.0005492  -0.0011852
    3   0.0001236   0.0002528  -0.0005924   0.0000388   0.0007384  -0.0009554
    4  -0.0030466   0.0008718  -0.0011165   0.0034670   0.0020666   0.0029549
    5  -0.0182460   0.0033754   0.0176908   0.0002227  -0.0057116  -0.0004309
    6   0.0024184  -0.0019687  -0.0003935   0.0037353  -0.0021518   0.0023202
    7  -0.0734534  -0.0860462   0.0518505  -0.0019047   0.0176912   0.0014039
    8  -0.0876097  -0.2863763   0.0881263  -0.0016512   0.0039040   0.0014511
    9   0.0486035   0.0900988  -0.0792225   0.0025458  -0.0174534  -0.0007820
   10   0.0065818  -0.0108406  -0.0055126  -0.1818559   0.0416591   0.1521742
   11   0.0103742  -0.0109467  -0.0074081   0.0383757  -0.0703630  -0.0388811
   12  -0.0060862   0.0107194   0.0059266   0.1542313  -0.0386734  -0.1898237
   13  -0.0005241   0.0013005   0.0021120  -0.0046433  -0.0137770   0.0069000
   14   0.0029939  -0.0041261  -0.0031595   0.0078960   0.0113185  -0.0056296
   15   0.0043320  -0.0010853   0.0014587   0.0036561   0.0143267  -0.0079074
   16   0.0009405   0.0004516   0.0065952   0.0019563  -0.0034590   0.0045256
   17  -0.0026412   0.0004977  -0.0003829   0.0009151  -0.0026871   0.0032860
   18   0.0048254  -0.0012944   0.0001982   0.0049012   0.0029871   0.0045024
   19  -0.0001497   0.0000215   0.0004554  -0.0002222  -0.0001261   0.0000156
   20  -0.0001731   0.0000313  -0.0000145   0.0000775   0.0000205   0.0000809
   21  -0.0000472  -0.0000192   0.0001376   0.0001157  -0.0000389   0.0000670
   22  -0.0010444  -0.0002207  -0.0015088  -0.0002202   0.0006879   0.0000291
   23   0.0008009  -0.0001080  -0.0002052  -0.0004602   0.0006141  -0.0002869
   24  -0.0002479   0.0004773   0.0000021   0.0003739  -0.0009315   0.0002697
   25   0.0698789   0.0938085  -0.0521671  -0.0010818  -0.0007422  -0.0009996
   26   0.0938085   0.2972070  -0.0977928   0.0002459   0.0006196  -0.0002441
   27  -0.0521671  -0.0977928   0.0730874  -0.0011152   0.0007048  -0.0008073
   28  -0.0010818   0.0002459  -0.0011152   0.1849903  -0.0443972  -0.1662177
   29  -0.0007422   0.0006196   0.0007048  -0.0443972   0.0618100   0.0414297
   30  -0.0009996  -0.0002441  -0.0008073  -0.1662177   0.0414297   0.1948258
   31   0.0008948  -0.0004594   0.0001496  -0.0014317   0.0004582  -0.0016106
   32   0.0003970  -0.0003332  -0.0001774  -0.0002332   0.0001249   0.0003341
   33  -0.0003884   0.0008834   0.0007315  -0.0014712  -0.0007843  -0.0012336
   34  -0.0004223   0.0007265  -0.0005163  -0.0010296  -0.0009563  -0.0005376
   35   0.0006148   0.0002892   0.0005555   0.0000539  -0.0003346   0.0001173
   36  -0.0005408  -0.0000721  -0.0007682  -0.0008176   0.0000429  -0.0005186
   37  -0.0001261  -0.0000125  -0.0000817   0.0000059   0.0000923   0.0000494
   38  -0.0001032   0.0000183  -0.0000990  -0.0000539   0.0001353  -0.0000413
   39   0.0001744   0.0000448   0.0002420   0.0000237  -0.0001964   0.0000430
           31          32          33          34          35          36
    1   0.0010129  -0.0004709  -0.0007422  -0.1405094   0.1596907  -0.0529647
    2  -0.0008499   0.0001927  -0.0004401   0.1875165  -0.4321579   0.1446004
    3  -0.0007462  -0.0000503  -0.0000497  -0.0709614   0.1544995  -0.0971460
    4   0.0008367   0.0003767   0.0039732   0.1226031   0.0412912  -0.0145198
    5   0.0004006   0.0012069  -0.0003230   0.0068650  -0.0088292  -0.0099849
    6   0.0059394  -0.0014774  -0.0012684  -0.0146064  -0.0201553  -0.0120415
    7   0.0018517  -0.0017743   0.0051877  -0.0346488  -0.0158965   0.0130214
    8  -0.0033325  -0.0008053   0.0015651   0.0007115   0.0060628  -0.0028652
    9   0.0034273   0.0017022  -0.0008231   0.0417385   0.0224312  -0.0046637
   10   0.0064863   0.0038855  -0.0025096   0.0006989  -0.0019697   0.0012788
   11  -0.0093080  -0.0083254   0.0176832  -0.0200073  -0.0126238   0.0050641
   12  -0.0051596  -0.0048409   0.0063812   0.0012209   0.0015718   0.0008794
   13  -0.0420696   0.0011644   0.0139465   0.0064132  -0.0018265   0.0047815
   14  -0.0039649  -0.3546809  -0.0115828   0.0035679   0.0027868  -0.0014511
   15   0.0205567  -0.0156158  -0.0420703  -0.0116295  -0.0027072   0.0007251
   16   0.0012255  -0.0002860  -0.0016035  -0.0769403   0.0379340  -0.0205588
   17   0.0204918  -0.0086930  -0.0254214   0.0737569  -0.0100654   0.0097580
   18  -0.0047006   0.0004414  -0.0026340  -0.0332783   0.0017603   0.0058966
   19  -0.0001859   0.0003709   0.0002845   0.0091983   0.0091925  -0.0040376
   20  -0.0001593   0.0000110   0.0000419  -0.0098434  -0.0091347   0.0084003
   21   0.0003274  -0.0000921   0.0000331   0.0036503   0.0098900   0.0069986
   22   0.0004485   0.0001914   0.0008614  -0.0219070  -0.0155432  -0.0072251
   23   0.0008743  -0.0002743  -0.0006989  -0.0018093   0.0022729  -0.0014023
   24  -0.0004477   0.0002085   0.0005279  -0.0102127  -0.0052569  -0.0011808
   25   0.0008948   0.0003970  -0.0003884  -0.0004223   0.0006148  -0.0005408
   26  -0.0004594  -0.0003332   0.0008834   0.0007265   0.0002892  -0.0000721
   27   0.0001496  -0.0001774   0.0007315  -0.0005163   0.0005555  -0.0007682
   28  -0.0014317  -0.0002332  -0.0014712  -0.0010296   0.0000539  -0.0008176
   29   0.0004582   0.0001249  -0.0007843  -0.0009563  -0.0003346   0.0000429
   30  -0.0016106   0.0003341  -0.0012336  -0.0005376   0.0001173  -0.0005186
   31   0.0322270  -0.0038212  -0.0174620  -0.0009842  -0.0000583  -0.0002749
   32  -0.0038212   0.3717571   0.0194328   0.0001699  -0.0001403   0.0000429
   33  -0.0174620   0.0194328   0.0403573  -0.0000265  -0.0001994  -0.0000051
   34  -0.0009842   0.0001699  -0.0000265   0.4386631  -0.3364551   0.1013640
   35  -0.0000583  -0.0001403  -0.0001994  -0.3364551   0.5446643  -0.1628034
   36  -0.0002749   0.0000429  -0.0000051   0.1013640  -0.1628034   0.1227045
   37  -0.0003121   0.0000298  -0.0000498  -0.3011351   0.1229722  -0.0195063
   38  -0.0002714  -0.0000403  -0.0001564   0.0957572  -0.0827900   0.0106704
   39   0.0000011   0.0000920   0.0000533  -0.0062049   0.0002966  -0.0208803
           37          38          39
    1  -0.0042002   0.0136164  -0.0133719
    2  -0.0107219   0.0028142   0.0058706
    3   0.0059542  -0.0026504  -0.0016862
    4   0.0057914   0.0062714   0.0047026
    5   0.0006974  -0.0005139   0.0024839
    6   0.0020946   0.0021460  -0.0044280
    7  -0.0003782  -0.0001976  -0.0015151
    8  -0.0021508  -0.0022102   0.0004389
    9  -0.0005323  -0.0006741   0.0022376
   10   0.0008448   0.0014109  -0.0007483
   11   0.0024593   0.0030132  -0.0007887
   12  -0.0004768  -0.0014407   0.0001420
   13  -0.0021848  -0.0036704  -0.0019793
   14   0.0012238   0.0026359  -0.0003155
   15   0.0016768   0.0054026   0.0008505
   16  -0.0003835   0.0079625   0.0042000
   17   0.0051230   0.0010829   0.0031226
   18  -0.0027192  -0.0012208   0.0084716
   19   0.0000143  -0.0000711   0.0002742
   20   0.0008665   0.0001555  -0.0014235
   21  -0.0006029  -0.0011318  -0.0026994
   22  -0.0007085  -0.0003608  -0.0005158
   23  -0.0002890  -0.0004891   0.0001142
   24  -0.0007654  -0.0010651  -0.0003018
   25  -0.0001261  -0.0001032   0.0001744
   26  -0.0000125   0.0000183   0.0000448
   27  -0.0000817  -0.0000990   0.0002420
   28   0.0000059  -0.0000539   0.0000237
   29   0.0000923   0.0001353  -0.0001964
   30   0.0000494  -0.0000413   0.0000430
   31  -0.0003121  -0.0002714   0.0000011
   32   0.0000298  -0.0000403   0.0000920
   33  -0.0000498  -0.0001564   0.0000533
   34  -0.3011351   0.0957572  -0.0062049
   35   0.1229722  -0.0827900   0.0002966
   36  -0.0195063   0.0106704  -0.0208803
   37   0.3027721  -0.1202902   0.0149592
   38  -0.1202902   0.0761882  -0.0097394
   39   0.0149592  -0.0097394   0.0179558
 Gradient time:  CPU 538.02 s  wall 561.20 s
 **********************************************************************
 **                                                                  **
 **                       VIBRATIONAL ANALYSIS                       **
 **                       --------------------                       **
 **                                                                  **
 **        VIBRATIONAL FREQUENCIES (CM**-1) AND NORMAL MODES         **
 **     FORCE CONSTANTS (mDYN/ANGSTROM) AND REDUCED MASSES (AMU)     **
 **                  INFRARED INTENSITIES (KM/MOL)                   **
 **                                                                  **
 **********************************************************************
 

 Mode:                 1                      2                      3
 Frequency:      -598.95                 202.80                 315.62
 Force Cnst:      1.0931                 0.0946                 0.1758
 Red. Mass:       5.1715                 3.9042                 2.9957
 IR Active:          YES                    YES                    YES
 IR Intens:        0.705                  9.635                  6.905
 Raman Active:       YES                    YES                    YES
               X      Y      Z        X      Y      Z        X      Y      Z
 C          0.018 -0.049 -0.011   -0.074 -0.005  0.069   -0.007  0.027  0.267
 C         -0.395 -0.020 -0.056   -0.111 -0.022 -0.167   -0.059 -0.016 -0.056
 C         -0.087 -0.006 -0.051    0.052 -0.010 -0.051    0.112  0.034  0.086
 C         -0.020  0.050  0.022    0.230  0.015  0.109    0.025  0.046  0.001
 C          0.024 -0.021  0.018    0.077 -0.019 -0.026   -0.114  0.015 -0.125
 N         -0.001 -0.111  0.073   -0.101 -0.022 -0.214   -0.008 -0.008 -0.032
 H         -0.142  0.006 -0.072   -0.040  0.034  0.203   -0.008  0.215  0.727
 H          0.366 -0.117  0.207   -0.007 -0.062 -0.109   -0.108 -0.046 -0.038
 H         -0.099  0.004 -0.037    0.116 -0.003  0.030    0.197  0.048  0.205
 H          0.030  0.070  0.061    0.449  0.040  0.317    0.042  0.042  0.019
 H          0.128 -0.019  0.016    0.150 -0.019 -0.003   -0.216  0.021 -0.250
 C          0.398  0.148 -0.023   -0.105  0.056  0.233    0.053 -0.117 -0.178
 H          0.474  0.382  0.021   -0.083  0.146  0.564    0.079 -0.038 -0.159
 TransDip   0.003  0.022 -0.015    0.034 -0.031  0.088   -0.038  0.011  0.074

 Mode:                 4                      5                      6
 Frequency:       438.41                 576.74                 664.49
 Force Cnst:      0.3421                 0.5017                 0.3491
 Red. Mass:       3.0205                 2.5599                 1.3421
 IR Active:          YES                    YES                    YES
 IR Intens:        7.254                 12.541                 30.295
 Raman Active:       YES                    YES                    YES
               X      Y      Z        X      Y      Z        X      Y      Z
 C         -0.084  0.136  0.075    0.034  0.024  0.011    0.076 -0.007 -0.071
 C          0.109 -0.144  0.106    0.065 -0.008  0.053   -0.002  0.021  0.039
 C         -0.159  0.005 -0.037   -0.145 -0.010 -0.119   -0.020 -0.005  0.016
 C          0.011  0.060 -0.022    0.163  0.016  0.168   -0.012 -0.018  0.048
 C          0.177 -0.042  0.010   -0.148 -0.004 -0.114   -0.012 -0.016  0.034
 N         -0.004 -0.123 -0.039    0.043 -0.015  0.055   -0.003  0.032 -0.035
 H         -0.210  0.320  0.394    0.040 -0.044 -0.151    0.095  0.099  0.219
 H         -0.071 -0.203  0.114    0.069  0.036  0.014   -0.062 -0.010  0.055
 H         -0.395  0.063 -0.112   -0.404  0.001 -0.342   -0.135 -0.026 -0.148
 H          0.041  0.172 -0.025    0.256  0.027  0.257   -0.115 -0.025 -0.049
 H          0.463 -0.042  0.081   -0.438  0.008 -0.376   -0.272 -0.011 -0.101
 C         -0.035  0.087 -0.126    0.024  0.008  0.009    0.010 -0.029 -0.095
 H         -0.006  0.178  0.014   -0.024 -0.138 -0.248    0.041  0.163  0.852
 TransDip  -0.001  0.061  0.061   -0.026  0.020 -0.109    0.038  0.022  0.171

 Mode:                 7                      8                      9
 Frequency:       719.73                 729.66                 752.37
 Force Cnst:      1.2512                 0.5558                 0.6551
 Red. Mass:       4.0995                 1.7719                 1.9641
 IR Active:          YES                    YES                    YES
 IR Intens:       35.065                 69.496                 14.314
 Raman Active:       YES                    YES                    YES
               X      Y      Z        X      Y      Z        X      Y      Z
 C          0.040  0.140 -0.070    0.129  0.084 -0.002   -0.107 -0.105 -0.028
 C         -0.183 -0.091 -0.109   -0.036  0.027  0.030    0.096  0.002 -0.016
 C          0.089 -0.080  0.129   -0.085 -0.027  0.032    0.050  0.047 -0.049
 C          0.102 -0.007 -0.065   -0.055 -0.036  0.019    0.018  0.013 -0.013
 C          0.025  0.004 -0.132   -0.084 -0.077 -0.099   -0.111  0.076 -0.077
 N          0.155 -0.052  0.249    0.045  0.032 -0.037   -0.018 -0.027  0.123
 H         -0.088  0.201 -0.056    0.172  0.019 -0.116   -0.140 -0.044  0.090
 H         -0.369  0.094 -0.307   -0.042 -0.012  0.061   -0.120  0.146 -0.182
 H         -0.323 -0.020 -0.116    0.233 -0.054  0.275   -0.067  0.055 -0.144
 H         -0.106  0.042 -0.286    0.347  0.112  0.371    0.175 -0.086  0.167
 H          0.086  0.006 -0.176    0.470 -0.102  0.460    0.521  0.060  0.350
 C         -0.162  0.082  0.012   -0.014  0.006 -0.033    0.028 -0.047 -0.012
 H         -0.281 -0.168  0.293   -0.077 -0.134  0.110    0.205  0.418  0.330
 TransDip   0.008  0.066 -0.177    0.218 -0.017  0.153    0.020  0.100  0.065

 Mode:                10                     11                     12
 Frequency:       778.99                 830.49                 852.41
 Force Cnst:      0.5117                 0.5128                 1.5452
 Red. Mass:       1.4313                 1.2619                 3.6095
 IR Active:          YES                    YES                    YES
 IR Intens:       24.846                 74.761                  3.625
 Raman Active:       YES                    YES                    YES
               X      Y      Z        X      Y      Z        X      Y      Z
 C         -0.031 -0.004 -0.028   -0.033  0.007  0.022    0.041  0.018 -0.107
 C          0.020 -0.023 -0.012   -0.027  0.040  0.051    0.061 -0.027 -0.155
 C         -0.085 -0.009 -0.103    0.069 -0.022 -0.033    0.097  0.228 -0.072
 C          0.021  0.013 -0.027    0.036  0.009 -0.036   -0.187  0.081  0.178
 C          0.034  0.035  0.019   -0.023  0.051 -0.004   -0.050 -0.142  0.050
 N          0.021 -0.021  0.097   -0.034 -0.020  0.015    0.039 -0.137  0.033
 H         -0.090  0.068  0.086   -0.111  0.015 -0.052   -0.111  0.268  0.341
 H          0.204  0.036 -0.026    0.603 -0.119  0.323    0.012 -0.173 -0.047
 H          0.579  0.026  0.623   -0.032 -0.055 -0.220    0.164  0.159 -0.190
 H          0.132  0.008  0.081    0.028 -0.058 -0.027   -0.179 -0.031  0.220
 H         -0.212  0.046 -0.230    0.165  0.047  0.105    0.133 -0.131 -0.146
 C         -0.030 -0.001 -0.026   -0.016 -0.004 -0.046    0.010  0.037  0.051
 H         -0.055 -0.025  0.217   -0.255 -0.518  0.220   -0.217 -0.512 -0.000
 TransDip   0.131  0.039  0.083    0.242 -0.135  0.008    0.059  0.011 -0.010

 Mode:                13                     14                     15
 Frequency:       880.49                 892.74                 910.60
 Force Cnst:      0.7096                 0.6271                 0.9599
 Red. Mass:       1.5535                 1.3355                 1.9648
 IR Active:          YES                    YES                    YES
 IR Intens:        9.676                  3.237                 24.973
 Raman Active:       YES                    YES                    YES
               X      Y      Z        X      Y      Z        X      Y      Z
 C         -0.001 -0.060 -0.148   -0.018 -0.001  0.010   -0.013 -0.016 -0.020
 C         -0.013  0.026  0.049    0.006 -0.007 -0.003   -0.046  0.174  0.031
 C         -0.031 -0.059  0.031    0.047 -0.011  0.032    0.016  0.011 -0.000
 C          0.028 -0.031 -0.042   -0.096  0.009 -0.110   -0.019 -0.011  0.023
 C         -0.016  0.045 -0.014    0.041  0.003  0.048    0.071 -0.121 -0.061
 N          0.004  0.036 -0.012    0.004 -0.007  0.017    0.049 -0.028  0.042
 H         -0.037  0.340  0.814   -0.035 -0.022 -0.066    0.026  0.042  0.191
 H         -0.039  0.045  0.030   -0.058  0.043 -0.059    0.435  0.071  0.233
 H         -0.062 -0.057  0.009   -0.177 -0.018 -0.203    0.152 -0.141 -0.268
 H          0.115  0.007  0.033    0.640  0.155  0.566    0.041  0.186  0.023
 H         -0.029  0.037  0.126   -0.290  0.012 -0.195    0.055 -0.118 -0.206
 C          0.036  0.025  0.076    0.009  0.004 -0.006   -0.138 -0.057 -0.000
 H         -0.046 -0.216 -0.279   -0.018 -0.048  0.065    0.149  0.586 -0.223
 TransDip  -0.006  0.028  0.095    0.033  0.045  0.014   -0.104  0.107 -0.057

 Mode:                16                     17                     18
 Frequency:       969.40                1067.67                1086.80
 Force Cnst:      0.9264                 1.0858                 0.9111
 Red. Mass:       1.6732                 1.6167                 1.3092
 IR Active:          YES                    YES                    YES
 IR Intens:        4.516                  8.622                  0.796
 Raman Active:       YES                    YES                    YES
               X      Y      Z        X      Y      Z        X      Y      Z
 C         -0.084 -0.028  0.038   -0.014 -0.015 -0.013    0.033  0.018 -0.001
 C          0.021  0.153  0.045    0.043 -0.097 -0.062   -0.038 -0.025  0.074
 C         -0.032 -0.037  0.008    0.016 -0.123  0.007    0.031 -0.037 -0.068
 C          0.007  0.001  0.017   -0.035  0.123  0.052   -0.021  0.021  0.017
 C          0.057 -0.083 -0.048   -0.040  0.001  0.020    0.000  0.093  0.002
 N         -0.011 -0.024 -0.007   -0.005  0.052  0.012   -0.009 -0.030  0.002
 H         -0.324  0.026 -0.115    0.131 -0.061  0.042    0.114 -0.019  0.001
 H         -0.389  0.419 -0.262    0.251  0.002 -0.116   -0.478 -0.263  0.187
 H          0.209 -0.172 -0.105    0.144 -0.251 -0.159    0.513 -0.351 -0.400
 H         -0.069  0.282 -0.136   -0.057  0.815 -0.151   -0.013 -0.096  0.063
 H          0.067 -0.083 -0.120   -0.074 -0.006  0.198    0.125  0.113 -0.182
 C          0.094  0.016 -0.006    0.002  0.007 -0.001   -0.017  0.011  0.007
 H         -0.101 -0.408  0.188    0.015  0.044  0.004    0.004  0.053 -0.056
 TransDip   0.028 -0.030 -0.054    0.078  0.039 -0.034    0.020 -0.005 -0.020

 Mode:                19                     20                     21
 Frequency:      1104.51                1192.96                1209.44
 Force Cnst:      1.1791                 2.7876                 1.3649
 Red. Mass:       1.6405                 3.3245                 1.5837
 IR Active:          YES                    YES                    YES
 IR Intens:       16.927                 26.518                 28.304
 Raman Active:       YES                    YES                    YES
               X      Y      Z        X      Y      Z        X      Y      Z
 C         -0.081 -0.026  0.006   -0.165 -0.052  0.016   -0.121 -0.048  0.004
 C         -0.036 -0.020  0.041    0.001 -0.051 -0.061   -0.010 -0.032  0.023
 C          0.024  0.111 -0.056   -0.058 -0.069  0.081    0.013  0.021 -0.012
 C          0.071 -0.018 -0.059   -0.105 -0.013  0.119   -0.008 -0.020  0.009
 C         -0.020 -0.093  0.007    0.024  0.074 -0.039    0.034 -0.076 -0.039
 N          0.091  0.050  0.009    0.273  0.152 -0.096    0.003  0.100  0.038
 H         -0.152 -0.015 -0.039   -0.591  0.088 -0.126    0.755 -0.388  0.203
 H         -0.293 -0.373  0.294    0.181 -0.225  0.111   -0.022 -0.040  0.030
 H          0.126  0.079 -0.074    0.029 -0.180 -0.071   -0.032  0.058  0.032
 H          0.082  0.228 -0.133   -0.119 -0.380  0.234    0.001 -0.082  0.030
 H         -0.436 -0.139  0.541    0.157  0.102 -0.214    0.216 -0.065 -0.288
 C         -0.006  0.007 -0.001    0.013 -0.015 -0.004    0.021  0.095 -0.034
 H         -0.022 -0.014  0.035    0.011  0.003  0.087   -0.105 -0.154  0.063
 TransDip  -0.109 -0.021  0.072   -0.127 -0.097  0.041    0.147 -0.085 -0.016

 Mode:                22                     23                     24
 Frequency:      1258.44                1312.34                1383.07
 Force Cnst:      1.7295                 2.1449                 3.8509
 Red. Mass:       1.8536                 2.1138                 3.4168
 IR Active:          YES                    YES                    YES
 IR Intens:        1.941                  0.862                 14.208
 Raman Active:       YES                    YES                    YES
               X      Y      Z        X      Y      Z        X      Y      Z
 C          0.062 -0.001 -0.010   -0.042 -0.002  0.007   -0.003  0.011  0.008
 C          0.021 -0.025 -0.026    0.049  0.164 -0.105    0.085 -0.012 -0.173
 C          0.022 -0.004 -0.032   -0.015 -0.065  0.010   -0.195  0.164  0.219
 C          0.004 -0.051 -0.004    0.008 -0.082 -0.001    0.035 -0.177 -0.018
 C          0.023 -0.063 -0.028   -0.084  0.081  0.095    0.077  0.082 -0.077
 N         -0.123  0.165  0.075    0.077 -0.116 -0.021   -0.091 -0.018  0.063
 H         -0.426  0.203 -0.091    0.208 -0.119  0.019    0.147 -0.059 -0.002
 H         -0.138 -0.416  0.273   -0.258 -0.443  0.342    0.231 -0.265  0.043
 H         -0.133  0.111  0.108   -0.257  0.130  0.287    0.411 -0.355 -0.506
 H          0.055  0.265 -0.048    0.043  0.447 -0.108    0.065  0.082 -0.071
 H          0.332 -0.038 -0.449    0.179  0.107 -0.203   -0.178  0.071  0.127
 C          0.032 -0.057  0.030    0.002  0.029 -0.012    0.049  0.007 -0.002
 H          0.064 -0.013 -0.005   -0.016  0.003  0.038    0.010 -0.100  0.051
 TransDip  -0.012 -0.016 -0.040    0.007  0.023  0.018    0.066 -0.022 -0.099

 Mode:                25                     26                     27
 Frequency:      1443.29                1520.80                1628.83
 Force Cnst:      2.8308                 5.1779                 9.2209
 Red. Mass:       2.3065                 3.7998                 5.8989
 IR Active:          YES                    YES                    YES
 IR Intens:        7.664                  3.551                 22.886
 Raman Active:       YES                    YES                    YES
               X      Y      Z        X      Y      Z        X      Y      Z
 C          0.003 -0.015  0.005   -0.017  0.031 -0.027   -0.249  0.406 -0.146
 C          0.073  0.110 -0.104    0.032  0.010 -0.051   -0.031 -0.002  0.022
 C         -0.017 -0.143  0.021   -0.115  0.010  0.120    0.028 -0.018 -0.030
 C         -0.025  0.189  0.014    0.159  0.206 -0.188   -0.020 -0.008  0.023
 C          0.090 -0.047 -0.098   -0.194 -0.172  0.213    0.041  0.014 -0.029
 N         -0.070 -0.007  0.070    0.038  0.024 -0.015    0.001 -0.013  0.002
 H          0.069 -0.049  0.009   -0.009  0.043 -0.015    0.554  0.150 -0.080
 H         -0.187 -0.412  0.275    0.040 -0.051 -0.017    0.014 -0.005  0.049
 H         -0.138 -0.083  0.132    0.250 -0.279 -0.237   -0.046  0.043  0.049
 H         -0.091 -0.524  0.164    0.120 -0.422 -0.115   -0.036  0.018  0.010
 H         -0.321 -0.087  0.363    0.382 -0.171 -0.396   -0.069  0.010  0.062
 C          0.015  0.013 -0.001    0.020 -0.041  0.014    0.159 -0.381  0.140
 H         -0.004 -0.024  0.018    0.063  0.030  0.027    0.406 -0.154  0.110
 TransDip   0.068 -0.039 -0.041    0.001 -0.054  0.028   -0.139  0.061 -0.019

 Mode:                28                     29                     30
 Frequency:      3164.42                3200.54                3207.77
 Force Cnst:      6.3788                 6.7309                 6.6181
 Red. Mass:       1.0812                 1.1153                 1.0916
 IR Active:          YES                    YES                    YES
 IR Intens:       12.067                 23.380                  0.661
 Raman Active:       YES                    YES                    YES
               X      Y      Z        X      Y      Z        X      Y      Z
 C         -0.026 -0.055  0.021   -0.017 -0.056  0.022    0.003  0.007 -0.002
 C          0.001 -0.001 -0.002    0.001 -0.004 -0.005    0.016 -0.054 -0.064
 C         -0.000  0.000  0.000    0.000  0.000 -0.000    0.003  0.013 -0.003
 C         -0.000 -0.000  0.000    0.000  0.000 -0.000   -0.003  0.001  0.002
 C          0.000  0.001 -0.000   -0.000  0.001  0.000   -0.001 -0.002  0.000
 N          0.001 -0.000  0.000    0.002 -0.000  0.000   -0.000  0.000  0.000
 H          0.318  0.674 -0.268    0.236  0.510 -0.203   -0.031 -0.065  0.024
 H         -0.006  0.020  0.025   -0.012  0.055  0.066   -0.154  0.623  0.734
 H         -0.003 -0.005  0.002   -0.002 -0.004  0.001   -0.055 -0.154  0.058
 H         -0.000 -0.000  0.000   -0.004  0.001  0.005    0.029 -0.008 -0.031
 H         -0.001 -0.010 -0.000   -0.001 -0.014 -0.000   -0.001  0.033  0.002
 C          0.045 -0.022  0.004   -0.066  0.039 -0.009    0.003 -0.002  0.001
 H         -0.555  0.239 -0.031    0.726 -0.310  0.038   -0.045  0.015 -0.002
 TransDip  -0.005 -0.103  0.042   -0.142 -0.045  0.043   -0.008  0.006 -0.024

 Mode:                31                     32                     33
 Frequency:      3231.25                3251.93                3262.35
 Force Cnst:      6.7032                 6.8211                 6.9135
 Red. Mass:       1.0897                 1.0948                 1.1025
 IR Active:          YES                    YES                    YES
 IR Intens:        4.664                  4.076                  1.929
 Raman Active:       YES                    YES                    YES
               X      Y      Z        X      Y      Z        X      Y      Z
 C          0.001  0.001 -0.000   -0.000 -0.000  0.000   -0.001 -0.001  0.000
 C          0.002 -0.006 -0.007    0.004 -0.007 -0.012   -0.002  0.005  0.005
 C         -0.009 -0.020  0.010   -0.026 -0.069  0.028    0.009  0.028 -0.009
 C          0.054 -0.014 -0.055   -0.009  0.007  0.009    0.027 -0.005 -0.029
 C         -0.002  0.025  0.003    0.000 -0.036 -0.002   -0.001 -0.077 -0.002
 N         -0.000  0.000  0.000   -0.000  0.001  0.000   -0.001  0.000  0.001
 H         -0.006 -0.012  0.004    0.002  0.002 -0.001    0.007  0.012 -0.005
 H         -0.015  0.061  0.074   -0.021  0.082  0.103    0.010 -0.040 -0.050
 H          0.097  0.247 -0.100    0.293  0.772 -0.304   -0.108 -0.289  0.113
 H         -0.613  0.174  0.630    0.098 -0.033 -0.101   -0.277  0.076  0.283
 H          0.006 -0.314 -0.021   -0.005  0.422  0.025   -0.009  0.845  0.047
 C          0.001 -0.000  0.000    0.001  0.000 -0.000   -0.001  0.000 -0.000
 H         -0.009  0.005 -0.001   -0.003  0.001  0.000    0.005 -0.003  0.000
 TransDip   0.045 -0.034 -0.041   -0.014 -0.062  0.012    0.035 -0.017 -0.021

 STANDARD THERMODYNAMIC QUANTITIES AT   298.15 K  AND     1.00 ATM

   This Molecule has  1 Imaginary Frequencies
   Zero point vibrational energy:       62.960 kcal/mol

   Atom    1 Element C  Has Mass   12.00000
   Atom    2 Element C  Has Mass   12.00000
   Atom    3 Element C  Has Mass   12.00000
   Atom    4 Element C  Has Mass   12.00000
   Atom    5 Element C  Has Mass   12.00000
   Atom    6 Element N  Has Mass   14.00307
   Atom    7 Element H  Has Mass    1.00783
   Atom    8 Element H  Has Mass    1.00783
   Atom    9 Element H  Has Mass    1.00783
   Atom   10 Element H  Has Mass    1.00783
   Atom   11 Element H  Has Mass    1.00783
   Atom   12 Element C  Has Mass   12.00000
   Atom   13 Element H  Has Mass    1.00783
   Molecular Mass:    92.050050 amu
   Principal axes and moments of inertia in amu*Bohr^2:
                             1           2           3
    Eigenvalues --      295.43093   621.23991   810.11262
          X               0.90646    -0.09066     0.41244
          Y               0.04183     0.99116     0.12592
          Z              -0.42021    -0.09689     0.90224
   Rotational Symmetry Number is   1
   The Molecule is an Asymmetric Top
   Translational Enthalpy:        0.889 kcal/mol
   Rotational Enthalpy:           0.889 kcal/mol
   Vibrational Enthalpy:         64.476 kcal/mol
   gas constant (RT):             0.592 kcal/mol
   Translational Entropy:        39.471  cal/mol.K
   Rotational Entropy:           26.500  cal/mol.K
   Vibrational Entropy:           7.423  cal/mol.K

   Total Enthalpy:               66.846 kcal/mol
   Total Entropy:                73.394  cal/mol.K
Archival summary:
1\1\c8-68\FREQ\ProcedureUnspecified\6-31+G**\166(2)\hpark21\WedMar215:35:372022WedMar215:35:372022\0\\#,FREQ,ProcedureUnspecified,6-31+G**,\\0,2\N\C,1,1.39335\H,2,1.0817,1,120.293\C,2,1.37788,1,109.569,3,-176.766,0\H,4,1.0833,2,125.412,1,-175.335,0\C,4,1.42019,2,108.343,1,2.66401,0\H,6,1.08214,4,126.493,2,-175.324,0\C,6,1.4075,4,107.63,2,0.742223,0\H,8,1.08421,6,124.584,4,-147.836,0\C,1,1.43823,2,122.013,3,58.1955,0\H,10,1.08793,1,120.838,2,-73.645,0\C,10,1.32782,1,105.16,2,107.745,0\H,12,1.08763,10,133.451,1,170.07,0\\\@

 Total job time:  573.68s(wall), 544.94s(cpu) 
 Wed Mar  2 15:35:37 2022

        *************************************************************
        *                                                           *
        *  Thank you very much for using Q-Chem.  Have a nice day.  *
        *                                                           *
        *************************************************************


