
Running Job 1 of 1 qcts1.in
qchem qcts1.in_36275.0 ./qcts1.d/ 1
/home/leeping/opt/qchem/5.0.2-openmp/exe/qcprog.exe_s qcts1.in_36275.0 ./qcts1.d/
Check license passed

                  Welcome to Q-Chem
     A Quantum Leap Into The Future Of Chemistry


 Q-Chem 5.0, Q-Chem, Inc., Pleasanton, CA (2017)

 Yihan Shao,  Zhengting Gan,  E. Epifanovsky,  A. T. B. Gilbert,  M. Wormit,  
 J. Kussmann,  A. W. Lange,  A. Behn,  Jia Deng,  Xintian Feng,  D. Ghosh,  
 M. Goldey,  P. R. Horn,  L. D. Jacobson,  I. Kaliman,  T. Kus,  A. Landau,  
 Jie Liu,  E. I. Proynov,  R. M. Richard,  R. P. Steele,  E. J. Sundstrom,  
 H. L. Woodcock III,  P. M. Zimmerman,  D. Zuev,  B. Albrecht,  E. Alguire,  
 S. A. Baeppler,  D. Barton,  Z. Benda,  Y. A. Bernard,  E. J. Berquist,  
 K. B. Bravaya,  H. Burton,  D. Casanova,  Chun-Min Chang,  Yunqing Chen,  
 A. Chien,  K. D. Closser,  M. P. Coons,  S. Dasgupta,  A. L. Dempwolff,  
 M. Diedenhofen,  Hainam Do,  R. G. Edgar,  Po-Tung Fang,  S. Fatehi,  
 Qingguo Feng,  J. Fosso-Tande,  Qinghui Ge,  A. Ghysels,  G. Gidofalvi,  
 J. Gomes,  J. Gonthier,  A. Gunina,  M. W. D. Hanson-Heine,  
 P. H. P. Harbach,  A. W. Hauser,  J. E. Herr,  E. G. Hohenstein,  
 Z. C. Holden,  Kerwin Hui,  T.-C. Jagau,  Hyunjun Ji,  B. Kaduk,  
 K. Khistyaev,  Jaehoon Kim,  P. Klunzinger,  K. Koh,  D. Kosenkov,  
 L. Koulias,  T. Kowalczyk,  C. M. Krauter,  A. Kunitsa,  Ka Un Lao,  
 A. Laurent,  K. V. Lawler,  Joonho Lee,  D. Lefrancois,  S. Lehtola,  
 D. S. Levine,  Yi-Pei Li,  You-Sheng Lin,  Fenglai Liu,  E. Livshits,  
 A. Luenser,  P. Manohar,  E. Mansoor,  S. F. Manzer,  Shan-Ping Mao,  
 Yuezhi Mao,  N. Mardirossian,  A. V. Marenich,  T. Markovich,  
 L. A. Martinez-Martinez,  S. A. Maurer,  N. J. Mayhall,  S. C. McKenzie,  
 J.-M. Mewes,  A. F. Morrison,  J. W. Mullinax,  K. Nanda,  
 T. S. Nguyen-Beck,  R. Olivares-Amaya,  J. A. Parkhill,  T. M. Perrine,  
 F. Plasser,  S. Prager,  A. Prociuk,  E. Ramos,  D. R. Rehn,  F. Rob,  
 M. Schneider,  N. Sergueev,  S. M. Sharada,  S. Sharma,  D. W. Small,  
 T. Stauch,  T. Stein,  Yu-Chuan Su,  A. J. W. Thom,  A. Tkatchenko,  
 T. Tsuchimochi,  L. Vogt,  O. Vydrov,  M. A. Watson,  J. Wenzel,  
 M. de Wergifosse,  T. A. Wesolowski,  A. White,  J. Witte,  A. Yamada,  
 Jun Yang,  K. Yao,  S. Yeganeh,  S. R. Yost,  Zhi-Qiang You,  A. Zech,  
 Igor Ying Zhang,  Xing Zhang,  Yan Zhao,  Ying Zhu,  B. R. Brooks,  
 G. K. L. Chan,  C. J. Cramer,  M. S. Gordon,  W. J. Hehre,  A. Klamt,  
 M. W. Schmidt,  C. D. Sherrill,  D. G. Truhlar,  A. Aspuru-Guzik,  R. Baer,  
 A. T. Bell,  N. A. Besley,  Jeng-Da Chai,  R. A. DiStasio Jr.,  A. Dreuw,  
 B. D. Dunietz,  T. R. Furlani,  Chao-Ping Hsu,  Yousung Jung,  Jing Kong,  
 D. S. Lambrecht,  WanZhen Liang,  C. Ochsenfeld,  V. A. Rassolov,  
 L. V. Slipchenko,  J. E. Subotnik,  T. Van Voorhis,  J. M. Herbert,  
 A. I. Krylov,  P. M. W. Gill,  M. Head-Gordon

 Contributors to earlier versions of Q-Chem not listed above: 
 R. D. Adamson,  B. Austin,  J. Baker,  G. J. O. Beran,  K. Brandhorst,  
 S. T. Brown,  E. F. C. Byrd,  A. K. Chakraborty,  C.-L. Cheng,  
 Siu Hung Chien,  D. M. Chipman,  D. L. Crittenden,  H. Dachsel,  
 R. J. Doerksen,  A. D. Dutoi,  L. Fusti-Molnar,  W. A. Goddard III,  
 A. Golubeva-Zadorozhnaya,  S. R. Gwaltney,  G. Hawkins,  A. Heyden,  
 S. Hirata,  G. Kedziora,  F. J. Keil,  C. Kelley,  Jihan Kim,  R. A. King,  
 R. Z. Khaliullin,  P. P. Korambath,  W. Kurlancheek,  A. M. Lee,  M. S. Lee,  
 S. V. Levchenko,  Ching Yeh Lin,  D. Liotard,  R. C. Lochan,  I. Lotan,  
 P. E. Maslen,  N. Nair,  D. P. O'Neill,  D. Neuhauser,  E. Neuscamman,  
 C. M. Oana,  R. Olson,  B. Peters,  R. Peverati,  P. A. Pieniazek,  
 Y. M. Rhee,  J. Ritchie,  M. A. Rohrdanz,  E. Rosta,  N. J. Russ,  
 H. F. Schaefer III,  N. E. Schultz,  N. Shenvi,  A. C. Simmonett,  A. Sodt,  
 D. Stuck,  K. S. Thanthiriwatte,  V. Vanovschi,  Tao Wang,  A. Warshel,  
 C. F. Williams,  Q. Wu,  X. Xu,  W. Zhang

 Please cite Q-Chem as follows:
 Y. Shao et al., Mol. Phys. 113, 184-215 (2015)
 DOI: 10.1080/00268976.2014.952696

 Q-Chem 5.0.2 for Intel X86 EM64T Linux

 Parts of Q-Chem use Armadillo 5.200.1 (Boston Tea Smuggler).
 http://arma.sourceforge.net/

 Q-Chem begins on Wed Mar  2 14:44:04 2022  

Host: 
0

     Scratch files written to ./qcts1.d//
 Dec517 15110_ 26548  26544 5633   
Processing $rem in /home/leeping/opt/qchem/5.0.2-openmp/config/preferences.
 MEM_STATIC 2000
 MEM_TOTAL  8000
 SYMMETRY   OFF
 SYM_IGNORE TRUE 

Checking the input file for inconsistencies... 	...done.

--------------------------------------------------------------
User input:
--------------------------------------------------------------
$molecule
0 2
C        1.3741838279    0.6746027782   -0.6999838091
C        0.1918183692   -1.1266195425   -0.0801984832
C       -1.0612641464   -1.0100917319    0.4828706694
C       -1.6607870448    0.2302879281    0.8200295328
C       -0.8607983180    1.3160994385    0.4320227296
N        0.1432445501    0.9117241897   -0.2893267737
H        2.0481946600    1.4576256560   -1.0468862701
H        0.5861609541   -2.1151193975   -0.2527161817
H       -1.6209189134   -1.9270354420    0.6819493767
H       -2.6528341376    0.3622501212    1.2494743836
H       -1.1083157955    2.3515600204    0.6830028911
C        1.7571038603   -0.6120013346   -0.8465980763
H        2.8001483764   -0.7804387207   -1.2166110083
$end

$rem
method                b3lyp
basis                 6-31g(d)
unrestricted          true
symmetry              off
sym_ignore            true
incdft                false
incfock               0
scf_convergence       8
thresh                14
jobtype               sp
scf_guess             core
scf_guess_mix         5
scf_algorithm         diis
max_scf_cycles        100
$end

--------------------------------------------------------------
 ----------------------------------------------------------------
             Standard Nuclear Orientation (Angstroms)
    I     Atom           X                Y                Z
 ----------------------------------------------------------------
    1      C       1.3741838279     0.6746027782    -0.6999838091
    2      C       0.1918183692    -1.1266195425    -0.0801984832
    3      C      -1.0612641464    -1.0100917319     0.4828706694
    4      C      -1.6607870448     0.2302879281     0.8200295328
    5      C      -0.8607983180     1.3160994385     0.4320227296
    6      N       0.1432445501     0.9117241897    -0.2893267737
    7      H       2.0481946600     1.4576256560    -1.0468862701
    8      H       0.5861609541    -2.1151193975    -0.2527161817
    9      H      -1.6209189134    -1.9270354420     0.6819493767
   10      H      -2.6528341376     0.3622501212     1.2494743836
   11      H      -1.1083157955     2.3515600204     0.6830028911
   12      C       1.7571038603    -0.6120013346    -0.8465980763
   13      H       2.8001483764    -0.7804387207    -1.2166110083
 ----------------------------------------------------------------
 Nuclear Repulsion Energy =   264.5877927775 hartrees
 There are       25 alpha and       24 beta electrons
 Requested basis set is 6-31G(d)
 There are 40 shells and 117 basis functions

 Total QAlloc Memory Limit   8000 MB
 Mega-Array Size      1956 MB
 MEM_STATIC part      2000 MB

                       Distance Matrix (Angstroms)
             C (  1)   C (  2)   C (  3)   C (  4)   C (  5)   N (  6)
   C (  2)  2.241991
   C (  3)  3.188847  1.378710
   C (  4)  3.423289  2.466527  1.418325
   C (  5)  2.586136  2.708736  2.335367  1.403395
   N (  6)  1.319120  2.049619  2.395935  2.224760  1.300756
   H (  7)  1.089843  3.325499  4.254235  4.329928  3.266411  2.121495
   H (  8)  2.933186  1.078147  2.115699  3.420599  3.786267  3.059297
   H (  9)  4.201060  2.123099  1.092534  2.162105  3.340385  3.480547
   H ( 10)  4.484955  3.475171  2.236984  1.089034  2.188481  3.238501
   H ( 11)  3.299643  3.790852  3.367932  2.196314  1.093817  2.141251
   C ( 12)  1.350361  1.817228  3.141522  3.894750  3.493688  2.288413
   H ( 13)  2.101767  2.866123  4.225102  5.006937  4.529459  3.283658
             H (  7)   H (  8)   H (  9)   H ( 10)   H ( 11)   C ( 12)
   H (  8)  3.941162
   H (  9)  5.282726  2.404200
   H ( 10)  5.345352  4.345690  2.574444
   H ( 11)  3.708799  4.868064  4.309193  2.581430
   C ( 12)  2.099573  1.995787  3.934058  4.978980  4.396931
   H ( 13)  2.367102  2.759023  4.946216  6.092810  5.356682  1.119474

 
 A cutoff of  1.0D-14 yielded    792 shell pairs
 There are      7044 function pairs
 
 -------------------------------------------------------
 OpenMP Integral Computing Module                       
 Release: version 1.0, May 2013, Q-Chem Inc. Pittsburgh 
 -------------------------------------------------------
 Integral Job Info:
 Integral job number is                      11
 Integral operator is                         1
 short-range coefficients                     0
 long-range coefficients              100000000
 Omega coefficients                           0
 if combine SR and LR in K                    0
 Integral screening is                        0
 Integral computing path is                   2
 max size of driver memory is            800000
 size of driver memory is                593474
 size of scratch memory is              2361544
 max col of scratch BK array               1296
 max len of scratch array in speh3          155
 max len of scratch index in speh4           18
 max int batch size is                      520
 min int batch size is                       52
 fixed nKL is                                52
 max L of basis functions is                  2
 order of int derivative is                   0
 number of shells is                         40
 number of basis is                         117
 number of cartesian basis is               117
 number of contracted shell pairs           792
 number of primitive shell pairs           3396
 maxK2 (contraction) of shell pair           36
 max number of K2 of shell pair               1
 max number of CS2 of shell pair             87
 max number of PS2 of shell pair            366
 mem total for path MDJ                  534060
 -------------------------------------------------------
 Smallest overlap matrix eigenvalue = 1.45E-03

 Scale SEOQF with 1.000000e-01/1.000000e-01/1.000000e+00

 Standard Electronic Orientation quadrupole field applied
 Nucleus-field energy     =    -0.0000000143 hartrees
 Guess MOs from core Hamiltonian diagonalization
 Mixing HOMO and LUMO in initial guess
 Adding  50% of the LUMO to the HOMO
 An unrestricted hybrid HF-DFT SCF calculation will be
 performed using Pulay DIIS extrapolation
 Exchange:     0.2000 Hartree-Fock + 0.0800 Slater + 0.7200 B88
 Correlation:  0.1900 VWN1RPA + 0.8100 LYP
 Using SG-1 standard quadrature grid
 SCF converges when DIIS error is below 1.0E-08
 using 4 threads for integral computing
 -------------------------------------------------------
 OpenMP Integral computing Module                
 Release: version 1.0, May 2013, Q-Chem Inc. Pittsburgh 
 -------------------------------------------------------
 -------------------------------------------------------
 OpenMP BLAS3 based DFT computing Module                
 Release: version 1.0, May 2013, Q-Chem Inc. Pittsburgh 
 -------------------------------------------------------
 ---------------------------------------
  Cycle       Energy         DIIS Error
 ---------------------------------------
    1    -235.8192227391      1.29E-01
    2    -230.5555731613      1.05E-01
    3    -272.7977836048      6.93E-02
    4    -275.8674242916      6.82E-02
    5    -283.3093691057      3.50E-02
    6    -286.1513876664      1.55E-02
    7    -286.3692949326      1.29E-02
    8    -286.6988030626      3.35E-03
    9    -286.7135289396      2.00E-03
   10    -286.7211376654      4.84E-04
   11    -286.7219955098      2.77E-04
   12    -286.7223637024      7.90E-05
   13    -286.7224434258      4.17E-05
   14    -286.7224833175      2.99E-05
   15    -286.7225207960      1.17E-05
   16    -286.7225338634      6.14E-06
   17    -286.7225352123      3.39E-06
   18    -286.7225355867      1.28E-06
   19    -286.7225358285      6.75E-07
   20    -286.7225358646      3.74E-07
   21    -286.7225358734      1.40E-07
   22    -286.7225358752      6.04E-08
   23    -286.7225358755      1.57E-08
   24    -286.7225358756      7.78E-09 Convergence criterion met
 ---------------------------------------
 <S^2> = 0.7874
 SCF time:  CPU 60.73 s  wall 24.16 s
 SCF   energy in the final basis set = -286.72253588
 Total energy in the final basis set = -286.72253588
 
 --------------------------------------------------------------
 
                    Orbital Energies (a.u.)
 --------------------------------------------------------------
 
 Alpha MOs
 -- Occupied --
-14.325 -10.241 -10.227 -10.218 -10.197 -10.196 -10.195  -0.945
 -0.811  -0.768  -0.683  -0.638  -0.557  -0.539  -0.498  -0.465
 -0.434  -0.412  -0.402  -0.392  -0.308  -0.275  -0.264  -0.202
 -0.177
 -- Virtual --
 -0.049   0.014   0.072   0.090   0.115   0.141   0.148   0.163
  0.183   0.198   0.256   0.306   0.337   0.373   0.419   0.437
  0.499   0.511   0.544   0.563   0.577   0.588   0.599   0.614
  0.635   0.653   0.662   0.694   0.710   0.765   0.801   0.819
  0.837   0.849   0.861   0.878   0.881   0.897   0.916   0.962
  1.021   1.054   1.087   1.149   1.164   1.189   1.197   1.309
  1.363   1.374   1.417   1.435   1.484   1.541   1.664   1.715
  1.732   1.753   1.796   1.810   1.829   1.863   1.940   1.957
  2.020   2.039   2.100   2.150   2.207   2.225   2.258   2.323
  2.351   2.400   2.443   2.486   2.561   2.604   2.642   2.709
  2.751   2.852   3.027   3.187   3.294   4.024   4.038   4.096
  4.209   4.288   4.466   4.503
 
 Beta MOs
 -- Occupied --
-14.319 -10.243 -10.228 -10.214 -10.197 -10.191 -10.191  -0.936
 -0.806  -0.761  -0.670  -0.632  -0.552  -0.538  -0.494  -0.463
 -0.430  -0.403  -0.394  -0.385  -0.286  -0.261  -0.251  -0.195
 -- Virtual --
 -0.089  -0.039   0.023   0.097   0.108   0.116   0.143   0.148
  0.166   0.185   0.200   0.258   0.309   0.339   0.376   0.422
  0.440   0.502   0.516   0.546   0.574   0.581   0.597   0.604
  0.619   0.653   0.659   0.667   0.696   0.721   0.767   0.804
  0.823   0.843   0.851   0.875   0.880   0.885   0.901   0.917
  0.964   1.025   1.060   1.093   1.154   1.167   1.194   1.203
  1.318   1.373   1.381   1.424   1.444   1.493   1.548   1.675
  1.726   1.744   1.760   1.807   1.818   1.838   1.869   1.944
  1.964   2.030   2.044   2.106   2.152   2.218   2.236   2.268
  2.330   2.362   2.406   2.450   2.496   2.569   2.609   2.651
  2.713   2.759   2.855   3.030   3.189   3.301   4.033   4.041
  4.103   4.217   4.288   4.474   4.509
 --------------------------------------------------------------
 
          Ground-State Mulliken Net Atomic Charges

     Atom                 Charge (a.u.)    Spin (a.u.)
  --------------------------------------------------------
      1 C                     0.090982      -0.077832
      2 C                    -0.094326       0.308792
      3 C                    -0.126585      -0.129091
      4 C                    -0.146733       0.447417
      5 C                     0.078890      -0.148475
      6 N                    -0.380530       0.291530
      7 H                     0.116055       0.000140
      8 H                     0.113893      -0.016164
      9 H                     0.137955       0.003305
     10 H                     0.141796      -0.022164
     11 H                     0.133978       0.003745
     12 C                    -0.214627       0.358467
     13 H                     0.149253      -0.019671
  --------------------------------------------------------
  Sum of atomic charges =    -0.000000
  Sum of spin   charges =     1.000000

 -----------------------------------------------------------------
                    Cartesian Multipole Moments
 -----------------------------------------------------------------
    Charge (ESU x 10^10)
                 0.0000
    Dipole Moment (Debye)
         X      -0.2156      Y       0.6655      Z       0.3926
       Tot       0.8022
    Quadrupole Moments (Debye-Ang)
        XX     -35.5429     XY      -0.5027     YY     -38.8971
        XZ      -3.4353     YZ       0.5358     ZZ     -42.1302
    Octopole Moments (Debye-Ang^2)
       XXX       2.5436    XXY      -1.5545    XYY      -2.5015
       YYY      -0.0639    XXZ       0.4186    XYZ      -0.2259
       YYZ       2.7783    XZZ       0.5191    YZZ       0.0847
       ZZZ       3.0119
    Hexadecapole Moments (Debye-Ang^3)
      XXXX    -401.7900   XXXY       8.2385   XXYY    -115.0963
      XYYY      11.7060   YYYY    -284.3035   XXXZ      71.2793
      XXYZ       0.9042   XYYZ      27.3470   YYYZ      -1.6508
      XXZZ     -89.1806   XYZZ       3.7534   YYZZ     -73.0835
      XZZZ      98.9808   YZZZ      -4.0187   ZZZZ    -145.7323
 -----------------------------------------------------------------
Archival summary:
1\1\c8-68\SP\ProcedureUnspecified\6-31G*\166(2)\hpark21\WedMar214:44:292022WedMar214:44:292022\0\\#,ProcedureUnspecified,6-31G*,\\0,2\N\C,1,1.30076\H,2,1.09382,1,126.599\C,1,1.31912,2,161.589,3,63.5518,0\H,4,1.08984,1,123.165,2,-70.4409,0\C,4,1.35036,1,118.014,2,117.71,0\H,6,1.11947,4,116.324,1,178.778,0\C,2,1.4034,1,110.659,3,177.247,0\H,8,1.08903,2,122.313,1,-167.125,0\C,8,1.41832,2,111.713,1,8.16262,0\H,10,1.09253,8,118.303,2,-176.355,0\C,10,1.37871,8,123.723,2,3.80917,0\H,12,1.07815,10,118.377,8,176.739,0\\\@

 Total job time:  25.83s(wall), 62.26s(cpu) 
 Wed Mar  2 14:44:29 2022

        *************************************************************
        *                                                           *
        *  Thank you very much for using Q-Chem.  Have a nice day.  *
        *                                                           *
        *************************************************************


