13
image # 1 Energy = -286.92435
C 1.33772   0.86330   -0.56892  
C 0.27249   -1.41507  -0.21775  
C -0.91495  -1.07585  0.35881   
C -1.38184  0.25240   0.66194   
C -0.73921  1.45611   0.43662   
N 0.45813   1.78174   -0.10188  
H 2.24433   1.32941   -0.96100  
H 0.46537   -2.47420  -0.37646  
H -1.59076  -1.88721  0.62172   
H -2.36271  0.32298   1.12585   
H -1.29884  2.33947   0.75242   
C 1.31438   -0.51597  -0.64611  
H 2.19588   -0.97710  -1.08524  
13
image # 2 Energy = -286.91634
C 1.36796   0.86140   -0.58533  
C 0.24898   -1.40655  -0.20749  
C -0.96622  -1.08140  0.38229   
C -1.42436  0.23868   0.68060   
C -0.74535  1.42756   0.43597   
N 0.44174   1.72540   -0.09870  
H 2.25094   1.36629   -0.96233  
H 0.42029   -2.47249  -0.35685  
H -1.64728  -1.89733  0.64887   
H -2.39853  0.33817   1.14659   
H -1.26959  2.33245   0.74059   
C 1.38134   -0.51324  -0.68576  
H 2.32104   -0.92173  -1.13243  
13
image # 3 Energy = -286.89482
C 1.38956   0.83105   -0.59999  
C 0.21943   -1.39854  -0.19479  
C -0.98937  -1.08765  0.39249   
C -1.47361  0.22774   0.70232   
C -0.75614  1.38957   0.43735   
N 0.43392   1.65323   -0.10148  
H 2.26522   1.40874   -0.96623  
H 0.36833   -2.46588  -0.33327  
H -1.70397  -1.90482  0.67722   
H -2.44528  0.35658   1.17389   
H -1.24179  2.32616   0.72969   
C 1.45997   -0.51334  -0.73449  
H 2.44265   -0.85158  -1.17420  
13
image # 4 Energy = -286.86230
C 1.41965   0.82107   -0.61313  
C 0.19862   -1.39766  -0.18654  
C -1.03243  -1.09128  0.41229   
C -1.51625  0.21693   0.72104   
C -0.77239  1.35742   0.44255   
N 0.42229   1.56145   -0.10781  
H 2.26258   1.43850   -0.96296  
H 0.31665   -2.45714  -0.30886  
H -1.74333  -1.90027  0.69872   
H -2.49459  0.37325   1.20321   
H -1.21569  2.31677   0.71962   
C 1.55071   -0.52446  -0.79647  
H 2.56339   -0.77077  -1.21188  
13
image # 5 Energy = -286.82630
C 1.45603   0.78577   -0.61858  
C 0.18111   -1.38133  -0.18037  
C -1.06158  -1.08151  0.42677   
C -1.56636  0.21218   0.74668   
C -0.77918  1.32730   0.44713   
N 0.39108   1.45803   -0.13045  
H 2.24835   1.46174   -0.95679  
H 0.26916   -2.45379  -0.28510  
H -1.76578  -1.88968  0.71281   
H -2.53738  0.38507   1.22965   
H -1.19275  2.30325   0.71282   
C 1.61850   -0.51707  -0.85001  
H 2.68856   -0.69762  -1.24794  
13
image # 6 Energy = -286.78791
C 1.46720   0.77549   -0.59148  
C 0.15990   -1.37599  -0.17483  
C -1.07558  -1.04993  0.43575   
C -1.60659  0.20533   0.77485   
C -0.77293  1.30276   0.45347   
N 0.34850   1.34690   -0.19410  
H 2.23320   1.48155   -0.95224  
H 0.22942   -2.45175  -0.26232  
H -1.78602  -1.88595  0.72531   
H -2.57095  0.39832   1.25173   
H -1.16277  2.29163   0.70614   
C 1.68464   -0.53124  -0.90586  
H 2.79653   -0.63250  -1.27377  
13
image # 7 Energy = -286.75001
C 1.47742   0.74978   -0.60264  
C 0.11658   -1.38558  -0.17090  
C -1.10786  -1.05563  0.45647   
C -1.61504  0.22322   0.80191   
C -0.78241  1.28271   0.45489   
N 0.28563   1.22425   -0.25660  
H 2.18915   1.49487   -0.97076  
H 0.20637   -2.42465  -0.24711  
H -1.80035  -1.88405  0.73809   
H -2.59670  0.41223   1.27354   
H -1.13273  2.28100   0.69868   
C 1.78927   -0.51814  -0.92489  
H 2.91167   -0.56243  -1.28057  
13
image # 8 Energy = -286.72612
C 1.47275   0.73337   -0.64337  
C 0.06490   -1.36869  -0.16271  
C -1.13928  -1.06751  0.47809   
C -1.63104  0.22215   0.82967   
C -0.79447  1.27733   0.44833   
N 0.25123   1.09815   -0.29784  
H 2.12561   1.50787   -1.02470  
H 0.20052   -2.41821  -0.24439  
H -1.81366  -1.88698  0.75257   
H -2.60951  0.42580   1.29248   
H -1.10321  2.27832   0.68800   
C 1.90417   -0.50954  -0.90001  
H 3.01262   -0.49428  -1.26762  
13
image # 9 Energy = -286.71433
C 1.46161   0.72123   -0.69266  
C 0.02045   -1.35916  -0.14767  
C -1.16925  -1.06707  0.49996   
C -1.63841  0.22299   0.84667   
C -0.79736  1.25709   0.43218   
N 0.21221   0.97994   -0.31578  
H 2.05599   1.51809   -1.10845  
H 0.20190   -2.41375  -0.24945  
H -1.83038  -1.89852  0.76675   
H -2.61291  0.43678   1.30866   
H -1.07507  2.29025   0.67762   
C 2.01900   -0.49599  -0.84678  
H 3.09206   -0.43191  -1.23951  
13
image # 10 Energy = -286.70969
C 1.44629   0.70544   -0.74533  
C -0.01319  -1.35399  -0.13127  
C -1.19663  -1.06896  0.52048   
C -1.65152  0.22462   0.86259   
C -0.80565  1.25279   0.42131   
N 0.19252   0.85669   -0.33053  
H 1.97595   1.52372   -1.21666  
H 0.21050   -2.39527  -0.26069  
H -1.84256  -1.91042  0.77974   
H -2.61542  0.44638   1.32609   
H -1.04065  2.29282   0.66087   
C 2.11737   -0.46683  -0.76927  
H 3.15893   -0.37415  -1.20031  
13
image # 11 Energy = -286.71252
C 1.43986   0.69679   -0.79432  
C -0.04964  -1.33051  -0.09929  
C -1.21716  -1.08623  0.53648   
C -1.66355  0.23143   0.87005   
C -0.80688  1.24060   0.40453   
N 0.17444   0.74333   -0.32321  
H 1.88845   1.51292   -1.33727  
H 0.23280   -2.36897  -0.28125  
H -1.85620  -1.92649  0.79474   
H -2.61743  0.45301   1.34346   
H -1.00733  2.29154   0.63847   
C 2.19852   -0.42328  -0.69570  
H 3.21442   -0.31809  -1.15413  
13
image # 12 Energy = -286.77277
C 1.44326   0.68319   -0.84529  
C -0.08580  -1.29117  -0.06210  
C -1.24888  -1.08886  0.56340   
C -1.67593  0.23445   0.87465   
C -0.81242  1.21345   0.38230   
N 0.16774   0.58786   -0.31192  
H 1.79530   1.50578   -1.46030  
H 0.26670   -2.31895  -0.31436  
H -1.86565  -1.94369  0.81215   
H -2.62037  0.46135   1.36422   
H -0.96390  2.28845   0.60765   
C 2.26285   -0.35506  -0.63103  
H 3.25956   -0.26907  -1.09195  
13
image # 13 Energy = -286.80862
C 1.44177   0.68051   -0.91052  
C -0.13111  -1.15765  -0.02070  
C -1.30586  -1.10470  0.61514   
C -1.71547  0.24276   0.88225   
C -0.81043  1.14244   0.33198   
N 0.17536   0.31464   -0.27573  
H 1.69416   1.56138   -1.53899  
H 0.32157   -2.17572  -0.37438  
H -1.87366  -1.97162  0.84505   
H -2.61670  0.47174   1.39252   
H -0.88672  2.25202   0.54019   
C 2.31325   -0.26396  -0.62014  
H 3.29973   -0.27465  -0.99735  
13
image # 14 Energy = -286.82920
C 1.43221   0.66222   -0.91358  
C -0.16227  -1.12037  -0.00274  
C -1.32794  -1.11345  0.63311   
C -1.72649  0.22630   0.87711   
C -0.81803  1.10780   0.32939   
N 0.17891   0.26934   -0.25859  
H 1.60871   1.49482   -1.62578  
H 0.35060   -2.10151  -0.38506  
H -1.88408  -1.99965  0.86700   
H -2.62751  0.47650   1.40214   
H -0.86340  2.21459   0.50619   
C 2.37160   -0.17771  -0.60146  
H 3.35754   -0.20618  -0.97690  
13
image # 15 Energy = -286.84238
C 1.40850   0.64100   -0.92835  
C -0.16238  -1.10299  -0.00383  
C -1.34216  -1.11785  0.64401   
C -1.74254  0.22459   0.88332   
C -0.82379  1.08020   0.32711   
N 0.16992   0.22533   -0.25522  
H 1.51765   1.41554   -1.71251  
H 0.36635   -2.04601  -0.38887  
H -1.88324  -2.01096  0.88179   
H -2.64074  0.48792   1.41588   
H -0.82791  2.18795   0.47391   
C 2.42358   -0.10700  -0.55607  
H 3.41110   -0.12774  -0.94684  
13
image # 16 Energy = -286.85375
C 1.39722   0.62529   -0.91872  
C -0.18283  -1.09568  0.01106   
C -1.36500  -1.13415  0.65980   
C -1.76445  0.21418   0.88582   
C -0.82244  1.05003   0.32049   
N 0.17290   0.21457   -0.24933  
H 1.43041   1.32665   -1.77818  
H 0.39370   -1.97386  -0.39956  
H -1.89122  -2.03369  0.90321   
H -2.64098  0.49502   1.41926   
H -0.79750  2.14905   0.43549   
C 2.47135   -0.02005  -0.55057  
H 3.46274   -0.05136  -0.91677  
13
image # 17 Energy = -286.86222
C 1.37829   0.60515   -0.91562  
C -0.18448  -1.09850  0.00511   
C -1.37259  -1.13825  0.66787   
C -1.77188  0.20265   0.88630   
C -0.82560  1.02326   0.31598   
N 0.16141   0.20086   -0.25976  
H 1.32993   1.24522   -1.81102  
H 0.40998   -1.90582  -0.40445  
H -1.89291  -2.04807  0.92592   
H -2.65787  0.51604   1.43356   
H -0.74856  2.10266   0.38673   
C 2.50509   0.04985   -0.53927  
H 3.52544   0.02665   -0.87751  
13
image # 18 Energy = -286.86229
C 1.37629   0.58150   -0.91076  
C -0.18739  -1.10247  -0.00713  
C -1.37643  -1.15132  0.66871   
C -1.77378  0.19693   0.88606   
C -0.81713  1.01838   0.33398   
N 0.15672   0.20076   -0.23112  
H 1.26994   1.11081   -1.88636  
H 0.43381   -1.87986  -0.38681  
H -1.90259  -2.05212  0.93835   
H -2.66585  0.51390   1.42463   
H -0.74755  2.08350   0.36876   
C 2.53182   0.12198   -0.52176  
H 3.55468   0.15306   -0.86564  
13
image # 19 Energy = -286.85952
C 1.35605   0.57472   -0.92217  
C -0.18027  -1.09711  -0.00095  
C -1.37810  -1.15101  0.66114   
C -1.77963  0.20114   0.88812   
C -0.81789  1.01925   0.35091   
N 0.17779   0.19585   -0.20889  
H 1.27095   0.91672   -1.96954  
H 0.44043   -1.89876  -0.37170  
H -1.90122  -2.05223  0.93386   
H -2.66881  0.50485   1.42088   
H -0.76240  2.10184   0.37884   
C 2.55153   0.21080   -0.46259  
H 3.54202   0.28417   -0.88464  
13
image # 20 Energy = -286.85685
C 1.36884   0.55219   -0.92072  
C -0.17723  -1.09711  0.00216   
C -1.37711  -1.14736  0.65485   
C -1.78488  0.19981   0.89258   
C -0.81526  1.01818   0.35753   
N 0.17646   0.20143   -0.18458  
H 1.28443   0.72352   -2.01723  
H 0.44699   -1.92202  -0.35703  
H -1.90250  -2.05505  0.93069   
H -2.66979  0.49906   1.41524   
H -0.77598  2.11822   0.38680   
C 2.55693   0.32890   -0.43165  
H 3.52272   0.40517   -0.90715  
13
image # 21 Energy = -286.85447
C 1.36463   0.54218   -0.92638  
C -0.17575  -1.11421  -0.00182  
C -1.37784  -1.14613  0.65321   
C -1.77563  0.18780   0.89233   
C -0.81924  1.04015   0.36565   
N 0.17383   0.21607   -0.17888  
H 1.31083   0.52525   -2.02842  
H 0.44882   -1.94724  -0.33624  
H -1.90002  -2.05492  0.92593   
H -2.68235  0.49788   1.41508   
H -0.79352  2.12346   0.39491   
C 2.57681   0.45698   -0.40159  
H 3.51076   0.51471   -0.94011  
13
image # 22 Energy = -286.85165
C 1.37269   0.52483   -0.91315  
C -0.17686  -1.12690  -0.00782  
C -1.37249  -1.15511  0.65131   
C -1.77984  0.19545   0.90072   
C -0.82612  1.03675   0.37411   
N 0.17187   0.23859   -0.19435  
H 1.34940   0.34233   -2.00565  
H 0.44442   -1.96972  -0.31056  
H -1.89982  -2.05490  0.92174   
H -2.68425  0.49151   1.40614   
H -0.81437  2.12928   0.40448   
C 2.58135   0.59742   -0.39898  
H 3.50606   0.61232   -0.97967  
13
image # 23 Energy = -286.84826
C 1.38244   0.50366   -0.90254  
C -0.17830  -1.13318  -0.01506  
C -1.37035  -1.14581  0.65285   
C -1.77778  0.18350   0.90520   
C -0.82612  1.03625   0.37743   
N 0.15942   0.25544   -0.21302  
H 1.39890   0.17987   -1.95401  
H 0.43779   -1.98929  -0.28607  
H -1.90330  -2.06100  0.91922   
H -2.69077  0.48860   1.39934   
H -0.83329  2.12605   0.41229   
C 2.58697   0.73974   -0.41624  
H 3.49761   0.70002   -1.01780  
13
image # 24 Energy = -286.84779
C 1.39531   0.48772   -0.88844  
C -0.18500  -1.13497  -0.01768  
C -1.37138  -1.15609  0.65865   
C -1.77502  0.18527   0.90867   
C -0.82871  1.03205   0.37690   
N 0.15782   0.24564   -0.23143  
H 1.45516   0.03372   -1.89067  
H 0.42583   -1.99982  -0.26741  
H -1.90448  -2.05701  0.91324   
H -2.69357  0.48719   1.39222   
H -0.84507  2.11911   0.41747   
C 2.57865   0.88341   -0.45134  
H 3.48536   0.78029   -1.04378  
13
image # 25 Energy = -286.84770
C 1.41060   0.46692   -0.86779  
C -0.18857  -1.12899  -0.02140  
C -1.36863  -1.15191  0.66196   
C -1.77157  0.18215   0.91115   
C -0.82596  1.02195   0.37256   
N 0.15306   0.22902   -0.24632  
H 1.51529   -0.09092  -1.81081  
H 0.41006   -2.01075  -0.25466  
H -1.91031  -2.05927  0.90797   
H -2.69364  0.48533   1.38393   
H -0.85589  2.11282   0.42368   
C 2.55671   1.01577   -0.49685  
H 3.47424   0.85487   -1.07420  
13
image # 26 Energy = -286.83867
C 1.43304   0.44583   -0.82749  
C -0.18454  -1.15431  -0.02115  
C -1.36029  -1.15471  0.65957   
C -1.75494  0.18595   0.91048   
C -0.81698  1.03063   0.37287   
N 0.14661   0.24894   -0.29688  
H 1.60772   -0.21250  -1.68519  
H 0.36097   -2.07043  -0.22997  
H -1.91949  -2.04039  0.88846   
H -2.68470  0.47986   1.36275   
H -0.88378  2.10856   0.45464   
C 2.53754   1.15261   -0.56467  
H 3.43473   0.92574   -1.12061  
13
image # 27 Energy = -286.82855
C 1.45850   0.41965   -0.76987  
C -0.17723  -1.16201  -0.02009  
C -1.34649  -1.14714  0.65007   
C -1.72769  0.18541   0.90007   
C -0.80613  1.02078   0.37635   
N 0.13951   0.25534   -0.34188  
H 1.70168   -0.30872  -1.54263  
H 0.31094   -2.12115  -0.21406  
H -1.93218  -2.02522  0.87097   
H -2.67715  0.47458   1.34292   
H -0.90662  2.10857   0.48469   
C 2.48601   1.26338   -0.64153  
H 3.39980   0.99380   -1.18369  
13
image # 28 Energy = -286.83345
C 1.47997   0.39615   -0.70501  
C -0.16739  -1.17563  -0.02310  
C -1.34116  -1.14621  0.63811   
C -1.71880  0.18522   0.89405   
C -0.78512  1.02348   0.37864   
N 0.14396   0.25252   -0.36950  
H 1.79723   -0.38754  -1.38872  
H 0.26507   -2.16017  -0.21261  
H -1.94699  -2.01108  0.85671   
H -2.66018  0.47110   1.32063   
H -0.91284  2.10167   0.50674   
C 2.42794   1.33975   -0.73048  
H 3.34791   1.07252   -1.24334  
13
image # 29 Energy = -286.81783
C 1.52652   0.34072   -0.59332  
C -0.14702  -1.26981  0.00031   
C -1.34630  -1.14677  0.59966   
C -1.70487  0.19116   0.85687   
C -0.72610  1.03954   0.40912   
N 0.16992   0.31477   -0.39642  
H 1.96633   -0.47308  -1.18554  
H 0.19383   -2.28341  -0.22116  
H -2.00806  -1.98529  0.84495   
H -2.63112  0.49419   1.28548   
H -0.86641  2.12522   0.52618   
C 2.26432   1.39521   -0.87470  
H 3.24226   1.21581   -1.32349  
13
image # 30 Energy = -286.80026
C 1.55667   0.32685   -0.58759  
C -0.15617  -1.28809  0.00416   
C -1.38532  -1.16027  0.59492   
C -1.70089  0.19840   0.83184   
C -0.70401  1.02435   0.41524   
N 0.19801   0.24741   -0.33348  
H 2.04587   -0.51882  -1.09501  
H 0.20294   -2.29873  -0.24486  
H -2.04094  -1.98460  0.84471   
H -2.62703  0.52156   1.27758   
H -0.78457  2.12526   0.50027   
C 2.17166   1.41851   -0.92530  
H 3.17199   1.35992   -1.33995  
13
image # 31 Energy = -286.83858
C 1.54670   0.30144   -0.63661  
C -0.17712  -1.31693  0.00935   
C -1.40292  -1.16886  0.58703   
C -1.71108  0.19897   0.81886   
C -0.69057  1.01668   0.40236   
N 0.24640   0.18879   -0.22737  
H 2.08569   -0.55754  -1.05280  
H 0.22404   -2.30610  -0.26263  
H -2.06932  -1.98715  0.84847   
H -2.62101  0.55093   1.27237   
H -0.70195  2.12719   0.46567   
C 2.11313   1.44392   -0.92447  
H 3.12482   1.48309   -1.32970  
13
image # 32 Energy = -286.83865
C 1.52865   0.27924   -0.68278  
C -0.19042  -1.32397  0.00696   
C -1.43402  -1.17704  0.59483   
C -1.71133  0.20535   0.81240   
C -0.68636  0.99750   0.38637   
N 0.27794   0.14538   -0.15089  
H 2.09745   -0.59016  -1.03273  
H 0.25769   -2.29462  -0.27940  
H -2.09058  -1.99228  0.85558   
H -2.61299  0.58172   1.26933   
H -0.61077  2.09948   0.42081   
C 2.08786   1.45944   -0.90878  
H 3.06893   1.58900   -1.30345  
13
image # 33 Energy = -286.86269
C 1.53533   0.27855   -0.69775  
C -0.22923  -1.30119  0.02339   
C -1.45027  -1.18152  0.60031   
C -1.72027  0.21072   0.81675   
C -0.65790  0.96113   0.36927   
N 0.27677   0.06072   -0.13589  
H 2.08522   -0.61890  -1.02490  
H 0.29260   -2.24299  -0.29044  
H -2.11767  -1.99464  0.86301   
H -2.60779  0.62204   1.26473   
H -0.50646  2.03392   0.36790   
C 2.07174   1.45317   -0.88035  
H 3.02531   1.71455   -1.28344  
13
image # 34 Energy = -286.87239
C 1.53141   0.25617   -0.69951  
C -0.24809  -1.29257  0.02935   
C -1.48331  -1.17592  0.61528   
C -1.72566  0.21807   0.82080   
C -0.63156  0.90282   0.35318   
N 0.27764   -0.02010  -0.13398  
H 2.06209   -0.64608  -1.01533  
H 0.31229   -2.15938  -0.29136  
H -2.14349  -1.99392  0.86997   
H -2.60719  0.66351   1.26221   
H -0.40550  1.95804   0.31683   
C 2.07085   1.44797   -0.86156  
H 2.99051   1.84137   -1.26589  
