
Running Job 1 of 1 irc_product.in
qchem irc_product.in_13713.0 ./irc_product.d/ 1
/home/leeping/opt/qchem/5.0.2-openmp/exe/qcprog.exe_s irc_product.in_13713.0 ./irc_product.d/
Check license passed

                  Welcome to Q-Chem
     A Quantum Leap Into The Future Of Chemistry


 Q-Chem 5.0, Q-Chem, Inc., Pleasanton, CA (2017)

 Yihan Shao,  Zhengting Gan,  E. Epifanovsky,  A. T. B. Gilbert,  M. Wormit,  
 J. Kussmann,  A. W. Lange,  A. Behn,  Jia Deng,  Xintian Feng,  D. Ghosh,  
 M. Goldey,  P. R. Horn,  L. D. Jacobson,  I. Kaliman,  T. Kus,  A. Landau,  
 Jie Liu,  E. I. Proynov,  R. M. Richard,  R. P. Steele,  E. J. Sundstrom,  
 H. L. Woodcock III,  P. M. Zimmerman,  D. Zuev,  B. Albrecht,  E. Alguire,  
 S. A. Baeppler,  D. Barton,  Z. Benda,  Y. A. Bernard,  E. J. Berquist,  
 K. B. Bravaya,  H. Burton,  D. Casanova,  Chun-Min Chang,  Yunqing Chen,  
 A. Chien,  K. D. Closser,  M. P. Coons,  S. Dasgupta,  A. L. Dempwolff,  
 M. Diedenhofen,  Hainam Do,  R. G. Edgar,  Po-Tung Fang,  S. Fatehi,  
 Qingguo Feng,  J. Fosso-Tande,  Qinghui Ge,  A. Ghysels,  G. Gidofalvi,  
 J. Gomes,  J. Gonthier,  A. Gunina,  M. W. D. Hanson-Heine,  
 P. H. P. Harbach,  A. W. Hauser,  J. E. Herr,  E. G. Hohenstein,  
 Z. C. Holden,  Kerwin Hui,  T.-C. Jagau,  Hyunjun Ji,  B. Kaduk,  
 K. Khistyaev,  Jaehoon Kim,  P. Klunzinger,  K. Koh,  D. Kosenkov,  
 L. Koulias,  T. Kowalczyk,  C. M. Krauter,  A. Kunitsa,  Ka Un Lao,  
 A. Laurent,  K. V. Lawler,  Joonho Lee,  D. Lefrancois,  S. Lehtola,  
 D. S. Levine,  Yi-Pei Li,  You-Sheng Lin,  Fenglai Liu,  E. Livshits,  
 A. Luenser,  P. Manohar,  E. Mansoor,  S. F. Manzer,  Shan-Ping Mao,  
 Yuezhi Mao,  N. Mardirossian,  A. V. Marenich,  T. Markovich,  
 L. A. Martinez-Martinez,  S. A. Maurer,  N. J. Mayhall,  S. C. McKenzie,  
 J.-M. Mewes,  A. F. Morrison,  J. W. Mullinax,  K. Nanda,  
 T. S. Nguyen-Beck,  R. Olivares-Amaya,  J. A. Parkhill,  T. M. Perrine,  
 F. Plasser,  S. Prager,  A. Prociuk,  E. Ramos,  D. R. Rehn,  F. Rob,  
 M. Schneider,  N. Sergueev,  S. M. Sharada,  S. Sharma,  D. W. Small,  
 T. Stauch,  T. Stein,  Yu-Chuan Su,  A. J. W. Thom,  A. Tkatchenko,  
 T. Tsuchimochi,  L. Vogt,  O. Vydrov,  M. A. Watson,  J. Wenzel,  
 M. de Wergifosse,  T. A. Wesolowski,  A. White,  J. Witte,  A. Yamada,  
 Jun Yang,  K. Yao,  S. Yeganeh,  S. R. Yost,  Zhi-Qiang You,  A. Zech,  
 Igor Ying Zhang,  Xing Zhang,  Yan Zhao,  Ying Zhu,  B. R. Brooks,  
 G. K. L. Chan,  C. J. Cramer,  M. S. Gordon,  W. J. Hehre,  A. Klamt,  
 M. W. Schmidt,  C. D. Sherrill,  D. G. Truhlar,  A. Aspuru-Guzik,  R. Baer,  
 A. T. Bell,  N. A. Besley,  Jeng-Da Chai,  R. A. DiStasio Jr.,  A. Dreuw,  
 B. D. Dunietz,  T. R. Furlani,  Chao-Ping Hsu,  Yousung Jung,  Jing Kong,  
 D. S. Lambrecht,  WanZhen Liang,  C. Ochsenfeld,  V. A. Rassolov,  
 L. V. Slipchenko,  J. E. Subotnik,  T. Van Voorhis,  J. M. Herbert,  
 A. I. Krylov,  P. M. W. Gill,  M. Head-Gordon

 Contributors to earlier versions of Q-Chem not listed above: 
 R. D. Adamson,  B. Austin,  J. Baker,  G. J. O. Beran,  K. Brandhorst,  
 S. T. Brown,  E. F. C. Byrd,  A. K. Chakraborty,  C.-L. Cheng,  
 Siu Hung Chien,  D. M. Chipman,  D. L. Crittenden,  H. Dachsel,  
 R. J. Doerksen,  A. D. Dutoi,  L. Fusti-Molnar,  W. A. Goddard III,  
 A. Golubeva-Zadorozhnaya,  S. R. Gwaltney,  G. Hawkins,  A. Heyden,  
 S. Hirata,  G. Kedziora,  F. J. Keil,  C. Kelley,  Jihan Kim,  R. A. King,  
 R. Z. Khaliullin,  P. P. Korambath,  W. Kurlancheek,  A. M. Lee,  M. S. Lee,  
 S. V. Levchenko,  Ching Yeh Lin,  D. Liotard,  R. C. Lochan,  I. Lotan,  
 P. E. Maslen,  N. Nair,  D. P. O'Neill,  D. Neuhauser,  E. Neuscamman,  
 C. M. Oana,  R. Olson,  B. Peters,  R. Peverati,  P. A. Pieniazek,  
 Y. M. Rhee,  J. Ritchie,  M. A. Rohrdanz,  E. Rosta,  N. J. Russ,  
 H. F. Schaefer III,  N. E. Schultz,  N. Shenvi,  A. C. Simmonett,  A. Sodt,  
 D. Stuck,  K. S. Thanthiriwatte,  V. Vanovschi,  Tao Wang,  A. Warshel,  
 C. F. Williams,  Q. Wu,  X. Xu,  W. Zhang

 Please cite Q-Chem as follows:
 Y. Shao et al., Mol. Phys. 113, 184-215 (2015)
 DOI: 10.1080/00268976.2014.952696

 Q-Chem 5.0.2 for Intel X86 EM64T Linux

 Parts of Q-Chem use Armadillo 5.200.1 (Boston Tea Smuggler).
 http://arma.sourceforge.net/

 Q-Chem begins on Fri Mar  4 15:13:56 2022  

Host: 
0

     Scratch files written to ./irc_product.d//
 Dec517 15110_ 26548  26544 5633   
Processing $rem in /home/leeping/opt/qchem/5.0.2-openmp/config/preferences.
 MEM_STATIC 2000
 MEM_TOTAL  8000
 SYMMETRY   OFF
 SYM_IGNORE TRUE 

Checking the input file for inconsistencies... 	...done.

--------------------------------------------------------------
User input:
--------------------------------------------------------------
$molecule
0 2
C        1.1432524990    0.1947299942    0.4326382813
C        0.8357387726   -0.9896863448   -0.4981579485
C       -0.4960093844   -0.9977441719   -0.6896159736
C       -1.0688829887    0.1736483464    0.1353348605
C       -0.4415611190    1.4484661358   -0.4620459009
N        0.8271947293    1.4802953375   -0.3140981871
H        2.1338530467    0.2251323239    0.8814135435
H        1.5758988479   -1.6609774462   -0.9180914003
H       -1.0816987220   -1.6592811055   -1.3178069999
H       -2.1437460672    0.1761021157    0.3128407691
H       -0.9923925316    2.2348034078   -0.9738090538
C       -0.0928447190    0.0586259801    1.3118325888
H       -0.1988023636   -0.6841145732    2.0995654210
$end

$rem
method                b3lyp
basis                 6-31+g(d,p)
unrestricted          true
symmetry              off
sym_ignore            true
incdft                false
incfock               0
scf_convergence       8
thresh                14
jobtype               sp
scf_guess             read
scf_algorithm         diis
max_scf_cycles        100
scf_final_print       1
$end

--------------------------------------------------------------
 ----------------------------------------------------------------
             Standard Nuclear Orientation (Angstroms)
    I     Atom           X                Y                Z
 ----------------------------------------------------------------
    1      C       1.1432524990     0.1947299942     0.4326382813
    2      C       0.8357387726    -0.9896863448    -0.4981579485
    3      C      -0.4960093844    -0.9977441719    -0.6896159736
    4      C      -1.0688829887     0.1736483464     0.1353348605
    5      C      -0.4415611190     1.4484661358    -0.4620459009
    6      N       0.8271947293     1.4802953375    -0.3140981871
    7      H       2.1338530467     0.2251323239     0.8814135435
    8      H       1.5758988479    -1.6609774462    -0.9180914003
    9      H      -1.0816987220    -1.6592811055    -1.3178069999
   10      H      -2.1437460672     0.1761021157     0.3128407691
   11      H      -0.9923925316     2.2348034078    -0.9738090538
   12      C      -0.0928447190     0.0586259801     1.3118325888
   13      H      -0.1988023636    -0.6841145732     2.0995654210
 ----------------------------------------------------------------
 Nuclear Repulsion Energy =   279.0193433586 hartrees
 There are       25 alpha and       24 beta electrons
 Requested basis set is 6-31+G(d,p)
 There are 53 shells and 163 basis functions

 Total QAlloc Memory Limit   8000 MB
 Mega-Array Size      1956 MB
 MEM_STATIC part      2000 MB

                       Distance Matrix (Angstroms)
             C (  1)   C (  2)   C (  3)   C (  4)   C (  5)   N (  6)
   C (  2)  1.537462
   C (  3)  2.317030  1.345464
   C (  4)  2.232124  2.319967  1.543013
   C (  5)  2.209966  2.752705  2.457376  1.541284
   N (  6)  1.519930  2.476845  2.834178  2.346152  1.277749
   H (  7)  1.087940  2.250356  3.298445  3.288891  3.151855  2.170723
   H (  8)  2.335659  1.083888  2.187438  3.386802  3.734536  3.285264
   H (  9)  3.384054  2.190148  1.084107  2.339106  3.286365  3.808969
   H ( 10)  3.289234  3.300623  2.257846  1.089424  2.262033  3.304612
   H ( 11)  3.271234  3.737063  3.282762  2.341882  1.087954  2.077354
   C ( 12)  1.522972  2.288513  2.298751  1.532980  2.280330  2.347609
   H ( 13)  2.313466  2.812795  2.822451  2.313223  3.341958  3.400458
             H (  7)   H (  8)   H (  9)   H ( 10)   H ( 11)   C ( 12)
   H (  8)  2.665885
   H (  9)  4.327512  2.687490
   H ( 10)  4.315499  4.327333  2.674993
   H ( 11)  4.153798  4.666512  3.910269  2.686882
   C ( 12)  2.274020  3.273271  3.293029  2.284290  3.281630
   H ( 13)  2.784224  3.634567  3.661815  2.777618  4.312250  1.087848

 
 A cutoff of  1.0D-14 yielded   1410 shell pairs
 There are     13528 function pairs
 
 -------------------------------------------------------
 OpenMP Integral Computing Module                       
 Release: version 1.0, May 2013, Q-Chem Inc. Pittsburgh 
 -------------------------------------------------------
 Integral Job Info:
 Integral job number is                      11
 Integral operator is                         1
 short-range coefficients                     0
 long-range coefficients              100000000
 Omega coefficients                           0
 if combine SR and LR in K                    0
 Integral screening is                        0
 Integral computing path is                   2
 max size of driver memory is            800000
 size of driver memory is                593474
 size of scratch memory is              2361544
 max col of scratch BK array               1296
 max len of scratch array in speh3          155
 max len of scratch index in speh4           18
 max int batch size is                      520
 min int batch size is                       52
 fixed nKL is                                52
 max L of basis functions is                  2
 order of int derivative is                   0
 number of shells is                         53
 number of basis is                         163
 number of cartesian basis is               163
 number of contracted shell pairs          1410
 number of primitive shell pairs           4819
 maxK2 (contraction) of shell pair           36
 max number of K2 of shell pair               1
 max number of CS2 of shell pair            127
 max number of PS2 of shell pair            684
 mem total for path MDJ                  535308
 -------------------------------------------------------
 Smallest overlap matrix eigenvalue = 2.23E-05

 Scale SEOQF with 1.000000e-01/1.000000e-01/1.000000e-01

 Standard Electronic Orientation quadrupole field applied
 Nucleus-field energy     =     0.0000000022 hartrees
 Guess MOs from SCF MO coefficient file
 Reading MOs from coefficient file
 Reading MOs from coefficient file
 An unrestricted hybrid HF-DFT SCF calculation will be
 performed using Pulay DIIS extrapolation
 Exchange:     0.2000 Hartree-Fock + 0.0800 Slater + 0.7200 B88
 Correlation:  0.1900 VWN1RPA + 0.8100 LYP
 Using SG-1 standard quadrature grid
 SCF converges when DIIS error is below 1.0E-08
Using Q-Chem read-in guess as SCF_GUESS READ specified.

 using 4 threads for integral computing
 -------------------------------------------------------
 OpenMP Integral computing Module                
 Release: version 1.0, May 2013, Q-Chem Inc. Pittsburgh 
 -------------------------------------------------------
 -------------------------------------------------------
 OpenMP BLAS3 based DFT computing Module                
 Release: version 1.0, May 2013, Q-Chem Inc. Pittsburgh 
 -------------------------------------------------------
 ---------------------------------------
  Cycle       Energy         DIIS Error
 ---------------------------------------
    1    -286.8734985383      6.63E-10
    2    -286.8734985383      1.44E-09 Convergence criterion met
 ---------------------------------------
 One-Electron    Energy =  -938.5626841218
 Total Coulomb   Energy =   414.2740858393
 Alpha Exchange  Energy =    -4.0199880529
 Beta  Exchange  Energy =    -3.9249959069
 DFT   Exchange  Energy =   -31.5531094552
 DFT Correlation Energy =    -2.1061502015
 Nuclear Repu.   Energy =   279.0193433608
 Nuclear Attr.   Energy = -1222.7224070049
 Kinetic         Energy =   284.1597228831
 <S^2> = 0.7539
 SCF time:  CPU 10.20 s  wall 2.60 s
 Final Alpha MO Eigenvalues
            1           2           3           4           5           6
    1 -14.3365505 -10.2345578 -10.2307167 -10.2206536 -10.2162905 -10.2129381
            7           8           9          10          11          12
    1 -10.2091334  -0.9646728  -0.8325139  -0.7367879  -0.7150501  -0.5888186
           13          14          15          16          17          18
    1  -0.5830350  -0.5394038  -0.5202116  -0.4813746  -0.4290431  -0.4203483
           19          20          21          22          23          24
    1  -0.3910394  -0.3824720  -0.3580555  -0.3045105  -0.2830843  -0.2710680
           25          26          27          28          29          30
    1  -0.2055245  -0.0409393   0.0020049   0.0023128   0.0204155   0.0259304
 Final Beta MO Eigenvalues
            1           2           3           4           5           6
    1 -14.3359405 -10.2345823 -10.2311259 -10.2209893 -10.2113058 -10.2081203
            7           8           9          10          11          12
    1 -10.2024436  -0.9612916  -0.8267203  -0.7353996  -0.7002409  -0.5870429
           13          14          15          16          17          18
    1  -0.5706331  -0.5359357  -0.5174398  -0.4724113  -0.4256051  -0.4161055
           19          20          21          22          23          24
    1  -0.3891738  -0.3792244  -0.3524316  -0.2975203  -0.2727749  -0.2680010
           25          26          27          28          29
    1  -0.0638381  -0.0356231   0.0025605   0.0034757   0.0206756
 SCF   energy in the final basis set = -286.87349854
 Total energy in the final basis set = -286.87349854
 
 --------------------------------------------------------------
 
                    Orbital Energies (a.u.)
 --------------------------------------------------------------
 
 Alpha MOs
 -- Occupied --
-14.337 -10.235 -10.231 -10.221 -10.216 -10.213 -10.209  -0.965
 -0.833  -0.737  -0.715  -0.589  -0.583  -0.539  -0.520  -0.481
 -0.429  -0.420  -0.391  -0.382  -0.358  -0.305  -0.283  -0.271
 -0.206
 -- Virtual --
 -0.041   0.002   0.002   0.020   0.026   0.032   0.048   0.049
  0.065   0.072   0.075   0.094   0.105   0.106   0.108   0.120
  0.121   0.131   0.138   0.150   0.170   0.171   0.185   0.190
  0.193   0.199   0.204   0.219   0.230   0.234   0.239   0.248
  0.257   0.267   0.280   0.286   0.303   0.325   0.336   0.342
  0.353   0.392   0.420   0.455   0.616   0.669   0.682   0.701
  0.707   0.717   0.727   0.737   0.746   0.764   0.777   0.789
  0.806   0.832   0.859   0.893   0.898   0.951   0.958   0.994
  1.011   1.026   1.052   1.071   1.083   1.106   1.121   1.145
  1.210   1.288   1.307   1.332   1.359   1.406   1.428   1.481
  1.499   1.576   1.625   1.686   1.743   1.752   1.809   1.833
  1.891   1.900   1.970   1.986   2.033   2.048   2.094   2.111
  2.121   2.170   2.220   2.266   2.292   2.322   2.354   2.396
  2.401   2.449   2.455   2.479   2.493   2.512   2.517   2.557
  2.590   2.605   2.625   2.636   2.686   2.742   2.777   2.791
  2.817   2.867   2.916   3.044   3.109   3.285   3.329   3.387
  3.448   3.542   3.716   4.140   4.376   4.473   4.556   4.611
  4.763   4.826
 
 Beta MOs
 -- Occupied --
-14.336 -10.235 -10.231 -10.221 -10.211 -10.208 -10.202  -0.961
 -0.827  -0.735  -0.700  -0.587  -0.571  -0.536  -0.517  -0.472
 -0.426  -0.416  -0.389  -0.379  -0.352  -0.298  -0.273  -0.268
 -- Virtual --
 -0.064  -0.036   0.003   0.003   0.021   0.028   0.033   0.048
  0.050   0.068   0.073   0.076   0.094   0.105   0.107   0.109
  0.120   0.127   0.132   0.140   0.152   0.170   0.171   0.185
  0.191   0.197   0.200   0.207   0.223   0.233   0.238   0.241
  0.251   0.261   0.269   0.280   0.291   0.308   0.328   0.340
  0.345   0.362   0.393   0.422   0.457   0.620   0.682   0.687
  0.710   0.714   0.725   0.733   0.740   0.749   0.769   0.790
  0.795   0.808   0.835   0.861   0.898   0.905   0.953   0.967
  0.999   1.013   1.029   1.057   1.077   1.084   1.108   1.125
  1.148   1.213   1.292   1.310   1.337   1.363   1.408   1.433
  1.487   1.508   1.585   1.631   1.692   1.746   1.759   1.817
  1.842   1.895   1.912   1.973   1.990   2.048   2.056   2.097
  2.123   2.130   2.171   2.226   2.273   2.306   2.324   2.359
  2.398   2.405   2.452   2.458   2.481   2.495   2.516   2.521
  2.564   2.602   2.610   2.635   2.638   2.689   2.745   2.780
  2.796   2.821   2.871   2.918   3.045   3.111   3.286   3.329
  3.396   3.451   3.543   3.718   4.142   4.386   4.477   4.571
  4.619   4.766   4.827
 --------------------------------------------------------------
 
          Ground-State Mulliken Net Atomic Charges

     Atom                 Charge (a.u.)    Spin (a.u.)
  --------------------------------------------------------
      1 C                     0.024934      -0.090284
      2 C                    -0.147614       0.043905
      3 C                    -0.127837       0.096389
      4 C                     0.009439      -0.061389
      5 C                    -0.091362      -0.031872
      6 N                    -0.203998       0.026302
      7 H                     0.129468       0.003598
      8 H                     0.138883       0.000739
      9 H                     0.138408       0.000078
     10 H                     0.124800       0.003443
     11 H                     0.137324      -0.000083
     12 C                    -0.271228       1.035436
     13 H                     0.138783      -0.026263
  --------------------------------------------------------
  Sum of atomic charges =    -0.000000
  Sum of spin   charges =     1.000000

 -----------------------------------------------------------------
                    Cartesian Multipole Moments
 -----------------------------------------------------------------
    Charge (ESU x 10^10)
                 0.0000
    Dipole Moment (Debye)
         X      -1.6076      Y      -2.0310      Z      -0.0400
       Tot       2.5906
    Quadrupole Moments (Debye-Ang)
        XX     -38.9020     XY      -4.5027     YY     -44.3888
        XZ       2.2343     YZ       0.2351     ZZ     -42.1733
    Octopole Moments (Debye-Ang^2)
       XXX     -11.3387    XXY     -11.7775    XYY     -12.4381
       YYY     -25.7135    XXZ       1.2264    XYZ       3.5859
       YYZ      -4.0031    XZZ      -4.8144    YZZ     -11.3009
       ZZZ       1.5613
    Hexadecapole Moments (Debye-Ang^3)
      XXXX    -225.9476   XXXY      -9.2889   XXYY     -93.2522
      XYYY     -22.1181   YYYY    -317.1331   XXXZ      -0.0293
      XXYZ       3.9915   XYYZ       5.1524   YYYZ      -2.5794
      XXZZ     -69.2285   XYZZ      -1.1179   YYZZ     -78.5771
      XZZZ      -0.7251   YZZZ     -10.8531   ZZZZ    -190.3241
 -----------------------------------------------------------------
 Mayer SCF Bond Order, atomic valence on the diagonal:

            1           2           3           4           5           6
    1   3.5142278   0.8566910  -0.1078502  -0.1330043   0.0301932   0.9772800
    2   0.8566910   4.0690328   2.0741113  -0.0330539   0.0750906  -0.0212717
    3  -0.1078502   2.0741113   4.0994616   0.9087711   0.0607667   0.0288421
    4  -0.1330043  -0.0330539   0.9087711   3.4454600   0.8723808  -0.0545432
    5   0.0301932   0.0750906   0.0607667   0.8723808   3.9441428   1.8285020
    6   0.9772800  -0.0212717   0.0288421  -0.0545432   1.8285020   2.7638765
    7   0.9160050   0.0105923   0.0102114   0.0204342   0.0047031  -0.0227911
    8   0.0254574   0.8468384   0.0679806  -0.0009627   0.0073840   0.0001161
    9   0.0054267   0.0566795   0.8640862   0.0047234   0.0151778   0.0014583
   10   0.0212643   0.0052759   0.0212756   0.8816531   0.0000522   0.0116509
   11   0.0005876   0.0017528   0.0148035  -0.0426322   0.9636466  -0.0175695
   12   0.9207931   0.1816980   0.1599345   1.0080029   0.0778414   0.0200379
   13   0.0013839   0.0146285  -0.0034711   0.0136909   0.0084045   0.0121646
            7           8           9          10          11          12
    1   0.9160050   0.0254574   0.0054267   0.0212643   0.0005876   0.9207931
    2   0.0105923   0.8468384   0.0566795   0.0052759   0.0017528   0.1816980
    3   0.0102114   0.0679806   0.8640862   0.0212756   0.0148035   0.1599345
    4   0.0204342  -0.0009627   0.0047234   0.8816531  -0.0426322   1.0080029
    5   0.0047031   0.0073840   0.0151778   0.0000522   0.9636466   0.0778414
    6  -0.0227911   0.0001161   0.0014583   0.0116509  -0.0175695   0.0200379
    7   0.9483617   0.0001831   0.0014331   0.0026537   0.0015314   0.0032836
    8   0.0001831   0.9548121   0.0007492   0.0012798   0.0001758   0.0056219
    9   0.0014331   0.0007492   0.9554954   0.0002192   0.0002203   0.0053715
   10   0.0026537   0.0012798   0.0002192   0.9568934   0.0001265   0.0112973
   11   0.0015314   0.0001758   0.0002203   0.0001265   0.9477989   0.0243999
   12   0.0032836   0.0056219   0.0053715   0.0112973   0.0243999   3.3251738
   13   0.0001221  -0.0000114  -0.0000498   0.0001449   0.0007561   0.9068917
           13
    1   0.0013839
    2   0.0146285
    3  -0.0034711
    4   0.0136909
    5   0.0084045
    6   0.0121646
    7   0.0001221
    8  -0.0000114
    9  -0.0000498
   10   0.0001449
   11   0.0007561
   12   0.9068917
   13   0.9546551


Archival summary:
1\1\c8-73\SP\ProcedureUnspecified\6-31+G**\166(2)\hpark21\FriMar415:13:592022FriMar415:13:592022\0\\#,ProcedureUnspecified,6-31+G**,\\0,2\N\C,1,1.27775\H,2,1.08795,1,122.629\C,1,1.51993,2,104.022,3,-179.543,0\H,4,1.08794,1,111.615,2,-163.166,0\C,4,1.52297,1,100.978,2,-34.2325,0\H,6,1.08785,4,123.924,1,-172.022,0\C,6,1.53298,4,93.8424,1,53.2782,0\H,8,1.08942,6,120.219,4,-176.918,0\C,4,1.53746,1,108.213,2,66.7613,0\H,10,1.08389,4,125.106,1,112.369,0\C,10,1.34546,4,106.782,1,-66.6184,0\H,12,1.08411,10,128.378,4,177.282,0\\\@

 Total job time:  3.66s(wall), 11.92s(cpu) 
 Fri Mar  4 15:13:59 2022

        *************************************************************
        *                                                           *
        *  Thank you very much for using Q-Chem.  Have a nice day.  *
        *                                                           *
        *************************************************************


