
Running Job 1 of 1 qcts1.in
qchem qcts1.in_2698.0 ./qcts1.d/ 1
/home/leeping/opt/qchem/5.0.2-openmp/exe/qcprog.exe_s qcts1.in_2698.0 ./qcts1.d/
Check license passed

                  Welcome to Q-Chem
     A Quantum Leap Into The Future Of Chemistry


 Q-Chem 5.0, Q-Chem, Inc., Pleasanton, CA (2017)

 Yihan Shao,  Zhengting Gan,  E. Epifanovsky,  A. T. B. Gilbert,  M. Wormit,  
 J. Kussmann,  A. W. Lange,  A. Behn,  Jia Deng,  Xintian Feng,  D. Ghosh,  
 M. Goldey,  P. R. Horn,  L. D. Jacobson,  I. Kaliman,  T. Kus,  A. Landau,  
 Jie Liu,  E. I. Proynov,  R. M. Richard,  R. P. Steele,  E. J. Sundstrom,  
 H. L. Woodcock III,  P. M. Zimmerman,  D. Zuev,  B. Albrecht,  E. Alguire,  
 S. A. Baeppler,  D. Barton,  Z. Benda,  Y. A. Bernard,  E. J. Berquist,  
 K. B. Bravaya,  H. Burton,  D. Casanova,  Chun-Min Chang,  Yunqing Chen,  
 A. Chien,  K. D. Closser,  M. P. Coons,  S. Dasgupta,  A. L. Dempwolff,  
 M. Diedenhofen,  Hainam Do,  R. G. Edgar,  Po-Tung Fang,  S. Fatehi,  
 Qingguo Feng,  J. Fosso-Tande,  Qinghui Ge,  A. Ghysels,  G. Gidofalvi,  
 J. Gomes,  J. Gonthier,  A. Gunina,  M. W. D. Hanson-Heine,  
 P. H. P. Harbach,  A. W. Hauser,  J. E. Herr,  E. G. Hohenstein,  
 Z. C. Holden,  Kerwin Hui,  T.-C. Jagau,  Hyunjun Ji,  B. Kaduk,  
 K. Khistyaev,  Jaehoon Kim,  P. Klunzinger,  K. Koh,  D. Kosenkov,  
 L. Koulias,  T. Kowalczyk,  C. M. Krauter,  A. Kunitsa,  Ka Un Lao,  
 A. Laurent,  K. V. Lawler,  Joonho Lee,  D. Lefrancois,  S. Lehtola,  
 D. S. Levine,  Yi-Pei Li,  You-Sheng Lin,  Fenglai Liu,  E. Livshits,  
 A. Luenser,  P. Manohar,  E. Mansoor,  S. F. Manzer,  Shan-Ping Mao,  
 Yuezhi Mao,  N. Mardirossian,  A. V. Marenich,  T. Markovich,  
 L. A. Martinez-Martinez,  S. A. Maurer,  N. J. Mayhall,  S. C. McKenzie,  
 J.-M. Mewes,  A. F. Morrison,  J. W. Mullinax,  K. Nanda,  
 T. S. Nguyen-Beck,  R. Olivares-Amaya,  J. A. Parkhill,  T. M. Perrine,  
 F. Plasser,  S. Prager,  A. Prociuk,  E. Ramos,  D. R. Rehn,  F. Rob,  
 M. Schneider,  N. Sergueev,  S. M. Sharada,  S. Sharma,  D. W. Small,  
 T. Stauch,  T. Stein,  Yu-Chuan Su,  A. J. W. Thom,  A. Tkatchenko,  
 T. Tsuchimochi,  L. Vogt,  O. Vydrov,  M. A. Watson,  J. Wenzel,  
 M. de Wergifosse,  T. A. Wesolowski,  A. White,  J. Witte,  A. Yamada,  
 Jun Yang,  K. Yao,  S. Yeganeh,  S. R. Yost,  Zhi-Qiang You,  A. Zech,  
 Igor Ying Zhang,  Xing Zhang,  Yan Zhao,  Ying Zhu,  B. R. Brooks,  
 G. K. L. Chan,  C. J. Cramer,  M. S. Gordon,  W. J. Hehre,  A. Klamt,  
 M. W. Schmidt,  C. D. Sherrill,  D. G. Truhlar,  A. Aspuru-Guzik,  R. Baer,  
 A. T. Bell,  N. A. Besley,  Jeng-Da Chai,  R. A. DiStasio Jr.,  A. Dreuw,  
 B. D. Dunietz,  T. R. Furlani,  Chao-Ping Hsu,  Yousung Jung,  Jing Kong,  
 D. S. Lambrecht,  WanZhen Liang,  C. Ochsenfeld,  V. A. Rassolov,  
 L. V. Slipchenko,  J. E. Subotnik,  T. Van Voorhis,  J. M. Herbert,  
 A. I. Krylov,  P. M. W. Gill,  M. Head-Gordon

 Contributors to earlier versions of Q-Chem not listed above: 
 R. D. Adamson,  B. Austin,  J. Baker,  G. J. O. Beran,  K. Brandhorst,  
 S. T. Brown,  E. F. C. Byrd,  A. K. Chakraborty,  C.-L. Cheng,  
 Siu Hung Chien,  D. M. Chipman,  D. L. Crittenden,  H. Dachsel,  
 R. J. Doerksen,  A. D. Dutoi,  L. Fusti-Molnar,  W. A. Goddard III,  
 A. Golubeva-Zadorozhnaya,  S. R. Gwaltney,  G. Hawkins,  A. Heyden,  
 S. Hirata,  G. Kedziora,  F. J. Keil,  C. Kelley,  Jihan Kim,  R. A. King,  
 R. Z. Khaliullin,  P. P. Korambath,  W. Kurlancheek,  A. M. Lee,  M. S. Lee,  
 S. V. Levchenko,  Ching Yeh Lin,  D. Liotard,  R. C. Lochan,  I. Lotan,  
 P. E. Maslen,  N. Nair,  D. P. O'Neill,  D. Neuhauser,  E. Neuscamman,  
 C. M. Oana,  R. Olson,  B. Peters,  R. Peverati,  P. A. Pieniazek,  
 Y. M. Rhee,  J. Ritchie,  M. A. Rohrdanz,  E. Rosta,  N. J. Russ,  
 H. F. Schaefer III,  N. E. Schultz,  N. Shenvi,  A. C. Simmonett,  A. Sodt,  
 D. Stuck,  K. S. Thanthiriwatte,  V. Vanovschi,  Tao Wang,  A. Warshel,  
 C. F. Williams,  Q. Wu,  X. Xu,  W. Zhang

 Please cite Q-Chem as follows:
 Y. Shao et al., Mol. Phys. 113, 184-215 (2015)
 DOI: 10.1080/00268976.2014.952696

 Q-Chem 5.0.2 for Intel X86 EM64T Linux

 Parts of Q-Chem use Armadillo 5.200.1 (Boston Tea Smuggler).
 http://arma.sourceforge.net/

 Q-Chem begins on Fri Mar  4 12:22:11 2022  

Host: 
0

     Scratch files written to ./qcts1.d//
 Dec517 15110_ 26548  26544 5633   
Processing $rem in /home/leeping/opt/qchem/5.0.2-openmp/config/preferences.
 MEM_STATIC 2000
 MEM_TOTAL  8000
 SYMMETRY   OFF
 SYM_IGNORE TRUE 

Checking the input file for inconsistencies... 	...done.

--------------------------------------------------------------
User input:
--------------------------------------------------------------
$molecule
0 2
C        1.1448619693    0.2990204162    0.3318043357
C        0.7015740380   -1.0530624457   -0.2849181546
C       -0.6006330937   -1.1336764146   -0.8281514810
C       -1.1225918345    0.2586374771    0.1745699249
C       -0.5028003934    1.4800157619   -0.4267679966
N        0.7877521199    1.4829284343   -0.3928005104
H        2.1150813374    0.2901460171    0.8052963072
H        1.5469438729   -1.6940171163   -0.5365776852
H       -0.8251969367   -1.7653182510   -1.7139319785
H       -2.1218070397    0.4374985998    0.6211094714
H       -1.0314989926    2.3190617285   -0.8968015336
C       -0.0165339895   -0.2528354337    1.0686326778
H       -0.1185237522   -0.6966530407    2.0474926599
$end

$rem
method                b3lyp
basis                 6-31g(d)
unrestricted          true
symmetry              off
sym_ignore            true
incdft                false
incfock               0
scf_convergence       8
thresh                14
jobtype               freq
scf_guess             read
scf_algorithm         diis
max_scf_cycles        100
$end

--------------------------------------------------------------
 ----------------------------------------------------------------
             Standard Nuclear Orientation (Angstroms)
    I     Atom           X                Y                Z
 ----------------------------------------------------------------
    1      C       1.1448619693     0.2990204162     0.3318043357
    2      C       0.7015740380    -1.0530624457    -0.2849181546
    3      C      -0.6006330937    -1.1336764146    -0.8281514810
    4      C      -1.1225918345     0.2586374771     0.1745699249
    5      C      -0.5028003934     1.4800157619    -0.4267679966
    6      N       0.7877521199     1.4829284343    -0.3928005104
    7      H       2.1150813374     0.2901460171     0.8052963072
    8      H       1.5469438729    -1.6940171163    -0.5365776852
    9      H      -0.8251969367    -1.7653182510    -1.7139319785
   10      H      -2.1218070397     0.4374985998     0.6211094714
   11      H      -1.0314989926     2.3190617285    -0.8968015336
   12      C      -0.0165339895    -0.2528354337     1.0686326778
   13      H      -0.1185237522    -0.6966530407     2.0474926599
 ----------------------------------------------------------------
 Nuclear Repulsion Energy =   278.6418483130 hartrees
 There are       25 alpha and       24 beta electrons
 Requested basis set is 6-31G(d)
 There are 40 shells and 117 basis functions

 Total QAlloc Memory Limit   8000 MB
 Mega-Array Size      1956 MB
 MEM_STATIC part      2000 MB

                       Distance Matrix (Angstroms)
             C (  1)   C (  2)   C (  3)   C (  4)   C (  5)   N (  6)
   C (  2)  1.550799
   C (  3)  2.538675  1.413274
   C (  4)  2.273258  2.293309  1.793441
   C (  5)  2.164480  2.808402  2.646142  1.495832
   N (  6)  1.433254  2.539747  2.993955  2.338848  1.291003
   H (  7)  1.079629  2.234005  3.474266  3.298687  3.128430  2.149411
   H (  8)  2.210872  1.090324  2.238545  3.383048  3.779946  3.269561
   H (  9)  3.511077  2.209167  1.110859  2.784112  3.506127  3.859806
   H ( 10)  3.282377  3.318756  2.623532  1.108972  2.192275  3.253686
   H ( 11)  3.213501  3.840464  3.480195  2.324109  1.097475  2.064657
   C ( 12)  1.481992  1.728624  2.171369  1.511396  2.339968  2.407393
   H ( 13)  2.351828  2.497945  2.948347  2.329930  3.317758  3.395135
             H (  7)   H (  8)   H (  9)   H ( 10)   H ( 11)   C ( 12)
   H (  8)  2.461770
   H (  9)  4.383683  2.649207
   H ( 10)  4.243449  4.398106  3.462083
   H ( 11)  4.112737  4.783611  4.170422  2.652000
   C ( 12)  2.215391  2.664239  3.268670  2.260313  3.392306
   H ( 13)  2.739674  3.232017  3.973632  2.708138  4.312416  1.079603

 
 A cutoff of  1.0D-14 yielded    813 shell pairs
 There are      7085 function pairs
 Smallest overlap matrix eigenvalue = 1.90E-03
 Guess MOs from SCF MO coefficient file
 Reading MOs from coefficient file
 Reading MOs from coefficient file
 An unrestricted hybrid HF-DFT SCF calculation will be
 performed using Pulay DIIS extrapolation
 Exchange:     0.2000 Hartree-Fock + 0.0800 Slater + 0.7200 B88
 Correlation:  0.1900 VWN1RPA + 0.8100 LYP
 Using SG-1 standard quadrature grid
 SCF converges when DIIS error is below 1.0E-08
Using Q-Chem read-in guess as SCF_GUESS READ specified.

 -------------------------------------------------------
 OpenMP BLAS3 based DFT computing Module                
 -------------------------------------------------------
 ---------------------------------------
  Cycle       Energy         DIIS Error
 ---------------------------------------
    1    -286.7943188304      1.46E-09
    2    -286.7943188304      2.42E-09 Convergence criterion met
 ---------------------------------------
 <S^2> = 0.7649
 SCF time:  CPU 3.44 s  wall 3.75 s
 SCF   energy in the final basis set = -286.79431883
 Total energy in the final basis set = -286.79431883
 
 --------------------------------------------------------------
 
                    Orbital Energies (a.u.)
 --------------------------------------------------------------
 
 Alpha MOs
 -- Occupied --
-14.316 -10.225 -10.224 -10.220 -10.217 -10.216 -10.214  -0.963
 -0.839  -0.734  -0.692  -0.590  -0.580  -0.536  -0.513  -0.462
 -0.425  -0.407  -0.398  -0.373  -0.330  -0.289  -0.269  -0.264
 -0.157
 -- Virtual --
 -0.008   0.034   0.087   0.098   0.139   0.151   0.155   0.165
  0.173   0.193   0.214   0.266   0.288   0.298   0.346   0.397
  0.499   0.503   0.512   0.531   0.567   0.579   0.591   0.600
  0.629   0.651   0.663   0.682   0.696   0.735   0.768   0.786
  0.807   0.824   0.828   0.838   0.862   0.893   0.908   0.919
  0.965   0.989   1.053   1.083   1.162   1.248   1.276   1.367
  1.409   1.450   1.476   1.516   1.576   1.585   1.639   1.685
  1.738   1.830   1.850   1.870   1.918   1.958   1.996   2.038
  2.057   2.124   2.164   2.205   2.240   2.287   2.321   2.350
  2.434   2.464   2.495   2.539   2.548   2.589   2.653   2.676
  2.693   2.783   2.804   2.908   2.972   3.950   4.121   4.244
  4.318   4.411   4.522   4.568
 
 Beta MOs
 -- Occupied --
-14.315 -10.226 -10.223 -10.217 -10.217 -10.215 -10.202  -0.959
 -0.832  -0.732  -0.679  -0.584  -0.574  -0.531  -0.508  -0.454
 -0.421  -0.402  -0.396  -0.369  -0.317  -0.279  -0.263  -0.254
 -- Virtual --
 -0.043   0.007   0.042   0.096   0.107   0.143   0.154   0.157
  0.169   0.177   0.195   0.217   0.268   0.291   0.301   0.355
  0.400   0.505   0.508   0.520   0.547   0.569   0.584   0.596
  0.601   0.633   0.669   0.672   0.688   0.703   0.739   0.773
  0.789   0.809   0.825   0.832   0.843   0.867   0.895   0.910
  0.924   0.969   0.991   1.058   1.097   1.166   1.252   1.281
  1.371   1.414   1.459   1.482   1.525   1.581   1.598   1.645
  1.694   1.747   1.835   1.857   1.876   1.928   1.970   2.007
  2.044   2.070   2.130   2.168   2.212   2.256   2.299   2.328
  2.358   2.447   2.470   2.500   2.545   2.555   2.594   2.661
  2.680   2.696   2.786   2.811   2.910   2.974   3.951   4.136
  4.248   4.329   4.412   4.525   4.572
 --------------------------------------------------------------
 
          Ground-State Mulliken Net Atomic Charges

     Atom                 Charge (a.u.)    Spin (a.u.)
  --------------------------------------------------------
      1 C                     0.003550       0.037486
      2 C                    -0.166433      -0.147812
      3 C                    -0.101729       0.795388
      4 C                    -0.255210      -0.074576
      5 C                     0.084997       0.043448
      6 N                    -0.340229       0.025071
      7 H                     0.149626       0.004176
      8 H                     0.156359       0.005485
      9 H                     0.137324       0.003378
     10 H                     0.142548       0.006326
     11 H                     0.142782      -0.001145
     12 C                    -0.117621       0.316446
     13 H                     0.164038      -0.013670
  --------------------------------------------------------
  Sum of atomic charges =    -0.000000
  Sum of spin   charges =     1.000000

 -----------------------------------------------------------------
                    Cartesian Multipole Moments
 -----------------------------------------------------------------
    Charge (ESU x 10^10)
                -0.0000
    Dipole Moment (Debye)
         X      -0.7819      Y      -1.4334      Z       1.1147
       Tot       1.9770
    Quadrupole Moments (Debye-Ang)
        XX     -39.0373     XY      -5.2784     YY     -43.0567
        XZ       1.1807     YZ       1.2805     ZZ     -39.3414
    Octopole Moments (Debye-Ang^2)
       XXX      -3.1124    XXY      -6.4354    XYY      -7.8569
       YYY     -18.1858    XXZ       5.3697    XYZ       2.8529
       YYZ      -0.8502    XZZ      -3.6461    YZZ      -9.2937
       ZZZ       9.0370
    Hexadecapole Moments (Debye-Ang^3)
      XXXX    -217.9909   XXXY     -10.8307   XXYY     -93.3445
      XYYY     -20.6004   YYYY    -322.4547   XXXZ      -8.5358
      XXYZ       3.9164   XYYZ       2.9899   YYYZ       3.8876
      XXZZ     -63.0906   XYZZ      -0.6387   YYZZ     -73.0718
      XZZZ      -7.9872   YZZZ      -0.1081   ZZZZ    -147.1083
 -----------------------------------------------------------------
 Calculating MO derivatives via CPSCF
   1         3          39      0.272369    0.058682
   2         3          39      0.028667    0.005626
   3         3          39      0.003290    0.000667
   4         4          38      0.000378    0.000084
   5        34           8      0.000023    0.000007
   6        42           0      0.000000    0.000000    Roots Converged
 Time for AOints: 5.8 s (CPU) 5.8 s (wall)
 ------------------------------------------------------------------------------
                     AOints        : Timing summary (seconds)
 ------------------------------------------------------------------------------
     job step          cpu (% of tot)      sys (% of tot)     wall (% of tot)
 ------------------------------------------------------------------------------
  cpscf_lag         0.5566E+02 (29.6)   0.2500E-04 (39.1)   0.5572E+02 (29.5)
  iterzp            0.1266E+03 (67.3)   0.3700E-04 (57.8)   0.1272E+03 (67.3)
  make_fx           0.0000E+00 ( 0.0)   0.0000E+00 ( 0.0)   0.0000E+00 ( 0.0)
  AOints            0.5828E+01 ( 3.1)   0.0000E+00 ( 0.0)   0.5846E+01 ( 3.1)
 ------------------------------------------------------------------------------
   Grand Totals     0.1883E+03          0.6400E-04          0.1890E+03
 ------------------------------------------------------------------------------
 Calculating analytic Hessian of the SCF energy
 Polarizability Matrix (a.u.)
            1           2           3
    1 -63.4219906   3.6765657  -3.2119685
    2   3.6765657 -65.6435331  -4.3501581
    3  -3.2119685  -4.3501581 -53.1138745
 
 Direct stationary perturbation theory relativistic correction:
 
 rels  =       0.069268845922
 relv  =      -0.340484781063
 rel2e =       0.158302476218
 E_rel =      -0.112913458924
 
 Hessian of the SCF Energy
            1           2           3           4           5           6
    1   0.7191152   0.0034600   0.1466769  -0.0579935  -0.0212526  -0.0381922
    2   0.0034600   0.3688520  -0.0928351   0.0466770  -0.0992242  -0.0729258
    3   0.1466769  -0.0928351   0.3556917  -0.0018470  -0.0147072  -0.0382498
    4  -0.0579935   0.0466770  -0.0018470   0.6062706  -0.1841606   0.0674000
    5  -0.0212526  -0.0992242  -0.0147072  -0.1841606   0.3802852   0.1048535
    6  -0.0381922  -0.0729258  -0.0382498   0.0674000   0.1048535   0.1746173
    7  -0.0127004  -0.0249409  -0.0177112  -0.2842485   0.0169324  -0.0562416
    8  -0.0230218   0.0039894  -0.0050206  -0.0150452  -0.0776883  -0.0362633
    9  -0.0068229  -0.0018497  -0.0064735  -0.1173257  -0.0206264  -0.0719620
   10  -0.0501226   0.0017009  -0.0044580  -0.0289345   0.0322838   0.0198808
   11  -0.0018245  -0.0214752  -0.0075453   0.0482845  -0.0089974   0.0118884
   12  -0.0038885  -0.0038482  -0.0022292   0.0124866  -0.0054342   0.0143990
   13  -0.0479551   0.0624652  -0.0147253  -0.0262197  -0.0159230  -0.0136852
   14   0.0416107  -0.0164438   0.0194214  -0.0011153  -0.0107293  -0.0048130
   15  -0.0214735   0.0152224  -0.0132799   0.0009553   0.0035716   0.0092097
   16  -0.0855973   0.0188395  -0.0475485   0.0188992   0.0261540   0.0138111
   17   0.0083105  -0.1380759   0.0664984  -0.0195255  -0.0476796  -0.0024040
   18  -0.0171339   0.0466973  -0.1078773   0.0168674   0.0004279   0.0105073
   19  -0.2951166  -0.0036712  -0.1209465   0.0017648   0.0007464   0.0016023
   20  -0.0044709  -0.0446671   0.0047990  -0.0232982  -0.0007629  -0.0072700
   21  -0.1217196   0.0092721  -0.0982378  -0.0175717  -0.0004494  -0.0063915
   22   0.0075300  -0.0098527  -0.0033523  -0.2188993   0.1378877   0.0435205
   23   0.0177890  -0.0257040  -0.0076198   0.1393508  -0.1320730  -0.0378192
   24   0.0041444  -0.0088530  -0.0027729   0.0431545  -0.0477964  -0.0708756
   25  -0.0007193   0.0025114  -0.0050572   0.0014373  -0.0152060  -0.0135524
   26   0.0017613  -0.0008649  -0.0014944   0.0010621   0.0039590  -0.0083273
   27   0.0003059   0.0033948   0.0026974   0.0019097  -0.0057793  -0.0014311
   28  -0.0028003   0.0003226  -0.0011067  -0.0003981  -0.0009115  -0.0003658
   29   0.0000579  -0.0016278   0.0020190   0.0028271  -0.0051904  -0.0041541
   30  -0.0034989   0.0028671  -0.0030185  -0.0006226  -0.0035052  -0.0034571
   31  -0.0062942  -0.0001244  -0.0007878   0.0002596  -0.0004807   0.0000932
   32  -0.0001300   0.0052039   0.0052103  -0.0010041   0.0006679  -0.0000382
   33   0.0005476   0.0067533   0.0085910  -0.0014127   0.0021693   0.0001300
   34  -0.1725895  -0.0930499   0.0554092  -0.0106603   0.0267214  -0.0271263
   35  -0.0317191  -0.0291061   0.0267725   0.0099195  -0.0091877   0.0735411
   36   0.0606820   0.0992096  -0.0945641  -0.0041479  -0.0164306  -0.0065529
   37   0.0052436  -0.0043376   0.0154544  -0.0012779  -0.0027912   0.0028556
   38   0.0094294  -0.0008564   0.0045018  -0.0039721   0.0066207  -0.0162681
   39   0.0003728  -0.0031050  -0.0002772   0.0001540   0.0037064  -0.0099433
            7           8           9          10          11          12
    1  -0.0127004  -0.0230218  -0.0068229  -0.0501226  -0.0018245  -0.0038885
    2  -0.0249409   0.0039894  -0.0018497   0.0017009  -0.0214752  -0.0038482
    3  -0.0177112  -0.0050206  -0.0064735  -0.0044580  -0.0075453  -0.0022292
    4  -0.2842485  -0.0150452  -0.1173257  -0.0289345   0.0482845   0.0124866
    5   0.0169324  -0.0776883  -0.0206264   0.0322838  -0.0089974  -0.0054342
    6  -0.0562416  -0.0362633  -0.0719620   0.0198808   0.0118884   0.0143990
    7   0.4020098   0.0670496   0.1893568  -0.0515448  -0.0197071  -0.0063621
    8   0.0670496   0.2013464   0.1674509  -0.0057435   0.0177040   0.0312617
    9   0.1893568   0.1674509   0.3415573  -0.0110971   0.0187178  -0.0201139
   10  -0.0515448  -0.0057435  -0.0110971   0.6515701  -0.0331639  -0.0768109
   11  -0.0197071   0.0177040   0.0187178  -0.0331639   0.2600206  -0.1303270
   12  -0.0063621   0.0312617  -0.0201139  -0.0768109  -0.1303270   0.2878611
   13   0.0171977  -0.0184668  -0.0011064  -0.0986092  -0.0120277   0.0286586
   14   0.0123345  -0.0293866  -0.0011022  -0.0311305  -0.1415897   0.0607445
   15  -0.0102169  -0.0017767   0.0012215   0.0169228   0.0372762  -0.0932578
   16  -0.0218271   0.0059930  -0.0023851  -0.0451873  -0.0507059   0.0110154
   17   0.0142655  -0.0040015   0.0051632  -0.0250932   0.0139070   0.0185672
   18  -0.0070785   0.0002633   0.0004999   0.0078326   0.0055001   0.0148353
   19   0.0005055   0.0009292   0.0004457  -0.0027510  -0.0017142   0.0017800
   20  -0.0001862  -0.0044573  -0.0009638  -0.0004032   0.0002772   0.0019679
   21   0.0000749  -0.0043575  -0.0007624   0.0044035   0.0027787  -0.0009728
   22  -0.0118703   0.0161048   0.0080265  -0.0055344   0.0009698  -0.0019765
   23  -0.0083503   0.0057503   0.0022814  -0.0009393  -0.0014929  -0.0033329
   24   0.0035379   0.0062794   0.0076257  -0.0024665  -0.0018498   0.0054150
   25  -0.0607308  -0.0108696  -0.0428545   0.0001483  -0.0067011  -0.0010259
   26  -0.0257896  -0.1206920  -0.1231020  -0.0030198   0.0045104   0.0050564
   27  -0.0626765  -0.1314660  -0.1883943   0.0021894   0.0104167   0.0020485
   28   0.0032723   0.0019303  -0.0011802  -0.2512467   0.0314978   0.0846282
   29   0.0112986   0.0025777   0.0021564   0.0397231  -0.0520468  -0.0095168
   30   0.0081293   0.0029429  -0.0012446   0.0940797  -0.0052273  -0.0890016
   31  -0.0002152   0.0002931   0.0001795   0.0093862  -0.0087362   0.0062907
   32  -0.0003117   0.0002898   0.0003031   0.0111702  -0.0052907   0.0071505
   33   0.0001483   0.0001517  -0.0001017  -0.0058525   0.0031215   0.0003898
   34   0.0215637  -0.0203027  -0.0139453  -0.1358909   0.0473172  -0.0383076
   35  -0.0462395   0.0067532  -0.0506045   0.0181989  -0.0662303   0.0237565
   36  -0.0421061  -0.0278363  -0.0624348  -0.0498167   0.0531278  -0.1175064
   37  -0.0014120   0.0011494  -0.0012914   0.0087169   0.0065112  -0.0164881
   38   0.0036448  -0.0021851   0.0021759  -0.0035836   0.0007036   0.0039544
   39   0.0011457  -0.0016296   0.0005827   0.0051930   0.0021222  -0.0018672
           13          14          15          16          17          18
    1  -0.0479551   0.0416107  -0.0214735  -0.0855973   0.0083105  -0.0171339
    2   0.0624652  -0.0164438   0.0152224   0.0188395  -0.1380759   0.0466973
    3  -0.0147253   0.0194214  -0.0132799  -0.0475485   0.0664984  -0.1078773
    4  -0.0262197  -0.0011153   0.0009553   0.0188992  -0.0195255   0.0168674
    5  -0.0159230  -0.0107293   0.0035716   0.0261540  -0.0476796   0.0004279
    6  -0.0136852  -0.0048130   0.0092097   0.0138111  -0.0024040   0.0105073
    7   0.0171977   0.0123345  -0.0102169  -0.0218271   0.0142655  -0.0070785
    8  -0.0184668  -0.0293866  -0.0017767   0.0059930  -0.0040015   0.0002633
    9  -0.0011064  -0.0011022   0.0012215  -0.0023851   0.0051632   0.0004999
   10  -0.0986092  -0.0311305   0.0169228  -0.0451873  -0.0250932   0.0078326
   11  -0.0120277  -0.1415897   0.0372762  -0.0507059   0.0139070   0.0055001
   12   0.0286586   0.0607445  -0.0932578   0.0110154   0.0185672   0.0148353
   13   0.7943582  -0.1018183   0.0775832  -0.5251787   0.0113861  -0.0231155
   14  -0.1018183   0.5250755  -0.2124047  -0.0201709  -0.0935291   0.0224935
   15   0.0775832  -0.2124047   0.2716966  -0.0079617   0.0238858  -0.0683384
   16  -0.5251787  -0.0201709  -0.0079617   0.6895746   0.0012012   0.0311412
   17   0.0113861  -0.0935291   0.0238858   0.0012012   0.2979036  -0.1218999
   18  -0.0231155   0.0224935  -0.0683384   0.0311412  -0.1218999   0.1753999
   19   0.0002563   0.0000454  -0.0008583  -0.0015020   0.0025959  -0.0003978
   20   0.0005575  -0.0051718   0.0040225   0.0288672  -0.0008881   0.0114681
   21  -0.0010772   0.0034873  -0.0009582  -0.0127141  -0.0012000  -0.0070874
   22  -0.0001250  -0.0011634   0.0011411   0.0005342   0.0000815  -0.0015136
   23   0.0030326   0.0003340   0.0000674  -0.0020199   0.0013586  -0.0036214
   24   0.0001496  -0.0009970   0.0015618   0.0008685  -0.0003938  -0.0010653
   25   0.0007070  -0.0006002   0.0000506  -0.0000711   0.0011669   0.0001988
   26  -0.0013547  -0.0000119  -0.0006695   0.0014109  -0.0017369  -0.0001684
   27  -0.0006864  -0.0004840   0.0014825   0.0004911  -0.0000465  -0.0001226
   28  -0.0090021   0.0027140   0.0012396  -0.0020372  -0.0014629   0.0014013
   29  -0.0266063   0.0081846   0.0069625  -0.0038589  -0.0058679   0.0015484
   30   0.0108775  -0.0051551  -0.0013479   0.0028368   0.0023929   0.0006246
   31  -0.1083030   0.0857489  -0.0493349  -0.0214933   0.0275803  -0.0173026
   32   0.0916900  -0.2142430   0.0970690   0.0032911   0.0032319  -0.0041070
   33  -0.0527612   0.0991794  -0.0932698  -0.0008838  -0.0052308  -0.0029561
   34   0.0056346   0.0145143  -0.0057259  -0.0049130  -0.0208181   0.0070203
   35   0.0094258  -0.0201836   0.0238186  -0.0107594  -0.0193322   0.0370985
   36  -0.0095837   0.0190647  -0.0151584   0.0119634   0.0164836  -0.0158810
   37  -0.0027609  -0.0009693  -0.0023215  -0.0012009   0.0003119   0.0020803
   38  -0.0023604  -0.0023052   0.0029548   0.0017582  -0.0052899   0.0042995
   39  -0.0005281   0.0005652   0.0004383  -0.0006343  -0.0018162   0.0014610
           19          20          21          22          23          24
    1  -0.2951166  -0.0044709  -0.1217196   0.0075300   0.0177890   0.0041444
    2  -0.0036712  -0.0446671   0.0092721  -0.0098527  -0.0257040  -0.0088530
    3  -0.1209465   0.0047990  -0.0982378  -0.0033523  -0.0076198  -0.0027729
    4   0.0017648  -0.0232982  -0.0175717  -0.2188993   0.1393508   0.0431545
    5   0.0007464  -0.0007629  -0.0004494   0.1378877  -0.1320730  -0.0477964
    6   0.0016023  -0.0072700  -0.0063915   0.0435205  -0.0378192  -0.0708756
    7   0.0005055  -0.0001862   0.0000749  -0.0118703  -0.0083503   0.0035379
    8   0.0009292  -0.0044573  -0.0043575   0.0161048   0.0057503   0.0062794
    9   0.0004457  -0.0009638  -0.0007624   0.0080265   0.0022814   0.0076257
   10  -0.0027510  -0.0004032   0.0044035  -0.0055344  -0.0009393  -0.0024665
   11  -0.0017142   0.0002772   0.0027787   0.0009698  -0.0014929  -0.0018498
   12   0.0017800   0.0019679  -0.0009728  -0.0019765  -0.0033329   0.0054150
   13   0.0002563   0.0005575  -0.0010772  -0.0001250   0.0030326   0.0001496
   14   0.0000454  -0.0051718   0.0034873  -0.0011634   0.0003340  -0.0009970
   15  -0.0008583   0.0040225  -0.0009582   0.0011411   0.0000674   0.0015618
   16  -0.0015020   0.0288672  -0.0127141   0.0005342  -0.0020199   0.0008685
   17   0.0025959  -0.0008881  -0.0012000   0.0000815   0.0013586  -0.0003938
   18  -0.0003978   0.0114681  -0.0070874  -0.0015136  -0.0036214  -0.0010653
   19   0.3133854   0.0001405   0.1283520   0.0005525  -0.0006931  -0.0000878
   20   0.0001405   0.0539593  -0.0076433   0.0001372   0.0017914  -0.0001438
   21   0.1283520  -0.0076433   0.1015491   0.0008442   0.0015680   0.0005483
   22   0.0005525   0.0001372   0.0008442   0.2284388  -0.1418144  -0.0445610
   23  -0.0006931   0.0017914   0.0015680  -0.1418144   0.1517569   0.0483022
   24  -0.0000878  -0.0001438   0.0005483  -0.0445610   0.0483022   0.0461355
   25   0.0003990  -0.0005628  -0.0004608   0.0003628  -0.0000887   0.0010879
   26  -0.0000360   0.0005627   0.0002571  -0.0007213  -0.0007964   0.0008064
   27   0.0001202  -0.0002381  -0.0001940  -0.0000771   0.0006669  -0.0008051
   28  -0.0004429   0.0001203   0.0007250   0.0002607  -0.0005420   0.0003468
   29   0.0000155   0.0003681  -0.0001740   0.0014363   0.0002823   0.0004271
   30  -0.0007602  -0.0001903   0.0009697   0.0003960  -0.0001977   0.0010623
   31  -0.0001661   0.0015743  -0.0006577   0.0001665   0.0002354  -0.0001697
   32   0.0000487  -0.0004550   0.0000581   0.0002339   0.0005997  -0.0000822
   33  -0.0001278  -0.0006108   0.0009388   0.0000824   0.0006880   0.0006603
   34  -0.0175687  -0.0025301   0.0208055  -0.0017003  -0.0060962  -0.0058918
   35   0.0011797  -0.0007180  -0.0027734  -0.0036954  -0.0025499   0.0032273
   36  -0.0096221  -0.0053989   0.0106234  -0.0027047  -0.0007942   0.0116460
   37   0.0006838   0.0000545  -0.0010040   0.0002838   0.0001360  -0.0001126
   38   0.0004131   0.0001614  -0.0008238   0.0003959   0.0007430   0.0010737
   39   0.0005004   0.0002014  -0.0000252   0.0001745  -0.0001886   0.0008640
           25          26          27          28          29          30
    1  -0.0007193   0.0017613   0.0003059  -0.0028003   0.0000579  -0.0034989
    2   0.0025114  -0.0008649   0.0033948   0.0003226  -0.0016278   0.0028671
    3  -0.0050572  -0.0014944   0.0026974  -0.0011067   0.0020190  -0.0030185
    4   0.0014373   0.0010621   0.0019097  -0.0003981   0.0028271  -0.0006226
    5  -0.0152060   0.0039590  -0.0057793  -0.0009115  -0.0051904  -0.0035052
    6  -0.0135524  -0.0083273  -0.0014311  -0.0003658  -0.0041541  -0.0034571
    7  -0.0607308  -0.0257896  -0.0626765   0.0032723   0.0112986   0.0081293
    8  -0.0108696  -0.1206920  -0.1314660   0.0019303   0.0025777   0.0029429
    9  -0.0428545  -0.1231020  -0.1883943  -0.0011802   0.0021564  -0.0012446
   10   0.0001483  -0.0030198   0.0021894  -0.2512467   0.0397231   0.0940797
   11  -0.0067011   0.0045104   0.0104167   0.0314978  -0.0520468  -0.0052273
   12  -0.0010259   0.0050564   0.0020485   0.0846282  -0.0095168  -0.0890016
   13   0.0007070  -0.0013547  -0.0006864  -0.0090021  -0.0266063   0.0108775
   14  -0.0006002  -0.0000119  -0.0004840   0.0027140   0.0081846  -0.0051551
   15   0.0000506  -0.0006695   0.0014825   0.0012396   0.0069625  -0.0013479
   16  -0.0000711   0.0014109   0.0004911  -0.0020372  -0.0038589   0.0028368
   17   0.0011669  -0.0017369  -0.0000465  -0.0014629  -0.0058679   0.0023929
   18   0.0001988  -0.0001684  -0.0001226   0.0014013   0.0015484   0.0006246
   19   0.0003990  -0.0000360   0.0001202  -0.0004429   0.0000155  -0.0007602
   20  -0.0005628   0.0005627  -0.0002381   0.0001203   0.0003681  -0.0001903
   21  -0.0004608   0.0002571  -0.0001940   0.0007250  -0.0001740   0.0009697
   22   0.0003628  -0.0007213  -0.0000771   0.0002607   0.0014363   0.0003960
   23  -0.0000887  -0.0007964   0.0006669  -0.0005420   0.0002823  -0.0001977
   24   0.0010879   0.0008064  -0.0008051   0.0003468   0.0004271   0.0010623
   25   0.0559857   0.0331213   0.0610587   0.0002533   0.0007199   0.0012448
   26   0.0331213   0.1108764   0.1292669  -0.0000207  -0.0004253  -0.0005036
   27   0.0610587   0.1292669   0.1963749  -0.0000634  -0.0005122  -0.0006057
   28   0.0002533  -0.0000207  -0.0000634   0.2731490  -0.0312447  -0.0946354
   29   0.0007199  -0.0004253  -0.0005122  -0.0312447   0.0534408   0.0074234
   30   0.0012448  -0.0005036  -0.0006057  -0.0946354   0.0074234   0.0840900
   31   0.0001646  -0.0001151   0.0000452   0.0001423   0.0009733  -0.0004912
   32   0.0001918  -0.0003780  -0.0000080  -0.0006100  -0.0001007   0.0001114
   33  -0.0001554  -0.0000503   0.0001040  -0.0000198  -0.0005918  -0.0001627
   34   0.0017563  -0.0055177  -0.0025803  -0.0117517   0.0048704  -0.0187251
   35  -0.0035897   0.0059807  -0.0041028  -0.0016642   0.0003377  -0.0005789
   36  -0.0008898  -0.0001051  -0.0105989   0.0093968  -0.0055287   0.0117395
   37   0.0003068  -0.0007807  -0.0000365   0.0006013  -0.0002123   0.0011693
   38  -0.0000931  -0.0009837  -0.0011083  -0.0001292   0.0000678  -0.0003798
   39   0.0003551  -0.0009661  -0.0005556  -0.0003664  -0.0000593   0.0003518
           31          32          33          34          35          36
    1  -0.0062942  -0.0001300   0.0005476  -0.1725895  -0.0317191   0.0606820
    2  -0.0001244   0.0052039   0.0067533  -0.0930499  -0.0291061   0.0992096
    3  -0.0007878   0.0052103   0.0085910   0.0554092   0.0267725  -0.0945641
    4   0.0002596  -0.0010041  -0.0014127  -0.0106603   0.0099195  -0.0041479
    5  -0.0004807   0.0006679   0.0021693   0.0267214  -0.0091877  -0.0164306
    6   0.0000932  -0.0000382   0.0001300  -0.0271263   0.0735411  -0.0065529
    7  -0.0002152  -0.0003117   0.0001483   0.0215637  -0.0462395  -0.0421061
    8   0.0002931   0.0002898   0.0001517  -0.0203027   0.0067532  -0.0278363
    9   0.0001795   0.0003031  -0.0001017  -0.0139453  -0.0506045  -0.0624348
   10   0.0093862   0.0111702  -0.0058525  -0.1358909   0.0181989  -0.0498167
   11  -0.0087362  -0.0052907   0.0031215   0.0473172  -0.0662303   0.0531278
   12   0.0062907   0.0071505   0.0003898  -0.0383076   0.0237565  -0.1175064
   13  -0.1083030   0.0916900  -0.0527612   0.0056346   0.0094258  -0.0095837
   14   0.0857489  -0.2142430   0.0991794   0.0145143  -0.0201836   0.0190647
   15  -0.0493349   0.0970690  -0.0932698  -0.0057259   0.0238186  -0.0151584
   16  -0.0214933   0.0032911  -0.0008838  -0.0049130  -0.0107594   0.0119634
   17   0.0275803   0.0032319  -0.0052308  -0.0208181  -0.0193322   0.0164836
   18  -0.0173026  -0.0041070  -0.0029561   0.0070203   0.0370985  -0.0158810
   19  -0.0001661   0.0000487  -0.0001278  -0.0175687   0.0011797  -0.0096221
   20   0.0015743  -0.0004550  -0.0006108  -0.0025301  -0.0007180  -0.0053989
   21  -0.0006577   0.0000581   0.0009388   0.0208055  -0.0027734   0.0106234
   22   0.0001665   0.0002339   0.0000824  -0.0017003  -0.0036954  -0.0027047
   23   0.0002354   0.0005997   0.0006880  -0.0060962  -0.0025499  -0.0007942
   24  -0.0001697  -0.0000822   0.0006603  -0.0058918   0.0032273   0.0116460
   25   0.0001646   0.0001918  -0.0001554   0.0017563  -0.0035897  -0.0008898
   26  -0.0001151  -0.0003780  -0.0000503  -0.0055177   0.0059807  -0.0001051
   27   0.0000452  -0.0000080   0.0001040  -0.0025803  -0.0041028  -0.0105989
   28   0.0001423  -0.0006100  -0.0000198  -0.0117517  -0.0016642   0.0093968
   29   0.0009733  -0.0001007  -0.0005918   0.0048704   0.0003377  -0.0055287
   30  -0.0004912   0.0001114  -0.0001627  -0.0187251  -0.0005789   0.0117395
   31   0.1268753  -0.1040004   0.0607562  -0.0012657  -0.0027184   0.0012484
   32  -0.1040004   0.2131482  -0.1057552  -0.0012812  -0.0023900   0.0002693
   33   0.0607562  -0.1057552   0.0867753  -0.0000200  -0.0000625  -0.0005830
   34  -0.0012657  -0.0012812  -0.0000200   0.3811109   0.0711311   0.0085866
   35  -0.0027184  -0.0023900  -0.0000625   0.0711311   0.2134286  -0.2676134
   36   0.0012484   0.0002693  -0.0005830   0.0085866  -0.2676134   0.5912309
   37   0.0007432   0.0007117  -0.0003014  -0.0537253  -0.0094694   0.0269938
   38  -0.0002300  -0.0002841   0.0002382  -0.0149586  -0.0768024   0.1355521
   39   0.0001305  -0.0001812  -0.0005160   0.0205007   0.1375210  -0.3019604
           37          38          39
    1   0.0052436   0.0094294   0.0003728
    2  -0.0043376  -0.0008564  -0.0031050
    3   0.0154544   0.0045018  -0.0002772
    4  -0.0012779  -0.0039721   0.0001540
    5  -0.0027912   0.0066207   0.0037064
    6   0.0028556  -0.0162681  -0.0099433
    7  -0.0014120   0.0036448   0.0011457
    8   0.0011494  -0.0021851  -0.0016296
    9  -0.0012914   0.0021759   0.0005827
   10   0.0087169  -0.0035836   0.0051930
   11   0.0065112   0.0007036   0.0021222
   12  -0.0164881   0.0039544  -0.0018672
   13  -0.0027609  -0.0023604  -0.0005281
   14  -0.0009693  -0.0023052   0.0005652
   15  -0.0023215   0.0029548   0.0004383
   16  -0.0012009   0.0017582  -0.0006343
   17   0.0003119  -0.0052899  -0.0018162
   18   0.0020803   0.0042995   0.0014610
   19   0.0006838   0.0004131   0.0005004
   20   0.0000545   0.0001614   0.0002014
   21  -0.0010040  -0.0008238  -0.0000252
   22   0.0002838   0.0003959   0.0001745
   23   0.0001360   0.0007430  -0.0001886
   24  -0.0001126   0.0010737   0.0008640
   25   0.0003068  -0.0000931   0.0003551
   26  -0.0007807  -0.0009837  -0.0009661
   27  -0.0000365  -0.0011083  -0.0005556
   28   0.0006013  -0.0001292  -0.0003664
   29  -0.0002123   0.0000678  -0.0000593
   30   0.0011693  -0.0003798   0.0003518
   31   0.0007432  -0.0002300   0.0001305
   32   0.0007117  -0.0002841  -0.0001812
   33  -0.0003014   0.0002382  -0.0005160
   34  -0.0537253  -0.0149586   0.0205007
   35  -0.0094694  -0.0768024   0.1375210
   36   0.0269938   0.1355521  -0.3019604
   37   0.0437975   0.0096857  -0.0269979
   38   0.0096857   0.0804105  -0.1361703
   39  -0.0269979  -0.1361703   0.3114472
 Gradient time:  CPU 252.55 s  wall 253.74 s
 **********************************************************************
 **                                                                  **
 **                       VIBRATIONAL ANALYSIS                       **
 **                       --------------------                       **
 **                                                                  **
 **        VIBRATIONAL FREQUENCIES (CM**-1) AND NORMAL MODES         **
 **     FORCE CONSTANTS (mDYN/ANGSTROM) AND REDUCED MASSES (AMU)     **
 **                  INFRARED INTENSITIES (KM/MOL)                   **
 **                                                                  **
 **********************************************************************
 

 Mode:                 1                      2                      3
 Frequency:      -478.19                 -81.72                 412.61
 Force Cnst:      0.6573                 0.0188                 0.4796
 Red. Mass:       4.8790                 4.7886                 4.7808
 IR Active:          YES                    YES                    YES
 IR Intens:        1.582                  6.249                  1.075
 Raman Active:       YES                    YES                    YES
               X      Y      Z        X      Y      Z        X      Y      Z
 C          0.068  0.133 -0.028    0.015 -0.095  0.013   -0.024 -0.015  0.085
 C         -0.119 -0.027  0.330    0.090  0.072 -0.106    0.016  0.028  0.075
 C         -0.114  0.162 -0.022   -0.075  0.348  0.180    0.131  0.267 -0.211
 C          0.025 -0.106 -0.106    0.020 -0.278 -0.181   -0.023  0.066  0.214
 C         -0.011 -0.006 -0.029    0.022 -0.094 -0.070   -0.048 -0.106 -0.017
 N         -0.022  0.068  0.003   -0.007 -0.018  0.018   -0.043 -0.221 -0.215
 H          0.083  0.103 -0.067   -0.016  0.004  0.086   -0.021  0.086  0.079
 H         -0.151 -0.151  0.588   -0.059 -0.059 -0.269    0.024  0.079 -0.039
 H         -0.133  0.352 -0.136   -0.463  0.249  0.387    0.260  0.517 -0.416
 H          0.075 -0.062  0.015   -0.002 -0.241 -0.227   -0.038  0.025  0.190
 H         -0.042 -0.029 -0.036   -0.004 -0.100 -0.057   -0.062 -0.212 -0.185
 C          0.176 -0.267 -0.183   -0.014  0.077  0.140   -0.019 -0.024  0.124
 H          0.171  0.177  0.033   -0.051  0.048  0.119    0.038  0.006  0.146
 TransDip  -0.029  0.028 -0.001   -0.065 -0.023 -0.041   -0.010  0.019  0.025

 Mode:                 4                      5                      6
 Frequency:       455.94                 582.75                 653.07
 Force Cnst:      0.3482                 0.4705                 0.3523
 Red. Mass:       2.8431                 2.3513                 1.4018
 IR Active:          YES                    YES                    YES
 IR Intens:        1.381                  7.219                 41.938
 Raman Active:       YES                    YES                    YES
               X      Y      Z        X      Y      Z        X      Y      Z
 C         -0.024 -0.103 -0.132    0.001 -0.014 -0.019   -0.022  0.011  0.023
 C          0.051 -0.143  0.096   -0.097 -0.120 -0.012    0.027 -0.001 -0.014
 C          0.100  0.031 -0.038   -0.023 -0.033 -0.112   -0.049 -0.072  0.143
 C         -0.000 -0.047 -0.097    0.045 -0.036  0.022    0.010 -0.009 -0.039
 C         -0.038  0.151  0.189   -0.008 -0.093 -0.089    0.009  0.028  0.013
 N         -0.037 -0.019 -0.084   -0.011  0.097  0.139    0.010 -0.013 -0.042
 H         -0.045  0.012 -0.084    0.059 -0.133 -0.140   -0.031  0.017  0.041
 H          0.003 -0.236  0.169   -0.028  0.037 -0.208    0.068  0.120 -0.206
 H          0.089  0.034 -0.028    0.099  0.261 -0.351    0.290  0.718 -0.537
 H         -0.057 -0.186 -0.179    0.051 -0.009  0.024    0.006 -0.021 -0.045
 H         -0.048  0.350  0.539   -0.047 -0.152 -0.143    0.010  0.055  0.057
 C         -0.039  0.097  0.028    0.070  0.129  0.088   -0.014 -0.014 -0.017
 H         -0.014  0.457  0.194    0.151  0.643  0.333   -0.026 -0.042 -0.031
 TransDip  -0.017  0.034  0.004   -0.014  0.029 -0.080    0.096  0.184 -0.006

 Mode:                 7                      8                      9
 Frequency:       705.04                 731.10                 804.95
 Force Cnst:      0.4429                 1.8040                 1.5139
 Red. Mass:       1.5123                 5.7283                 3.9656
 IR Active:          YES                    YES                    YES
 IR Intens:        8.773                  1.718                  5.288
 Raman Active:       YES                    YES                    YES
               X      Y      Z        X      Y      Z        X      Y      Z
 C         -0.079  0.012  0.043    0.015  0.229  0.216   -0.151  0.048  0.078
 C          0.065  0.011 -0.045   -0.224  0.128 -0.026   -0.052 -0.207  0.013
 C         -0.003 -0.004  0.026   -0.116 -0.119 -0.151    0.014  0.008 -0.037
 C         -0.013  0.016  0.030    0.021 -0.224 -0.113    0.212 -0.014  0.001
 C          0.029  0.037 -0.003    0.084 -0.025  0.230    0.001  0.153 -0.075
 N          0.028  0.002 -0.033    0.127 -0.105 -0.170    0.005  0.165 -0.123
 H         -0.156  0.041  0.205    0.099  0.022  0.037   -0.041  0.073 -0.159
 H          0.105  0.141 -0.271   -0.028  0.454 -0.212    0.149  0.167 -0.316
 H         -0.141 -0.123  0.157   -0.011 -0.351 -0.016   -0.246 -0.077  0.111
 H          0.004  0.045  0.060    0.020 -0.246 -0.124    0.134 -0.101 -0.157
 H          0.035  0.011 -0.059    0.048 -0.025  0.279   -0.167  0.046 -0.089
 C         -0.026 -0.146 -0.052    0.057  0.131  0.040    0.001 -0.140  0.215
 H          0.093  0.750  0.375    0.053  0.172  0.063   -0.204 -0.588 -0.001
 TransDip  -0.014  0.089  0.029    0.012 -0.023  0.033   -0.054 -0.038 -0.034

 Mode:                10                     11                     12
 Frequency:       811.76                 866.54                 917.38
 Force Cnst:      1.6404                 1.1387                 0.7840
 Red. Mass:       4.2251                 2.5739                 1.5811
 IR Active:          YES                    YES                    YES
 IR Intens:        3.365                 23.965                  2.873
 Raman Active:       YES                    YES                    YES
               X      Y      Z        X      Y      Z        X      Y      Z
 C         -0.096 -0.115 -0.199    0.010  0.020  0.012   -0.024 -0.046  0.058
 C         -0.037  0.293  0.072    0.052 -0.097 -0.035    0.024  0.063 -0.099
 C          0.007 -0.057 -0.025   -0.029  0.010 -0.021   -0.052 -0.047 -0.026
 C         -0.031 -0.097  0.053   -0.019 -0.071  0.109    0.066 -0.025  0.001
 C          0.122 -0.064 -0.021    0.056 -0.120  0.075   -0.024  0.122  0.020
 N          0.103  0.153 -0.059    0.088  0.190 -0.101   -0.033 -0.017 -0.012
 H         -0.020 -0.333 -0.375   -0.236  0.143  0.533   -0.042  0.013  0.099
 H         -0.122  0.092  0.313   -0.099 -0.395  0.245   -0.146 -0.409  0.612
 H          0.400 -0.052 -0.143   -0.180  0.144 -0.077    0.014  0.060 -0.128
 H         -0.066  0.153 -0.113    0.036  0.054  0.196    0.041 -0.205  0.001
 H         -0.030 -0.019  0.221   -0.205 -0.284  0.082    0.053 -0.116 -0.496
 C         -0.103 -0.124  0.176   -0.101  0.068 -0.092    0.040  0.000  0.045
 H          0.064 -0.016  0.251   -0.156 -0.041 -0.154    0.170  0.088  0.096
 TransDip  -0.025 -0.008 -0.052   -0.096 -0.086  0.089    0.049  0.001  0.023

 Mode:                13                     14                     15
 Frequency:       926.58                 952.64                 991.73
 Force Cnst:      0.7775                 0.8041                 1.0026
 Red. Mass:       1.5371                 1.5038                 1.7302
 IR Active:          YES                    YES                    YES
 IR Intens:       16.244                  3.970                  5.473
 Raman Active:       YES                    YES                    YES
               X      Y      Z        X      Y      Z        X      Y      Z
 C          0.024 -0.007  0.081   -0.073  0.022  0.009   -0.034 -0.048 -0.009
 C          0.015  0.048 -0.054    0.015 -0.041 -0.009   -0.005  0.033  0.055
 C         -0.043 -0.023 -0.021   -0.001 -0.006 -0.024   -0.003 -0.001 -0.023
 C          0.100  0.043 -0.020   -0.129 -0.037  0.023    0.030 -0.134  0.081
 C         -0.028 -0.067 -0.101    0.035  0.029 -0.090    0.009  0.103 -0.102
 N         -0.050 -0.016 -0.010    0.037 -0.005  0.011    0.007 -0.020  0.020
 H          0.024  0.133  0.087   -0.188  0.126  0.254   -0.071 -0.118  0.060
 H         -0.101 -0.205  0.235    0.044 -0.035  0.077    0.106  0.206 -0.033
 H         -0.033 -0.003 -0.043   -0.079  0.038 -0.029    0.014 -0.017 -0.014
 H          0.156  0.186  0.061   -0.158  0.004 -0.049    0.265 -0.285  0.697
 H         -0.136  0.346  0.745    0.160  0.314  0.258    0.184  0.288  0.012
 C          0.015 -0.024  0.028    0.066  0.022  0.036   -0.022  0.063 -0.075
 H         -0.197  0.123  0.078    0.740 -0.237 -0.017   -0.288  0.004 -0.138
 TransDip   0.012  0.080  0.101   -0.013  0.035  0.052    0.008  0.074  0.007

 Mode:                16                     17                     18
 Frequency:      1012.64                1038.05                1094.05
 Force Cnst:      1.2003                 1.0775                 1.2743
 Red. Mass:       1.9868                 1.6973                 1.8070
 IR Active:          YES                    YES                    YES
 IR Intens:        1.981                  4.795                  1.186
 Raman Active:       YES                    YES                    YES
               X      Y      Z        X      Y      Z        X      Y      Z
 C          0.196 -0.061  0.065   -0.088 -0.076 -0.020    0.036 -0.145  0.068
 C         -0.040 -0.001  0.008   -0.088  0.037  0.032    0.058  0.037  0.070
 C         -0.008  0.002  0.002    0.013  0.049  0.042   -0.028 -0.044 -0.056
 C         -0.115 -0.031  0.003    0.152  0.034 -0.019   -0.040  0.012 -0.113
 C         -0.033  0.083 -0.050   -0.019 -0.027  0.017   -0.038  0.018  0.042
 N         -0.015  0.077 -0.054   -0.020 -0.006  0.007   -0.045  0.050 -0.049
 H          0.125  0.122  0.242   -0.327 -0.064  0.470   -0.011 -0.258  0.176
 H         -0.395 -0.294 -0.474   -0.172  0.028 -0.217    0.209  0.274 -0.069
 H          0.499 -0.221 -0.005    0.492 -0.228  0.089   -0.306  0.057 -0.036
 H         -0.111 -0.078  0.049    0.119 -0.054 -0.097    0.209  0.603  0.308
 H          0.033  0.128 -0.069   -0.198 -0.138  0.037   -0.174 -0.141 -0.096
 C          0.013 -0.054  0.050    0.031  0.034 -0.076    0.054  0.026  0.023
 H         -0.093  0.014  0.082    0.353 -0.068 -0.106    0.198 -0.087 -0.015
 TransDip   0.026  0.030  0.021    0.008 -0.016  0.068    0.034  0.007 -0.003

 Mode:                19                     20                     21
 Frequency:      1099.30                1131.02                1223.88
 Force Cnst:      1.2008                 1.0306                 1.3739
 Red. Mass:       1.6865                 1.3674                 1.5568
 IR Active:          YES                    YES                    YES
 IR Intens:       16.151                  6.446                 10.971
 Raman Active:       YES                    YES                    YES
               X      Y      Z        X      Y      Z        X      Y      Z
 C          0.056  0.023 -0.152   -0.093  0.075 -0.007   -0.030 -0.037 -0.006
 C          0.016  0.031  0.047   -0.002 -0.042 -0.041    0.049 -0.065 -0.040
 C         -0.066 -0.050 -0.061    0.040  0.032  0.026   -0.136  0.064 -0.004
 C          0.054 -0.017 -0.005   -0.027 -0.048 -0.066   -0.059  0.012  0.004
 C          0.031  0.015  0.021    0.033 -0.003  0.036    0.013 -0.016  0.011
 N         -0.029 -0.058  0.052    0.001 -0.027  0.020    0.009  0.017 -0.008
 H         -0.218  0.720  0.445    0.019  0.207 -0.253   -0.058  0.115  0.056
 H          0.020  0.095 -0.151   -0.210 -0.303 -0.040    0.456  0.322  0.320
 H         -0.170  0.023 -0.088    0.333 -0.085  0.023    0.550 -0.265 -0.000
 H          0.064  0.179 -0.046    0.268  0.557  0.454   -0.093  0.027 -0.071
 H          0.139 -0.009 -0.143    0.076 -0.042 -0.081    0.024 -0.014  0.002
 C         -0.031 -0.013  0.083    0.007 -0.009  0.020    0.109  0.004  0.020
 H         -0.142 -0.060  0.059    0.003 -0.025  0.013   -0.356  0.025 -0.014
 TransDip  -0.020  0.093 -0.086    0.080 -0.004  0.013    0.033  0.073  0.069

 Mode:                22                     23                     24
 Frequency:      1272.93                1308.13                1335.87
 Force Cnst:      1.7029                 1.5353                 2.1012
 Red. Mass:       1.7837                 1.5228                 1.9985
 IR Active:          YES                    YES                    YES
 IR Intens:       13.509                 10.660                  6.940
 Raman Active:       YES                    YES                    YES
               X      Y      Z        X      Y      Z        X      Y      Z
 C         -0.080  0.021 -0.043    0.064  0.072 -0.021    0.110  0.101 -0.087
 C         -0.046  0.035 -0.013   -0.012 -0.031 -0.029   -0.082 -0.050 -0.081
 C          0.101 -0.030  0.014    0.005  0.017  0.011    0.047  0.021  0.042
 C         -0.060  0.029 -0.024    0.053 -0.116  0.093   -0.021  0.054 -0.096
 C         -0.022 -0.039  0.024   -0.025  0.051 -0.015   -0.058 -0.002 -0.007
 N          0.004  0.010 -0.014   -0.053 -0.022 -0.001    0.049 -0.024  0.006
 H         -0.285 -0.330  0.369   -0.039 -0.496  0.193   -0.111 -0.361  0.390
 H         -0.216 -0.149 -0.063    0.086  0.052  0.100    0.221  0.206  0.329
 H         -0.226  0.142  0.011    0.098 -0.018  0.009    0.092  0.028  0.035
 H         -0.077 -0.015 -0.034   -0.053  0.632 -0.412    0.178 -0.230  0.480
 H          0.295  0.119 -0.053    0.183  0.168 -0.063   -0.187 -0.056  0.051
 C          0.193 -0.008  0.042   -0.045  0.001 -0.022   -0.081 -0.061  0.100
 H         -0.590  0.004 -0.020   -0.007  0.025 -0.010    0.147 -0.017  0.169
 TransDip  -0.100 -0.060  0.012    0.065  0.071 -0.040    0.035 -0.061  0.047

 Mode:                25                     26                     27
 Frequency:      1355.98                1390.66                1623.25
 Force Cnst:      1.6423                 2.6977                10.0687
 Red. Mass:       1.5160                 2.3676                 6.4856
 IR Active:          YES                    YES                    YES
 IR Intens:       11.449                  5.198                 30.112
 Raman Active:       YES                    YES                    YES
               X      Y      Z        X      Y      Z        X      Y      Z
 C          0.010  0.001  0.016   -0.035  0.134 -0.044    0.033  0.049  0.003
 C          0.023 -0.014  0.010    0.218  0.004  0.093   -0.039 -0.027 -0.027
 C         -0.037  0.011 -0.006   -0.176 -0.006 -0.077    0.038 -0.010  0.010
 C          0.050  0.052 -0.036    0.012  0.038 -0.021   -0.066  0.027 -0.007
 C         -0.000 -0.118  0.060   -0.012  0.006 -0.007    0.533  0.053 -0.014
 N         -0.084  0.068 -0.044    0.023 -0.050  0.027   -0.408 -0.008 -0.018
 H          0.030 -0.081 -0.026   -0.088 -0.635  0.046   -0.043 -0.321  0.149
 H          0.045  0.016 -0.016   -0.181 -0.391 -0.364    0.020  0.024  0.034
 H          0.068 -0.059  0.004    0.104 -0.175 -0.088   -0.006  0.016  0.015
 H          0.099 -0.175  0.126    0.016 -0.201  0.064   -0.055 -0.285  0.134
 H          0.853  0.304 -0.129   -0.186 -0.080  0.049   -0.311 -0.394  0.212
 C         -0.058 -0.008  0.010   -0.006  0.015  0.050    0.014 -0.001  0.010
 H          0.208 -0.035  0.024   -0.005 -0.094  0.006   -0.047 -0.013 -0.000
 TransDip   0.095 -0.037  0.038   -0.053  0.044 -0.025    0.118  0.130  0.008

 Mode:                28                     29                     30
 Frequency:      2961.35                2993.17                3110.96
 Force Cnst:      5.6347                 5.7495                 6.2362
 Red. Mass:       1.0905                 1.0892                 1.0937
 IR Active:          YES                    YES                    YES
 IR Intens:       28.472                 15.462                 23.598
 Raman Active:       YES                    YES                    YES
               X      Y      Z        X      Y      Z        X      Y      Z
 C          0.001  0.001  0.000    0.000 -0.000  0.000   -0.000  0.001 -0.000
 C          0.002  0.002  0.001    0.001 -0.001  0.000    0.000 -0.001 -0.000
 C         -0.027 -0.049 -0.066   -0.000 -0.002 -0.003   -0.000  0.000  0.000
 C          0.004  0.002 -0.000   -0.080  0.009  0.031    0.005  0.002 -0.003
 C         -0.000 -0.000  0.001    0.002 -0.002  0.001    0.043 -0.067  0.038
 N          0.000 -0.000  0.000    0.000  0.000  0.000   -0.002 -0.000  0.000
 H          0.002  0.000  0.000    0.001  0.001  0.001   -0.007 -0.001 -0.004
 H          0.034 -0.032 -0.014   -0.002  0.001  0.001   -0.009  0.007  0.002
 H          0.255  0.557  0.783    0.009  0.024  0.032   -0.000 -0.003 -0.003
 H         -0.038  0.001  0.014    0.911 -0.123 -0.378   -0.049  0.000  0.023
 H         -0.001  0.002 -0.001   -0.031  0.040 -0.024   -0.483  0.755 -0.431
 C         -0.001  0.001 -0.000    0.002  0.000 -0.000   -0.001  0.000  0.000
 H         -0.000 -0.004 -0.006   -0.006 -0.009  0.018    0.001  0.003 -0.007
 TransDip  -0.084 -0.074 -0.129   -0.121  0.001  0.034    0.079 -0.123  0.053

 Mode:                31                     32                     33
 Frequency:      3156.60                3256.41                3279.27
 Force Cnst:      6.4087                 6.8098                 6.9432
 Red. Mass:       1.0916                 1.0899                 1.0959
 IR Active:          YES                    YES                    YES
 IR Intens:       11.276                 19.845                  2.371
 Raman Active:       YES                    YES                    YES
               X      Y      Z        X      Y      Z        X      Y      Z
 C          0.003  0.000  0.002   -0.076  0.001 -0.036   -0.020 -0.002 -0.007
 C         -0.069  0.051  0.016   -0.003  0.002  0.001   -0.001  0.002  0.001
 C          0.005  0.003  0.005    0.001  0.000  0.000    0.000  0.000  0.001
 C         -0.000 -0.000 -0.000    0.000  0.000 -0.000    0.003 -0.001  0.001
 C         -0.000 -0.001  0.001    0.001 -0.001  0.000    0.001 -0.001  0.001
 N          0.000 -0.000  0.000    0.000 -0.000  0.000   -0.000 -0.000  0.000
 H         -0.042  0.002 -0.019    0.876 -0.009  0.414    0.203 -0.000  0.093
 H          0.769 -0.595 -0.208    0.032 -0.026 -0.008    0.015 -0.014 -0.005
 H         -0.013 -0.022 -0.032    0.000 -0.002 -0.003    0.001 -0.000  0.002
 H          0.006  0.000 -0.001    0.004 -0.001 -0.000   -0.018  0.003  0.004
 H         -0.006  0.008 -0.005   -0.002  0.004 -0.002   -0.003  0.004 -0.004
 C          0.001 -0.001 -0.000   -0.001 -0.008  0.017    0.007  0.037 -0.078
 H          0.002  0.005 -0.010    0.017  0.093 -0.205   -0.084 -0.406  0.877
 TransDip  -0.067  0.084  0.013   -0.135  0.006 -0.045   -0.019  0.020 -0.041

 STANDARD THERMODYNAMIC QUANTITIES AT   298.15 K  AND     1.00 ATM

   This Molecule has  2 Imaginary Frequencies
   Zero point vibrational energy:       62.123 kcal/mol

   Atom    1 Element C  Has Mass   12.00000
   Atom    2 Element C  Has Mass   12.00000
   Atom    3 Element C  Has Mass   12.00000
   Atom    4 Element C  Has Mass   12.00000
   Atom    5 Element C  Has Mass   12.00000
   Atom    6 Element N  Has Mass   14.00307
   Atom    7 Element H  Has Mass    1.00783
   Atom    8 Element H  Has Mass    1.00783
   Atom    9 Element H  Has Mass    1.00783
   Atom   10 Element H  Has Mass    1.00783
   Atom   11 Element H  Has Mass    1.00783
   Atom   12 Element C  Has Mass   12.00000
   Atom   13 Element H  Has Mass    1.00783
   Molecular Mass:    92.050050 amu
   Principal axes and moments of inertia in amu*Bohr^2:
                             1           2           3
    Eigenvalues --      369.54530   483.32078   589.71676
          X               0.07985     0.97694    -0.19803
          Y               0.99680    -0.07757     0.01928
          Z              -0.00347     0.19894     0.98001
   Rotational Symmetry Number is   1
   The Molecule is an Asymmetric Top
   Translational Enthalpy:        0.889 kcal/mol
   Rotational Enthalpy:           0.889 kcal/mol
   Vibrational Enthalpy:         63.172 kcal/mol
   gas constant (RT):             0.592 kcal/mol
   Translational Entropy:        39.471  cal/mol.K
   Rotational Entropy:           26.157  cal/mol.K
   Vibrational Entropy:           4.656  cal/mol.K

   Total Enthalpy:               65.542 kcal/mol
   Total Entropy:                70.284  cal/mol.K
Archival summary:
1\1\c8-73\FREQ\ProcedureUnspecified\6-31G*\166(2)\hpark21\FriMar412:26:312022FriMar412:26:312022\0\\#,FREQ,ProcedureUnspecified,6-31G*,\\0,2\N\C,1,1.291\H,2,1.09748,1,119.414\C,1,1.43325,2,105.1,3,177.376,0\H,4,1.07963,1,116.899,2,-156.905,0\C,4,1.48199,1,111.327,2,-15.6758,0\H,6,1.0796,4,132.68,1,-140.43,0\C,2,1.49583,1,113.92,3,178.358,0\H,8,1.10897,2,113.798,1,150.249,0\C,4,1.5508,1,116.61,2,61.2752,0\H,10,1.09032,4,112.501,1,118.226,0\C,10,1.41327,4,117.773,1,-42.2575,0\H,12,1.11086,10,121.682,4,146.23,0\\\@

 Total job time:  260.02s(wall), 256.18s(cpu) 
 Fri Mar  4 12:26:31 2022

        *************************************************************
        *                                                           *
        *  Thank you very much for using Q-Chem.  Have a nice day.  *
        *                                                           *
        *************************************************************


