
Running Job 1 of 1 qcts2.in
qchem qcts2.in_3318.0 ./qcts2.d/ 1
/home/leeping/opt/qchem/5.0.2-openmp/exe/qcprog.exe_s qcts2.in_3318.0 ./qcts2.d/
Check license passed

                  Welcome to Q-Chem
     A Quantum Leap Into The Future Of Chemistry


 Q-Chem 5.0, Q-Chem, Inc., Pleasanton, CA (2017)

 Yihan Shao,  Zhengting Gan,  E. Epifanovsky,  A. T. B. Gilbert,  M. Wormit,  
 J. Kussmann,  A. W. Lange,  A. Behn,  Jia Deng,  Xintian Feng,  D. Ghosh,  
 M. Goldey,  P. R. Horn,  L. D. Jacobson,  I. Kaliman,  T. Kus,  A. Landau,  
 Jie Liu,  E. I. Proynov,  R. M. Richard,  R. P. Steele,  E. J. Sundstrom,  
 H. L. Woodcock III,  P. M. Zimmerman,  D. Zuev,  B. Albrecht,  E. Alguire,  
 S. A. Baeppler,  D. Barton,  Z. Benda,  Y. A. Bernard,  E. J. Berquist,  
 K. B. Bravaya,  H. Burton,  D. Casanova,  Chun-Min Chang,  Yunqing Chen,  
 A. Chien,  K. D. Closser,  M. P. Coons,  S. Dasgupta,  A. L. Dempwolff,  
 M. Diedenhofen,  Hainam Do,  R. G. Edgar,  Po-Tung Fang,  S. Fatehi,  
 Qingguo Feng,  J. Fosso-Tande,  Qinghui Ge,  A. Ghysels,  G. Gidofalvi,  
 J. Gomes,  J. Gonthier,  A. Gunina,  M. W. D. Hanson-Heine,  
 P. H. P. Harbach,  A. W. Hauser,  J. E. Herr,  E. G. Hohenstein,  
 Z. C. Holden,  Kerwin Hui,  T.-C. Jagau,  Hyunjun Ji,  B. Kaduk,  
 K. Khistyaev,  Jaehoon Kim,  P. Klunzinger,  K. Koh,  D. Kosenkov,  
 L. Koulias,  T. Kowalczyk,  C. M. Krauter,  A. Kunitsa,  Ka Un Lao,  
 A. Laurent,  K. V. Lawler,  Joonho Lee,  D. Lefrancois,  S. Lehtola,  
 D. S. Levine,  Yi-Pei Li,  You-Sheng Lin,  Fenglai Liu,  E. Livshits,  
 A. Luenser,  P. Manohar,  E. Mansoor,  S. F. Manzer,  Shan-Ping Mao,  
 Yuezhi Mao,  N. Mardirossian,  A. V. Marenich,  T. Markovich,  
 L. A. Martinez-Martinez,  S. A. Maurer,  N. J. Mayhall,  S. C. McKenzie,  
 J.-M. Mewes,  A. F. Morrison,  J. W. Mullinax,  K. Nanda,  
 T. S. Nguyen-Beck,  R. Olivares-Amaya,  J. A. Parkhill,  T. M. Perrine,  
 F. Plasser,  S. Prager,  A. Prociuk,  E. Ramos,  D. R. Rehn,  F. Rob,  
 M. Schneider,  N. Sergueev,  S. M. Sharada,  S. Sharma,  D. W. Small,  
 T. Stauch,  T. Stein,  Yu-Chuan Su,  A. J. W. Thom,  A. Tkatchenko,  
 T. Tsuchimochi,  L. Vogt,  O. Vydrov,  M. A. Watson,  J. Wenzel,  
 M. de Wergifosse,  T. A. Wesolowski,  A. White,  J. Witte,  A. Yamada,  
 Jun Yang,  K. Yao,  S. Yeganeh,  S. R. Yost,  Zhi-Qiang You,  A. Zech,  
 Igor Ying Zhang,  Xing Zhang,  Yan Zhao,  Ying Zhu,  B. R. Brooks,  
 G. K. L. Chan,  C. J. Cramer,  M. S. Gordon,  W. J. Hehre,  A. Klamt,  
 M. W. Schmidt,  C. D. Sherrill,  D. G. Truhlar,  A. Aspuru-Guzik,  R. Baer,  
 A. T. Bell,  N. A. Besley,  Jeng-Da Chai,  R. A. DiStasio Jr.,  A. Dreuw,  
 B. D. Dunietz,  T. R. Furlani,  Chao-Ping Hsu,  Yousung Jung,  Jing Kong,  
 D. S. Lambrecht,  WanZhen Liang,  C. Ochsenfeld,  V. A. Rassolov,  
 L. V. Slipchenko,  J. E. Subotnik,  T. Van Voorhis,  J. M. Herbert,  
 A. I. Krylov,  P. M. W. Gill,  M. Head-Gordon

 Contributors to earlier versions of Q-Chem not listed above: 
 R. D. Adamson,  B. Austin,  J. Baker,  G. J. O. Beran,  K. Brandhorst,  
 S. T. Brown,  E. F. C. Byrd,  A. K. Chakraborty,  C.-L. Cheng,  
 Siu Hung Chien,  D. M. Chipman,  D. L. Crittenden,  H. Dachsel,  
 R. J. Doerksen,  A. D. Dutoi,  L. Fusti-Molnar,  W. A. Goddard III,  
 A. Golubeva-Zadorozhnaya,  S. R. Gwaltney,  G. Hawkins,  A. Heyden,  
 S. Hirata,  G. Kedziora,  F. J. Keil,  C. Kelley,  Jihan Kim,  R. A. King,  
 R. Z. Khaliullin,  P. P. Korambath,  W. Kurlancheek,  A. M. Lee,  M. S. Lee,  
 S. V. Levchenko,  Ching Yeh Lin,  D. Liotard,  R. C. Lochan,  I. Lotan,  
 P. E. Maslen,  N. Nair,  D. P. O'Neill,  D. Neuhauser,  E. Neuscamman,  
 C. M. Oana,  R. Olson,  B. Peters,  R. Peverati,  P. A. Pieniazek,  
 Y. M. Rhee,  J. Ritchie,  M. A. Rohrdanz,  E. Rosta,  N. J. Russ,  
 H. F. Schaefer III,  N. E. Schultz,  N. Shenvi,  A. C. Simmonett,  A. Sodt,  
 D. Stuck,  K. S. Thanthiriwatte,  V. Vanovschi,  Tao Wang,  A. Warshel,  
 C. F. Williams,  Q. Wu,  X. Xu,  W. Zhang

 Please cite Q-Chem as follows:
 Y. Shao et al., Mol. Phys. 113, 184-215 (2015)
 DOI: 10.1080/00268976.2014.952696

 Q-Chem 5.0.2 for Intel X86 EM64T Linux

 Parts of Q-Chem use Armadillo 5.200.1 (Boston Tea Smuggler).
 http://arma.sourceforge.net/

 Q-Chem begins on Fri Mar  4 12:34:08 2022  

Host: 
0

     Scratch files written to ./qcts2.d//
 Dec517 15110_ 26548  26544 5633   
Processing $rem in /home/leeping/opt/qchem/5.0.2-openmp/config/preferences.
 MEM_STATIC 2000
 MEM_TOTAL  8000
 SYMMETRY   OFF
 SYM_IGNORE TRUE 

Checking the input file for inconsistencies... 	...done.

--------------------------------------------------------------
User input:
--------------------------------------------------------------
$molecule
0 2
C        1.1765739846    0.2841915378    0.3673198532
C        0.7645724161   -0.9992421186   -0.3524262301
C       -0.5556124114   -0.9322060329   -0.8198171957
C       -1.0775357045    0.1591578107    0.1126633696
C       -0.4838009420    1.4614867737   -0.4308332550
N        0.7935170019    1.5227590369   -0.3250521132
H        2.1730477493    0.2851892528    0.8020325173
H        1.4794242213   -1.8037937785   -0.5077299310
H       -1.0651906309   -1.5244964285   -1.5678084166
H       -2.1351799942    0.1486692953    0.3774027606
H       -1.0525514937    2.2177302121   -0.9695750721
C        0.0071944864   -0.1893181727    1.1559297967
H       -0.0678313775   -0.6583816552    2.1268499531
$end

$rem
method                b3lyp
basis                 6-31+g(d,p)
unrestricted          true
symmetry              off
sym_ignore            true
incdft                false
incfock               0
scf_convergence       8
thresh                14
jobtype               sp
scf_guess             core
scf_guess_mix         5
scf_algorithm         diis
max_scf_cycles        100
$end

--------------------------------------------------------------
 ----------------------------------------------------------------
             Standard Nuclear Orientation (Angstroms)
    I     Atom           X                Y                Z
 ----------------------------------------------------------------
    1      C       1.1765739846     0.2841915378     0.3673198532
    2      C       0.7645724161    -0.9992421186    -0.3524262301
    3      C      -0.5556124114    -0.9322060329    -0.8198171957
    4      C      -1.0775357045     0.1591578107     0.1126633696
    5      C      -0.4838009420     1.4614867737    -0.4308332550
    6      N       0.7935170019     1.5227590369    -0.3250521132
    7      H       2.1730477493     0.2851892528     0.8020325173
    8      H       1.4794242213    -1.8037937785    -0.5077299310
    9      H      -1.0651906309    -1.5244964285    -1.5678084166
   10      H      -2.1351799942     0.1486692953     0.3774027606
   11      H      -1.0525514937     2.2177302121    -0.9695750721
   12      C       0.0071944864    -0.1893181727     1.1559297967
   13      H      -0.0678313775    -0.6583816552     2.1268499531
 ----------------------------------------------------------------
 Nuclear Repulsion Energy =   281.0873408153 hartrees
 There are       25 alpha and       24 beta electrons
 Requested basis set is 6-31+G(d,p)
 There are 53 shells and 163 basis functions

 Total QAlloc Memory Limit   8000 MB
 Mega-Array Size      1956 MB
 MEM_STATIC part      2000 MB

                       Distance Matrix (Angstroms)
             C (  1)   C (  2)   C (  3)   C (  4)   C (  5)   N (  6)
   C (  2)  1.528065
   C (  3)  2.426806  1.402083
   C (  4)  2.271892  2.225210  1.527416
   C (  5)  2.186302  2.760393  2.426156  1.531003
   N (  6)  1.469749  2.522316  2.844608  2.356235  1.283154
   H (  7)  1.087169  2.228529  3.399711  3.325268  3.156339  2.169102
   H (  8)  2.284100  1.087399  2.235719  3.282699  3.810803  3.401440
   H (  9)  3.470098  2.258557  1.081651  2.378829  3.247587  3.779551
   H ( 10)  3.314541  3.202954  2.257579  1.090325  2.259156  3.310413
   H ( 11)  3.239577  3.745894  3.192409  2.325851  1.088864  2.075178
   C ( 12)  1.487806  1.872094  2.184539  1.544824  2.341805  2.396418
   H ( 13)  2.352219  2.637403  2.999293  2.396836  3.347927  3.392804
             H (  7)   H (  8)   H (  9)   H ( 10)   H ( 11)   C ( 12)
   H (  8)  2.561336
   H (  9)  4.401965  2.770711
   H ( 10)  4.331256  4.202492  2.779965
   H ( 11)  4.156657  4.774605  3.789763  2.695820
   C ( 12)  2.245289  2.746226  3.217369  2.304367  3.381525
   H ( 13)  2.768936  3.262971  3.923695  2.825921  4.339302  1.080896

 
 A cutoff of  1.0D-14 yielded   1405 shell pairs
 There are     13515 function pairs
 
 -------------------------------------------------------
 OpenMP Integral Computing Module                       
 Release: version 1.0, May 2013, Q-Chem Inc. Pittsburgh 
 -------------------------------------------------------
 Integral Job Info:
 Integral job number is                      11
 Integral operator is                         1
 short-range coefficients                     0
 long-range coefficients              100000000
 Omega coefficients                           0
 if combine SR and LR in K                    0
 Integral screening is                        0
 Integral computing path is                   2
 max size of driver memory is            800000
 size of driver memory is                593474
 size of scratch memory is              2361544
 max col of scratch BK array               1296
 max len of scratch array in speh3          155
 max len of scratch index in speh4           18
 max int batch size is                      520
 min int batch size is                       52
 fixed nKL is                                52
 max L of basis functions is                  2
 order of int derivative is                   0
 number of shells is                         53
 number of basis is                         163
 number of cartesian basis is               163
 number of contracted shell pairs          1405
 number of primitive shell pairs           4832
 maxK2 (contraction) of shell pair           36
 max number of K2 of shell pair               1
 max number of CS2 of shell pair            126
 max number of PS2 of shell pair            702
 mem total for path MDJ                  535308
 -------------------------------------------------------
 Smallest overlap matrix eigenvalue = 2.74E-05

 Scale SEOQF with 1.000000e-01/1.000000e-01/1.000000e-01

 Standard Electronic Orientation quadrupole field applied
 Nucleus-field energy     =     0.0000000025 hartrees
 Guess MOs from core Hamiltonian diagonalization
 Mixing HOMO and LUMO in initial guess
 Adding  50% of the LUMO to the HOMO
 An unrestricted hybrid HF-DFT SCF calculation will be
 performed using Pulay DIIS extrapolation
 Exchange:     0.2000 Hartree-Fock + 0.0800 Slater + 0.7200 B88
 Correlation:  0.1900 VWN1RPA + 0.8100 LYP
 Using SG-1 standard quadrature grid
 SCF converges when DIIS error is below 1.0E-08
 using 4 threads for integral computing
 -------------------------------------------------------
 OpenMP Integral computing Module                
 Release: version 1.0, May 2013, Q-Chem Inc. Pittsburgh 
 -------------------------------------------------------
 -------------------------------------------------------
 OpenMP BLAS3 based DFT computing Module                
 Release: version 1.0, May 2013, Q-Chem Inc. Pittsburgh 
 -------------------------------------------------------
 ---------------------------------------
  Cycle       Energy         DIIS Error
 ---------------------------------------
    1    -235.5720854931      9.87E-02
    2    -211.6560840504      7.26E-02
    3    -254.5380285516      7.68E-02
    4    -280.1637759683      3.76E-02
    5    -282.3168429459      3.18E-02
    6    -285.6730926519      1.67E-02
    7    -286.6377146079      7.09E-03
    8    -286.7681062595      4.69E-03
    9    -286.8444044768      5.83E-04
   10    -286.8464175113      3.61E-04
   11    -286.8471173351      1.46E-04
   12    -286.8473329958      5.64E-05
   13    -286.8474365988      5.16E-05
   14    -286.8474906286      1.65E-05
   15    -286.8475003545      8.88E-06
   16    -286.8475016917      4.00E-06
   17    -286.8475022759      8.14E-07
   18    -286.8475023131      1.69E-07
   19    -286.8475023223      8.38E-08
   20    -286.8475023268      3.79E-08
   21    -286.8475023275      1.54E-08
   22    -286.8475023276      6.17E-09 Convergence criterion met
 ---------------------------------------
 <S^2> = 0.7779
 SCF time:  CPU 110.77 s  wall 28.54 s
 SCF   energy in the final basis set = -286.84750233
 Total energy in the final basis set = -286.84750233
 
 --------------------------------------------------------------
 
                    Orbital Energies (a.u.)
 --------------------------------------------------------------
 
 Alpha MOs
 -- Occupied --
-14.330 -10.235 -10.230 -10.228 -10.225 -10.221 -10.207  -0.973
 -0.850  -0.750  -0.696  -0.601  -0.585  -0.547  -0.522  -0.473
 -0.444  -0.425  -0.408  -0.378  -0.356  -0.296  -0.284  -0.278
 -0.158
 -- Virtual --
 -0.017  -0.010   0.001   0.018   0.028   0.033   0.046   0.048
  0.062   0.071   0.074   0.095   0.100   0.107   0.109   0.118
  0.124   0.129   0.141   0.153   0.165   0.178   0.180   0.185
  0.192   0.196   0.207   0.218   0.225   0.234   0.241   0.251
  0.259   0.267   0.281   0.287   0.309   0.314   0.332   0.368
  0.372   0.383   0.407   0.455   0.629   0.668   0.676   0.695
  0.699   0.716   0.725   0.735   0.745   0.753   0.776   0.793
  0.807   0.814   0.858   0.898   0.917   0.935   0.954   1.001
  1.017   1.034   1.048   1.068   1.083   1.087   1.103   1.141
  1.201   1.216   1.336   1.340   1.385   1.423   1.436   1.485
  1.555   1.616   1.625   1.692   1.723   1.762   1.818   1.869
  1.882   1.908   1.952   1.976   2.044   2.091   2.103   2.129
  2.152   2.212   2.219   2.278   2.306   2.327   2.363   2.400
  2.407   2.438   2.448   2.484   2.506   2.516   2.536   2.554
  2.568   2.602   2.618   2.654   2.686   2.704   2.743   2.780
  2.848   2.858   2.980   3.072   3.082   3.293   3.317   3.326
  3.506   3.599   3.682   4.171   4.412   4.486   4.571   4.618
  4.694   4.831
 
 Beta MOs
 -- Occupied --
-14.329 -10.235 -10.231 -10.230 -10.222 -10.217 -10.197  -0.969
 -0.842  -0.747  -0.684  -0.597  -0.577  -0.541  -0.519  -0.464
 -0.441  -0.419  -0.406  -0.373  -0.351  -0.287  -0.275  -0.265
 -- Virtual --
 -0.055  -0.009  -0.002   0.003   0.019   0.031   0.038   0.047
  0.049   0.063   0.072   0.077   0.096   0.101   0.108   0.109
  0.119   0.128   0.131   0.142   0.153   0.164   0.179   0.181
  0.188   0.195   0.197   0.208   0.223   0.228   0.237   0.242
  0.254   0.260   0.272   0.282   0.288   0.312   0.316   0.334
  0.372   0.376   0.385   0.411   0.457   0.633   0.674   0.679
  0.699   0.711   0.728   0.734   0.746   0.749   0.759   0.783
  0.796   0.809   0.817   0.859   0.903   0.919   0.938   0.956
  1.005   1.021   1.037   1.050   1.070   1.087   1.093   1.109
  1.149   1.207   1.220   1.339   1.346   1.387   1.429   1.441
  1.489   1.563   1.622   1.634   1.698   1.731   1.765   1.828
  1.874   1.889   1.914   1.956   1.980   2.050   2.101   2.108
  2.132   2.161   2.220   2.228   2.284   2.312   2.330   2.367
  2.405   2.411   2.445   2.454   2.487   2.509   2.522   2.543
  2.557   2.572   2.610   2.620   2.663   2.693   2.707   2.746
  2.784   2.853   2.861   2.982   3.075   3.084   3.294   3.320
  3.328   3.507   3.602   3.686   4.173   4.422   4.486   4.584
  4.625   4.696   4.835
 --------------------------------------------------------------
 
          Ground-State Mulliken Net Atomic Charges

     Atom                 Charge (a.u.)    Spin (a.u.)
  --------------------------------------------------------
      1 C                    -0.134962      -0.019401
      2 C                    -0.100666      -0.236941
      3 C                    -0.145413       0.721021
      4 C                     0.007898      -0.101897
      5 C                    -0.071584      -0.001898
      6 N                    -0.178999       0.062521
      7 H                     0.138685       0.004555
      8 H                     0.138984       0.010779
      9 H                     0.138625      -0.026685
     10 H                     0.129377       0.011031
     11 H                     0.132185       0.001599
     12 C                    -0.200985       0.600916
     13 H                     0.146854      -0.025599
  --------------------------------------------------------
  Sum of atomic charges =    -0.000000
  Sum of spin   charges =     1.000000

 -----------------------------------------------------------------
                    Cartesian Multipole Moments
 -----------------------------------------------------------------
    Charge (ESU x 10^10)
                 0.0000
    Dipole Moment (Debye)
         X      -1.2819      Y      -2.0710      Z       0.8464
       Tot       2.5785
    Quadrupole Moments (Debye-Ang)
        XX     -38.9296     XY      -5.0436     YY     -44.9881
        XZ       2.2691     YZ       0.5908     ZZ     -41.4689
    Octopole Moments (Debye-Ang^2)
       XXX      -9.2220    XXY     -10.3340    XYY     -10.3959
       YYY     -26.2527    XXZ       3.8205    XYZ       2.9668
       YYZ      -1.5009    XZZ      -5.2565    YZZ     -10.4247
       ZZZ       9.4903
    Hexadecapole Moments (Debye-Ang^3)
      XXXX    -225.3017   XXXY     -10.0675   XXYY     -94.6861
      XYYY     -27.6111   YYYY    -325.8299   XXXZ      -7.3764
      XXYZ       4.8694   XYYZ       3.1462   YYYZ       4.7517
      XXZZ     -68.1048   XYZZ      -0.9845   YYZZ     -77.6449
      XZZZ     -10.0431   YZZZ      -1.9952   ZZZZ    -172.3842
 -----------------------------------------------------------------
Archival summary:
1\1\c8-73\SP\ProcedureUnspecified\6-31+G**\166(2)\hpark21\FriMar412:34:372022FriMar412:34:372022\0\\#,ProcedureUnspecified,6-31+G**,\\0,2\N\C,1,1.28315\H,2,1.08886,1,121.842\C,1,1.46975,2,104.954,3,-175.639,0\H,4,1.08717,1,115.244,2,-162.929,0\C,4,1.48781,1,108.243,2,-24.5416,0\H,6,1.0809,4,131.973,1,-142.663,0\C,4,1.52806,1,114.559,2,58.8474,0\H,8,1.0874,4,120.761,1,131.217,0\C,8,1.40208,4,111.761,1,-45.0463,0\H,10,1.08165,8,130.386,4,161.91,0\C,10,1.52742,8,98.7657,4,-21.8336,0\H,12,1.09032,10,118.218,8,-150.761,0\\\@

 Total job time:  29.27s(wall), 112.21s(cpu) 
 Fri Mar  4 12:34:37 2022

        *************************************************************
        *                                                           *
        *  Thank you very much for using Q-Chem.  Have a nice day.  *
        *                                                           *
        *************************************************************


